<event>
 6    4  0.3995738E-003  0.1269591E+03  0.7818608E-02  0.1232039E+00
         -4   -1    0    0    0  501 -0.00000000000E+00  0.00000000000E+00  0.49431234863E+03  0.49431398009E+03  0.12700000000E+01 0.  1.
         21   -1    0    0  501  502  0.00000000000E+00 -0.00000000000E+00 -0.28220932383E+02  0.28220932383E+02  0.00000000000E+00 0. -1.
         25    2    1    2    0    0  0.20834448762E+02 -0.77615835962E+01  0.47984776103E+03  0.49635922993E+03  0.12499717971E+03 0.  0.
    9000005    1    3    3    0    0  0.48076541049E+02 -0.54530013764E+02  0.26423616874E+03  0.27405588677E+03  0.10000000000E+01 0.  0.
    9000005    1    3    3    0    0 -0.27242092288E+02  0.46768430168E+02  0.21561159229E+03  0.22230334316E+03  0.10000000000E+01 0.  0.
         -4    1    1    2    0  502 -0.20834448762E+02  0.77615835962E+01 -0.13756344776E+02  0.26175682545E+02  0.12700000000E+01 0. -1.
<mgrwt>
<rscale>  1 0.12695909E+03</rscale>
<asrwt>0</asrwt>
<pdfrwt beam="2">  1       21 0.43416823E-02 0.12695909E+03</pdfrwt>
<pdfrwt beam="1">  1       -4 0.76050371E-01 0.12695909E+03</pdfrwt>
<totfact> 0.21896044E+04</totfact>
</mgrwt>
</event>
<event>
 6    4  0.3995738E-003  0.1308811E+03  0.7818608E-02  0.1226154E+00
         -4   -1    0    0    0  501 -0.00000000000E+00  0.00000000000E+00  0.76306683198E+02  0.76317251003E+02  0.12700000000E+01 0. -1.
         21   -1    0    0  501  502  0.00000000000E+00 -0.00000000000E+00 -0.55479599918E+03  0.55479599918E+03  0.00000000000E+00 0.  1.
         25    2    1    2    0    0  0.16047998939E+01 -0.38761396438E+02  0.18876285676E+02  0.13223533340E+03  0.12499939201E+03 0.  0.
    9000005    1    3    3    0    0  0.88129688540E+01  0.32841108957E+02 -0.29902004151E+02  0.45291684775E+02  0.10000000000E+01 0.  0.
    9000005    1    3    3    0    0 -0.72081689601E+01 -0.71602505395E+02  0.48778289826E+02  0.86943648629E+02  0.10000000000E+01 0.  0.
         -4    1    1    2    0  502 -0.16047998939E+01  0.38761396438E+02 -0.49736560165E+03  0.49887791678E+03  0.12700000000E+01 0.  1.
<mgrwt>
<rscale>  1 0.13088113E+03</rscale>
<asrwt>0</asrwt>
<pdfrwt beam="2">  1       21 0.85353230E-01 0.13088113E+03</pdfrwt>
<pdfrwt beam="1">  1       -4 0.11740415E-01 0.13088113E+03</pdfrwt>
<totfact> 0.28490927E+03</totfact>
</mgrwt>
</event>
<event>
 6    4  0.3995738E-003  0.1339617E+03  0.7818608E-02  0.1221693E+00
         -4   -1    0    0    0  501 -0.00000000000E+00  0.00000000000E+00  0.11880422626E+04  0.11880429414E+04  0.12700000000E+01 0. -1.
         21   -1    0    0  501  502  0.00000000000E+00 -0.00000000000E+00 -0.21886051469E+02  0.21886051469E+02  0.00000000000E+00 0.  1.
         25    2    1    2    0    0 -0.29731350533E+02 -0.37903951761E+02  0.11519155386E+04  0.11596788942E+04  0.12500026742E+03 0.  0.
    9000005    1    3    3    0    0 -0.34048447395E+02 -0.81067945491E+02  0.87166939748E+03  0.87609351502E+03  0.10000000000E+01 0.  0.
    9000005    1    3    3    0    0  0.43170968618E+01  0.43163993731E+02  0.28024614107E+03  0.28358537915E+03  0.10000000000E+01 0.  0.
         -4    1    1    2    0  502  0.29731350533E+02  0.37903951761E+02  0.14240672565E+02  0.50250098694E+02  0.12700000000E+01 0.  1.
<mgrwt>
<rscale>  1 0.13396167E+03</rscale>
<asrwt>0</asrwt>
<pdfrwt beam="2">  1       21 0.33670858E-02 0.13396167E+03</pdfrwt>
<pdfrwt beam="1">  1       -4 0.18277857E+00 0.13396167E+03</pdfrwt>
<totfact> 0.40436763E+03</totfact>
</mgrwt>
</event>
<event>
 6    4  0.3995738E-003  0.1267505E+03  0.7818608E-02  0.1232359E+00
         -4   -1    0    0    0  501 -0.00000000000E+00  0.00000000000E+00  0.65354633192E+03  0.65354756588E+03  0.12700000000E+01 0. -1.
         21   -1    0    0  501  502  0.00000000000E+00 -0.00000000000E+00 -0.84026786205E+01  0.84026786205E+01  0.00000000000E+00 0. -1.
         25    2    1    2    0    0  0.10120584754E+02  0.18356458696E+02  0.57035567846E+03  0.58426987445E+03  0.12500520156E+03 0.  0.
    9000005    1    3    3    0    0  0.61496443197E+02 -0.11844280231E+02  0.21452164686E+03  0.22347849219E+03  0.10000000000E+01 0.  0.
    9000005    1    3    3    0    0 -0.51375858443E+02  0.30200738927E+02  0.35583403160E+03  0.36079138225E+03  0.10000000000E+01 0.  0.
         -4    1    1    2    0  502 -0.10120584754E+02 -0.18356458696E+02  0.74787974839E+02  0.77680370056E+02  0.12700000000E+01 0.  1.
<mgrwt>
<rscale>  1 0.12675049E+03</rscale>
<asrwt>0</asrwt>
<pdfrwt beam="2">  1       21 0.12927203E-02 0.12675049E+03</pdfrwt>
<pdfrwt beam="1">  1       -4 0.10055303E+00 0.12675049E+03</pdfrwt>
<totfact> 0.83727191E+04</totfact>
</mgrwt>
</event>
<event>
 6    4  0.3995738E-003  0.1268493E+03  0.7818608E-02  0.1232207E+00
          4   -1    0    0  502    0 -0.00000000000E+00  0.00000000000E+00  0.74746548699E+02  0.74757337047E+02  0.12700000000E+01 0.  1.
         21   -1    0    0  501  502  0.00000000000E+00 -0.00000000000E+00 -0.10933342994E+03  0.10933342994E+03  0.00000000000E+00 0. -1.
         25    2    1    2    0    0 -0.17202719138E+02  0.12841231667E+02  0.17206019693E+02  0.12801092869E+03  0.12501967835E+03 0.  0.
    9000005    1    3    3    0    0 -0.57958339231E+02 -0.31697313402E+02  0.38987170459E+01  0.66182238991E+02  0.10000000000E+01 0.  0.
    9000005    1    3    3    0    0  0.40755620093E+02  0.44538545069E+02  0.13307302647E+02  0.61828689698E+02  0.10000000000E+01 0.  0.
          4    1    1    2  501    0  0.17202719138E+02 -0.12841231667E+02 -0.51792900939E+02  0.56079838303E+02  0.12700000000E+01 0. -1.
<mgrwt>
<rscale>  1 0.12684932E+03</rscale>
<asrwt>0</asrwt>
<pdfrwt beam="2">  1       21 0.16820528E-01 0.12684932E+03</pdfrwt>
<pdfrwt beam="1">  1        4 0.11500866E-01 0.12684932E+03</pdfrwt>
<totfact> 0.76176322E+04</totfact>
</mgrwt>
</event>
<event>
 6    4  0.3995738E-003  0.2011215E+03  0.7818608E-02  0.1148796E+00
         -4   -1    0    0    0  501 -0.00000000000E+00  0.00000000000E+00  0.17397645939E+03  0.17398109472E+03  0.12700000000E+01 0.  1.
         21   -1    0    0  501  502  0.00000000000E+00 -0.00000000000E+00 -0.35787849028E+03  0.35787849028E+03  0.00000000000E+00 0. -1.
         25    2    1    2    0    0  0.81461741560E+02 -0.13486154482E+03  0.86474501750E+02  0.21892391443E+03  0.12500475691E+03 0.  0.
    9000005    1    3    3    0    0 -0.17786897357E+02 -0.90366950765E+02  0.34281425434E+02  0.98279070192E+02  0.10000000000E+01 0.  0.
    9000005    1    3    3    0    0  0.99248638916E+02 -0.44494594054E+02  0.52193076316E+02  0.12064484424E+03  0.10000000000E+01 0.  0.
         -4    1    1    2    0  502 -0.81461741560E+02  0.13486154482E+03 -0.27037653264E+03  0.31293567057E+03  0.12700000000E+01 0. -1.
<mgrwt>
<rscale>  1 0.20112146E+03</rscale>
<asrwt>0</asrwt>
<pdfrwt beam="2">  1       21 0.55058229E-01 0.20112146E+03</pdfrwt>
<pdfrwt beam="1">  1       -4 0.26766139E-01 0.20112146E+03</pdfrwt>
<totfact> 0.17266759E+03</totfact>
</mgrwt>
</event>
<event>
 6    4  0.3995738E-003  0.1311499E+03  0.7818608E-02  0.1225759E+00
          4   -1    0    0  502    0 -0.00000000000E+00  0.00000000000E+00  0.14951780078E+03  0.14952319435E+03  0.12700000000E+01 0.  1.
         21   -1    0    0  501  502  0.00000000000E+00 -0.00000000000E+00 -0.49133920146E+02  0.49133920146E+02  0.00000000000E+00 0.  1.
         25    2    1    2    0    0 -0.50343911123E+01  0.39368396554E+02  0.83716892727E+02  0.15559184860E+03  0.12500035793E+03 0.  0.
    9000005    1    3    3    0    0 -0.14882705038E+02 -0.44326518954E+02  0.32845731584E+02  0.57150479221E+02  0.10000000000E+01 0.  0.
    9000005    1    3    3    0    0  0.98483139259E+01  0.83694915508E+02  0.50871161143E+02  0.98441369379E+02  0.10000000000E+01 0.  0.
          4    1    1    2  501    0  0.50343911123E+01 -0.39368396554E+02  0.16666987902E+02  0.43065265898E+02  0.12700000000E+01 0. -1.
<mgrwt>
<rscale>  1 0.13114993E+03</rscale>
<asrwt>0</asrwt>
<pdfrwt beam="2">  1       21 0.75590647E-02 0.13114993E+03</pdfrwt>
<pdfrwt beam="1">  1        4 0.23004416E-01 0.13114993E+03</pdfrwt>
<totfact> 0.92724548E+04</totfact>
</mgrwt>
</event>
<event>
 6    4  0.3995738E-003  0.1295203E+03  0.7818608E-02  0.1228169E+00
         21   -1    0    0  501  502  0.00000000000E+00  0.00000000000E+00  0.82713177578E+02  0.82713177578E+02  0.00000000000E+00 0.  1.
         -4   -1    0    0    0  501 -0.00000000000E+00 -0.00000000000E+00 -0.80912389941E+02  0.80922356280E+02  0.12700000000E+01 0.  1.
         25    2    1    2    0    0  0.33774997361E+02 -0.36244043230E+01 -0.10391868534E+01  0.12952446368E+03  0.12498647939E+03 0.  0.
    9000005    1    3    3    0    0  0.99978909774E+01  0.44159248485E+02  0.41376159027E+02  0.61343162508E+02  0.10000000000E+01 0.  0.
    9000005    1    3    3    0    0  0.23777106383E+02 -0.47783652808E+02 -0.42415345880E+02  0.68181301174E+02  0.10000000000E+01 0.  0.
         -4    1    1    2    0  502 -0.33774997361E+02  0.36244043230E+01  0.28399744904E+01  0.34111070175E+02  0.12700000000E+01 0. -1.
<mgrwt>
<rscale>  1 0.12952029E+03</rscale>
<asrwt>0</asrwt>
<pdfrwt beam="1">  1       21 0.12725104E-01 0.12952029E+03</pdfrwt>
<pdfrwt beam="2">  1       -4 0.12449577E-01 0.12952029E+03</pdfrwt>
<totfact> 0.11022550E+05</totfact>
</mgrwt>
</event>
<event>
 6    4  0.3995738E-003  0.1288795E+03  0.7818608E-02  0.1229128E+00
         21   -1    0    0  501  502  0.00000000000E+00  0.00000000000E+00  0.10628862819E+03  0.10628862819E+03  0.00000000000E+00 0. -1.
          4   -1    0    0  502    0 -0.00000000000E+00 -0.00000000000E+00 -0.82619978472E+02  0.82629738852E+02  0.12700000000E+01 0. -1.
         25    2    1    2    0    0 -0.50372046153E+01  0.30978663259E+02 -0.24719629735E+02  0.13122877096E+03  0.12499951690E+03 0.  0.
    9000005    1    3    3    0    0  0.18768613356E+02 -0.37987460666E+02  0.18695860394E+02  0.46323246983E+02  0.10000000000E+01 0.  0.
    9000005    1    3    3    0    0 -0.23805817971E+02  0.68966123926E+02 -0.43415490128E+02  0.84905523976E+02  0.10000000000E+01 0.  0.
          4    1    1    2  501    0  0.50372046153E+01 -0.30978663259E+02  0.48388279449E+02  0.57689596078E+02  0.12700000000E+01 0.  1.
<mgrwt>
<rscale>  1 0.12887952E+03</rscale>
<asrwt>0</asrwt>
<pdfrwt beam="1">  1       21 0.16352097E-01 0.12887952E+03</pdfrwt>
<pdfrwt beam="2">  1        4 0.12712100E-01 0.12887952E+03</pdfrwt>
<totfact> 0.67714711E+04</totfact>
</mgrwt>
</event>
<event>
 6    4  0.3995738E-003  0.1282702E+03  0.7818608E-02  0.1230045E+00
          4   -1    0    0  502    0 -0.00000000000E+00  0.00000000000E+00  0.12685229334E+03  0.12685865057E+03  0.12700000000E+01 0. -1.
         21   -1    0    0  501  502  0.00000000000E+00 -0.00000000000E+00 -0.67329324023E+02  0.67329324023E+02  0.00000000000E+00 0.  1.
         25    2    1    2    0    0  0.58758113309E+01  0.28164365311E+02  0.86513253553E+02  0.15471842968E+03  0.12500197123E+03 0.  0.
    9000005    1    3    3    0    0  0.57174796479E+02  0.12460564835E+02  0.82174133628E+02  0.10088513897E+03  0.10000000000E+01 0.  0.
    9000005    1    3    3    0    0 -0.51298985148E+02  0.15703800476E+02  0.43391199251E+01  0.53833290707E+02  0.10000000000E+01 0.  0.
          4    1    1    2  501    0 -0.58758113309E+01 -0.28164365311E+02 -0.26990284241E+02  0.39469544912E+02  0.12700000000E+01 0.  1.
<mgrwt>
<rscale>  1 0.12827022E+03</rscale>
<asrwt>0</asrwt>
<pdfrwt beam="2">  1       21 0.10358358E-01 0.12827022E+03</pdfrwt>
<pdfrwt beam="1">  1        4 0.19517148E-01 0.12827022E+03</pdfrwt>
<totfact> 0.72033074E+04</totfact>
</mgrwt>
</event>
<event>
 6    4  0.3995738E-003  0.1359033E+03  0.7818608E-02  0.1218950E+00
         21   -1    0    0  501  502  0.00000000000E+00  0.00000000000E+00  0.12762289991E+03  0.12762289991E+03  0.00000000000E+00 0.  1.
         -4   -1    0    0    0  501 -0.00000000000E+00 -0.00000000000E+00 -0.13524785381E+03  0.13525381644E+03  0.12700000000E+01 0. -1.
         25    2    1    2    0    0 -0.12765563918E+01 -0.53347953051E+02 -0.91230170855E+02  0.16368458515E+03  0.12498826205E+03 0.  0.
    9000005    1    3    3    0    0 -0.61172416725E+02 -0.42378266739E+02 -0.57641751504E+02  0.94135825148E+02  0.10000000000E+01 0.  0.
    9000005    1    3    3    0    0  0.59895860333E+02 -0.10969686312E+02 -0.33588419351E+02  0.69548759999E+02  0.10000000000E+01 0.  0.
         -4    1    1    2    0  502  0.12765563918E+01  0.53347953051E+02  0.83605216951E+02  0.99192131202E+02  0.12700000000E+01 0.  1.
<mgrwt>
<rscale>  1 0.13590327E+03</rscale>
<asrwt>0</asrwt>
<pdfrwt beam="1">  1       21 0.19634292E-01 0.13590327E+03</pdfrwt>
<pdfrwt beam="2">  1       -4 0.20808307E-01 0.13590327E+03</pdfrwt>
<totfact> 0.20469644E+04</totfact>
</mgrwt>
</event>
<event>
 6    4  0.3995738E-003  0.1899070E+03  0.7818608E-02  0.1158545E+00
          4   -1    0    0  502    0 -0.00000000000E+00  0.00000000000E+00  0.77200609504E+03  0.77200713965E+03  0.12700000000E+01 0.  1.
         21   -1    0    0  501  502  0.00000000000E+00 -0.00000000000E+00 -0.28787133585E+03  0.28787133585E+03  0.00000000000E+00 0. -1.
         25    2    1    2    0    0 -0.23369735724E+02  0.14104866228E+03  0.74151758412E+03  0.76544953476E+03  0.12499517203E+03 0.  0.
    9000005    1    3    3    0    0  0.33298458859E+01 -0.10386541714E+02  0.33774519904E+01  0.11461906663E+02  0.10000000000E+01 0.  0.
    9000005    1    3    3    0    0 -0.26699581610E+02  0.15143520400E+03  0.73814013213E+03  0.75398762810E+03  0.10000000000E+01 0.  0.
          4    1    1    2  501    0  0.23369735724E+02 -0.14104866228E+03 -0.25738282492E+03  0.29442894074E+03  0.12700000000E+01 0. -1.
<mgrwt>
<rscale>  1 0.18990698E+03</rscale>
<asrwt>0</asrwt>
<pdfrwt beam="2">  1       21 0.44287898E-01 0.18990698E+03</pdfrwt>
<pdfrwt beam="1">  1        4 0.11877046E+00 0.18990698E+03</pdfrwt>
<totfact> 0.11709974E+02</totfact>
</mgrwt>
</event>
<event>
 6    4  0.3995738E-003  0.1585370E+03  0.7818608E-02  0.1190358E+00
          4   -1    0    0  502    0 -0.00000000000E+00  0.00000000000E+00  0.26890566289E+02  0.26920539656E+02  0.12700000000E+01 0. -1.
         21   -1    0    0  501  502  0.00000000000E+00 -0.00000000000E+00 -0.75703965404E+03  0.75703965404E+03  0.00000000000E+00 0.  1.
         25    2    1    2    0    0  0.97502778663E+02  0.14467613085E+01 -0.26586993695E+03  0.30954937200E+03  0.12500042149E+03 0.  0.
    9000005    1    3    3    0    0  0.25538610700E+01 -0.38129559827E+02 -0.14912740800E+03  0.15394924279E+03  0.10000000000E+01 0.  0.
    9000005    1    3    3    0    0  0.94948917593E+02  0.39576321135E+02 -0.11674252895E+03  0.15560012921E+03  0.10000000000E+01 0.  0.
          4    1    1    2  501    0 -0.97502778663E+02 -0.14467613085E+01 -0.46427915080E+03  0.47441082169E+03  0.12700000000E+01 0.  1.
<mgrwt>
<rscale>  1 0.15853703E+03</rscale>
<asrwt>0</asrwt>
<pdfrwt beam="2">  1       21 0.11646764E+00 0.15853703E+03</pdfrwt>
<pdfrwt beam="1">  1        4 0.41393977E-02 0.15853703E+03</pdfrwt>
<totfact> 0.76986258E+03</totfact>
</mgrwt>
</event>
<event>
 6    4  0.3995738E-003  0.1280347E+03  0.7818608E-02  0.1230401E+00
         21   -1    0    0  501  502  0.00000000000E+00  0.00000000000E+00  0.67694924423E+01  0.67694924423E+01  0.00000000000E+00 0. -1.
         -4   -1    0    0    0  501 -0.00000000000E+00 -0.00000000000E+00 -0.98594798679E+03  0.98594880473E+03  0.12700000000E+01 0. -1.
         25    2    1    2    0    0 -0.27676165120E+02  0.13567585435E+01 -0.89438981551E+03  0.90350762591E+03  0.12500030829E+03 0.  0.
    9000005    1    3    3    0    0  0.10903527359E+02  0.23055735722E+01 -0.34178963126E+01  0.11699768954E+02  0.10000000000E+01 0.  0.
    9000005    1    3    3    0    0 -0.38579692479E+02 -0.94881502872E+00 -0.89097191920E+03  0.89180785695E+03  0.10000000000E+01 0.  0.
         -4    1    1    2    0  502  0.27676165120E+02 -0.13567585435E+01 -0.84788678836E+02  0.89210671269E+02  0.12700000000E+01 0.  1.
<mgrwt>
<rscale>  1 0.12803471E+03</rscale>
<asrwt>0</asrwt>
<pdfrwt beam="1">  1       21 0.10414604E-02 0.12803471E+03</pdfrwt>
<pdfrwt beam="2">  1       -4 0.15169353E+00 0.12803471E+03</pdfrwt>
<totfact> 0.43632887E+04</totfact>
</mgrwt>
</event>
<event>
 6    4  0.3995738E-003  0.1411334E+03  0.7818608E-02  0.1211812E+00
          4   -1    0    0  502    0 -0.00000000000E+00  0.00000000000E+00  0.87091268334E+03  0.87091360932E+03  0.12700000000E+01 0. -1.
         21   -1    0    0  501  502  0.00000000000E+00 -0.00000000000E+00 -0.13096507386E+02  0.13096507386E+02  0.00000000000E+00 0.  1.
         25    2    1    2    0    0  0.65420681954E+02  0.38911966617E+01  0.68013158208E+03  0.69462047909E+03  0.12499453582E+03 0.  0.
    9000005    1    3    3    0    0 -0.15188504102E+02 -0.44331932979E+02  0.20476879251E+03  0.21006491693E+03  0.10000000000E+01 0.  0.
    9000005    1    3    3    0    0  0.80609186057E+02  0.48223129640E+02  0.47536278957E+03  0.48455556216E+03  0.10000000000E+01 0.  0.
          4    1    1    2  501    0 -0.65420681954E+02 -0.38911966617E+01  0.17768459388E+03  0.18938963763E+03  0.12700000000E+01 0.  1.
<mgrwt>
<rscale>  1 0.14113342E+03</rscale>
<asrwt>0</asrwt>
<pdfrwt beam="2">  1       21 0.20148480E-02 0.14113342E+03</pdfrwt>
<pdfrwt beam="1">  1        4 0.13399133E+00 0.14113342E+03</pdfrwt>
<totfact> 0.21002418E+04</totfact>
</mgrwt>
</event>
<event>
 6    4  0.3995738E-003  0.1267689E+03  0.7818608E-02  0.1232330E+00
         21   -1    0    0  501  502  0.00000000000E+00  0.00000000000E+00  0.41470909739E+02  0.41470909739E+02  0.00000000000E+00 0.  1.
          4   -1    0    0  502    0 -0.00000000000E+00 -0.00000000000E+00 -0.16761458453E+03  0.16761939580E+03  0.12700000000E+01 0.  1.
         25    2    1    2    0    0 -0.10343791531E+02  0.18380231341E+02 -0.13587415091E+03  0.18582827655E+03  0.12500214618E+03 0.  0.
    9000005    1    3    3    0    0 -0.36797948214E+02  0.14347834894E+02  0.72946945790E+01  0.40176634104E+02  0.10000000000E+01 0.  0.
    9000005    1    3    3    0    0  0.26454156683E+02  0.40323964461E+01 -0.14316884549E+03  0.14565164244E+03  0.10000000000E+01 0.  0.
          4    1    1    2  501    0  0.10343791531E+02 -0.18380231341E+02  0.97304761176E+01  0.23262028992E+02  0.12700000000E+01 0. -1.
<mgrwt>
<rscale>  1 0.12676894E+03</rscale>
<asrwt>0</asrwt>
<pdfrwt beam="1">  1       21 0.63801400E-02 0.12676894E+03</pdfrwt>
<pdfrwt beam="2">  1        4 0.25788725E-01 0.12676894E+03</pdfrwt>
<totfact> 0.99943252E+04</totfact>
</mgrwt>
</event>
<event>
 6    4  0.3995738E-003  0.1300941E+03  0.7818608E-02  0.1227316E+00
         -4   -1    0    0    0  501 -0.00000000000E+00  0.00000000000E+00  0.13559700032E+03  0.13560294759E+03  0.12700000000E+01 0.  1.
         21   -1    0    0  501  502  0.00000000000E+00 -0.00000000000E+00 -0.88704854493E+02  0.88704854493E+02  0.00000000000E+00 0. -1.
         25    2    1    2    0    0 -0.25193203039E+02 -0.25770388486E+02  0.97210453146E+02  0.16240178175E+03  0.12500262442E+03 0.  0.
    9000005    1    3    3    0    0  0.89073193195E+01  0.13909131763E+02  0.10775753473E+03  0.10902059703E+03  0.10000000000E+01 0.  0.
    9000005    1    3    3    0    0 -0.34100522359E+02 -0.39679520250E+02 -0.10547081588E+02  0.53381184723E+02  0.10000000000E+01 0.  0.
         -4    1    1    2    0  502  0.25193203039E+02  0.25770388486E+02 -0.50318307321E+02  0.61906020335E+02  0.12700000000E+01 0. -1.
<mgrwt>
<rscale>  1 0.13009407E+03</rscale>
<asrwt>0</asrwt>
<pdfrwt beam="2">  1       21 0.13646901E-01 0.13009407E+03</pdfrwt>
<pdfrwt beam="1">  1       -4 0.20862234E-01 0.13009407E+03</pdfrwt>
<totfact> 0.39283363E+04</totfact>
</mgrwt>
</event>
<event>
 6    4  0.3995738E-003  0.1651458E+03  0.7818608E-02  0.1183007E+00
         -4   -1    0    0    0  501 -0.00000000000E+00  0.00000000000E+00  0.14417887356E+03  0.14418446685E+03  0.12700000000E+01 0.  1.
         21   -1    0    0  501  502  0.00000000000E+00 -0.00000000000E+00 -0.16232808025E+03  0.16232808025E+03  0.00000000000E+00 0. -1.
         25    2    1    2    0    0 -0.89223156207E+02 -0.60721529703E+02  0.57321391960E+02  0.17481099079E+03  0.12500105900E+03 0.  0.
    9000005    1    3    3    0    0 -0.89848141689E+02  0.21837647898E+01  0.27144662457E+00  0.89880649068E+02  0.10000000000E+01 0.  0.
    9000005    1    3    3    0    0  0.62498548227E+00 -0.62905294493E+02  0.57049945335E+02  0.84930341721E+02  0.10000000000E+01 0.  0.
         -4    1    1    2    0  502  0.89223156207E+02  0.60721529703E+02 -0.75470598651E+02  0.13170155631E+03  0.12700000000E+01 0. -1.
<mgrwt>
<rscale>  1 0.16514582E+03</rscale>
<asrwt>0</asrwt>
<pdfrwt beam="2">  1       21 0.24973551E-01 0.16514582E+03</pdfrwt>
<pdfrwt beam="1">  1       -4 0.22182178E-01 0.16514582E+03</pdfrwt>
<totfact> 0.11803856E+04</totfact>
</mgrwt>
</event>
<event>
 6    4  0.3995738E-003  0.1291502E+03  0.7818608E-02  0.1228722E+00
         -4   -1    0    0    0  501 -0.00000000000E+00  0.00000000000E+00  0.19164226815E+02  0.19206261724E+02  0.12700000000E+01 0. -1.
         21   -1    0    0  501  502  0.00000000000E+00 -0.00000000000E+00 -0.48092097641E+03  0.48092097641E+03  0.00000000000E+00 0. -1.
         25    2    1    2    0    0 -0.16711312728E+02 -0.27845533628E+02 -0.21182971563E+03  0.24809593666E+03  0.12500049459E+03 0.  0.
    9000005    1    3    3    0    0 -0.37575305759E+02  0.16372848712E+01 -0.47911040745E+01  0.37928076446E+02  0.10000000000E+01 0.  0.
    9000005    1    3    3    0    0  0.20863993031E+02 -0.29482818500E+02 -0.20703861156E+03  0.21016786021E+03  0.10000000000E+01 0.  0.
         -4    1    1    2    0  502  0.16711312728E+02  0.27845533628E+02 -0.24992703397E+03  0.25203130148E+03  0.12700000000E+01 0.  1.
<mgrwt>
<rscale>  1 0.12915017E+03</rscale>
<asrwt>0</asrwt>
<pdfrwt beam="2">  1       21 0.73987833E-01 0.12915017E+03</pdfrwt>
<pdfrwt beam="1">  1       -4 0.29517054E-02 0.12915017E+03</pdfrwt>
<totfact> 0.36974260E+04</totfact>
</mgrwt>
</event>
<event>
 6    4  0.3995738E-003  0.1267403E+03  0.7818608E-02  0.1232374E+00
          4   -1    0    0  502    0 -0.00000000000E+00  0.00000000000E+00  0.63988995003E+02  0.64001596711E+02  0.12700000000E+01 0. -1.
         21   -1    0    0  501  502  0.00000000000E+00 -0.00000000000E+00 -0.10443372271E+03  0.10443372271E+03  0.00000000000E+00 0. -1.
         25    2    1    2    0    0  0.19900743110E+02 -0.61633455133E+01 -0.44397444974E+01  0.12681803791E+03  0.12501630696E+03 0.  0.
    9000005    1    3    3    0    0  0.43952027952E+02 -0.55107209662E+02  0.77782025062E+01  0.70923097451E+02  0.10000000000E+01 0.  0.
    9000005    1    3    3    0    0 -0.24051284842E+02  0.48943864148E+02 -0.12217947004E+02  0.55894940463E+02  0.10000000000E+01 0.  0.
          4    1    1    2  501    0 -0.19900743110E+02  0.61633455133E+01 -0.36004983213E+02  0.41617281511E+02  0.12700000000E+01 0.  1.
<mgrwt>
<rscale>  1 0.12674030E+03</rscale>
<asrwt>0</asrwt>
<pdfrwt beam="2">  1       21 0.16066726E-01 0.12674030E+03</pdfrwt>
<pdfrwt beam="1">  1        4 0.98460243E-02 0.12674030E+03</pdfrwt>
<totfact> 0.10764836E+05</totfact>
</mgrwt>
</event>
<event>
 6    4  0.3995738E-003  0.1324550E+03  0.7818608E-02  0.1223858E+00
         21   -1    0    0  501  502  0.00000000000E+00  0.00000000000E+00  0.43278360489E+02  0.43278360489E+02  0.00000000000E+00 0.  1.
          4   -1    0    0  502    0 -0.00000000000E+00 -0.00000000000E+00 -0.17959253934E+03  0.17959702973E+03  0.12700000000E+01 0.  1.
         25    2    1    2    0    0  0.43767557415E+02  0.19402035278E+01 -0.10458112448E+03  0.16876473404E+03  0.12499984155E+03 0.  0.
    9000005    1    3    3    0    0  0.31388139739E+02 -0.46506774208E+02 -0.10465526614E+03  0.11875108460E+03  0.10000000000E+01 0.  0.
    9000005    1    3    3    0    0  0.12379417676E+02  0.48446977736E+02  0.74141652998E-01  0.50013649444E+02  0.10000000000E+01 0.  0.
          4    1    1    2  501    0 -0.43767557415E+02 -0.19402035278E+01 -0.31733054369E+02  0.54110656173E+02  0.12700000000E+01 0. -1.
<mgrwt>
<rscale>  1 0.13245499E+03</rscale>
<asrwt>0</asrwt>
<pdfrwt beam="1">  1       21 0.66582091E-02 0.13245499E+03</pdfrwt>
<pdfrwt beam="2">  1        4 0.27631401E-01 0.13245499E+03</pdfrwt>
<totfact> 0.82260814E+04</totfact>
</mgrwt>
</event>
<event>
 6    4  0.3995738E-003  0.1316275E+03  0.7818608E-02  0.1225061E+00
         -4   -1    0    0    0  501 -0.00000000000E+00  0.00000000000E+00  0.13792122077E+04  0.13792127925E+04  0.12700000000E+01 0. -1.
         21   -1    0    0  501  502  0.00000000000E+00 -0.00000000000E+00 -0.25168566718E+02  0.25168566718E+02  0.00000000000E+00 0.  1.
         25    2    1    2    0    0  0.15935777288E+02 -0.38033595662E+02  0.13566706449E+04  0.13630410950E+04  0.12500113768E+03 0.  0.
    9000005    1    3    3    0    0  0.48534111455E+02 -0.29690754568E+02  0.27396819495E+03  0.27981542618E+03  0.10000000000E+01 0.  0.
    9000005    1    3    3    0    0 -0.32598334167E+02 -0.83428410938E+01  0.10827024499E+04  0.10832256688E+04  0.10000000000E+01 0.  0.
         -4    1    1    2    0  502 -0.15935777288E+02  0.38033595662E+02 -0.26270038693E+01  0.41340264224E+02  0.12700000000E+01 0.  1.
<mgrwt>
<rscale>  1 0.13162746E+03</rscale>
<asrwt>0</asrwt>
<pdfrwt beam="2">  1       21 0.38720883E-02 0.13162746E+03</pdfrwt>
<pdfrwt beam="1">  1       -4 0.21218894E+00 0.13162746E+03</pdfrwt>
<totfact> 0.20994344E+03</totfact>
</mgrwt>
</event>
<event>
 6    4  0.3995738E-003  0.1271037E+03  0.7818608E-02  0.1231818E+00
         -4   -1    0    0    0  501 -0.00000000000E+00  0.00000000000E+00  0.27358935438E+03  0.27359230203E+03  0.12700000000E+01 0.  1.
         21   -1    0    0  501  502  0.00000000000E+00 -0.00000000000E+00 -0.22668369156E+03  0.22668369156E+03  0.00000000000E+00 0. -1.
         25    2    1    2    0    0  0.23019692872E+02  0.31746697617E+00  0.25816733947E+03  0.28775983899E+03  0.12500137087E+03 0.  0.
    9000005    1    3    3    0    0  0.40330573717E+02  0.10217986735E+02  0.26376096627E+03  0.26702398723E+03  0.10000000000E+01 0.  0.
    9000005    1    3    3    0    0 -0.17310880845E+02 -0.99005197587E+01 -0.55936268013E+01  0.20735851753E+02  0.10000000000E+01 0.  0.
         -4    1    1    2    0  502 -0.23019692872E+02 -0.31746697617E+00 -0.21126167665E+03  0.21251615460E+03  0.12700000000E+01 0. -1.
<mgrwt>
<rscale>  1 0.12710370E+03</rscale>
<asrwt>0</asrwt>
<pdfrwt beam="2">  1       21 0.34874414E-01 0.12710370E+03</pdfrwt>
<pdfrwt beam="1">  1       -4 0.42091170E-01 0.12710370E+03</pdfrwt>
<totfact> 0.18066388E+03</totfact>
</mgrwt>
</event>
<event>
 6    4  0.3995738E-003  0.1327479E+03  0.7818608E-02  0.1223434E+00
         21   -1    0    0  501  502  0.00000000000E+00  0.00000000000E+00  0.67750244358E+03  0.67750244358E+03  0.00000000000E+00 0. -1.
          4   -1    0    0  502    0 -0.00000000000E+00 -0.00000000000E+00 -0.14975003431E+02  0.15028760021E+02  0.12700000000E+01 0.  1.
         25    2    1    2    0    0  0.18496342977E+02 -0.40678683252E+02  0.31063822738E+03  0.33781370905E+03  0.12500049496E+03 0.  0.
    9000005    1    3    3    0    0  0.49440992007E+02  0.21484987622E+02  0.76483315362E+02  0.93577315160E+02  0.10000000000E+01 0.  0.
    9000005    1    3    3    0    0 -0.30944649030E+02 -0.62163670874E+02  0.23415491202E+03  0.24423639389E+03  0.10000000000E+01 0.  0.
          4    1    1    2  501    0 -0.18496342977E+02  0.40678683252E+02  0.35188921277E+03  0.35471749455E+03  0.12700000000E+01 0. -1.
<mgrwt>
<rscale>  1 0.13274786E+03</rscale>
<asrwt>0</asrwt>
<pdfrwt beam="1">  1       21 0.10423112E+00 0.13274786E+03</pdfrwt>
<pdfrwt beam="2">  1        4 0.23080739E-02 0.13274786E+03</pdfrwt>
<totfact> 0.24883919E+04</totfact>
</mgrwt>
</event>
<event>
 6    4  0.3995738E-003  0.1268156E+03  0.7818608E-02  0.1232259E+00
         21   -1    0    0  501  502  0.00000000000E+00  0.00000000000E+00  0.42905305395E+03  0.42905305395E+03  0.00000000000E+00 0.  1.
         -4   -1    0    0    0  501 -0.00000000000E+00 -0.00000000000E+00 -0.17702185732E+02  0.17747683784E+02  0.12700000000E+01 0. -1.
         25    2    1    2    0    0  0.13861985023E+02 -0.16335137670E+02  0.21753979878E+03  0.25180500730E+03  0.12499282498E+03 0.  0.
    9000005    1    3    3    0    0 -0.34959050495E+02 -0.32710500583E+02  0.28173179637E+02  0.55559338646E+02  0.10000000000E+01 0.  0.
    9000005    1    3    3    0    0  0.48821035518E+02  0.16375362913E+02  0.18936661914E+03  0.19624566865E+03  0.10000000000E+01 0.  0.
         -4    1    1    2    0  502 -0.13861985023E+02  0.16335137670E+02  0.19381106944E+03  0.19499573044E+03  0.12700000000E+01 0.  1.
<mgrwt>
<rscale>  1 0.12681560E+03</rscale>
<asrwt>0</asrwt>
<pdfrwt beam="1">  1       21 0.66008154E-01 0.12681560E+03</pdfrwt>
<pdfrwt beam="2">  1       -4 0.27270579E-02 0.12681560E+03</pdfrwt>
<totfact> 0.53548086E+04</totfact>
</mgrwt>
</event>
<event>
 6    4  0.3995738E-003  0.1275105E+03  0.7818608E-02  0.1231197E+00
         -4   -1    0    0    0  501 -0.00000000000E+00  0.00000000000E+00  0.17164246953E+03  0.17164716789E+03  0.12700000000E+01 0.  1.
         21   -1    0    0  501  502  0.00000000000E+00 -0.00000000000E+00 -0.35101064208E+02  0.35101064208E+02  0.00000000000E+00 0.  1.
         25    2    1    2    0    0 -0.21525810104E+02  0.13110470517E+02  0.12642163885E+03  0.17955875783E+03  0.12499468711E+03 0.  0.
    9000005    1    3    3    0    0  0.43716535299E+02  0.24689824802E+02  0.92167585371E+02  0.10495992902E+03  0.10000000000E+01 0.  0.
    9000005    1    3    3    0    0 -0.65242345403E+02 -0.11579354285E+02  0.34254053481E+02  0.74598828806E+02  0.10000000000E+01 0.  0.
         -4    1    1    2    0  502  0.21525810104E+02 -0.13110470517E+02  0.10119766468E+02  0.27189474272E+02  0.12700000000E+01 0. -1.
<mgrwt>
<rscale>  1 0.12751046E+03</rscale>
<asrwt>0</asrwt>
<pdfrwt beam="2">  1       21 0.54001639E-02 0.12751046E+03</pdfrwt>
<pdfrwt beam="1">  1       -4 0.26408662E-01 0.12751046E+03</pdfrwt>
<totfact> 0.12694862E+05</totfact>
</mgrwt>
</event>
<event>
 6    4  0.3995738E-003  0.1488709E+03  0.7818608E-02  0.1201867E+00
          4   -1    0    0  502    0 -0.00000000000E+00  0.00000000000E+00  0.26173756749E+03  0.26174064861E+03  0.12700000000E+01 0.  1.
         21   -1    0    0  501  502  0.00000000000E+00 -0.00000000000E+00 -0.67833391074E+02  0.67833391074E+02  0.00000000000E+00 0. -1.
         25    2    1    2    0    0 -0.47532963556E+01  0.80725017711E+02  0.19901864017E+03  0.24853767161E+03  0.12499373089E+03 0.  0.
    9000005    1    3    3    0    0  0.17199058622E+02  0.10424897391E+02  0.16702498378E+03  0.16823445339E+03  0.10000000000E+01 0.  0.
    9000005    1    3    3    0    0 -0.21952354977E+02  0.70300120321E+02  0.31993656398E+02  0.80303218216E+02  0.10000000000E+01 0.  0.
          4    1    1    2  501    0  0.47532963556E+01 -0.80725017711E+02 -0.51144637633E+01  0.81036368072E+02  0.12700000000E+01 0. -1.
<mgrwt>
<rscale>  1 0.14887093E+03</rscale>
<asrwt>0</asrwt>
<pdfrwt beam="2">  1       21 0.10435906E-01 0.14887093E+03</pdfrwt>
<pdfrwt beam="1">  1        4 0.40268469E-01 0.14887093E+03</pdfrwt>
<totfact> 0.18573500E+04</totfact>
</mgrwt>
</event>
<event>
 6    4  0.3995738E-003  0.1468880E+03  0.7818608E-02  0.1204350E+00
         21   -1    0    0  501  502  0.00000000000E+00  0.00000000000E+00  0.83876581963E+02  0.83876581963E+02  0.00000000000E+00 0. -1.
         -4   -1    0    0    0  501 -0.00000000000E+00 -0.00000000000E+00 -0.19404147720E+03  0.19404563323E+03  0.12700000000E+01 0.  1.
         25    2    1    2    0    0  0.65702913574E+01 -0.76866379587E+02 -0.13226581212E+03  0.19766218487E+03  0.12499794092E+03 0.  0.
    9000005    1    3    3    0    0 -0.55384365658E+02 -0.61211982946E+02 -0.81941019621E+02  0.11631709037E+03  0.10000000000E+01 0.  0.
    9000005    1    3    3    0    0  0.61954657015E+02 -0.15654396640E+02 -0.50324792498E+02  0.81345094505E+02  0.10000000000E+01 0.  0.
         -4    1    1    2    0  502 -0.65702913574E+01  0.76866379587E+02  0.22100916881E+02  0.80260030316E+02  0.12700000000E+01 0. -1.
<mgrwt>
<rscale>  1 0.14688803E+03</rscale>
<asrwt>0</asrwt>
<pdfrwt beam="1">  1       21 0.12904090E-01 0.14688803E+03</pdfrwt>
<pdfrwt beam="2">  1       -4 0.29853594E-01 0.14688803E+03</pdfrwt>
<totfact> 0.22690311E+04</totfact>
</mgrwt>
</event>
<event>
 6    4  0.3995738E-003  0.1295292E+03  0.7818608E-02  0.1228156E+00
         21   -1    0    0  501  502  0.00000000000E+00  0.00000000000E+00  0.50209804571E+02  0.50209804571E+02  0.00000000000E+00 0. -1.
          4   -1    0    0  502    0 -0.00000000000E+00 -0.00000000000E+00 -0.15376474412E+03  0.15376998873E+03  0.12700000000E+01 0.  1.
         25    2    1    2    0    0 -0.30264716790E+02  0.15352078112E+02 -0.10936799274E+03  0.16952629026E+03  0.12500466339E+03 0.  0.
    9000005    1    3    3    0    0 -0.99424001646E+01 -0.54074004842E+02 -0.32087772398E+02  0.63666902376E+02  0.10000000000E+01 0.  0.
    9000005    1    3    3    0    0 -0.20322316626E+02  0.69426082954E+02 -0.77280220338E+02  0.10585938788E+03  0.10000000000E+01 0.  0.
          4    1    1    2  501    0  0.30264716790E+02 -0.15352078112E+02  0.58130531839E+01  0.34453503045E+02  0.12700000000E+01 0. -1.
<mgrwt>
<rscale>  1 0.12952917E+03</rscale>
<asrwt>0</asrwt>
<pdfrwt beam="1">  1       21 0.77245854E-02 0.12952917E+03</pdfrwt>
<pdfrwt beam="2">  1        4 0.23657753E-01 0.12952917E+03</pdfrwt>
<totfact> 0.84722474E+04</totfact>
</mgrwt>
</event>
<event>
 6    4  0.3995738E-003  0.1333119E+03  0.7818608E-02  0.1222623E+00
         21   -1    0    0  501  502  0.00000000000E+00  0.00000000000E+00  0.89491118507E+02  0.89491118507E+02  0.00000000000E+00 0. -1.
         -4   -1    0    0    0  501 -0.00000000000E+00 -0.00000000000E+00 -0.10243201561E+03  0.10243988833E+03  0.12700000000E+01 0.  1.
         25    2    1    2    0    0  0.42812582067E+02  0.17678300970E+02 -0.38831208436E+02  0.13885219158E+03  0.12500651523E+03 0.  0.
    9000005    1    3    3    0    0  0.94427370769E+01  0.24265822463E+02 -0.80755824941E+02  0.84855752222E+02  0.10000000000E+01 0.  0.
    9000005    1    3    3    0    0  0.33369844991E+02 -0.65875214936E+01  0.41924616505E+02  0.53996439357E+02  0.10000000000E+01 0.  0.
         -4    1    1    2    0  502 -0.42812582067E+02 -0.17678300970E+02  0.25890311334E+02  0.53078815260E+02  0.12700000000E+01 0. -1.
<mgrwt>
<rscale>  1 0.13331192E+03</rscale>
<asrwt>0</asrwt>
<pdfrwt beam="1">  1       21 0.13767864E-01 0.13331192E+03</pdfrwt>
<pdfrwt beam="2">  1       -4 0.15760070E-01 0.13331192E+03</pdfrwt>
<totfact> 0.63877264E+04</totfact>
</mgrwt>
</event>
<event>
 6    4  0.3995738E-003  0.1651223E+03  0.7818608E-02  0.1183032E+00
         21   -1    0    0  501  502  0.00000000000E+00  0.00000000000E+00  0.14734344040E+03  0.14734344040E+03  0.00000000000E+00 0. -1.
         -4   -1    0    0    0  501 -0.00000000000E+00 -0.00000000000E+00 -0.18387931860E+03  0.18388370431E+03  0.12700000000E+01 0.  1.
         25    2    1    2    0    0  0.81481010083E+02  0.70733039866E+02 -0.11202430460E+03  0.19953647171E+03  0.12499216291E+03 0.  0.
    9000005    1    3    3    0    0  0.10545670212E+03  0.85900260782E+02 -0.99402066118E+02  0.16846881484E+03  0.10000000000E+01 0.  0.
    9000005    1    3    3    0    0 -0.23975692040E+02 -0.15167220915E+02 -0.12622238487E+02  0.31067656872E+02  0.10000000000E+01 0.  0.
         -4    1    1    2    0  502 -0.81481010083E+02 -0.70733039866E+02  0.75488426400E+02  0.13169067299E+03  0.12700000000E+01 0. -1.
<mgrwt>
<rscale>  1 0.16512225E+03</rscale>
<asrwt>0</asrwt>
<pdfrwt beam="1">  1       21 0.22668222E-01 0.16512225E+03</pdfrwt>
<pdfrwt beam="2">  1       -4 0.28289884E-01 0.16512225E+03</pdfrwt>
<totfact> 0.90309319E+03</totfact>
</mgrwt>
</event>
<event>
 6    4  0.3995738E-003  0.2217711E+03  0.7818608E-02  0.1132569E+00
         21   -1    0    0  501  502  0.00000000000E+00  0.00000000000E+00  0.63532063294E+02  0.63532063294E+02  0.00000000000E+00 0.  1.
         -4   -1    0    0    0  501 -0.00000000000E+00 -0.00000000000E+00 -0.64583455990E+03  0.64583580859E+03  0.12700000000E+01 0. -1.
         25    2    1    2    0    0  0.12791700835E+03 -0.13114834551E+03 -0.32842453909E+03  0.39628916011E+03  0.12497908221E+03 0.  0.
    9000005    1    3    3    0    0 -0.10755637777E+02 -0.26914625777E+02 -0.52176009763E+01  0.29467001623E+02  0.10000000000E+01 0.  0.
    9000005    1    3    3    0    0  0.13867264613E+03 -0.10423371973E+03 -0.32320693811E+03  0.36682215849E+03  0.10000000000E+01 0.  0.
         -4    1    1    2    0  502 -0.12791700835E+03  0.13114834551E+03 -0.25387795752E+03  0.31307871178E+03  0.12700000000E+01 0.  1.
<mgrwt>
<rscale>  1 0.22177110E+03</rscale>
<asrwt>0</asrwt>
<pdfrwt beam="1">  1       21 0.97741632E-02 0.22177110E+03</pdfrwt>
<pdfrwt beam="2">  1       -4 0.99360239E-01 0.22177110E+03</pdfrwt>
<totfact> 0.30973145E+03</totfact>
</mgrwt>
</event>
<event>
 6    4  0.3995738E-003  0.1290288E+03  0.7818608E-02  0.1228904E+00
          4   -1    0    0  502    0 -0.00000000000E+00  0.00000000000E+00  0.20929202726E+03  0.20929588046E+03  0.12700000000E+01 0. -1.
         21   -1    0    0  501  502  0.00000000000E+00 -0.00000000000E+00 -0.65804681381E+02  0.65804681381E+02  0.00000000000E+00 0.  1.
         25    2    1    2    0    0 -0.24587289147E+02  0.20501988732E+02  0.18319872304E+03  0.22407632538E+03  0.12499424444E+03 0.  0.
    9000005    1    3    3    0    0 -0.11107808174E+02  0.26352995357E+02  0.19982556256E+03  0.20186411077E+03  0.10000000000E+01 0.  0.
    9000005    1    3    3    0    0 -0.13479480972E+02 -0.58510066258E+01 -0.16626839514E+02  0.22212214614E+02  0.10000000000E+01 0.  0.
          4    1    1    2  501    0  0.24587289147E+02 -0.20501988732E+02 -0.39711377160E+02  0.51024236451E+02  0.12700000000E+01 0.  1.
<mgrwt>
<rscale>  1 0.12902879E+03</rscale>
<asrwt>0</asrwt>
<pdfrwt beam="2">  1       21 0.10123797E-01 0.12902879E+03</pdfrwt>
<pdfrwt beam="1">  1        4 0.32200012E-01 0.12902879E+03</pdfrwt>
<totfact> 0.29774696E+04</totfact>
</mgrwt>
</event>
<event>
 6    4  0.3995738E-003  0.1272494E+03  0.7818608E-02  0.1231595E+00
         21   -1    0    0  501  502  0.00000000000E+00  0.00000000000E+00  0.49619317014E+02  0.49619317014E+02  0.00000000000E+00 0.  1.
          4   -1    0    0  502    0 -0.00000000000E+00 -0.00000000000E+00 -0.15785919695E+03  0.15786430554E+03  0.12700000000E+01 0. -1.
         25    2    1    2    0    0  0.44651989311E+01 -0.23397654251E+02 -0.12496565315E+03  0.17835026340E+03  0.12500005504E+03 0.  0.
    9000005    1    3    3    0    0  0.21426042550E+02 -0.68534778093E+02 -0.10248066921E+03  0.12513743912E+03  0.10000000000E+01 0.  0.
    9000005    1    3    3    0    0 -0.16960843619E+02  0.45137123842E+02 -0.22484983940E+02  0.53212824279E+02  0.10000000000E+01 0.  0.
          4    1    1    2  501    0 -0.44651989311E+01  0.23397654251E+02  0.16725773211E+02  0.29133359152E+02  0.12700000000E+01 0.  1.
<mgrwt>
<rscale>  1 0.12724937E+03</rscale>
<asrwt>0</asrwt>
<pdfrwt beam="1">  1       21 0.76337411E-02 0.12724937E+03</pdfrwt>
<pdfrwt beam="2">  1        4 0.24287673E-01 0.12724937E+03</pdfrwt>
<totfact> 0.82187696E+04</totfact>
</mgrwt>
</event>
<event>
 6    4  0.3995738E-003  0.1278468E+03  0.7818608E-02  0.1230686E+00
         21   -1    0    0  501  502  0.00000000000E+00  0.00000000000E+00  0.41629726416E+03  0.41629726416E+03  0.00000000000E+00 0.  1.
          4   -1    0    0  502    0 -0.00000000000E+00 -0.00000000000E+00 -0.20551153264E+02  0.20590356978E+02  0.12700000000E+01 0. -1.
         25    2    1    2    0    0 -0.26781424771E+02  0.13830340361E+01  0.18762295099E+03  0.22704000956E+03  0.12500254680E+03 0.  0.
    9000005    1    3    3    0    0 -0.31993227242E+02 -0.58889547808E+02  0.10653236526E+03  0.12586377667E+03  0.10000000000E+01 0.  0.
    9000005    1    3    3    0    0  0.52118024714E+01  0.60272581844E+02  0.81090585730E+02  0.10117623289E+03  0.10000000000E+01 0.  0.
          4    1    1    2  501    0  0.26781424771E+02 -0.13830340361E+01  0.20812315990E+03  0.20984761158E+03  0.12700000000E+01 0.  1.
<mgrwt>
<rscale>  1 0.12784676E+03</rscale>
<asrwt>0</asrwt>
<pdfrwt beam="1">  1       21 0.64045727E-01 0.12784676E+03</pdfrwt>
<pdfrwt beam="2">  1        4 0.31648809E-02 0.12784676E+03</pdfrwt>
<totfact> 0.45316858E+04</totfact>
</mgrwt>
</event>
<event>
 6    4  0.3995738E-003  0.1284621E+03  0.7818608E-02  0.1229756E+00
         21   -1    0    0  501  502  0.00000000000E+00  0.00000000000E+00  0.44988408250E+02  0.44988408250E+02  0.00000000000E+00 0.  1.
         -4   -1    0    0    0  501 -0.00000000000E+00 -0.00000000000E+00 -0.16772405267E+03  0.16772886080E+03  0.12700000000E+01 0.  1.
         25    2    1    2    0    0 -0.26681279691E+02 -0.12882441835E+02 -0.12938353686E+03  0.18232557006E+03  0.12499866357E+03 0.  0.
    9000005    1    3    3    0    0 -0.25905550545E+02 -0.30086568409E+02  0.10741895414E+02  0.41142283174E+02  0.10000000000E+01 0.  0.
    9000005    1    3    3    0    0 -0.77572914591E+00  0.17204126574E+02 -0.14012543227E+03  0.14118328689E+03  0.10000000000E+01 0.  0.
         -4    1    1    2    0  502  0.26681279691E+02  0.12882441835E+02  0.66478924351E+01  0.30391698988E+02  0.12700000000E+01 0. -1.
<mgrwt>
<rscale>  1 0.12846211E+03</rscale>
<asrwt>0</asrwt>
<pdfrwt beam="1">  1       21 0.69212935E-02 0.12846211E+03</pdfrwt>
<pdfrwt beam="2">  1       -4 0.25805449E-01 0.12846211E+03</pdfrwt>
<totfact> 0.87051280E+04</totfact>
</mgrwt>
</event>
<event>
 6    4  0.3995738E-003  0.1328149E+03  0.7818608E-02  0.1223338E+00
         21   -1    0    0  501  502  0.00000000000E+00  0.00000000000E+00  0.22138940893E+03  0.22138940893E+03  0.00000000000E+00 0. -1.
         -4   -1    0    0    0  501 -0.00000000000E+00 -0.00000000000E+00 -0.76390367398E+02  0.76400923628E+02  0.12700000000E+01 0.  1.
         25    2    1    2    0    0  0.33311622035E+02  0.30081586363E+02 -0.13080416787E+02  0.13345745684E+03  0.12500091792E+03 0.  0.
    9000005    1    3    3    0    0  0.15068807216E+02 -0.53533846522E+01  0.53503080310E+02  0.55850759000E+02  0.10000000000E+01 0.  0.
    9000005    1    3    3    0    0  0.18242814818E+02  0.35434971015E+02 -0.66583497097E+02  0.77606697836E+02  0.10000000000E+01 0.  0.
         -4    1    1    2    0  502 -0.33311622035E+02 -0.30081586363E+02  0.15807945832E+03  0.16433287572E+03  0.12700000000E+01 0. -1.
<mgrwt>
<rscale>  1 0.13281489E+03</rscale>
<asrwt>0</asrwt>
<pdfrwt beam="1">  1       21 0.34059909E-01 0.13281489E+03</pdfrwt>
<pdfrwt beam="2">  1       -4 0.11753457E-01 0.13281489E+03</pdfrwt>
<totfact> 0.19527127E+04</totfact>
</mgrwt>
</event>
<event>
 6    4  0.3995738E-003  0.1274720E+03  0.7818608E-02  0.1231256E+00
          4   -1    0    0  502    0 -0.00000000000E+00  0.00000000000E+00  0.12624481626E+03  0.12625120408E+03  0.12700000000E+01 0.  1.
         21   -1    0    0  501  502  0.00000000000E+00 -0.00000000000E+00 -0.15212709068E+03  0.15212709068E+03  0.00000000000E+00 0. -1.
         25    2    1    2    0    0  0.15386957575E+02  0.19685691819E+02  0.92425997630E+02  0.15745375192E+03  0.12499933612E+03 0.  0.
    9000005    1    3    3    0    0 -0.94141512237E+01  0.68721360457E+02  0.68568073975E+02  0.97538876326E+02  0.10000000000E+01 0.  0.
    9000005    1    3    3    0    0  0.24801108799E+02 -0.49035668638E+02  0.23857923656E+02  0.59914875595E+02  0.10000000000E+01 0.  0.
          4    1    1    2  501    0 -0.15386957575E+02 -0.19685691819E+02 -0.11830827205E+03  0.12092454284E+03  0.12700000000E+01 0. -1.
<mgrwt>
<rscale>  1 0.12747203E+03</rscale>
<asrwt>0</asrwt>
<pdfrwt beam="2">  1       21 0.23404168E-01 0.12747203E+03</pdfrwt>
<pdfrwt beam="1">  1        4 0.19423179E-01 0.12747203E+03</pdfrwt>
<totfact> 0.16602850E+04</totfact>
</mgrwt>
</event>
<event>
 6    4  0.3995738E-003  0.1276579E+03  0.7818608E-02  0.1230973E+00
         21   -1    0    0  501  502  0.00000000000E+00  0.00000000000E+00  0.24735627055E+02  0.24735627055E+02  0.00000000000E+00 0.  1.
         -4   -1    0    0    0  501 -0.00000000000E+00 -0.00000000000E+00 -0.24006351680E+03  0.24006687610E+03  0.12700000000E+01 0.  1.
         25    2    1    2    0    0 -0.24717602805E+02 -0.83500099424E+01 -0.17176803571E+03  0.21401120135E+03  0.12496340928E+03 0.  0.
    9000005    1    3    3    0    0 -0.84118493722E+01  0.57714996806E+01 -0.18719334484E+03  0.18747377889E+03  0.10000000000E+01 0.  0.
    9000005    1    3    3    0    0 -0.16305753432E+02 -0.14121509623E+02  0.15425309136E+02  0.26537422463E+02  0.10000000000E+01 0.  0.
         -4    1    1    2    0  502  0.24717602805E+02  0.83500099424E+01 -0.43559854038E+02  0.50791301797E+02  0.12700000000E+01 0. -1.
<mgrwt>
<rscale>  1 0.12765789E+03</rscale>
<asrwt>0</asrwt>
<pdfrwt beam="1">  1       21 0.38054811E-02 0.12765789E+03</pdfrwt>
<pdfrwt beam="2">  1       -4 0.36935615E-01 0.12765789E+03</pdfrwt>
<totfact> 0.12054059E+05</totfact>
</mgrwt>
</event>
<event>
 6    4  0.3995738E-003  0.1267082E+03  0.7818608E-02  0.1232424E+00
         21   -1    0    0  501  502  0.00000000000E+00  0.00000000000E+00  0.18525352316E+02  0.18525352316E+02  0.00000000000E+00 0. -1.
         -4   -1    0    0    0  501 -0.00000000000E+00 -0.00000000000E+00 -0.60253376604E+03  0.60253510447E+03  0.12700000000E+01 0. -1.
         25    2    1    2    0    0 -0.74385014255E+01  0.19273187854E+02 -0.58666549986E+03  0.60019277650E+03  0.12501269203E+03 0.  0.
    9000005    1    3    3    0    0 -0.62959791392E+02 -0.66522547719E+01 -0.24348479522E+03  0.25158305453E+03  0.10000000000E+01 0.  0.
    9000005    1    3    3    0    0  0.55521289966E+02  0.25925442625E+02 -0.34318070464E+03  0.34860972197E+03  0.10000000000E+01 0.  0.
         -4    1    1    2    0  502  0.74385014255E+01 -0.19273187854E+02  0.26570861373E+01  0.20867680279E+02  0.12700000000E+01 0.  1.
<mgrwt>
<rscale>  1 0.12670817E+03</rscale>
<asrwt>0</asrwt>
<pdfrwt beam="1">  1       21 0.28500545E-02 0.12670817E+03</pdfrwt>
<pdfrwt beam="2">  1       -4 0.92700946E-01 0.12670817E+03</pdfrwt>
<totfact> 0.28220480E+04</totfact>
</mgrwt>
</event>
<event>
 6    4  0.3995738E-003  0.1281794E+03  0.7818608E-02  0.1230182E+00
         -4   -1    0    0    0  501 -0.00000000000E+00  0.00000000000E+00  0.53197488759E+03  0.53197640354E+03  0.12700000000E+01 0.  1.
         21   -1    0    0  501  502  0.00000000000E+00 -0.00000000000E+00 -0.10355606370E+03  0.10355606370E+03  0.00000000000E+00 0. -1.
         25    2    1    2    0    0 -0.13517924056E+02 -0.24888831499E+02  0.52212639110E+03  0.53762991744E+03  0.12501108607E+03 0.  0.
    9000005    1    3    3    0    0  0.42805818018E+02 -0.14810447945E+02  0.40225973218E+03  0.40480313680E+03  0.10000000000E+01 0.  0.
    9000005    1    3    3    0    0 -0.56323742074E+02 -0.10078383554E+02  0.11986665892E+03  0.13282678065E+03  0.10000000000E+01 0.  0.
         -4    1    1    2    0  502  0.13517924056E+02  0.24888831499E+02 -0.93707567212E+02  0.97902549798E+02  0.12700000000E+01 0. -1.
<mgrwt>
<rscale>  1 0.12817940E+03</rscale>
<asrwt>0</asrwt>
<pdfrwt beam="2">  1       21 0.15931702E-01 0.12817940E+03</pdfrwt>
<pdfrwt beam="1">  1       -4 0.81843005E-01 0.12817940E+03</pdfrwt>
<totfact> 0.19625315E+03</totfact>
</mgrwt>
</event>
<event>
 6    4  0.3995738E-003  0.1337467E+03  0.7818608E-02  0.1222000E+00
         21   -1    0    0  501  502  0.00000000000E+00  0.00000000000E+00  0.48095143170E+02  0.48095143170E+02  0.00000000000E+00 0. -1.
          4   -1    0    0  502    0 -0.00000000000E+00 -0.00000000000E+00 -0.17094814531E+03  0.17095286275E+03  0.12700000000E+01 0. -1.
         25    2    1    2    0    0  0.45739430864E+02  0.12964787542E+02 -0.88378144685E+02  0.16030866691E+03  0.12501196333E+03 0.  0.
    9000005    1    3    3    0    0  0.74960474388E+02  0.46424425069E+02 -0.48673588204E+02  0.10071950234E+03  0.10000000000E+01 0.  0.
    9000005    1    3    3    0    0 -0.29221043525E+02 -0.33459637527E+02 -0.39704556481E+02  0.59589164564E+02  0.10000000000E+01 0.  0.
          4    1    1    2  501    0 -0.45739430864E+02 -0.12964787542E+02 -0.34474857451E+02  0.58739339016E+02  0.12700000000E+01 0.  1.
<mgrwt>
<rscale>  1 0.13374667E+03</rscale>
<asrwt>0</asrwt>
<pdfrwt beam="1">  1       21 0.73992528E-02 0.13374667E+03</pdfrwt>
<pdfrwt beam="2">  1        4 0.26301367E-01 0.13374667E+03</pdfrwt>
<totfact> 0.75367591E+04</totfact>
</mgrwt>
</event>
<event>
 6    4  0.3995738E-003  0.1273565E+03  0.7818608E-02  0.1231432E+00
          4   -1    0    0  502    0 -0.00000000000E+00  0.00000000000E+00  0.16666127742E+03  0.16666611621E+03  0.12700000000E+01 0. -1.
         21   -1    0    0  501  502  0.00000000000E+00 -0.00000000000E+00 -0.11112853425E+03  0.11112853425E+03  0.00000000000E+00 0.  1.
         25    2    1    2    0    0 -0.69157067915E+01 -0.23393711380E+02  0.14035584556E+03  0.18952424584E+03  0.12499833457E+03 0.  0.
    9000005    1    3    3    0    0 -0.71047648262E+01 -0.63384762789E+02  0.13480649942E+03  0.14913717887E+03  0.10000000000E+01 0.  0.
    9000005    1    3    3    0    0  0.18905803466E+00  0.39991051409E+02  0.55493461471E+01  0.40387066969E+02  0.10000000000E+01 0.  0.
          4    1    1    2  501    0  0.69157067915E+01  0.23393711380E+02 -0.84823102386E+02  0.88270404615E+02  0.12700000000E+01 0.  1.
<mgrwt>
<rscale>  1 0.12735649E+03</rscale>
<asrwt>0</asrwt>
<pdfrwt beam="2">  1       21 0.17096697E-01 0.12735649E+03</pdfrwt>
<pdfrwt beam="1">  1        4 0.25641127E-01 0.12735649E+03</pdfrwt>
<totfact> 0.17897620E+04</totfact>
</mgrwt>
</event>
<event>
 6    4  0.3995738E-003  0.1277295E+03  0.7818608E-02  0.1230864E+00
         -4   -1    0    0    0  501 -0.00000000000E+00  0.00000000000E+00  0.70202469562E+02  0.70213956110E+02  0.12700000000E+01 0. -1.
         21   -1    0    0  501  502  0.00000000000E+00 -0.00000000000E+00 -0.28132411139E+03  0.28132411139E+03  0.00000000000E+00 0.  1.
         25    2    1    2    0    0 -0.69255994340E+01  0.25322306501E+02  0.10688757265E+02  0.12817591945E+03  0.12500253462E+03 0.  0.
    9000005    1    3    3    0    0  0.37859368557E+01 -0.67940801883E+01  0.64291992694E+02  0.64768458126E+02  0.10000000000E+01 0.  0.
    9000005    1    3    3    0    0 -0.10711536290E+02  0.32116386689E+02 -0.53603235429E+02  0.63407461328E+02  0.10000000000E+01 0.  0.
         -4    1    1    2    0  502  0.69255994340E+01 -0.25322306501E+02 -0.22181039909E+03  0.22336214804E+03  0.12700000000E+01 0.  1.
<mgrwt>
<rscale>  1 0.12772947E+03</rscale>
<asrwt>0</asrwt>
<pdfrwt beam="2">  1       21 0.43280632E-01 0.12772947E+03</pdfrwt>
<pdfrwt beam="1">  1       -4 0.10801484E-01 0.12772947E+03</pdfrwt>
<totfact> 0.13947926E+04</totfact>
</mgrwt>
</event>
<event>
 6    4  0.3995738E-003  0.1286786E+03  0.7818608E-02  0.1229430E+00
         -4   -1    0    0    0  501 -0.00000000000E+00  0.00000000000E+00  0.28710273830E+03  0.28710554721E+03  0.12700000000E+01 0.  1.
         21   -1    0    0  501  502  0.00000000000E+00 -0.00000000000E+00 -0.22201970950E+02  0.22201970950E+02  0.00000000000E+00 0.  1.
         25    2    1    2    0    0  0.21238764757E+02  0.21959804273E+02  0.20467619933E+03  0.24176545996E+03  0.12499949171E+03 0.  0.
    9000005    1    3    3    0    0  0.34971119171E+02 -0.46412564627E+02  0.79647273916E+02  0.98599156050E+02  0.10000000000E+01 0.  0.
    9000005    1    3    3    0    0 -0.13732354414E+02  0.68372368900E+02  0.12502892541E+03  0.14316630391E+03  0.10000000000E+01 0.  0.
         -4    1    1    2    0  502 -0.21238764757E+02 -0.21959804273E+02  0.60224568025E+02  0.67542058200E+02  0.12700000000E+01 0. -1.
<mgrwt>
<rscale>  1 0.12867863E+03</rscale>
<asrwt>0</asrwt>
<pdfrwt beam="2">  1       21 0.34156880E-02 0.12867863E+03</pdfrwt>
<pdfrwt beam="1">  1       -4 0.44172660E-01 0.12867863E+03</pdfrwt>
<totfact> 0.10145492E+05</totfact>
</mgrwt>
</event>
<event>
 6    4  0.3995738E-003  0.1275640E+03  0.7818608E-02  0.1231116E+00
         -4   -1    0    0    0  501 -0.00000000000E+00  0.00000000000E+00  0.33934180038E+03  0.33934417689E+03  0.12700000000E+01 0. -1.
         21   -1    0    0  501  502  0.00000000000E+00 -0.00000000000E+00 -0.30474047871E+02  0.30474047871E+02  0.00000000000E+00 0. -1.
         25    2    1    2    0    0  0.16238369401E+02  0.19613948531E+02  0.31808287935E+03  0.34270875998E+03  0.12499673763E+03 0.  0.
    9000005    1    3    3    0    0  0.21655039298E+02 -0.50220971232E+02  0.10480144407E+03  0.11821772015E+03  0.10000000000E+01 0.  0.
    9000005    1    3    3    0    0 -0.54166698964E+01  0.69834919763E+02  0.21328143528E+03  0.22449103984E+03  0.10000000000E+01 0.  0.
         -4    1    1    2    0  502 -0.16238369401E+02 -0.19613948531E+02 -0.92151268350E+01  0.27109464775E+02  0.12700000000E+01 0.  1.
<mgrwt>
<rscale>  1 0.12756401E+03</rscale>
<asrwt>0</asrwt>
<pdfrwt beam="2">  1       21 0.46883153E-02 0.12756401E+03</pdfrwt>
<pdfrwt beam="1">  1       -4 0.52208646E-01 0.12756401E+03</pdfrwt>
<totfact> 0.42710069E+04</totfact>
</mgrwt>
</event>
<event>
 6    4  0.3995738E-003  0.1266517E+03  0.7818608E-02  0.1232510E+00
         -4   -1    0    0    0  501 -0.00000000000E+00  0.00000000000E+00  0.42124197760E+03  0.42124389206E+03  0.12700000000E+01 0.  1.
         21   -1    0    0  501  502  0.00000000000E+00 -0.00000000000E+00 -0.29882989526E+02  0.29882989526E+02  0.00000000000E+00 0.  1.
         25    2    1    2    0    0 -0.74431477716E+01 -0.18969626665E+02  0.40645798836E+03  0.42573318366E+03  0.12500160073E+03 0.  0.
    9000005    1    3    3    0    0 -0.50704840750E+01  0.13638128242E+02 -0.30674079687E+01  0.14903601657E+02  0.10000000000E+01 0.  0.
    9000005    1    3    3    0    0 -0.23726636965E+01 -0.32607754907E+02  0.40952539633E+03  0.41082958201E+03  0.10000000000E+01 0.  0.
         -4    1    1    2    0  502  0.74431477716E+01  0.18969626665E+02 -0.15099000282E+02  0.25393697921E+02  0.12700000000E+01 0. -1.
<mgrwt>
<rscale>  1 0.12665168E+03</rscale>
<asrwt>0</asrwt>
<pdfrwt beam="2">  1       21 0.45973833E-02 0.12665168E+03</pdfrwt>
<pdfrwt beam="1">  1       -4 0.64808677E-01 0.12665168E+03</pdfrwt>
<totfact> 0.28086516E+04</totfact>
</mgrwt>
</event>
<event>
 6    4  0.3995738E-003  0.1279020E+03  0.7818608E-02  0.1230602E+00
          4   -1    0    0  502    0 -0.00000000000E+00  0.00000000000E+00  0.43612283964E+02  0.43630771395E+02  0.12700000000E+01 0. -1.
         21   -1    0    0  501  502  0.00000000000E+00 -0.00000000000E+00 -0.14132736316E+03  0.14132736316E+03  0.00000000000E+00 0.  1.
         25    2    1    2    0    0 -0.27053870109E+02 -0.18628063627E+01 -0.68551204155E+02  0.14511435910E+03  0.12499411062E+03 0.  0.
    9000005    1    3    3    0    0 -0.43611676825E+02 -0.49603600966E+02 -0.67670251106E+02  0.94566159217E+02  0.10000000000E+01 0.  0.
    9000005    1    3    3    0    0  0.16557806717E+02  0.47740794604E+02 -0.88095304897E+00  0.50548199878E+02  0.10000000000E+01 0.  0.
          4    1    1    2  501    0  0.27053870109E+02  0.18628063627E+01 -0.29163875040E+02  0.39843775458E+02  0.12700000000E+01 0.  1.
<mgrwt>
<rscale>  1 0.12790195E+03</rscale>
<asrwt>0</asrwt>
<pdfrwt beam="2">  1       21 0.21742672E-01 0.12790195E+03</pdfrwt>
<pdfrwt beam="1">  1        4 0.67114431E-02 0.12790195E+03</pdfrwt>
<totfact> 0.11668038E+05</totfact>
</mgrwt>
</event>
<event>
 6    4  0.3995738E-003  0.1268258E+03  0.7818608E-02  0.1232243E+00
         21   -1    0    0  501  502  0.00000000000E+00  0.00000000000E+00  0.24153607491E+04  0.24153607491E+04  0.00000000000E+00 0. -1.
          4   -1    0    0  502    0 -0.00000000000E+00 -0.00000000000E+00 -0.23495490155E+01  0.26708202067E+01  0.12700000000E+01 0. -1.
         25    2    1    2    0    0  0.10669796431E+02 -0.18603307916E+02  0.17119924733E+04  0.17166837271E+04  0.12499944998E+03 0.  0.
    9000005    1    3    3    0    0 -0.12563459803E+02 -0.69590645851E+02  0.92816783897E+03  0.93085833283E+03  0.10000000000E+01 0.  0.
    9000005    1    3    3    0    0  0.23233256234E+02  0.50987337934E+02  0.78382463435E+03  0.78582539424E+03  0.10000000000E+01 0.  0.
          4    1    1    2  501    0 -0.10669796431E+02  0.18603307916E+02  0.70101872675E+03  0.70134784221E+03  0.12700000000E+01 0.  1.
<mgrwt>
<rscale>  1 0.12682583E+03</rscale>
<asrwt>0</asrwt>
<pdfrwt beam="1">  1       21 0.37159210E+00 0.12682583E+03</pdfrwt>
<pdfrwt beam="2">  1        4 0.38620986E-03 0.12682583E+03</pdfrwt>
<totfact> 0.69371111E+03</totfact>
</mgrwt>
</event>
<event>
 6    4  0.3995738E-003  0.1270644E+03  0.7818608E-02  0.1231878E+00
         21   -1    0    0  501  502  0.00000000000E+00  0.00000000000E+00  0.55135269365E+02  0.55135269365E+02  0.00000000000E+00 0. -1.
         -4   -1    0    0    0  501 -0.00000000000E+00 -0.00000000000E+00 -0.46803321604E+03  0.46803493910E+03  0.12700000000E+01 0.  1.
         25    2    1    2    0    0  0.13939991809E+02 -0.17960240590E+02 -0.45656828671E+03  0.47391977585E+03  0.12501383883E+03 0.  0.
    9000005    1    3    3    0    0 -0.52071625562E+02  0.88908102716E+01 -0.24623556463E+03  0.25184013577E+03  0.10000000000E+01 0.  0.
    9000005    1    3    3    0    0  0.66011617371E+02 -0.26851050861E+02 -0.21033272208E+03  0.22207964008E+03  0.10000000000E+01 0.  0.
         -4    1    1    2    0  502 -0.13939991809E+02  0.17960240590E+02  0.43670340036E+02  0.49250432612E+02  0.12700000000E+01 0. -1.
<mgrwt>
<rscale>  1 0.12706437E+03</rscale>
<asrwt>0</asrwt>
<pdfrwt beam="1">  1       21 0.84823487E-02 0.12706437E+03</pdfrwt>
<pdfrwt beam="2">  1       -4 0.72006371E-01 0.12706437E+03</pdfrwt>
<totfact> 0.79155399E+03</totfact>
</mgrwt>
</event>
<event>
 6    4  0.3995738E-003  0.1274391E+03  0.7818608E-02  0.1231306E+00
         21   -1    0    0  501  502  0.00000000000E+00  0.00000000000E+00  0.15366006230E+03  0.15366006230E+03  0.00000000000E+00 0.  1.
          4   -1    0    0  502    0 -0.00000000000E+00 -0.00000000000E+00 -0.41154391932E+02  0.41173982990E+02  0.12700000000E+01 0.  1.
         25    2    1    2    0    0  0.23676295628E+02 -0.74356370786E+01  0.69481511065E+02  0.14514957229E+03  0.12499944913E+03 0.  0.
    9000005    1    3    3    0    0 -0.20971487126E+02 -0.55537054481E+02  0.18979915924E+02  0.62333016140E+02  0.10000000000E+01 0.  0.
    9000005    1    3    3    0    0  0.44647782754E+02  0.48101417402E+02  0.50501595141E+02  0.82816556151E+02  0.10000000000E+01 0.  0.
          4    1    1    2  501    0 -0.23676295628E+02  0.74356370786E+01  0.43024159304E+02  0.49684473000E+02  0.12700000000E+01 0. -1.
<mgrwt>
<rscale>  1 0.12743908E+03</rscale>
<asrwt>0</asrwt>
<pdfrwt beam="1">  1       21 0.23640009E-01 0.12743908E+03</pdfrwt>
<pdfrwt beam="2">  1        4 0.63333557E-02 0.12743908E+03</pdfrwt>
<totfact> 0.10962273E+05</totfact>
</mgrwt>
</event>
<event>
 6    4  0.3995738E-003  0.1288778E+03  0.7818608E-02  0.1229130E+00
         -4   -1    0    0    0  501 -0.00000000000E+00  0.00000000000E+00  0.10739181330E+04  0.10739188839E+04  0.12700000000E+01 0.  1.
         21   -1    0    0  501  502  0.00000000000E+00 -0.00000000000E+00 -0.59795384003E+01  0.59795384003E+01  0.00000000000E+00 0.  1.
         25    2    1    2    0    0 -0.97903778313E+01  0.29801565534E+02  0.86089732525E+03  0.87049048334E+03  0.12500196855E+03 0.  0.
    9000005    1    3    3    0    0  0.48313423630E+02  0.32230111027E+02  0.61811808182E+03  0.62084130825E+03  0.10000000000E+01 0.  0.
    9000005    1    3    3    0    0 -0.58103801461E+02 -0.24285454923E+01  0.24277924344E+03  0.24964917509E+03  0.10000000000E+01 0.  0.
         -4    1    1    2    0  502  0.97903778313E+01 -0.29801565534E+02  0.20704126932E+03  0.20940793898E+03  0.12700000000E+01 0. -1.
<mgrwt>
<rscale>  1 0.12887776E+03</rscale>
<asrwt>0</asrwt>
<pdfrwt beam="2">  1       21 0.91992985E-03 0.12887776E+03</pdfrwt>
<pdfrwt beam="1">  1       -4 0.16522845E+00 0.12887776E+03</pdfrwt>
<totfact> 0.42548922E+04</totfact>
</mgrwt>
</event>
<event>
 6    4  0.3995738E-003  0.1277535E+03  0.7818608E-02  0.1230828E+00
          4   -1    0    0  502    0 -0.00000000000E+00  0.00000000000E+00  0.12217327108E+04  0.12217333709E+04  0.12700000000E+01 0. -1.
         21   -1    0    0  501  502  0.00000000000E+00 -0.00000000000E+00 -0.12228210653E+02  0.12228210653E+02  0.00000000000E+00 0.  1.
         25    2    1    2    0    0 -0.23589251316E+02 -0.11739300035E+02  0.11986457172E+04  0.12054345766E+04  0.12500679634E+03 0.  0.
    9000005    1    3    3    0    0 -0.37555391965E+02  0.37424993527E+02  0.25760416545E+03  0.26300559626E+03  0.10000000000E+01 0.  0.
    9000005    1    3    3    0    0  0.13966140649E+02 -0.49164293562E+02  0.94104155176E+03  0.94242898034E+03  0.10000000000E+01 0.  0.
          4    1    1    2  501    0  0.23589251316E+02  0.11739300035E+02  0.10858782905E+02  0.28527004910E+02  0.12700000000E+01 0.  1.
<mgrwt>
<rscale>  1 0.12775352E+03</rscale>
<asrwt>0</asrwt>
<pdfrwt beam="2">  1       21 0.18812641E-02 0.12775352E+03</pdfrwt>
<pdfrwt beam="1">  1        4 0.18796391E+00 0.12775352E+03</pdfrwt>
<totfact> 0.96298176E+03</totfact>
</mgrwt>
</event>
<event>
 6    4  0.3995738E-003  0.1348611E+03  0.7818608E-02  0.1220416E+00
          4   -1    0    0  502    0 -0.00000000000E+00  0.00000000000E+00  0.67490412660E+02  0.67502360707E+02  0.12700000000E+01 0.  1.
         21   -1    0    0  501  502  0.00000000000E+00 -0.00000000000E+00 -0.13137229534E+03  0.13137229534E+03  0.00000000000E+00 0. -1.
         25    2    1    2    0    0 -0.45981317982E+01 -0.50413935858E+02 -0.30635060851E+02  0.13829683992E+03  0.12499920494E+03 0.  0.
    9000005    1    3    3    0    0 -0.14446859791E+02 -0.90674878675E+02 -0.30751820806E+02  0.96836562638E+02  0.10000000000E+01 0.  0.
    9000005    1    3    3    0    0  0.98487279933E+01  0.40260942818E+02  0.11675995526E+00  0.41460277285E+02  0.10000000000E+01 0.  0.
          4    1    1    2  501    0  0.45981317982E+01  0.50413935858E+02 -0.33246821828E+02  0.60577816124E+02  0.12700000000E+01 0. -1.
<mgrwt>
<rscale>  1 0.13486107E+03</rscale>
<asrwt>0</asrwt>
<pdfrwt beam="2">  1       21 0.20211122E-01 0.13486107E+03</pdfrwt>
<pdfrwt beam="1">  1        4 0.10384532E-01 0.13486107E+03</pdfrwt>
<totfact> 0.65167355E+04</totfact>
</mgrwt>
</event>
<event>
 6    4  0.3995738E-003  0.1268644E+03  0.7818608E-02  0.1232184E+00
         21   -1    0    0  501  502  0.00000000000E+00  0.00000000000E+00  0.12796770641E+03  0.12796770641E+03  0.00000000000E+00 0.  1.
          4   -1    0    0  502    0 -0.00000000000E+00 -0.00000000000E+00 -0.43725048324E+02  0.43743488098E+02  0.12700000000E+01 0.  1.
         25    2    1    2    0    0  0.16594954200E+02 -0.13961805693E+02  0.78694919246E+02  0.14928989148E+03  0.12499702740E+03 0.  0.
    9000005    1    3    3    0    0 -0.52197119286E+02  0.34953310668E+01  0.16352420243E+02  0.54819323681E+02  0.10000000000E+01 0.  0.
    9000005    1    3    3    0    0  0.68792073486E+02 -0.17457136760E+02  0.62342499003E+02  0.94470567799E+02  0.10000000000E+01 0.  0.
          4    1    1    2  501    0 -0.16594954200E+02  0.13961805693E+02  0.55477388353E+01  0.22421303024E+02  0.12700000000E+01 0. -1.
<mgrwt>
<rscale>  1 0.12686442E+03</rscale>
<asrwt>0</asrwt>
<pdfrwt beam="1">  1       21 0.19687339E-01 0.12686442E+03</pdfrwt>
<pdfrwt beam="2">  1        4 0.67288338E-02 0.12686442E+03</pdfrwt>
<totfact> 0.13951650E+05</totfact>
</mgrwt>
</event>
<event>
 6    4  0.3995738E-003  0.1324689E+03  0.7818608E-02  0.1223838E+00
          4   -1    0    0  502    0 -0.00000000000E+00  0.00000000000E+00  0.58160026398E+02  0.58173890799E+02  0.12700000000E+01 0. -1.
         21   -1    0    0  501  502  0.00000000000E+00 -0.00000000000E+00 -0.51036375101E+03  0.51036375101E+03  0.00000000000E+00 0.  1.
         25    2    1    2    0    0 -0.28563565578E+02 -0.33282757575E+02 -0.19831893735E+02  0.13394515192E+03  0.12499752191E+03 0.  0.
    9000005    1    3    3    0    0 -0.23733985490E+01  0.47291380816E+02 -0.11975528678E+02  0.48852031762E+02  0.10000000000E+01 0.  0.
    9000005    1    3    3    0    0 -0.26190167029E+02 -0.80574138391E+02 -0.78563650567E+01  0.85093120159E+02  0.10000000000E+01 0.  0.
          4    1    1    2  501    0  0.28563565578E+02  0.33282757575E+02 -0.43237183087E+03  0.43459248988E+03  0.12700000000E+01 0.  1.
<mgrwt>
<rscale>  1 0.13246886E+03</rscale>
<asrwt>0</asrwt>
<pdfrwt beam="2">  1       21 0.78517499E-01 0.13246886E+03</pdfrwt>
<pdfrwt beam="1">  1        4 0.89488845E-02 0.13246886E+03</pdfrwt>
<totfact> 0.54366965E+03</totfact>
</mgrwt>
</event>
<event>
 6    4  0.3995738E-003  0.1466631E+03  0.7818608E-02  0.1204634E+00
         21   -1    0    0  501  502  0.00000000000E+00  0.00000000000E+00  0.35778508117E+02  0.35778508117E+02  0.00000000000E+00 0.  1.
          4   -1    0    0  502    0 -0.00000000000E+00 -0.00000000000E+00 -0.35002133033E+03  0.35002363432E+03  0.12700000000E+01 0.  1.
         25    2    1    2    0    0 -0.17979100242E+02 -0.74576484307E+02 -0.19474741515E+03  0.24379627895E+03  0.12500067946E+03 0.  0.
    9000005    1    3    3    0    0 -0.61539240626E+01  0.70897054197E+01  0.15378998752E+02  0.18045728218E+02  0.10000000000E+01 0.  0.
    9000005    1    3    3    0    0 -0.11825176179E+02 -0.81666189726E+02 -0.21012641390E+03  0.22575055073E+03  0.10000000000E+01 0.  0.
          4    1    1    2  501    0  0.17979100242E+02  0.74576484307E+02 -0.11949540706E+03  0.14200586349E+03  0.12700000000E+01 0. -1.
<mgrwt>
<rscale>  1 0.14666312E+03</rscale>
<asrwt>0</asrwt>
<pdfrwt beam="1">  1       21 0.55043858E-02 0.14666312E+03</pdfrwt>
<pdfrwt beam="2">  1        4 0.53851347E-01 0.14666312E+03</pdfrwt>
<totfact> 0.31098915E+04</totfact>
</mgrwt>
</event>
<event>
 6    4  0.3995738E-003  0.1349505E+03  0.7818608E-02  0.1220290E+00
         21   -1    0    0  501  502  0.00000000000E+00  0.00000000000E+00  0.17303365746E+04  0.17303365746E+04  0.00000000000E+00 0.  1.
         -4   -1    0    0    0  501 -0.00000000000E+00 -0.00000000000E+00 -0.98058315832E+01  0.98877314404E+01  0.12700000000E+01 0. -1.
         25    2    1    2    0    0 -0.45116215050E+02  0.23461772795E+02  0.47886865966E+03  0.49752069303E+03  0.12500287655E+03 0.  0.
    9000005    1    3    3    0    0 -0.13400971359E+02  0.62447313744E+02  0.39188938317E+03  0.39706113090E+03  0.10000000000E+01 0.  0.
    9000005    1    3    3    0    0 -0.31715243691E+02 -0.38985540950E+02  0.86979276496E+02  0.10045956214E+03  0.10000000000E+01 0.  0.
         -4    1    1    2    0  502  0.45116215050E+02 -0.23461772795E+02  0.12416620834E+04  0.12427036130E+04  0.12700000000E+01 0.  1.
<mgrwt>
<rscale>  1 0.13495053E+03</rscale>
<asrwt>0</asrwt>
<pdfrwt beam="1">  1       21 0.26620538E+00 0.13495053E+03</pdfrwt>
<pdfrwt beam="2">  1       -4 0.15149267E-02 0.13495053E+03</pdfrwt>
<totfact> 0.35726869E+03</totfact>
</mgrwt>
</event>
<event>
 6    4  0.3995738E-003  0.1296506E+03  0.7818608E-02  0.1227975E+00
         21   -1    0    0  501  502  0.00000000000E+00  0.00000000000E+00  0.23590877745E+02  0.23590877745E+02  0.00000000000E+00 0. -1.
         -4   -1    0    0    0  501 -0.00000000000E+00 -0.00000000000E+00 -0.38983013250E+03  0.38983220122E+03  0.12700000000E+01 0. -1.
         25    2    1    2    0    0  0.16863294721E+02  0.30009711614E+02 -0.35378667979E+03  0.37679476992E+03  0.12499732134E+03 0.  0.
    9000005    1    3    3    0    0  0.57389629064E+01 -0.18561835825E+02  0.60825332495E-01  0.19454591853E+02  0.10000000000E+01 0.  0.
    9000005    1    3    3    0    0  0.11124331814E+02  0.48571547439E+02 -0.35384750512E+03  0.35734017807E+03  0.10000000000E+01 0.  0.
         -4    1    1    2    0  502 -0.16863294721E+02 -0.30009711614E+02 -0.12452574964E+02  0.36628309041E+02  0.12700000000E+01 0.  1.
<mgrwt>
<rscale>  1 0.12965062E+03</rscale>
<asrwt>0</asrwt>
<pdfrwt beam="1">  1       21 0.36293661E-02 0.12965062E+03</pdfrwt>
<pdfrwt beam="2">  1       -4 0.59976650E-01 0.12965062E+03</pdfrwt>
<totfact> 0.49154250E+04</totfact>
</mgrwt>
</event>
<event>
 6    4  0.3995738E-003  0.1278451E+03  0.7818608E-02  0.1230689E+00
         21   -1    0    0  501  502  0.00000000000E+00  0.00000000000E+00  0.23405617162E+03  0.23405617162E+03  0.00000000000E+00 0. -1.
          4   -1    0    0  502    0 -0.00000000000E+00 -0.00000000000E+00 -0.11980388258E+03  0.11981061381E+03  0.12700000000E+01 0.  1.
         25    2    1    2    0    0  0.26122554459E+02 -0.60917597579E+01 -0.84539993100E+02  0.15326897455E+03  0.12499948295E+03 0.  0.
    9000005    1    3    3    0    0 -0.74693565320E+01 -0.43403182941E+02 -0.92474120825E+02  0.10243090646E+03  0.10000000000E+01 0.  0.
    9000005    1    3    3    0    0  0.33591910991E+02  0.37311423183E+02  0.79341277248E+01  0.50838068086E+02  0.10000000000E+01 0.  0.
          4    1    1    2  501    0 -0.26122554459E+02  0.60917597579E+01  0.19879228215E+03  0.20059781088E+03  0.12700000000E+01 0. -1.
<mgrwt>
<rscale>  1 0.12784509E+03</rscale>
<asrwt>0</asrwt>
<pdfrwt beam="1">  1       21 0.36008642E-01 0.12784509E+03</pdfrwt>
<pdfrwt beam="2">  1        4 0.18432150E-01 0.12784509E+03</pdfrwt>
<totfact> 0.79674493E+03</totfact>
</mgrwt>
</event>
<event>
 6    4  0.3995738E-003  0.1268096E+03  0.7818608E-02  0.1232268E+00
         21   -1    0    0  501  502  0.00000000000E+00  0.00000000000E+00  0.55288969322E+02  0.55288969322E+02  0.00000000000E+00 0.  1.
         -4   -1    0    0    0  501 -0.00000000000E+00 -0.00000000000E+00 -0.32376748124E+03  0.32376997206E+03  0.12700000000E+01 0. -1.
         25    2    1    2    0    0  0.19816620785E+02 -0.79081129775E+01 -0.30857830095E+03  0.33361840122E+03  0.12500173242E+03 0.  0.
    9000005    1    3    3    0    0 -0.52757683204E+02 -0.69383737419E+01 -0.11024433854E+03  0.12241866013E+03  0.10000000000E+01 0.  0.
    9000005    1    3    3    0    0  0.72574303989E+02 -0.96973923555E+00 -0.19833396241E+03  0.21119974110E+03  0.10000000000E+01 0.  0.
         -4    1    1    2    0  502 -0.19816620785E+02  0.79081129775E+01  0.40099789028E+02  0.45440540163E+02  0.12700000000E+01 0.  1.
<mgrwt>
<rscale>  1 0.12680958E+03</rscale>
<asrwt>0</asrwt>
<pdfrwt beam="1">  1       21 0.85059952E-02 0.12680958E+03</pdfrwt>
<pdfrwt beam="2">  1       -4 0.49811696E-01 0.12680958E+03</pdfrwt>
<totfact> 0.17058148E+04</totfact>
</mgrwt>
</event>
<event>
 6    4  0.3995738E-003  0.1268204E+03  0.7818608E-02  0.1232251E+00
          4   -1    0    0  502    0 -0.00000000000E+00  0.00000000000E+00  0.16716257040E+03  0.16716739468E+03  0.12700000000E+01 0. -1.
         21   -1    0    0  501  502  0.00000000000E+00 -0.00000000000E+00 -0.53867114171E+02  0.53867114171E+02  0.00000000000E+00 0. -1.
         25    2    1    2    0    0  0.19360663729E+02 -0.91182690804E+01  0.13860284682E+03  0.18786743105E+03  0.12500177748E+03 0.  0.
    9000005    1    3    3    0    0  0.22288461906E+02  0.47555692285E+02  0.11493900966E+03  0.12637363390E+03  0.10000000000E+01 0.  0.
    9000005    1    3    3    0    0 -0.29277981768E+01 -0.56673961366E+02  0.23663837155E+02  0.61493797150E+02  0.10000000000E+01 0.  0.
          4    1    1    2  501    0 -0.19360663729E+02  0.91182690804E+01 -0.25307390589E+02  0.33167077796E+02  0.12700000000E+01 0.  1.
<mgrwt>
<rscale>  1 0.12682043E+03</rscale>
<asrwt>0</asrwt>
<pdfrwt beam="2">  1       21 0.82872484E-02 0.12682043E+03</pdfrwt>
<pdfrwt beam="1">  1        4 0.25718841E-01 0.12682043E+03</pdfrwt>
<totfact> 0.64166390E+04</totfact>
</mgrwt>
</event>
<event>
 6    4  0.3995738E-003  0.2301933E+03  0.7818608E-02  0.1126504E+00
         21   -1    0    0  501  502  0.00000000000E+00  0.00000000000E+00  0.46921184340E+02  0.46921184340E+02  0.00000000000E+00 0. -1.
         -4   -1    0    0    0  501 -0.00000000000E+00 -0.00000000000E+00 -0.10936238894E+04  0.10936246268E+04  0.12700000000E+01 0.  1.
         25    2    1    2    0    0  0.62991202712E+01 -0.19319582322E+03 -0.76512288430E+03  0.79900062616E+03  0.12499866998E+03 0.  0.
    9000005    1    3    3    0    0 -0.44264894154E+00 -0.31168326062E+01  0.48586596081E+01  0.58751303618E+01  0.10000000000E+01 0.  0.
    9000005    1    3    3    0    0  0.67417692127E+01 -0.19007899062E+03 -0.76998154391E+03  0.79312549580E+03  0.10000000000E+01 0.  0.
         -4    1    1    2    0  502 -0.62991202712E+01  0.19319582322E+03 -0.28157982073E+03  0.34154518496E+03  0.12700000000E+01 0. -1.
<mgrwt>
<rscale>  1 0.23019334E+03</rscale>
<asrwt>0</asrwt>
<pdfrwt beam="1">  1       21 0.72186440E-02 0.23019334E+03</pdfrwt>
<pdfrwt beam="2">  1       -4 0.16825120E+00 0.23019334E+03</pdfrwt>
<totfact> 0.14191997E+03</totfact>
</mgrwt>
</event>
<event>
 6    4  0.3995738E-003  0.1291362E+03  0.7818608E-02  0.1228743E+00
          4   -1    0    0  502    0 -0.00000000000E+00  0.00000000000E+00  0.20237168607E+03  0.20237567103E+03  0.12700000000E+01 0. -1.
         21   -1    0    0  501  502  0.00000000000E+00 -0.00000000000E+00 -0.78901655415E+02  0.78901655415E+02  0.00000000000E+00 0.  1.
         25    2    1    2    0    0  0.26299127471E+02 -0.18943886749E+02  0.17675090305E+03  0.21889961237E+03  0.12500257443E+03 0.  0.
    9000005    1    3    3    0    0 -0.21456073744E+02  0.30839658982E+02  0.13058617351E+03  0.13588670420E+03  0.10000000000E+01 0.  0.
    9000005    1    3    3    0    0  0.47755201215E+02 -0.49783545731E+02  0.46164729540E+02  0.83012908165E+02  0.10000000000E+01 0.  0.
          4    1    1    2  501    0 -0.26299127471E+02  0.18943886749E+02 -0.53280872391E+02  0.62377714078E+02  0.12700000000E+01 0.  1.
<mgrwt>
<rscale>  1 0.12913620E+03</rscale>
<asrwt>0</asrwt>
<pdfrwt beam="2">  1       21 0.12138716E-01 0.12913620E+03</pdfrwt>
<pdfrwt beam="1">  1        4 0.31135198E-01 0.12913620E+03</pdfrwt>
<totfact> 0.23055948E+04</totfact>
</mgrwt>
</event>
<event>
 6    4  0.3995738E-003  0.1271354E+03  0.7818608E-02  0.1231769E+00
         21   -1    0    0  501  502  0.00000000000E+00  0.00000000000E+00  0.19664127545E+03  0.19664127545E+03  0.00000000000E+00 0.  1.
          4   -1    0    0  502    0 -0.00000000000E+00 -0.00000000000E+00 -0.28816352225E+02  0.28844324495E+02  0.12700000000E+01 0.  1.
         25    2    1    2    0    0  0.20604802808E+02 -0.10734348374E+02  0.13760866661E+03  0.18734875166E+03  0.12499450183E+03 0.  0.
    9000005    1    3    3    0    0  0.50965147519E+02 -0.52832694752E+02  0.95785720210E+02  0.12068406727E+03  0.10000000000E+01 0.  0.
    9000005    1    3    3    0    0 -0.30360344711E+02  0.42098346378E+02  0.41822946405E+02  0.66664684390E+02  0.10000000000E+01 0.  0.
          4    1    1    2  501    0 -0.20604802808E+02  0.10734348374E+02  0.30216256613E+02  0.38136848290E+02  0.12700000000E+01 0. -1.
<mgrwt>
<rscale>  1 0.12713540E+03</rscale>
<asrwt>0</asrwt>
<pdfrwt beam="1">  1       21 0.30252503E-01 0.12713540E+03</pdfrwt>
<pdfrwt beam="2">  1        4 0.44357523E-02 0.12713540E+03</pdfrwt>
<totfact> 0.12163935E+05</totfact>
</mgrwt>
</event>
<event>
 6    4  0.3995738E-003  0.1302259E+03  0.7818608E-02  0.1227121E+00
         -4   -1    0    0    0  501 -0.00000000000E+00  0.00000000000E+00  0.14281096487E+03  0.14281661174E+03  0.12700000000E+01 0. -1.
         21   -1    0    0  501  502  0.00000000000E+00 -0.00000000000E+00 -0.26634528258E+03  0.26634528258E+03  0.00000000000E+00 0.  1.
         25    2    1    2    0    0  0.35223345423E+02  0.96596259333E+01  0.11141766883E+03  0.17138460079E+03  0.12499916809E+03 0.  0.
    9000005    1    3    3    0    0 -0.37348901538E+02 -0.61820983270E+01  0.48273897735E+00  0.37873365612E+02  0.10000000000E+01 0.  0.
    9000005    1    3    3    0    0  0.72572246962E+02  0.15841724260E+02  0.11093492986E+03  0.13351123518E+03  0.10000000000E+01 0.  0.
         -4    1    1    2    0  502 -0.35223345423E+02 -0.96596259333E+01 -0.23495198654E+03  0.23777729353E+03  0.12700000000E+01 0.  1.
<mgrwt>
<rscale>  1 0.13022590E+03</rscale>
<asrwt>0</asrwt>
<pdfrwt beam="2">  1       21 0.40976197E-01 0.13022590E+03</pdfrwt>
<pdfrwt beam="1">  1       -4 0.21971585E-01 0.13022590E+03</pdfrwt>
<totfact> 0.44988555E+03</totfact>
</mgrwt>
</event>
<event>
 6    4  0.3995738E-003  0.1277616E+03  0.7818608E-02  0.1230815E+00
         21   -1    0    0  501  502  0.00000000000E+00  0.00000000000E+00  0.22254710678E+02  0.22254710678E+02  0.00000000000E+00 0.  1.
          4   -1    0    0  502    0 -0.00000000000E+00 -0.00000000000E+00 -0.49590962484E+03  0.49591125104E+03  0.12700000000E+01 0. -1.
         25    2    1    2    0    0  0.61525835177E+01  0.25743564454E+02 -0.47475358791E+03  0.49164417108E+03  0.12498974492E+03 0.  0.
    9000005    1    3    3    0    0 -0.62936600140E+01  0.21576118064E+02 -0.67961543394E+01  0.23501632728E+02  0.10000000000E+01 0.  0.
    9000005    1    3    3    0    0  0.12446243532E+02  0.41674463897E+01 -0.46795743357E+03  0.46814253835E+03  0.10000000000E+01 0.  0.
          4    1    1    2  501    0 -0.61525835177E+01 -0.25743564454E+02  0.10986737400E+01  0.26521790639E+02  0.12700000000E+01 0.  1.
<mgrwt>
<rscale>  1 0.12776158E+03</rscale>
<asrwt>0</asrwt>
<pdfrwt beam="1">  1       21 0.34238015E-02 0.12776158E+03</pdfrwt>
<pdfrwt beam="2">  1        4 0.76296704E-01 0.12776158E+03</pdfrwt>
<totfact> 0.32257354E+04</totfact>
</mgrwt>
</event>
<event>
 6    4  0.3995738E-003  0.1267263E+03  0.7818608E-02  0.1232396E+00
         21   -1    0    0  501  502  0.00000000000E+00  0.00000000000E+00  0.41169050263E+02  0.41169050263E+02  0.00000000000E+00 0.  1.
         -4   -1    0    0    0  501 -0.00000000000E+00 -0.00000000000E+00 -0.13274728180E+03  0.13275335674E+03  0.12700000000E+01 0.  1.
         25    2    1    2    0    0 -0.20730973783E+02  0.21510925253E+01 -0.82056916166E+02  0.15097314079E+03  0.12500060511E+03 0.  0.
    9000005    1    3    3    0    0 -0.40136696907E+02  0.19519706738E+02  0.17583383987E+02  0.47980712606E+02  0.10000000000E+01 0.  0.
    9000005    1    3    3    0    0  0.19405723123E+02 -0.17368614213E+02 -0.99640300152E+02  0.10299242819E+03  0.10000000000E+01 0.  0.
         -4    1    1    2    0  502  0.20730973783E+02 -0.21510925253E+01 -0.95213153709E+01  0.22949266207E+02  0.12700000000E+01 0. -1.
<mgrwt>
<rscale>  1 0.12672629E+03</rscale>
<asrwt>0</asrwt>
<pdfrwt beam="1">  1       21 0.63337001E-02 0.12672629E+03</pdfrwt>
<pdfrwt beam="2">  1       -4 0.20424633E-01 0.12672629E+03</pdfrwt>
<totfact> 0.15486583E+05</totfact>
</mgrwt>
</event>
<event>
 6    4  0.3995738E-003  0.1291857E+03  0.7818608E-02  0.1228669E+00
         21   -1    0    0  501  502  0.00000000000E+00  0.00000000000E+00  0.10963922543E+03  0.10963922543E+03  0.00000000000E+00 0.  1.
          4   -1    0    0  502    0 -0.00000000000E+00 -0.00000000000E+00 -0.60362402709E+02  0.60375761369E+02  0.12700000000E+01 0.  1.
         25    2    1    2    0    0 -0.19621331425E+02 -0.26042999771E+02  0.31992852423E+02  0.13308826188E+03  0.12500283341E+03 0.  0.
    9000005    1    3    3    0    0  0.65613422725E+01  0.29923690797E+02  0.58346169674E+02  0.65907161970E+02  0.10000000000E+01 0.  0.
    9000005    1    3    3    0    0 -0.26182673698E+02 -0.55966690568E+02 -0.26353317251E+02  0.67181099911E+02  0.10000000000E+01 0.  0.
          4    1    1    2  501    0  0.19621331425E+02  0.26042999771E+02  0.17283970300E+02  0.36926724920E+02  0.12700000000E+01 0. -1.
<mgrwt>
<rscale>  1 0.12918569E+03</rscale>
<asrwt>0</asrwt>
<pdfrwt beam="1">  1       21 0.16867573E-01 0.12918569E+03</pdfrwt>
<pdfrwt beam="2">  1        4 0.92881169E-02 0.12918569E+03</pdfrwt>
<totfact> 0.10896662E+05</totfact>
</mgrwt>
</event>
<event>
 6    4  0.3995738E-003  0.1286406E+03  0.7818608E-02  0.1229487E+00
         21   -1    0    0  501  502  0.00000000000E+00  0.00000000000E+00  0.18103666358E+04  0.18103666358E+04  0.00000000000E+00 0. -1.
         -4   -1    0    0    0  501 -0.00000000000E+00 -0.00000000000E+00 -0.69872219248E+01  0.71017019246E+01  0.12700000000E+01 0. -1.
         25    2    1    2    0    0 -0.24217660905E+02  0.18355151604E+02  0.59685440870E+03  0.61056005301E+03  0.12499994585E+03 0.  0.
    9000005    1    3    3    0    0 -0.63986109486E+02 -0.15678567778E+02  0.44687258675E+03  0.45170360690E+03  0.10000000000E+01 0.  0.
    9000005    1    3    3    0    0  0.39768448581E+02  0.34033719383E+02  0.14998182195E+03  0.15885644611E+03  0.10000000000E+01 0.  0.
         -4    1    1    2    0  502  0.24217660905E+02 -0.18355151604E+02  0.12065250052E+04  0.12069082848E+04  0.12700000000E+01 0.  1.
<mgrwt>
<rscale>  1 0.12864056E+03</rscale>
<asrwt>0</asrwt>
<pdfrwt beam="1">  1       21 0.27851757E+00 0.12864056E+03</pdfrwt>
<pdfrwt beam="2">  1       -4 0.10837991E-02 0.12864056E+03</pdfrwt>
<totfact> 0.50653256E+03</totfact>
</mgrwt>
</event>
<event>
 6    4  0.3995738E-003  0.1302799E+03  0.7818608E-02  0.1227041E+00
         -4   -1    0    0    0  501 -0.00000000000E+00  0.00000000000E+00  0.17186966429E+03  0.17187435645E+03  0.12700000000E+01 0.  1.
         21   -1    0    0  501  502  0.00000000000E+00 -0.00000000000E+00 -0.47431858217E+02  0.47431858217E+02  0.00000000000E+00 0. -1.
         25    2    1    2    0    0  0.35648567230E+02  0.79716639820E+01  0.12792893309E+03  0.18258879863E+03  0.12505394713E+03 0.  0.
    9000005    1    3    3    0    0 -0.29388548622E+02  0.17481419406E+02 -0.47309833445E+01  0.34535040437E+02  0.10000000000E+01 0.  0.
    9000005    1    3    3    0    0  0.65037115853E+02 -0.95097554235E+01  0.13265991644E+03  0.14805375820E+03  0.10000000000E+01 0.  0.
         -4    1    1    2    0  502 -0.35648567230E+02 -0.79716639820E+01 -0.34911270167E+01  0.36717416032E+02  0.12700000000E+01 0. -1.
<mgrwt>
<rscale>  1 0.13027992E+03</rscale>
<asrwt>0</asrwt>
<pdfrwt beam="2">  1       21 0.72972091E-02 0.13027992E+03</pdfrwt>
<pdfrwt beam="1">  1       -4 0.26443155E-01 0.13027992E+03</pdfrwt>
<totfact> 0.76146158E+04</totfact>
</mgrwt>
</event>
<event>
 6    4  0.3995738E-003  0.1266309E+03  0.7818608E-02  0.1232542E+00
         -4   -1    0    0    0  501 -0.00000000000E+00  0.00000000000E+00  0.14504134139E+04  0.14504139699E+04  0.12700000000E+01 0. -1.
         21   -1    0    0  501  502  0.00000000000E+00 -0.00000000000E+00 -0.81477867047E+01  0.81477867047E+01  0.00000000000E+00 0.  1.
         25    2    1    2    0    0 -0.17459441115E+02 -0.10298096279E+02  0.14283257798E+04  0.14339281390E+04  0.12499796667E+03 0.  0.
    9000005    1    3    3    0    0 -0.99268093247E+01  0.49177605693E+02  0.10189370151E+04  0.10201718577E+04  0.10000000000E+01 0.  0.
    9000005    1    3    3    0    0 -0.75326317899E+01 -0.59475701972E+02  0.40938876470E+03  0.41375628132E+03  0.10000000000E+01 0.  0.
         -4    1    1    2    0  502  0.17459441115E+02  0.10298096279E+02  0.13939847344E+02  0.24633617578E+02  0.12700000000E+01 0.  1.
<mgrwt>
<rscale>  1 0.12663086E+03</rscale>
<asrwt>0</asrwt>
<pdfrwt beam="2">  1       21 0.12535068E-02 0.12663086E+03</pdfrwt>
<pdfrwt beam="1">  1       -4 0.22314798E+00 0.12663086E+03</pdfrwt>
<totfact> 0.11205162E+04</totfact>
</mgrwt>
</event>
<event>
 6    4  0.3995738E-003  0.1273449E+03  0.7818608E-02  0.1231449E+00
          4   -1    0    0  502    0 -0.00000000000E+00  0.00000000000E+00  0.65073456805E+02  0.65085848543E+02  0.12700000000E+01 0.  1.
         21   -1    0    0  501  502  0.00000000000E+00 -0.00000000000E+00 -0.15658348590E+03  0.15658348590E+03  0.00000000000E+00 0. -1.
         25    2    1    2    0    0 -0.19714417219E+02  0.14255786166E+02 -0.38658244984E+00  0.12734552454E+03  0.12499938996E+03 0.  0.
    9000005    1    3    3    0    0 -0.24378919491E+02  0.23601004614E+02 -0.58855065202E+02  0.67943048462E+02  0.10000000000E+01 0.  0.
    9000005    1    3    3    0    0  0.46645022720E+01 -0.93452184488E+01  0.58468482752E+02  0.59402476081E+02  0.10000000000E+01 0.  0.
          4    1    1    2  501    0  0.19714417219E+02 -0.14255786166E+02 -0.91123446648E+02  0.94323809902E+02  0.12700000000E+01 0. -1.
<mgrwt>
<rscale>  1 0.12734494E+03</rscale>
<asrwt>0</asrwt>
<pdfrwt beam="2">  1       21 0.24089767E-01 0.12734494E+03</pdfrwt>
<pdfrwt beam="1">  1        4 0.10012651E-01 0.12734494E+03</pdfrwt>
<totfact> 0.49585412E+04</totfact>
</mgrwt>
</event>
<event>
 6    4  0.3995738E-003  0.1277897E+03  0.7818608E-02  0.1230773E+00
         21   -1    0    0  501  502  0.00000000000E+00  0.00000000000E+00  0.53310515298E+03  0.53310515298E+03  0.00000000000E+00 0. -1.
         -4   -1    0    0    0  501 -0.00000000000E+00 -0.00000000000E+00 -0.11143829072E+02  0.11215963016E+02  0.12700000000E+01 0. -1.
         25    2    1    2    0    0  0.40122897722E+01  0.26247096838E+02  0.42755907680E+03  0.44624764496E+03  0.12500075167E+03 0.  0.
    9000005    1    3    3    0    0 -0.47197275542E+02  0.52113850073E+01  0.33530797887E+03  0.33865496017E+03  0.10000000000E+01 0.  0.
    9000005    1    3    3    0    0  0.51209565314E+02  0.21035711830E+02  0.92251097931E+02  0.10759268479E+03  0.10000000000E+01 0.  0.
         -4    1    1    2    0  502 -0.40122897722E+01 -0.26247096838E+02  0.94402247107E+02  0.98073471033E+02  0.12700000000E+01 0.  1.
<mgrwt>
<rscale>  1 0.12778966E+03</rscale>
<asrwt>0</asrwt>
<pdfrwt beam="1">  1       21 0.82016157E-01 0.12778966E+03</pdfrwt>
<pdfrwt beam="2">  1       -4 0.17201008E-02 0.12778966E+03</pdfrwt>
<totfact> 0.67698149E+04</totfact>
</mgrwt>
</event>
<event>
 6    4  0.3995738E-003  0.1270309E+03  0.7818608E-02  0.1231929E+00
         21   -1    0    0  501  502  0.00000000000E+00  0.00000000000E+00  0.72492446051E+02  0.72492446051E+02  0.00000000000E+00 0.  1.
          4   -1    0    0  502    0 -0.00000000000E+00 -0.00000000000E+00 -0.77522057411E+02  0.77532459559E+02  0.12700000000E+01 0.  1.
         25    2    1    2    0    0 -0.11426120811E+01  0.22603052074E+02 -0.73219084659E+01  0.12724177476E+03  0.12499862149E+03 0.  0.
    9000005    1    3    3    0    0 -0.12716117819E+02  0.69120946405E+00  0.56942580896E+02  0.58357818174E+02  0.10000000000E+01 0.  0.
    9000005    1    3    3    0    0  0.11573505738E+02  0.21911842610E+02 -0.64264489362E+02  0.68883956583E+02  0.10000000000E+01 0.  0.
          4    1    1    2  501    0  0.11426120811E+01 -0.22603052074E+02  0.22922971050E+01  0.22783130853E+02  0.12700000000E+01 0. -1.
<mgrwt>
<rscale>  1 0.12703094E+03</rscale>
<asrwt>0</asrwt>
<pdfrwt beam="1">  1       21 0.11152684E-01 0.12703094E+03</pdfrwt>
<pdfrwt beam="2">  1        4 0.11928126E-01 0.12703094E+03</pdfrwt>
<totfact> 0.14936154E+05</totfact>
</mgrwt>
</event>
<event>
 6    4  0.3995738E-003  0.1279291E+03  0.7818608E-02  0.1230561E+00
         21   -1    0    0  501  502  0.00000000000E+00  0.00000000000E+00  0.55169059453E+03  0.55169059453E+03  0.00000000000E+00 0. -1.
         -4   -1    0    0    0  501 -0.00000000000E+00 -0.00000000000E+00 -0.21593751419E+02  0.21631065632E+02  0.12700000000E+01 0.  1.
         25    2    1    2    0    0 -0.18735785987E+02  0.19714106956E+02  0.17286558794E+03  0.21505436014E+03  0.12500476244E+03 0.  0.
    9000005    1    3    3    0    0 -0.20951613517E+02  0.72026946908E+02  0.91949957740E+02  0.11867032451E+03  0.10000000000E+01 0.  0.
    9000005    1    3    3    0    0  0.22158275306E+01 -0.52312839952E+02  0.80915630195E+02  0.96384035635E+02  0.10000000000E+01 0.  0.
         -4    1    1    2    0  502  0.18735785987E+02 -0.19714106956E+02  0.35723125517E+03  0.35826730002E+03  0.12700000000E+01 0. -1.
<mgrwt>
<rscale>  1 0.12792915E+03</rscale>
<asrwt>0</asrwt>
<pdfrwt beam="1">  1       21 0.84875465E-01 0.12792915E+03</pdfrwt>
<pdfrwt beam="2">  1       -4 0.33250988E-02 0.12792915E+03</pdfrwt>
<totfact> 0.22565474E+04</totfact>
</mgrwt>
</event>
<event>
 6    4  0.3995738E-003  0.1409563E+03  0.7818608E-02  0.1212048E+00
          4   -1    0    0  502    0 -0.00000000000E+00  0.00000000000E+00  0.71624810359E+02  0.71636068841E+02  0.12700000000E+01 0. -1.
         21   -1    0    0  501  502  0.00000000000E+00 -0.00000000000E+00 -0.14859082085E+03  0.14859082085E+03  0.00000000000E+00 0. -1.
         25    2    1    2    0    0 -0.62947524260E+02  0.16788754839E+02 -0.57366151077E+02  0.15218263579E+03  0.12499770497E+03 0.  0.
    9000005    1    3    3    0    0  0.48634400202E+01 -0.73293043283E+01 -0.77052864061E+02  0.77559755098E+02  0.10000000000E+01 0.  0.
    9000005    1    3    3    0    0 -0.67810964280E+02  0.24118059167E+02  0.19686712984E+02  0.74622880692E+02  0.10000000000E+01 0.  0.
          4    1    1    2  501    0  0.62947524260E+02 -0.16788754839E+02 -0.19599859410E+02  0.68044253897E+02  0.12700000000E+01 0.  1.
<mgrwt>
<rscale>  1 0.14095630E+03</rscale>
<asrwt>0</asrwt>
<pdfrwt beam="2">  1       21 0.22860126E-01 0.14095630E+03</pdfrwt>
<pdfrwt beam="1">  1        4 0.11020485E-01 0.14095630E+03</pdfrwt>
<totfact> 0.47069842E+04</totfact>
</mgrwt>
</event>
<event>
 6    4  0.3995738E-003  0.1272217E+03  0.7818608E-02  0.1231637E+00
         21   -1    0    0  501  502  0.00000000000E+00  0.00000000000E+00  0.26829282467E+03  0.26829282467E+03  0.00000000000E+00 0. -1.
         -4   -1    0    0    0  501 -0.00000000000E+00 -0.00000000000E+00 -0.64975308517E+02  0.64987718969E+02  0.12700000000E+01 0.  1.
         25    2    1    2    0    0 -0.14189204690E+01  0.23605152681E+02 -0.13685672151E+01  0.12722903990E+03  0.12500455611E+03 0.  0.
    9000005    1    3    3    0    0  0.52558511749E+02 -0.19956130420E+02 -0.10690803916E+02  0.57235806861E+02  0.10000000000E+01 0.  0.
    9000005    1    3    3    0    0 -0.53977432218E+02  0.43561283101E+02  0.93222367012E+01  0.69993233040E+02  0.10000000000E+01 0.  0.
         -4    1    1    2    0  502  0.14189204690E+01 -0.23605152681E+02  0.20468608337E+03  0.20605150374E+03  0.12700000000E+01 0. -1.
<mgrwt>
<rscale>  1 0.12722168E+03</rscale>
<asrwt>0</asrwt>
<pdfrwt beam="1">  1       21 0.41275819E-01 0.12722168E+03</pdfrwt>
<pdfrwt beam="2">  1       -4 0.99973873E-02 0.12722168E+03</pdfrwt>
<totfact> 0.17480054E+04</totfact>
</mgrwt>
</event>
<event>
 6    4  0.3995738E-003  0.1292444E+03  0.7818608E-02  0.1228581E+00
         21   -1    0    0  501  502  0.00000000000E+00  0.00000000000E+00  0.27479150317E+02  0.27479150317E+02  0.00000000000E+00 0.  1.
         -4   -1    0    0    0  501 -0.00000000000E+00 -0.00000000000E+00 -0.10834525239E+04  0.10834532683E+04  0.12700000000E+01 0. -1.
         25    2    1    2    0    0  0.31059424336E+02 -0.10733734638E+02 -0.10680927876E+04  0.10758839665E+04  0.12499682170E+03 0.  0.
    9000005    1    3    3    0    0 -0.26263041171E+02 -0.91505058833E+01 -0.59768710886E+02  0.65930098516E+02  0.10000000000E+01 0.  0.
    9000005    1    3    3    0    0  0.57322465507E+02 -0.15832287549E+01 -0.10083240767E+04  0.10099538680E+04  0.10000000000E+01 0.  0.
         -4    1    1    2    0  502 -0.31059424336E+02  0.10733734638E+02  0.12119414010E+02  0.35048452110E+02  0.12700000000E+01 0.  1.
<mgrwt>
<rscale>  1 0.12924437E+03</rscale>
<asrwt>0</asrwt>
<pdfrwt beam="1">  1       21 0.42275620E-02 0.12924437E+03</pdfrwt>
<pdfrwt beam="2">  1       -4 0.16668730E+00 0.12924437E+03</pdfrwt>
<totfact> 0.35439832E+03</totfact>
</mgrwt>
</event>
<event>
 6    4  0.3995738E-003  0.1308929E+03  0.7818608E-02  0.1226137E+00
         21   -1    0    0  501  502  0.00000000000E+00  0.00000000000E+00  0.47398942761E+02  0.47398942761E+02  0.00000000000E+00 0. -1.
          4   -1    0    0  502    0 -0.00000000000E+00 -0.00000000000E+00 -0.18727338920E+03  0.18727769543E+03  0.12700000000E+01 0.  1.
         25    2    1    2    0    0  0.12340505491E+02  0.36812232002E+02 -0.14517469896E+03  0.19547033668E+03  0.12500212320E+03 0.  0.
    9000005    1    3    3    0    0 -0.23980242985E+02 -0.38143783453E+02 -0.70077513645E+02  0.83317814352E+02  0.10000000000E+01 0.  0.
    9000005    1    3    3    0    0  0.36320748476E+02  0.74956015455E+02 -0.75097185318E+02  0.11215252233E+03  0.10000000000E+01 0.  0.
          4    1    1    2  501    0 -0.12340505491E+02 -0.36812232002E+02  0.53002525195E+01  0.39206301503E+02  0.12700000000E+01 0. -1.
<mgrwt>
<rscale>  1 0.13089293E+03</rscale>
<asrwt>0</asrwt>
<pdfrwt beam="1">  1       21 0.72921452E-02 0.13089293E+03</pdfrwt>
<pdfrwt beam="2">  1        4 0.28812930E-01 0.13089293E+03</pdfrwt>
<totfact> 0.64986140E+04</totfact>
</mgrwt>
</event>
<event>
 6    4  0.3995738E-003  0.1269623E+03  0.7818608E-02  0.1232034E+00
          4   -1    0    0  502    0 -0.00000000000E+00  0.00000000000E+00  0.22031541117E+03  0.22031907158E+03  0.12700000000E+01 0. -1.
         21   -1    0    0  501  502  0.00000000000E+00 -0.00000000000E+00 -0.25899787479E+02  0.25899787479E+02  0.00000000000E+00 0. -1.
         25    2    1    2    0    0  0.64963050660E+00 -0.22229990291E+02  0.17757317095E+03  0.21829260613E+03  0.12499934544E+03 0.  0.
    9000005    1    3    3    0    0 -0.34721488714E+02  0.18441624652E+02  0.15488994146E+03  0.15980478485E+03  0.10000000000E+01 0.  0.
    9000005    1    3    3    0    0  0.35371119221E+02 -0.40671614943E+02  0.22683229491E+02  0.58487821272E+02  0.10000000000E+01 0.  0.
          4    1    1    2  501    0 -0.64963050660E+00  0.22229990291E+02  0.16842452746E+02  0.27926252929E+02  0.12700000000E+01 0.  1.
<mgrwt>
<rscale>  1 0.12696232E+03</rscale>
<asrwt>0</asrwt>
<pdfrwt beam="2">  1       21 0.39845829E-02 0.12696232E+03</pdfrwt>
<pdfrwt beam="1">  1        4 0.33897354E-01 0.12696232E+03</pdfrwt>
<totfact> 0.13170654E+05</totfact>
</mgrwt>
</event>
<event>
 6    4  0.3995738E-003  0.1273886E+03  0.7818608E-02  0.1231383E+00
         21   -1    0    0  501  502  0.00000000000E+00  0.00000000000E+00  0.60014944014E+02  0.60014944014E+02  0.00000000000E+00 0. -1.
         -4   -1    0    0    0  501 -0.00000000000E+00 -0.00000000000E+00 -0.99289933064E+02  0.99298054905E+02  0.12700000000E+01 0. -1.
         25    2    1    2    0    0  0.17683935544E+02 -0.17071261669E+02 -0.42936476630E+02  0.13442989335E+03  0.12499482249E+03 0.  0.
    9000005    1    3    3    0    0  0.44306365865E+02 -0.13237648294E+02  0.31044367706E+02  0.55704956286E+02  0.10000000000E+01 0.  0.
    9000005    1    3    3    0    0 -0.26622430322E+02 -0.38336133741E+01 -0.73980844336E+02  0.78724937068E+02  0.10000000000E+01 0.  0.
         -4    1    1    2    0  502 -0.17683935544E+02  0.17071261669E+02  0.36614875796E+01  0.24883105565E+02  0.12700000000E+01 0.  1.
<mgrwt>
<rscale>  1 0.12738860E+03</rscale>
<asrwt>0</asrwt>
<pdfrwt beam="1">  1       21 0.92330683E-02 0.12738860E+03</pdfrwt>
<pdfrwt beam="2">  1       -4 0.15277033E-01 0.12738860E+03</pdfrwt>
<totfact> 0.13566735E+05</totfact>
</mgrwt>
</event>
<event>
 6    4  0.3995738E-003  0.1276870E+03  0.7818608E-02  0.1230929E+00
         -4   -1    0    0    0  501 -0.00000000000E+00  0.00000000000E+00  0.12099363976E+03  0.12100030481E+03  0.12700000000E+01 0.  1.
         21   -1    0    0  501  502  0.00000000000E+00 -0.00000000000E+00 -0.91753848830E+02  0.91753848830E+02  0.00000000000E+00 0. -1.
         25    2    1    2    0    0 -0.13523324174E+02  0.22401952511E+02  0.83455065073E+02  0.15254089411E+03  0.12497699275E+03 0.  0.
    9000005    1    3    3    0    0  0.23972734552E+02  0.20465939631E+02 -0.23404770569E+02  0.39272509116E+02  0.10000000000E+01 0.  0.
    9000005    1    3    3    0    0 -0.37496058726E+02  0.19360128801E+01  0.10685983564E+03  0.11326838499E+03  0.10000000000E+01 0.  0.
         -4    1    1    2    0  502  0.13523324174E+02 -0.22401952511E+02 -0.54215274138E+02  0.60213259527E+02  0.12700000000E+01 0. -1.
<mgrwt>
<rscale>  1 0.12768703E+03</rscale>
<asrwt>0</asrwt>
<pdfrwt beam="2">  1       21 0.14115977E-01 0.12768703E+03</pdfrwt>
<pdfrwt beam="1">  1       -4 0.18615595E-01 0.12768703E+03</pdfrwt>
<totfact> 0.45259061E+04</totfact>
</mgrwt>
</event>
<event>
 6    4  0.3995738E-003  0.1299783E+03  0.7818608E-02  0.1227488E+00
         21   -1    0    0  501  502  0.00000000000E+00  0.00000000000E+00  0.16438454797E+04  0.16438454797E+04  0.00000000000E+00 0.  1.
         -4   -1    0    0    0  501 -0.00000000000E+00 -0.00000000000E+00 -0.47460147675E+01  0.49129986946E+01  0.12700000000E+01 0. -1.
         25    2    1    2    0    0 -0.35575364634E+02 -0.20692404935E+01  0.96468848417E+03  0.97340548018E+03  0.12499787610E+03 0.  0.
    9000005    1    3    3    0    0  0.29280786350E+02 -0.28696928932E+02  0.63602973275E+03  0.63735053081E+03  0.10000000000E+01 0.  0.
    9000005    1    3    3    0    0 -0.64856150984E+02  0.26627688439E+02  0.32865875142E+03  0.33605494937E+03  0.10000000000E+01 0.  0.
         -4    1    1    2    0  502  0.35575364634E+02  0.20692404935E+01  0.67441098078E+03  0.67535299823E+03  0.12700000000E+01 0.  1.
<mgrwt>
<rscale>  1 0.12997830E+03</rscale>
<asrwt>0</asrwt>
<pdfrwt beam="1">  1       21 0.25289886E+00 0.12997830E+03</pdfrwt>
<pdfrwt beam="2">  1       -4 0.74304008E-03 0.12997830E+03</pdfrwt>
<totfact> 0.12462551E+04</totfact>
</mgrwt>
</event>
<event>
 6    4  0.3995738E-003  0.1269128E+03  0.7818608E-02  0.1232110E+00
          4   -1    0    0  502    0 -0.00000000000E+00  0.00000000000E+00  0.94444987762E+02  0.94453526209E+02  0.12700000000E+01 0.  1.
         21   -1    0    0  501  502  0.00000000000E+00 -0.00000000000E+00 -0.25624288348E+03  0.25624288348E+03  0.00000000000E+00 0.  1.
         25    2    1    2    0    0  0.21489847335E+02 -0.43962147070E+01  0.50993058920E+02  0.13677412586E+03  0.12500291678E+03 0.  0.
    9000005    1    3    3    0    0  0.44508277029E+02  0.41833742854E+02 -0.41326167720E+01  0.61230117480E+02  0.10000000000E+01 0.  0.
    9000005    1    3    3    0    0 -0.23018429694E+02 -0.46229957561E+02  0.55125675692E+02  0.75544008380E+02  0.10000000000E+01 0.  0.
          4    1    1    2  501    0 -0.21489847335E+02  0.43962147070E+01 -0.21279095464E+03  0.21392228383E+03  0.12700000000E+01 0. -1.
<mgrwt>
<rscale>  1 0.12691284E+03</rscale>
<asrwt>0</asrwt>
<pdfrwt beam="2">  1       21 0.39421982E-01 0.12691284E+03</pdfrwt>
<pdfrwt beam="1">  1        4 0.14530897E-01 0.12691284E+03</pdfrwt>
<totfact> 0.10110623E+04</totfact>
</mgrwt>
</event>
<event>
 6    4  0.3995738E-003  0.1420338E+03  0.7818608E-02  0.1210618E+00
         21   -1    0    0  501  502  0.00000000000E+00  0.00000000000E+00  0.81808940538E+03  0.81808940538E+03  0.00000000000E+00 0.  1.
          4   -1    0    0  502    0 -0.00000000000E+00 -0.00000000000E+00 -0.22513211289E+02  0.22549004025E+02  0.12700000000E+01 0. -1.
         25    2    1    2    0    0  0.37558027565E+02 -0.56011131868E+02  0.22493737368E+03  0.26602712463E+03  0.12500302650E+03 0.  0.
    9000005    1    3    3    0    0  0.27969112101E+02 -0.95700686243E+02  0.14115880553E+03  0.17282274433E+03  0.10000000000E+01 0.  0.
    9000005    1    3    3    0    0  0.95889154642E+01  0.39689554375E+02  0.83778568144E+02  0.93204380297E+02  0.10000000000E+01 0.  0.
          4    1    1    2  501    0 -0.37558027565E+02  0.56011131868E+02  0.57063882042E+03  0.57461128478E+03  0.12700000000E+01 0.  1.
<mgrwt>
<rscale>  1 0.14203383E+03</rscale>
<asrwt>0</asrwt>
<pdfrwt beam="1">  1       21 0.12585989E+00 0.14203383E+03</pdfrwt>
<pdfrwt beam="2">  1        4 0.34664007E-02 0.14203383E+03</pdfrwt>
<totfact> 0.83887980E+03</totfact>
</mgrwt>
</event>
<event>
 6    4  0.3995738E-003  0.1270782E+03  0.7818608E-02  0.1231857E+00
         21   -1    0    0  501  502  0.00000000000E+00  0.00000000000E+00  0.87369879768E+02  0.87369879768E+02  0.00000000000E+00 0.  1.
          4   -1    0    0  502    0 -0.00000000000E+00 -0.00000000000E+00 -0.68691066181E+02  0.68702805424E+02  0.12700000000E+01 0.  1.
         25    2    1    2    0    0 -0.14139048661E+02  0.17998827597E+02  0.93051451358E+00  0.12708155703E+03  0.12499994316E+03 0.  0.
    9000005    1    3    3    0    0  0.30838438122E+02 -0.51400480293E+01  0.48452254955E+02  0.57671920115E+02  0.10000000000E+01 0.  0.
    9000005    1    3    3    0    0 -0.44977486783E+02  0.23138875626E+02 -0.47521740442E+02  0.69409636918E+02  0.10000000000E+01 0.  0.
          4    1    1    2  501    0  0.14139048661E+02 -0.17998827597E+02  0.17748299074E+02  0.28991128158E+02  0.12700000000E+01 0. -1.
<mgrwt>
<rscale>  1 0.12707815E+03</rscale>
<asrwt>0</asrwt>
<pdfrwt beam="1">  1       21 0.13441520E-01 0.12707815E+03</pdfrwt>
<pdfrwt beam="2">  1        4 0.10569469E-01 0.12707815E+03</pdfrwt>
<totfact> 0.13172761E+05</totfact>
</mgrwt>
</event>
<event>
 6    4  0.3995738E-003  0.1280065E+03  0.7818608E-02  0.1230444E+00
         -4   -1    0    0    0  501 -0.00000000000E+00  0.00000000000E+00  0.14307780416E+02  0.14364034267E+02  0.12700000000E+01 0. -1.
         21   -1    0    0  501  502  0.00000000000E+00 -0.00000000000E+00 -0.59155959853E+03  0.59155959853E+03  0.00000000000E+00 0. -1.
         25    2    1    2    0    0  0.99376957752E+01 -0.25727312246E+02 -0.28567917805E+03  0.31304674787E+03  0.12500008474E+03 0.  0.
    9000005    1    3    3    0    0  0.29406197920E+02 -0.56943845878E+02 -0.26095063531E+03  0.26870720148E+03  0.10000000000E+01 0.  0.
    9000005    1    3    3    0    0 -0.19468502145E+02  0.31216533632E+02 -0.24728542746E+02  0.44339546391E+02  0.10000000000E+01 0.  0.
         -4    1    1    2    0  502 -0.99376957752E+01  0.25727312246E+02 -0.29157264007E+03  0.29287688493E+03  0.12700000000E+01 0.  1.
<mgrwt>
<rscale>  1 0.12800654E+03</rscale>
<asrwt>0</asrwt>
<pdfrwt beam="2">  1       21 0.91009145E-01 0.12800654E+03</pdfrwt>
<pdfrwt beam="1">  1       -4 0.22056297E-02 0.12800654E+03</pdfrwt>
<totfact> 0.36494328E+04</totfact>
</mgrwt>
</event>
<event>
 6    4  0.3995738E-003  0.1267971E+03  0.7818608E-02  0.1232287E+00
         -4   -1    0    0    0  501 -0.00000000000E+00  0.00000000000E+00  0.33505842961E+01  0.35831990072E+01  0.12700000000E+01 0. -1.
         21   -1    0    0  501  502  0.00000000000E+00 -0.00000000000E+00 -0.17681581976E+04  0.17681581976E+04  0.00000000000E+00 0. -1.
         25    2    1    2    0    0  0.14340237994E+02  0.15860076339E+02 -0.12329817179E+04  0.12394843343E+04  0.12498125406E+03 0.  0.
    9000005    1    3    3    0    0  0.12653817004E+02  0.69280216083E+02 -0.82791048095E+03  0.83090109633E+03  0.10000000000E+01 0.  0.
    9000005    1    3    3    0    0  0.16864209902E+01 -0.53420139744E+02 -0.40507123694E+03  0.40858323796E+03  0.10000000000E+01 0.  0.
         -4    1    1    2    0  502 -0.14340237994E+02 -0.15860076339E+02 -0.53182589544E+03  0.53225706234E+03  0.12700000000E+01 0.  1.
<mgrwt>
<rscale>  1 0.12679708E+03</rscale>
<asrwt>0</asrwt>
<pdfrwt beam="2">  1       21 0.27202381E+00 0.12679708E+03</pdfrwt>
<pdfrwt beam="1">  1       -4 0.53340407E-03 0.12679708E+03</pdfrwt>
<totfact> 0.15882469E+04</totfact>
</mgrwt>
</event>
<event>
 6    4  0.3995738E-003  0.1311984E+03  0.7818608E-02  0.1225688E+00
          4   -1    0    0  502    0 -0.00000000000E+00  0.00000000000E+00  0.54599716876E+02  0.54614485102E+02  0.12700000000E+01 0.  1.
         21   -1    0    0  501  502  0.00000000000E+00 -0.00000000000E+00 -0.17403245926E+03  0.17403245926E+03  0.00000000000E+00 0. -1.
         25    2    1    2    0    0 -0.12797783543E+02 -0.37734408068E+02 -0.35794562114E+02  0.13599368260E+03  0.12500144885E+03 0.  0.
    9000005    1    3    3    0    0 -0.51271267826E+01 -0.81571626597E+02 -0.40516562685E+02  0.91229433554E+02  0.10000000000E+01 0.  0.
    9000005    1    3    3    0    0 -0.76706567600E+01  0.43837218529E+02  0.47220005713E+01  0.44764249049E+02  0.10000000000E+01 0.  0.
          4    1    1    2  501    0  0.12797783543E+02  0.37734408068E+02 -0.83638180266E+02  0.92653261756E+02  0.12700000000E+01 0. -1.
<mgrwt>
<rscale>  1 0.13119844E+03</rscale>
<asrwt>0</asrwt>
<pdfrwt beam="2">  1       21 0.26774225E-01 0.13119844E+03</pdfrwt>
<pdfrwt beam="1">  1        4 0.84014489E-02 0.13119844E+03</pdfrwt>
<totfact> 0.54632191E+04</totfact>
</mgrwt>
</event>
<event>
 6    4  0.3995738E-003  0.1277352E+03  0.7818608E-02  0.1230856E+00
         21   -1    0    0  501  502  0.00000000000E+00  0.00000000000E+00  0.10205454775E+03  0.10205454775E+03  0.00000000000E+00 0. -1.
          4   -1    0    0  502    0 -0.00000000000E+00 -0.00000000000E+00 -0.69931517382E+02  0.69943048427E+02  0.12700000000E+01 0. -1.
         25    2    1    2    0    0  0.52328366095E+01  0.25768002506E+02 -0.34039481856E+01  0.12778049951E+03  0.12499958664E+03 0.  0.
    9000005    1    3    3    0    0 -0.68122987921E+01 -0.51865822409E+00  0.58785910944E+02  0.59190030805E+02  0.10000000000E+01 0.  0.
    9000005    1    3    3    0    0  0.12045135402E+02  0.26286660730E+02 -0.62189859130E+02  0.68590468710E+02  0.10000000000E+01 0.  0.
          4    1    1    2  501    0 -0.52328366095E+01 -0.25768002506E+02  0.35526978558E+02  0.44217096667E+02  0.12700000000E+01 0. -1.
<mgrwt>
<rscale>  1 0.12773515E+03</rscale>
<asrwt>0</asrwt>
<pdfrwt beam="1">  1       21 0.15700700E-01 0.12773515E+03</pdfrwt>
<pdfrwt beam="2">  1        4 0.10760190E-01 0.12773515E+03</pdfrwt>
<totfact> 0.96732263E+04</totfact>
</mgrwt>
</event>
<event>
 6    4  0.3995738E-003  0.2016634E+03  0.7818608E-02  0.1148343E+00
         21   -1    0    0  501  502  0.00000000000E+00  0.00000000000E+00  0.22144032551E+03  0.22144032551E+03  0.00000000000E+00 0.  1.
         -4   -1    0    0    0  501 -0.00000000000E+00 -0.00000000000E+00 -0.18372244815E+03  0.18372683760E+03  0.12700000000E+01 0. -1.
         25    2    1    2    0    0  0.33927306131E+02 -0.15457846416E+03 -0.70288755600E+02  0.21356181519E+03  0.12499030387E+03 0.  0.
    9000005    1    3    3    0    0  0.42552905787E+02 -0.24300689156E+02 -0.66923053756E+02  0.82951602808E+02  0.10000000000E+01 0.  0.
    9000005    1    3    3    0    0 -0.86255996552E+01 -0.13027777501E+03 -0.33657018440E+01  0.13061021239E+03  0.10000000000E+01 0.  0.
         -4    1    1    2    0  502 -0.33927306131E+02  0.15457846416E+03  0.10800663296E+03  0.19160534791E+03  0.12700000000E+01 0.  1.
<mgrwt>
<rscale>  1 0.20166343E+03</rscale>
<asrwt>0</asrwt>
<pdfrwt beam="1">  1       21 0.34067742E-01 0.20166343E+03</pdfrwt>
<pdfrwt beam="2">  1       -4 0.28265610E-01 0.20166343E+03</pdfrwt>
<totfact> 0.41611770E+03</totfact>
</mgrwt>
</event>
<event>
 6    4  0.3995738E-003  0.1275560E+03  0.7818608E-02  0.1231128E+00
          4   -1    0    0  502    0 -0.00000000000E+00  0.00000000000E+00  0.83550017691E+03  0.83550114214E+03  0.12700000000E+01 0. -1.
         21   -1    0    0  501  502  0.00000000000E+00 -0.00000000000E+00 -0.22753075297E+02  0.22753075297E+02  0.00000000000E+00 0.  1.
         25    2    1    2    0    0 -0.17903935023E+02  0.18027731213E+02  0.82150545223E+03  0.83134935566E+03  0.12499997256E+03 0.  0.
    9000005    1    3    3    0    0  0.42723461319E+02  0.36575850042E+02  0.53288390837E+03  0.53584451733E+03  0.10000000000E+01 0.  0.
    9000005    1    3    3    0    0 -0.60627396342E+02 -0.18548118829E+02  0.28862154386E+03  0.29550483833E+03  0.10000000000E+01 0.  0.
          4    1    1    2  501    0  0.17903935023E+02 -0.18027731213E+02 -0.87583506086E+01  0.26904861780E+02  0.12700000000E+01 0.  1.
<mgrwt>
<rscale>  1 0.12755604E+03</rscale>
<asrwt>0</asrwt>
<pdfrwt beam="2">  1       21 0.35004738E-02 0.12755604E+03</pdfrwt>
<pdfrwt beam="1">  1        4 0.12854127E+00 0.12755604E+03</pdfrwt>
<totfact> 0.93400109E+03</totfact>
</mgrwt>
</event>
<event>
 6    4  0.3995738E-003  0.1367331E+03  0.7818608E-02  0.1217794E+00
         -4   -1    0    0    0  501 -0.00000000000E+00  0.00000000000E+00  0.57255185510E+02  0.57269268965E+02  0.12700000000E+01 0. -1.
         21   -1    0    0  501  502  0.00000000000E+00 -0.00000000000E+00 -0.20631233871E+03  0.20631233871E+03  0.00000000000E+00 0.  1.
         25    2    1    2    0    0 -0.33246107531E+02 -0.44336117723E+02 -0.42021910844E+02  0.14304467969E+03  0.12499977759E+03 0.  0.
    9000005    1    3    3    0    0 -0.44489441609E+02 -0.74386132141E+02  0.41849064565E+01  0.86782028736E+02  0.10000000000E+01 0.  0.
    9000005    1    3    3    0    0  0.11243334078E+02  0.30050014418E+02 -0.46206817301E+02  0.56262650958E+02  0.10000000000E+01 0.  0.
         -4    1    1    2    0  502  0.33246107531E+02  0.44336117723E+02 -0.10703524236E+03  0.12053692798E+03  0.12700000000E+01 0.  1.
<mgrwt>
<rscale>  1 0.13673310E+03</rscale>
<asrwt>0</asrwt>
<pdfrwt beam="2">  1       21 0.31740359E-01 0.13673310E+03</pdfrwt>
<pdfrwt beam="1">  1       -4 0.88098742E-02 0.13673310E+03</pdfrwt>
<totfact> 0.36549457E+04</totfact>
</mgrwt>
</event>
<event>
 6    4  0.3995738E-003  0.1308805E+03  0.7818608E-02  0.1226155E+00
         -4   -1    0    0    0  501 -0.00000000000E+00  0.00000000000E+00  0.84929340327E+02  0.84938835337E+02  0.12700000000E+01 0. -1.
         21   -1    0    0  501  502  0.00000000000E+00 -0.00000000000E+00 -0.89614929412E+02  0.89614929412E+02  0.00000000000E+00 0. -1.
         25    2    1    2    0    0  0.38761658683E+02 -0.15241973021E+01  0.13721248040E+02  0.13159781156E+03  0.12499968800E+03 0.  0.
    9000005    1    3    3    0    0  0.71108393776E+02 -0.89880171444E+01  0.46091133863E+02  0.85220776448E+02  0.10000000000E+01 0.  0.
    9000005    1    3    3    0    0 -0.32346735093E+02  0.74638198423E+01 -0.32369885824E+02  0.46377035115E+02  0.10000000000E+01 0.  0.
         -4    1    1    2    0  502 -0.38761658683E+02  0.15241973021E+01 -0.18406837125E+02  0.42955953187E+02  0.12700000000E+01 0.  1.
<mgrwt>
<rscale>  1 0.13088052E+03</rscale>
<asrwt>0</asrwt>
<pdfrwt beam="2">  1       21 0.13786912E-01 0.13088052E+03</pdfrwt>
<pdfrwt beam="1">  1       -4 0.13067475E-01 0.13088052E+03</pdfrwt>
<totfact> 0.88028453E+04</totfact>
</mgrwt>
</event>
<event>
 6    4  0.3995738E-003  0.1463959E+03  0.7818608E-02  0.1204973E+00
          4   -1    0    0  502    0 -0.00000000000E+00  0.00000000000E+00  0.16141409817E+03  0.16141909425E+03  0.12700000000E+01 0. -1.
         21   -1    0    0  501  502  0.00000000000E+00 -0.00000000000E+00 -0.16006451263E+03  0.16006451263E+03  0.00000000000E+00 0.  1.
         25    2    1    2    0    0  0.74959238344E+02 -0.13697450914E+02  0.11395020436E+03  0.18551662621E+03  0.12500104780E+03 0.  0.
    9000005    1    3    3    0    0 -0.69047328664E+01 -0.30382234041E+01  0.10177919933E+03  0.10206327231E+03  0.10000000000E+01 0.  0.
    9000005    1    3    3    0    0  0.81863971211E+02 -0.10659227509E+02  0.12171005025E+02  0.83453353898E+02  0.10000000000E+01 0.  0.
          4    1    1    2  501    0 -0.74959238344E+02  0.13697450914E+02 -0.11260061881E+03  0.13596698067E+03  0.12700000000E+01 0.  1.
<mgrwt>
<rscale>  1 0.14639593E+03</rscale>
<asrwt>0</asrwt>
<pdfrwt beam="2">  1       21 0.24625310E-01 0.14639593E+03</pdfrwt>
<pdfrwt beam="1">  1        4 0.24833710E-01 0.14639593E+03</pdfrwt>
<totfact> 0.97631777E+03</totfact>
</mgrwt>
</event>
<event>
 6    4  0.3995738E-003  0.1602176E+03  0.7818608E-02  0.1188451E+00
          4   -1    0    0  502    0 -0.00000000000E+00  0.00000000000E+00  0.15214425976E+04  0.15214431277E+04  0.12700000000E+01 0.  1.
         21   -1    0    0  501  502  0.00000000000E+00 -0.00000000000E+00 -0.20787959528E+02  0.20787959528E+02  0.00000000000E+00 0. -1.
         25    2    1    2    0    0 -0.77620932576E+02  0.63398112982E+02  0.13606330143E+04  0.13700335323E+04  0.12500139981E+03 0.  0.
    9000005    1    3    3    0    0  0.21360029186E+02  0.53539611630E+02  0.63539267315E+03  0.63800281343E+03  0.10000000000E+01 0.  0.
    9000005    1    3    3    0    0 -0.98980961762E+02  0.98585013526E+01  0.72524034120E+03  0.73203071885E+03  0.10000000000E+01 0.  0.
          4    1    1    2  501    0  0.77620932576E+02 -0.63398112982E+02  0.14002162375E+03  0.17219755492E+03  0.12700000000E+01 0. -1.
<mgrwt>
<rscale>  1 0.16021760E+03</rscale>
<asrwt>0</asrwt>
<pdfrwt beam="2">  1       21 0.31981488E-02 0.16021760E+03</pdfrwt>
<pdfrwt beam="1">  1        4 0.23407103E+00 0.16021760E+03</pdfrwt>
<totfact> 0.21488181E+03</totfact>
</mgrwt>
</event>
<event>
 6    4  0.3995738E-003  0.1297063E+03  0.7818608E-02  0.1227892E+00
          4   -1    0    0  502    0 -0.00000000000E+00  0.00000000000E+00  0.13133084526E+04  0.13133090666E+04  0.12700000000E+01 0.  1.
         21   -1    0    0  501  502  0.00000000000E+00 -0.00000000000E+00 -0.59269519208E+01  0.59269519208E+01  0.00000000000E+00 0.  1.
         25    2    1    2    0    0 -0.25101851332E+02 -0.23846797776E+02  0.11839635015E+04  0.11910471419E+04  0.12499979375E+03 0.  0.
    9000005    1    3    3    0    0 -0.59164390804E+02  0.13822478061E+02  0.93400101189E+03  0.93597562802E+03  0.10000000000E+01 0.  0.
    9000005    1    3    3    0    0  0.34062539471E+02 -0.37669275836E+02  0.24996248964E+03  0.25507151383E+03  0.10000000000E+01 0.  0.
          4    1    1    2  501    0  0.25101851332E+02  0.23846797776E+02  0.12341799913E+03  0.12818887671E+03  0.12700000000E+01 0. -1.
<mgrwt>
<rscale>  1 0.12970629E+03</rscale>
<asrwt>0</asrwt>
<pdfrwt beam="2">  1       21 0.91183981E-03 0.12970629E+03</pdfrwt>
<pdfrwt beam="1">  1        4 0.20205773E+00 0.12970629E+03</pdfrwt>
<totfact> 0.24877686E+04</totfact>
</mgrwt>
</event>
<event>
 6    4  0.3995738E-003  0.1525208E+03  0.7818608E-02  0.1197409E+00
          4   -1    0    0  502    0 -0.00000000000E+00  0.00000000000E+00  0.45945401352E+02  0.45962950356E+02  0.12700000000E+01 0. -1.
         21   -1    0    0  501  502  0.00000000000E+00 -0.00000000000E+00 -0.32482570360E+03  0.32482570360E+03  0.00000000000E+00 0.  1.
         25    2    1    2    0    0 -0.44482510457E+02  0.75228905728E+02 -0.14205262619E+03  0.20842638054E+03  0.12499810200E+03 0.  0.
    9000005    1    3    3    0    0 -0.55963592581E+02 -0.13839934605E+02 -0.82549361014E+02  0.10069192862E+03  0.10000000000E+01 0.  0.
    9000005    1    3    3    0    0  0.11481082124E+02  0.89068840333E+02 -0.59503265180E+02  0.10773445193E+03  0.10000000000E+01 0.  0.
          4    1    1    2  501    0  0.44482510457E+02 -0.75228905728E+02 -0.13682767606E+03  0.16236227342E+03  0.12700000000E+01 0.  1.
<mgrwt>
<rscale>  1 0.15252084E+03</rscale>
<asrwt>0</asrwt>
<pdfrwt beam="2">  1       21 0.49973187E-01 0.15252084E+03</pdfrwt>
<pdfrwt beam="1">  1        4 0.70700639E-02 0.15252084E+03</pdfrwt>
<totfact> 0.21398444E+04</totfact>
</mgrwt>
</event>
<event>
 6    4  0.3995738E-003  0.1343477E+03  0.7818608E-02  0.1221144E+00
          4   -1    0    0  502    0 -0.00000000000E+00  0.00000000000E+00  0.18200686872E+03  0.18201129955E+03  0.12700000000E+01 0.  1.
         21   -1    0    0  501  502  0.00000000000E+00 -0.00000000000E+00 -0.48240596032E+02  0.48240596032E+02  0.00000000000E+00 0.  1.
         25    2    1    2    0    0  0.16507058502E+02  0.46384421072E+02  0.76052258838E+02  0.15438017625E+03  0.12500118098E+03 0.  0.
    9000005    1    3    3    0    0 -0.80740419587E+01  0.22266176138E+01 -0.33064662892E+02  0.34123597579E+02  0.10000000000E+01 0.  0.
    9000005    1    3    3    0    0  0.24581100461E+02  0.44157803459E+02  0.10911692173E+03  0.12025657867E+03  0.10000000000E+01 0.  0.
          4    1    1    2  501    0 -0.16507058502E+02 -0.46384421072E+02  0.57714013852E+02  0.75871719327E+02  0.12700000000E+01 0. -1.
<mgrwt>
<rscale>  1 0.13434766E+03</rscale>
<asrwt>0</asrwt>
<pdfrwt beam="2">  1       21 0.74216303E-02 0.13434766E+03</pdfrwt>
<pdfrwt beam="1">  1        4 0.28002683E-01 0.13434766E+03</pdfrwt>
<totfact> 0.66745102E+04</totfact>
</mgrwt>
</event>
<event>
 6    4  0.3995738E-003  0.1266918E+03  0.7818608E-02  0.1232449E+00
         21   -1    0    0  501  502  0.00000000000E+00  0.00000000000E+00  0.50177144282E+02  0.50177144282E+02  0.00000000000E+00 0.  1.
         -4   -1    0    0    0  501 -0.00000000000E+00 -0.00000000000E+00 -0.26404818807E+03  0.26405124223E+03  0.12700000000E+01 0. -1.
         25    2    1    2    0    0  0.17684134661E+02 -0.10638262704E+02 -0.24560317609E+03  0.27635435355E+03  0.12499962948E+03 0.  0.
    9000005    1    3    3    0    0 -0.39385629896E+02  0.19357699553E+02 -0.17634559629E+03  0.18172704175E+03  0.10000000000E+01 0.  0.
    9000005    1    3    3    0    0  0.57069764557E+02 -0.29995962257E+02 -0.69257579801E+02  0.94627311798E+02  0.10000000000E+01 0.  0.
         -4    1    1    2    0  502 -0.17684134661E+02  0.10638262704E+02  0.31732132302E+02  0.37874032958E+02  0.12700000000E+01 0.  1.
<mgrwt>
<rscale>  1 0.12669179E+03</rscale>
<asrwt>0</asrwt>
<pdfrwt beam="1">  1       21 0.77195605E-02 0.12669179E+03</pdfrwt>
<pdfrwt beam="2">  1       -4 0.40624270E-01 0.12669179E+03</pdfrwt>
<totfact> 0.30317515E+04</totfact>
</mgrwt>
</event>
<event>
 6    4  0.3995738E-003  0.1275756E+03  0.7818608E-02  0.1231098E+00
         21   -1    0    0  501  502  0.00000000000E+00  0.00000000000E+00  0.30014971379E+02  0.30014971379E+02  0.00000000000E+00 0.  1.
         -4   -1    0    0    0  501 -0.00000000000E+00 -0.00000000000E+00 -0.22650296374E+03  0.22650652415E+03  0.12700000000E+01 0. -1.
         25    2    1    2    0    0 -0.20892013787E+02 -0.14618913907E+02 -0.19212005536E+03  0.23062013152E+03  0.12500136201E+03 0.  0.
    9000005    1    3    3    0    0  0.26650899496E+02  0.90155229445E+01  0.30852151248E+01  0.28320816553E+02  0.10000000000E+01 0.  0.
    9000005    1    3    3    0    0 -0.47542913282E+02 -0.23634436851E+02 -0.19520527049E+03  0.20229931496E+03  0.10000000000E+01 0.  0.
         -4    1    1    2    0  502  0.20892013787E+02  0.14618913907E+02 -0.43679369929E+01  0.25901364008E+02  0.12700000000E+01 0.  1.
<mgrwt>
<rscale>  1 0.12757558E+03</rscale>
<asrwt>0</asrwt>
<pdfrwt beam="1">  1       21 0.46176880E-02 0.12757558E+03</pdfrwt>
<pdfrwt beam="2">  1       -4 0.34848950E-01 0.12757558E+03</pdfrwt>
<totfact> 0.97745368E+04</totfact>
</mgrwt>
</event>
<event>
 6    4  0.3995738E-003  0.1384209E+03  0.7818608E-02  0.1215470E+00
         21   -1    0    0  501  502  0.00000000000E+00  0.00000000000E+00  0.15888266200E+03  0.15888266200E+03  0.00000000000E+00 0. -1.
          4   -1    0    0  502    0 -0.00000000000E+00 -0.00000000000E+00 -0.76306204147E+02  0.76316772019E+02  0.12700000000E+01 0.  1.
         25    2    1    2    0    0  0.55954123518E+02  0.20117542995E+02  0.64178988472E+01  0.13856963280E+03  0.12499909693E+03 0.  0.
    9000005    1    3    3    0    0  0.85978774552E+02 -0.29482320125E-01 -0.26174623905E+02  0.89880261900E+02  0.10000000000E+01 0.  0.
    9000005    1    3    3    0    0 -0.30024651034E+02  0.20147025315E+02  0.32592522752E+02  0.48689370895E+02  0.10000000000E+01 0.  0.
          4    1    1    2  501    0 -0.55954123518E+02 -0.20117542995E+02  0.76158559009E+02  0.96629801227E+02  0.12700000000E+01 0. -1.
<mgrwt>
<rscale>  1 0.13842093E+03</rscale>
<asrwt>0</asrwt>
<pdfrwt beam="1">  1       21 0.24443486E-01 0.13842093E+03</pdfrwt>
<pdfrwt beam="2">  1        4 0.11740619E-01 0.13842093E+03</pdfrwt>
<totfact> 0.37178369E+04</totfact>
</mgrwt>
</event>
<event>
 6    4  0.3995738E-003  0.1444952E+03  0.7818608E-02  0.1207405E+00
         21   -1    0    0  501  502  0.00000000000E+00  0.00000000000E+00  0.24689634588E+03  0.24689634588E+03  0.00000000000E+00 0. -1.
         -4   -1    0    0    0  501 -0.00000000000E+00 -0.00000000000E+00 -0.65185696410E+02  0.65198066815E+02  0.12700000000E+01 0.  1.
         25    2    1    2    0    0  0.68825460797E+02 -0.22757160527E+02  0.35343535569E+02  0.14875495836E+03  0.12499615883E+03 0.  0.
    9000005    1    3    3    0    0  0.22247175908E+02  0.34374402572E+02 -0.29580074111E+02  0.50522442266E+02  0.10000000000E+01 0.  0.
    9000005    1    3    3    0    0  0.46578284889E+02 -0.57131563099E+02  0.64923609680E+02  0.98232516099E+02  0.10000000000E+01 0.  0.
         -4    1    1    2    0  502 -0.68825460797E+02  0.22757160527E+02  0.14636711390E+03  0.16333945433E+03  0.12700000000E+01 0. -1.
<mgrwt>
<rscale>  1 0.14449523E+03</rscale>
<asrwt>0</asrwt>
<pdfrwt beam="1">  1       21 0.37984053E-01 0.14449523E+03</pdfrwt>
<pdfrwt beam="2">  1       -4 0.10029772E-01 0.14449523E+03</pdfrwt>
<totfact> 0.20760589E+04</totfact>
</mgrwt>
</event>
<event>
 6    4  0.3995738E-003  0.1285015E+03  0.7818608E-02  0.1229696E+00
         21   -1    0    0  501  502  0.00000000000E+00  0.00000000000E+00  0.41067986042E+03  0.41067986042E+03  0.00000000000E+00 0.  1.
          4   -1    0    0  502    0 -0.00000000000E+00 -0.00000000000E+00 -0.18987105669E+02  0.19029531831E+02  0.12700000000E+01 0. -1.
         25    2    1    2    0    0  0.15781986077E+02  0.25260196768E+02  0.21465224262E+03  0.25017637451E+03  0.12500193788E+03 0.  0.
    9000005    1    3    3    0    0  0.20995671453E+02  0.50477722040E+02  0.21748276628E+03  0.22425113661E+03  0.10000000000E+01 0.  0.
    9000005    1    3    3    0    0 -0.52136853764E+01 -0.25217525273E+02 -0.28305236537E+01  0.25925237901E+02  0.10000000000E+01 0.  0.
          4    1    1    2  501    0 -0.15781986077E+02 -0.25260196768E+02  0.17704051213E+03  0.17953301774E+03  0.12700000000E+01 0.  1.
<mgrwt>
<rscale>  1 0.12850149E+03</rscale>
<asrwt>0</asrwt>
<pdfrwt beam="1">  1       21 0.63181510E-01 0.12850149E+03</pdfrwt>
<pdfrwt beam="2">  1        4 0.29245081E-02 0.12850149E+03</pdfrwt>
<totfact> 0.52827455E+04</totfact>
</mgrwt>
</event>
<event>
 6    4  0.3995738E-003  0.1298784E+03  0.7818608E-02  0.1227636E+00
         21   -1    0    0  501  502  0.00000000000E+00  0.00000000000E+00  0.54753449008E+01  0.54753449008E+01  0.00000000000E+00 0. -1.
         -4   -1    0    0    0  501 -0.00000000000E+00 -0.00000000000E+00 -0.12529499661E+04  0.12529506098E+04  0.12700000000E+01 0. -1.
         25    2    1    2    0    0 -0.28498412612E+01  0.35138894435E+02 -0.10190926967E+04  0.10273355398E+04  0.12500209341E+03 0.  0.
    9000005    1    3    3    0    0 -0.53105709446E+01  0.77598325703E+02 -0.45157868869E+03  0.45822921600E+03  0.10000000000E+01 0.  0.
    9000005    1    3    3    0    0  0.24607296834E+01 -0.42459431268E+02 -0.56751400805E+03  0.56910632384E+03  0.10000000000E+01 0.  0.
         -4    1    1    2    0  502  0.28498412612E+01 -0.35138894435E+02 -0.22838192449E+03  0.23109041484E+03  0.12700000000E+01 0.  1.
<mgrwt>
<rscale>  1 0.12987835E+03</rscale>
<asrwt>0</asrwt>
<pdfrwt beam="1">  1       21 0.84236138E-03 0.12987835E+03</pdfrwt>
<pdfrwt beam="2">  1       -4 0.19277277E+00 0.12987835E+03</pdfrwt>
<totfact> 0.32199893E+04</totfact>
</mgrwt>
</event>
<event>
 6    4  0.3995738E-003  0.1269573E+03  0.7818608E-02  0.1232042E+00
          4   -1    0    0  502    0 -0.00000000000E+00  0.00000000000E+00  0.17305762590E+02  0.17352300102E+02  0.12700000000E+01 0.  1.
         21   -1    0    0  501  502  0.00000000000E+00 -0.00000000000E+00 -0.46684893706E+03  0.46684893706E+03  0.00000000000E+00 0. -1.
         25    2    1    2    0    0  0.85468654160E+01 -0.20489081054E+02 -0.22329856687E+03  0.25686649121E+03  0.12500117194E+03 0.  0.
    9000005    1    3    3    0    0 -0.26877052894E+02  0.42824042872E+02 -0.62055663926E+02  0.80051108959E+02  0.10000000000E+01 0.  0.
    9000005    1    3    3    0    0  0.35423918310E+02 -0.63313123926E+02 -0.16124290295E+03  0.17681538225E+03  0.10000000000E+01 0.  0.
          4    1    1    2  501    0 -0.85468654160E+01  0.20489081054E+02 -0.22624460760E+03  0.22733474596E+03  0.12700000000E+01 0. -1.
<mgrwt>
<rscale>  1 0.12695725E+03</rscale>
<asrwt>0</asrwt>
<pdfrwt beam="2">  1       21 0.71822914E-01 0.12695725E+03</pdfrwt>
<pdfrwt beam="1">  1        4 0.26661377E-02 0.12695725E+03</pdfrwt>
<totfact> 0.46173866E+04</totfact>
</mgrwt>
</event>
<event>
 6    4  0.3995738E-003  0.1341253E+03  0.7818608E-02  0.1221460E+00
         -4   -1    0    0    0  501 -0.00000000000E+00  0.00000000000E+00  0.84559331983E+02  0.84568868536E+02  0.12700000000E+01 0.  1.
         21   -1    0    0  501  502  0.00000000000E+00 -0.00000000000E+00 -0.23252631829E+03  0.23252631829E+03  0.00000000000E+00 0. -1.
         25    2    1    2    0    0  0.12840957371E+02  0.46949930804E+02  0.25844361865E+02  0.13659260002E+03  0.12498168327E+03 0.  0.
    9000005    1    3    3    0    0  0.61718725160E+02  0.57203264981E+02  0.17256593719E+02  0.85908117117E+02  0.10000000000E+01 0.  0.
    9000005    1    3    3    0    0 -0.48877767789E+02 -0.10253334177E+02  0.85877681462E+01  0.50684482906E+02  0.10000000000E+01 0.  0.
         -4    1    1    2    0  502 -0.12840957371E+02 -0.46949930804E+02 -0.17381134817E+03  0.18050258680E+03  0.12700000000E+01 0. -1.
<mgrwt>
<rscale>  1 0.13412534E+03</rscale>
<asrwt>0</asrwt>
<pdfrwt beam="2">  1       21 0.35773279E-01 0.13412534E+03</pdfrwt>
<pdfrwt beam="1">  1       -4 0.13010129E-01 0.13412534E+03</pdfrwt>
<totfact> 0.14910090E+04</totfact>
</mgrwt>
</event>
<event>
 6    4  0.3995738E-003  0.1378112E+03  0.7818608E-02  0.1216305E+00
         21   -1    0    0  501  502  0.00000000000E+00  0.00000000000E+00  0.27741498059E+03  0.27741498059E+03  0.00000000000E+00 0. -1.
         -4   -1    0    0    0  501 -0.00000000000E+00 -0.00000000000E+00 -0.74916803720E+02  0.74927567555E+02  0.12700000000E+01 0.  1.
         25    2    1    2    0    0 -0.46647141836E+02 -0.34501158157E+02 -0.39750766611E+01  0.13786853322E+03  0.12500258182E+03 0.  0.
    9000005    1    3    3    0    0 -0.21966600668E+01 -0.35870431574E+02  0.53951609751E+02  0.64832780069E+02  0.10000000000E+01 0.  0.
    9000005    1    3    3    0    0 -0.44450481770E+02  0.13692734162E+01 -0.57926686412E+02  0.73035753148E+02  0.10000000000E+01 0.  0.
         -4    1    1    2    0  502  0.46647141836E+02  0.34501158157E+02  0.20647325353E+03  0.21447401493E+03  0.12700000000E+01 0. -1.
<mgrwt>
<rscale>  1 0.13781122E+03</rscale>
<asrwt>0</asrwt>
<pdfrwt beam="1">  1       21 0.42679227E-01 0.13781122E+03</pdfrwt>
<pdfrwt beam="2">  1       -4 0.11526714E-01 0.13781122E+03</pdfrwt>
<totfact> 0.12928162E+04</totfact>
</mgrwt>
</event>
<event>
 6    4  0.3995738E-003  0.1439501E+03  0.7818608E-02  0.1208111E+00
         21   -1    0    0  501  502  0.00000000000E+00  0.00000000000E+00  0.62667270608E+02  0.62667270608E+02  0.00000000000E+00 0.  1.
          4   -1    0    0  502    0 -0.00000000000E+00 -0.00000000000E+00 -0.23578123006E+03  0.23578465037E+03  0.12700000000E+01 0. -1.
         25    2    1    2    0    0 -0.50210006332E+02 -0.50859291731E+02 -0.17543581075E+03  0.22693467701E+03  0.12495563870E+03 0.  0.
    9000005    1    3    3    0    0  0.14530024861E+02 -0.65331816306E+02 -0.45182275501E+02  0.80757698480E+02  0.10000000000E+01 0.  0.
    9000005    1    3    3    0    0 -0.64740031193E+02  0.14472524575E+02 -0.13025353525E+03  0.14617697853E+03  0.10000000000E+01 0.  0.
          4    1    1    2  501    0  0.50210006332E+02  0.50859291731E+02  0.23218512975E+01  0.71517243968E+02  0.12700000000E+01 0.  1.
<mgrwt>
<rscale>  1 0.14395007E+03</rscale>
<asrwt>0</asrwt>
<pdfrwt beam="1">  1       21 0.96411186E-02 0.14395007E+03</pdfrwt>
<pdfrwt beam="2">  1        4 0.36275288E-01 0.14395007E+03</pdfrwt>
<totfact> 0.26097154E+04</totfact>
</mgrwt>
</event>
<event>
 6    4  0.3995738E-003  0.1339955E+03  0.7818608E-02  0.1221645E+00
          4   -1    0    0  502    0 -0.00000000000E+00  0.00000000000E+00  0.21896273515E+02  0.21933073060E+02  0.12700000000E+01 0.  1.
         21   -1    0    0  501  502  0.00000000000E+00 -0.00000000000E+00 -0.41145283240E+03  0.41145283240E+03  0.00000000000E+00 0.  1.
         25    2    1    2    0    0 -0.29080015229E+02 -0.38543673717E+02 -0.33337725467E+03  0.35929819264E+03  0.12499414079E+03 0.  0.
    9000005    1    3    3    0    0  0.37060790694E+02 -0.54902482997E+01 -0.22498053774E+03  0.22808087906E+03  0.10000000000E+01 0.  0.
    9000005    1    3    3    0    0 -0.66140805923E+02 -0.33053425417E+02 -0.10839671693E+03  0.13121731358E+03  0.10000000000E+01 0.  0.
          4    1    1    2  501    0  0.29080015229E+02  0.38543673717E+02 -0.56179304218E+02  0.74087712826E+02  0.12700000000E+01 0. -1.
<mgrwt>
<rscale>  1 0.13399551E+03</rscale>
<asrwt>0</asrwt>
<pdfrwt beam="2">  1       21 0.63300432E-01 0.13399551E+03</pdfrwt>
<pdfrwt beam="1">  1        4 0.33716392E-02 0.13399551E+03</pdfrwt>
<totfact> 0.42274462E+04</totfact>
</mgrwt>
</event>
<event>
 6    4  0.3995738E-003  0.1325650E+03  0.7818608E-02  0.1223699E+00
         21   -1    0    0  501  502  0.00000000000E+00  0.00000000000E+00  0.26239024886E+02  0.26239024886E+02  0.00000000000E+00 0. -1.
          4   -1    0    0  502    0 -0.00000000000E+00 -0.00000000000E+00 -0.81726281215E+03  0.81726379892E+03  0.12700000000E+01 0.  1.
         25    2    1    2    0    0 -0.44097717802E+02 -0.21090247149E+01 -0.78817412813E+03  0.79924460245E+03  0.12499768634E+03 0.  0.
    9000005    1    3    3    0    0 -0.35151876344E+02  0.43730451443E+02 -0.16419955909E+03  0.17352377935E+03  0.10000000000E+01 0.  0.
    9000005    1    3    3    0    0 -0.89458414574E+01 -0.45839476158E+02 -0.62397456903E+03  0.62572082309E+03  0.10000000000E+01 0.  0.
          4    1    1    2  501    0  0.44097717802E+02  0.21090247149E+01 -0.28496591360E+01  0.44258221358E+02  0.12700000000E+01 0. -1.
<mgrwt>
<rscale>  1 0.13256500E+03</rscale>
<asrwt>0</asrwt>
<pdfrwt beam="1">  1       21 0.40367726E-02 0.13256500E+03</pdfrwt>
<pdfrwt beam="2">  1        4 0.12573520E+00 0.13256500E+03</pdfrwt>
<totfact> 0.78100304E+03</totfact>
</mgrwt>
</event>
<event>
 6    4  0.3995738E-003  0.1429274E+03  0.7818608E-02  0.1209443E+00
         -4   -1    0    0    0  501 -0.00000000000E+00  0.00000000000E+00  0.22412239340E+02  0.22448193073E+02  0.12700000000E+01 0. -1.
         21   -1    0    0  501  502  0.00000000000E+00 -0.00000000000E+00 -0.95666773610E+03  0.95666773610E+03  0.00000000000E+00 0.  1.
         25    2    1    2    0    0 -0.68480547545E+02  0.10660319854E+02 -0.22550971059E+03  0.26698853178E+03  0.12500007487E+03 0.  0.
    9000005    1    3    3    0    0 -0.31015266335E+01 -0.51379807404E+02 -0.65187661220E+02  0.83065848889E+02  0.10000000000E+01 0.  0.
    9000005    1    3    3    0    0 -0.65379020911E+02  0.62040127258E+02 -0.16032204937E+03  0.18392268289E+03  0.10000000000E+01 0.  0.
         -4    1    1    2    0  502  0.68480547545E+02 -0.10660319854E+02 -0.70874578616E+03  0.71212739739E+03  0.12700000000E+01 0.  1.
<mgrwt>
<rscale>  1 0.14292742E+03</rscale>
<asrwt>0</asrwt>
<pdfrwt beam="2">  1       21 0.14717964E+00 0.14292742E+03</pdfrwt>
<pdfrwt beam="1">  1       -4 0.34508675E-02 0.14292742E+03</pdfrwt>
<totfact> 0.56878059E+03</totfact>
</mgrwt>
</event>
<event>
 6    4  0.3995738E-003  0.1268893E+03  0.7818608E-02  0.1232146E+00
         21   -1    0    0  501  502  0.00000000000E+00  0.00000000000E+00  0.18275393751E+03  0.18275393751E+03  0.00000000000E+00 0.  1.
          4   -1    0    0  502    0 -0.00000000000E+00 -0.00000000000E+00 -0.30364559981E+02  0.30391107298E+02  0.12700000000E+01 0.  1.
         25    2    1    2    0    0 -0.21513567031E+02 -0.36312863462E+01  0.13443160846E+03  0.18485875525E+03  0.12499952894E+03 0.  0.
    9000005    1    3    3    0    0  0.20482006956E+02 -0.55965273994E+02  0.68124990456E+02  0.90518720864E+02  0.10000000000E+01 0.  0.
    9000005    1    3    3    0    0 -0.41995573987E+02  0.52333987648E+02  0.66306618000E+02  0.94340034388E+02  0.10000000000E+01 0.  0.
          4    1    1    2  501    0  0.21513567031E+02  0.36312863462E+01  0.17957769077E+02  0.28286289561E+02  0.12700000000E+01 0. -1.
<mgrwt>
<rscale>  1 0.12688933E+03</rscale>
<asrwt>0</asrwt>
<pdfrwt beam="1">  1       21 0.28115990E-01 0.12688933E+03</pdfrwt>
<pdfrwt beam="2">  1        4 0.46738524E-02 0.12688933E+03</pdfrwt>
<totfact> 0.12877263E+05</totfact>
</mgrwt>
</event>
<event>
 6    4  0.3995738E-003  0.1407757E+03  0.7818608E-02  0.1212289E+00
         21   -1    0    0  501  502  0.00000000000E+00  0.00000000000E+00  0.18244793484E+02  0.18244793484E+02  0.00000000000E+00 0.  1.
          4   -1    0    0  502    0 -0.00000000000E+00 -0.00000000000E+00 -0.60003890858E+03  0.60004025257E+03  0.12700000000E+01 0.  1.
         25    2    1    2    0    0  0.39251865434E+02 -0.51490588368E+02 -0.44883447729E+03  0.47039364057E+03  0.12500319779E+03 0.  0.
    9000005    1    3    3    0    0  0.54667723636E+02 -0.86587901004E+02 -0.32275288394E+03  0.33860958152E+03  0.10000000000E+01 0.  0.
    9000005    1    3    3    0    0 -0.15415858202E+02  0.35097312636E+02 -0.12608159335E+03  0.13178405905E+03  0.10000000000E+01 0.  0.
          4    1    1    2  501    0 -0.39251865434E+02  0.51490588368E+02 -0.13295963781E+03  0.14789140548E+03  0.12700000000E+01 0. -1.
<mgrwt>
<rscale>  1 0.14077567E+03</rscale>
<asrwt>0</asrwt>
<pdfrwt beam="1">  1       21 0.28068913E-02 0.14077567E+03</pdfrwt>
<pdfrwt beam="2">  1        4 0.92317181E-01 0.14077567E+03</pdfrwt>
<totfact> 0.29569997E+04</totfact>
</mgrwt>
</event>
<event>
 6    4  0.3995738E-003  0.1326599E+03  0.7818608E-02  0.1223561E+00
         21   -1    0    0  501  502  0.00000000000E+00  0.00000000000E+00  0.10254762511E+02  0.10254762511E+02  0.00000000000E+00 0. -1.
          4   -1    0    0  502    0 -0.00000000000E+00 -0.00000000000E+00 -0.10183805203E+04  0.10183813122E+04  0.12700000000E+01 0.  1.
         25    2    1    2    0    0 -0.28681769025E+02 -0.33934962126E+02 -0.92413616562E+03  0.93360928889E+03  0.12499770464E+03 0.  0.
    9000005    1    3    3    0    0 -0.19763136356E+02 -0.44035470635E+02 -0.91711049250E+03  0.91838029143E+03  0.10000000000E+01 0.  0.
    9000005    1    3    3    0    0 -0.89186326685E+01  0.10100508509E+02 -0.70256731188E+01  0.15228997458E+02  0.10000000000E+01 0.  0.
          4    1    1    2  501    0  0.28681769025E+02  0.33934962126E+02 -0.83989592128E+02  0.95026785775E+02  0.12700000000E+01 0. -1.
<mgrwt>
<rscale>  1 0.13265991E+03</rscale>
<asrwt>0</asrwt>
<pdfrwt beam="1">  1       21 0.15776561E-02 0.13265991E+03</pdfrwt>
<pdfrwt beam="2">  1        4 0.15668001E+00 0.13265991E+03</pdfrwt>
<totfact> 0.20845073E+04</totfact>
</mgrwt>
</event>
<event>
 6    4  0.3995738E-003  0.1373070E+03  0.7818608E-02  0.1216999E+00
         -4   -1    0    0    0  501 -0.00000000000E+00  0.00000000000E+00  0.87736526592E+01  0.88650933997E+01  0.12700000000E+01 0.  1.
         21   -1    0    0  501  502  0.00000000000E+00 -0.00000000000E+00 -0.11432252650E+04  0.11432252650E+04  0.00000000000E+00 0.  1.
         25    2    1    2    0    0  0.37615863379E+01  0.56805914619E+02 -0.92076098687E+03  0.93094253955E+03  0.12494861159E+03 0.  0.
    9000005    1    3    3    0    0 -0.36806212544E+02 -0.22427233425E+02 -0.19296272963E+03  0.19772023950E+03  0.10000000000E+01 0.  0.
    9000005    1    3    3    0    0  0.40567798881E+02  0.79233148045E+02 -0.72779825724E+03  0.73322230005E+03  0.10000000000E+01 0.  0.
         -4    1    1    2    0  502 -0.37615863379E+01 -0.56805914619E+02 -0.21369062551E+03  0.22114781889E+03  0.12700000000E+01 0. -1.
<mgrwt>
<rscale>  1 0.13730702E+03</rscale>
<asrwt>0</asrwt>
<pdfrwt beam="2">  1       21 0.17588081E+00 0.13730702E+03</pdfrwt>
<pdfrwt beam="1">  1       -4 0.13568809E-02 0.13730702E+03</pdfrwt>
<totfact> 0.14975848E+04</totfact>
</mgrwt>
</event>
<event>
 6    4  0.3995738E-003  0.1273656E+03  0.7818608E-02  0.1231418E+00
          4   -1    0    0  502    0 -0.00000000000E+00  0.00000000000E+00  0.53843195507E+02  0.53858171176E+02  0.12700000000E+01 0.  1.
         21   -1    0    0  501  502  0.00000000000E+00 -0.00000000000E+00 -0.13158758481E+03  0.13158758481E+03  0.00000000000E+00 0. -1.
         25    2    1    2    0    0  0.23028789429E+02  0.81579216280E+01 -0.28582617350E+02  0.13053337533E+03  0.12500047693E+03 0.  0.
    9000005    1    3    3    0    0 -0.81131880930E+01  0.53230869314E+02 -0.48258742212E+02  0.72313591176E+02  0.10000000000E+01 0.  0.
    9000005    1    3    3    0    0  0.31141977522E+02 -0.45072947686E+02  0.19676124862E+02  0.58219784152E+02  0.10000000000E+01 0.  0.
          4    1    1    2  501    0 -0.23028789429E+02 -0.81579216280E+01 -0.49161771949E+02  0.54912380653E+02  0.12700000000E+01 0. -1.
<mgrwt>
<rscale>  1 0.12736560E+03</rscale>
<asrwt>0</asrwt>
<pdfrwt beam="2">  1       21 0.20244244E-01 0.12736560E+03</pdfrwt>
<pdfrwt beam="1">  1        4 0.82851919E-02 0.12736560E+03</pdfrwt>
<totfact> 0.94122472E+04</totfact>
</mgrwt>
</event>
<event>
 6    4  0.3995738E-003  0.1281292E+03  0.7818608E-02  0.1230258E+00
         -4   -1    0    0    0  501 -0.00000000000E+00  0.00000000000E+00  0.11790404943E+02  0.11858606525E+02  0.12700000000E+01 0. -1.
         21   -1    0    0  501  502  0.00000000000E+00 -0.00000000000E+00 -0.52681281518E+03  0.52681281518E+03  0.00000000000E+00 0. -1.
         25    2    1    2    0    0 -0.22588352391E+02  0.16772071307E+02 -0.38969197502E+03  0.41021572144E+03  0.12500226670E+03 0.  0.
    9000005    1    3    3    0    0  0.57686968949E+01 -0.49555863418E+02 -0.10111336049E+03  0.11275625540E+03  0.10000000000E+01 0.  0.
    9000005    1    3    3    0    0 -0.28357049286E+02  0.66327934725E+02 -0.28857861453E+03  0.29745946604E+03  0.10000000000E+01 0.  0.
         -4    1    1    2    0  502  0.22588352391E+02 -0.16772071307E+02 -0.12533043521E+03  0.12845570026E+03  0.12700000000E+01 0.  1.
<mgrwt>
<rscale>  1 0.12812924E+03</rscale>
<asrwt>0</asrwt>
<pdfrwt beam="2">  1       21 0.81048110E-01 0.12812924E+03</pdfrwt>
<pdfrwt beam="1">  1       -4 0.18192728E-02 0.12812924E+03</pdfrwt>
<totfact> 0.63822741E+04</totfact>
</mgrwt>
</event>
<event>
 6    4  0.3995738E-003  0.1315470E+03  0.7818608E-02  0.1225178E+00
          4   -1    0    0  502    0 -0.00000000000E+00  0.00000000000E+00  0.11934744479E+02  0.12002125886E+02  0.12700000000E+01 0. -1.
         21   -1    0    0  501  502  0.00000000000E+00 -0.00000000000E+00 -0.87821923645E+03  0.87821923645E+03  0.00000000000E+00 0.  1.
         25    2    1    2    0    0  0.12881242033E+02  0.38902125252E+02 -0.37832791803E+03  0.40054541572E+03  0.12500125897E+03 0.  0.
    9000005    1    3    3    0    0 -0.64273284975E+01  0.30328709786E+02 -0.11459002466E+02  0.33067354391E+02  0.10000000000E+01 0.  0.
    9000005    1    3    3    0    0  0.19308570531E+02  0.85734154666E+01 -0.36686891556E+03  0.36747806132E+03  0.10000000000E+01 0.  0.
          4    1    1    2  501    0 -0.12881242033E+02 -0.38902125252E+02 -0.48795657394E+03  0.48967594662E+03  0.12700000000E+01 0.  1.
<mgrwt>
<rscale>  1 0.13154701E+03</rscale>
<asrwt>0</asrwt>
<pdfrwt beam="2">  1       21 0.13511064E+00 0.13154701E+03</pdfrwt>
<pdfrwt beam="1">  1        4 0.18413685E-02 0.13154701E+03</pdfrwt>
<totfact> 0.18724432E+04</totfact>
</mgrwt>
</event>
<event>
 6    4  0.3995738E-003  0.1267322E+03  0.7818608E-02  0.1232387E+00
          4   -1    0    0  502    0 -0.00000000000E+00  0.00000000000E+00  0.43265384559E+03  0.43265570955E+03  0.12700000000E+01 0.  1.
         21   -1    0    0  501  502  0.00000000000E+00 -0.00000000000E+00 -0.21195547714E+02  0.21195547714E+02  0.00000000000E+00 0. -1.
         25    2    1    2    0    0 -0.10044637920E+02 -0.18213021316E+02  0.41390299659E+03  0.43287035289E+03  0.12501377095E+03 0.  0.
    9000005    1    3    3    0    0 -0.42750940234E+02 -0.50881470319E+02  0.33403891092E+03  0.34058708273E+03  0.10000000000E+01 0.  0.
    9000005    1    3    3    0    0  0.32706302315E+02  0.32668449003E+02  0.79864085667E+02  0.92283270157E+02  0.10000000000E+01 0.  0.
          4    1    1    2  501    0  0.10044637920E+02  0.18213021316E+02 -0.24446987169E+01  0.20980904370E+02  0.12700000000E+01 0. -1.
<mgrwt>
<rscale>  1 0.12673221E+03</rscale>
<asrwt>0</asrwt>
<pdfrwt beam="2">  1       21 0.32608538E-02 0.12673221E+03</pdfrwt>
<pdfrwt beam="1">  1        4 0.66565193E-01 0.12673221E+03</pdfrwt>
<totfact> 0.46897827E+04</totfact>
</mgrwt>
</event>
<event>
 6    4  0.3995738E-003  0.1295018E+03  0.7818608E-02  0.1228197E+00
         -4   -1    0    0    0  501 -0.00000000000E+00  0.00000000000E+00  0.48902928496E+02  0.48919416549E+02  0.12700000000E+01 0. -1.
         21   -1    0    0  501  502  0.00000000000E+00 -0.00000000000E+00 -0.14153775122E+03  0.14153775122E+03  0.00000000000E+00 0.  1.
         25    2    1    2    0    0  0.32604662075E+02 -0.91066082479E+01 -0.57635414204E+02  0.14174817682E+03  0.12499884143E+03 0.  0.
    9000005    1    3    3    0    0  0.56146842219E+02 -0.11088944124E+01 -0.86814539967E+02  0.10339952557E+03  0.10000000000E+01 0.  0.
    9000005    1    3    3    0    0 -0.23542180144E+02 -0.79977138355E+01  0.29179125763E+02  0.38348651251E+02  0.10000000000E+01 0.  0.
         -4    1    1    2    0  502 -0.32604662075E+02  0.91066082479E+01 -0.34999408524E+02  0.48708990955E+02  0.12700000000E+01 0.  1.
<mgrwt>
<rscale>  1 0.12950176E+03</rscale>
<asrwt>0</asrwt>
<pdfrwt beam="2">  1       21 0.21775039E-01 0.12950176E+03</pdfrwt>
<pdfrwt beam="1">  1       -4 0.75252340E-02 0.12950176E+03</pdfrwt>
<totfact> 0.96594081E+04</totfact>
</mgrwt>
</event>
<event>
 6    4  0.3995738E-003  0.1332192E+03  0.7818608E-02  0.1222756E+00
         21   -1    0    0  501  502  0.00000000000E+00  0.00000000000E+00  0.28200447127E+02  0.28200447127E+02  0.00000000000E+00 0.  1.
         -4   -1    0    0    0  501 -0.00000000000E+00 -0.00000000000E+00 -0.32526928245E+03  0.32527176178E+03  0.12700000000E+01 0.  1.
         25    2    1    2    0    0 -0.21753318829E+02  0.40622011643E+02 -0.15642008255E+03  0.20546194147E+03  0.12499604976E+03 0.  0.
    9000005    1    3    3    0    0  0.12876190170E+02  0.22665507488E+02 -0.16370181592E+03  0.16576732501E+03  0.10000000000E+01 0.  0.
    9000005    1    3    3    0    0 -0.34629508998E+02  0.17956504156E+02  0.72817333708E+01  0.39694616459E+02  0.10000000000E+01 0.  0.
         -4    1    1    2    0  502  0.21753318829E+02 -0.40622011643E+02 -0.14064875277E+03  0.14801026744E+03  0.12700000000E+01 0. -1.
<mgrwt>
<rscale>  1 0.13321924E+03</rscale>
<asrwt>0</asrwt>
<pdfrwt beam="1">  1       21 0.43385301E-02 0.13321924E+03</pdfrwt>
<pdfrwt beam="2">  1       -4 0.50043821E-01 0.13321924E+03</pdfrwt>
<totfact> 0.53315991E+04</totfact>
</mgrwt>
</event>
<event>
 6    4  0.3995738E-003  0.1959441E+03  0.7818608E-02  0.1153207E+00
          4   -1    0    0  502    0 -0.00000000000E+00  0.00000000000E+00  0.16498144643E+03  0.16498633449E+03  0.12700000000E+01 0.  1.
         21   -1    0    0  501  502  0.00000000000E+00 -0.00000000000E+00 -0.21820275399E+03  0.21820275399E+03  0.00000000000E+00 0. -1.
         25    2    1    2    0    0 -0.18578355778E+02 -0.14974879063E+03  0.47678691823E+02  0.20166146420E+03  0.12499693153E+03 0.  0.
    9000005    1    3    3    0    0  0.23829847086E+02 -0.98831483682E+02 -0.23560256952E+02  0.10436287408E+03  0.10000000000E+01 0.  0.
    9000005    1    3    3    0    0 -0.42408202864E+02 -0.50917306950E+02  0.71238948775E+02  0.97298590122E+02  0.10000000000E+01 0.  0.
          4    1    1    2  501    0  0.18578355778E+02  0.14974879063E+03 -0.10089999938E+03  0.18152762427E+03  0.12700000000E+01 0. -1.
<mgrwt>
<rscale>  1 0.19594410E+03</rscale>
<asrwt>0</asrwt>
<pdfrwt beam="2">  1       21 0.33569654E-01 0.19594410E+03</pdfrwt>
<pdfrwt beam="1">  1        4 0.25382421E-01 0.19594410E+03</pdfrwt>
<totfact> 0.52378368E+03</totfact>
</mgrwt>
</event>
<event>
 6    4  0.3995738E-003  0.1276175E+03  0.7818608E-02  0.1231034E+00
         -4   -1    0    0    0  501 -0.00000000000E+00  0.00000000000E+00  0.28368600835E+02  0.28397014162E+02  0.12700000000E+01 0. -1.
         21   -1    0    0  501  502  0.00000000000E+00 -0.00000000000E+00 -0.34791650793E+03  0.34791650793E+03  0.00000000000E+00 0. -1.
         25    2    1    2    0    0 -0.25099623267E+02 -0.49798765520E+01 -0.12015397006E+03  0.17528032760E+03  0.12502570322E+03 0.  0.
    9000005    1    3    3    0    0  0.20217081414E+02 -0.21975051459E+02 -0.12320440248E+03  0.12677522652E+03  0.10000000000E+01 0.  0.
    9000005    1    3    3    0    0 -0.45316704681E+02  0.16995174907E+02  0.30504324268E+01  0.48505101085E+02  0.10000000000E+01 0.  0.
         -4    1    1    2    0  502  0.25099623267E+02  0.49798765520E+01 -0.19939393704E+03  0.20103319449E+03  0.12700000000E+01 0. -1.
<mgrwt>
<rscale>  1 0.12761746E+03</rscale>
<asrwt>0</asrwt>
<pdfrwt beam="2">  1       21 0.53525619E-01 0.12761746E+03</pdfrwt>
<pdfrwt beam="1">  1       -4 0.43667639E-02 0.12761746E+03</pdfrwt>
<totfact> 0.39810212E+04</totfact>
</mgrwt>
</event>
<event>
 6    4  0.3995738E-003  0.1304009E+03  0.7818608E-02  0.1226862E+00
          4   -1    0    0  502    0 -0.00000000000E+00  0.00000000000E+00  0.57974410820E+02  0.57988319599E+02  0.12700000000E+01 0. -1.
         21   -1    0    0  501  502  0.00000000000E+00 -0.00000000000E+00 -0.14441935875E+03  0.14441935875E+03  0.00000000000E+00 0. -1.
         25    2    1    2    0    0  0.37016803709E+02 -0.29497581747E+01 -0.28350219638E+02  0.13344714481E+03  0.12500184269E+03 0.  0.
    9000005    1    3    3    0    0  0.44997030037E+02  0.24123480007E+02 -0.67831276654E+02  0.84904399723E+02  0.10000000000E+01 0.  0.
    9000005    1    3    3    0    0 -0.79802263278E+01 -0.27073238181E+02  0.39481057016E+02  0.48542745091E+02  0.10000000000E+01 0.  0.
          4    1    1    2  501    0 -0.37016803709E+02  0.29497581747E+01 -0.58094728294E+02  0.68960533537E+02  0.12700000000E+01 0.  1.
<mgrwt>
<rscale>  1 0.13040094E+03</rscale>
<asrwt>0</asrwt>
<pdfrwt beam="2">  1       21 0.22218363E-01 0.13040094E+03</pdfrwt>
<pdfrwt beam="1">  1        4 0.89206396E-02 0.13040094E+03</pdfrwt>
<totfact> 0.70230583E+04</totfact>
</mgrwt>
</event>
<event>
 6    4  0.3995738E-003  0.1330517E+03  0.7818608E-02  0.1222997E+00
          4   -1    0    0  502    0 -0.00000000000E+00  0.00000000000E+00  0.39226241686E+01  0.41230911181E+01  0.12700000000E+01 0. -1.
         21   -1    0    0  501  502  0.00000000000E+00 -0.00000000000E+00 -0.19905783570E+04  0.19905783570E+04  0.00000000000E+00 0.  1.
         25    2    1    2    0    0  0.17064000084E+02  0.42291101776E+02 -0.15284426558E+04  0.15342228338E+04  0.12499213685E+03 0.  0.
    9000005    1    3    3    0    0  0.36664881001E+00  0.76370236103E+02 -0.13293981075E+04  0.13315903558E+04  0.10000000000E+01 0.  0.
    9000005    1    3    3    0    0  0.16697351274E+02 -0.34079134327E+02 -0.19904454833E+03  0.20263247804E+03  0.10000000000E+01 0.  0.
          4    1    1    2  501    0 -0.17064000084E+02 -0.42291101776E+02 -0.45821307705E+03  0.46047861435E+03  0.12700000000E+01 0.  1.
<mgrwt>
<rscale>  1 0.13305169E+03</rscale>
<asrwt>0</asrwt>
<pdfrwt beam="2">  1       21 0.30624257E+00 0.13305169E+03</pdfrwt>
<pdfrwt beam="1">  1        4 0.61893285E-03 0.13305169E+03</pdfrwt>
<totfact> 0.81685756E+03</totfact>
</mgrwt>
</event>
<event>
 6    4  0.3995738E-003  0.1265964E+03  0.7818608E-02  0.1232595E+00
          4   -1    0    0  502    0 -0.00000000000E+00  0.00000000000E+00  0.21230353398E+03  0.21230733252E+03  0.12700000000E+01 0. -1.
         21   -1    0    0  501  502  0.00000000000E+00 -0.00000000000E+00 -0.25413575506E+02  0.25413575506E+02  0.00000000000E+00 0. -1.
         25    2    1    2    0    0  0.95754544968E+00 -0.20031641562E+02  0.16558029322E+03  0.20843100720E+03  0.12499787079E+03 0.  0.
    9000005    1    3    3    0    0 -0.56500193619E+02 -0.22363600433E+02  0.47660127557E+02  0.77232702025E+02  0.10000000000E+01 0.  0.
    9000005    1    3    3    0    0  0.57457739069E+02  0.23319588714E+01  0.11792016566E+03  0.13119830518E+03  0.10000000000E+01 0.  0.
          4    1    1    2  501    0 -0.95754544968E+00  0.20031641562E+02  0.21309665255E+02  0.29289900823E+02  0.12700000000E+01 0.  1.
<mgrwt>
<rscale>  1 0.12659641E+03</rscale>
<asrwt>0</asrwt>
<pdfrwt beam="2">  1       21 0.39097810E-02 0.12659641E+03</pdfrwt>
<pdfrwt beam="1">  1        4 0.32664814E-01 0.12659641E+03</pdfrwt>
<totfact> 0.14583168E+05</totfact>
</mgrwt>
</event>
<event>
 6    4  0.3995738E-003  0.1345185E+03  0.7818608E-02  0.1220901E+00
         21   -1    0    0  501  502  0.00000000000E+00  0.00000000000E+00  0.34642749048E+02  0.34642749048E+02  0.00000000000E+00 0.  1.
         -4   -1    0    0    0  501 -0.00000000000E+00 -0.00000000000E+00 -0.66940248369E+03  0.66940368842E+03  0.12700000000E+01 0. -1.
         25    2    1    2    0    0 -0.49762159896E+01  0.49447141009E+02 -0.64006803749E+03  0.65405070306E+03  0.12500178830E+03 0.  0.
    9000005    1    3    3    0    0  0.31027682543E+02  0.57229907903E+02 -0.16242218001E+03  0.17498555370E+03  0.10000000000E+01 0.  0.
    9000005    1    3    3    0    0 -0.36003898533E+02 -0.77827668945E+01 -0.47764585748E+03  0.47906514936E+03  0.10000000000E+01 0.  0.
         -4    1    1    2    0  502  0.49762159896E+01 -0.49447141009E+02  0.53083028509E+01  0.49995734405E+02  0.12700000000E+01 0.  1.
<mgrwt>
<rscale>  1 0.13451851E+03</rscale>
<asrwt>0</asrwt>
<pdfrwt beam="1">  1       21 0.53296536E-02 0.13451851E+03</pdfrwt>
<pdfrwt beam="2">  1       -4 0.10298688E+00 0.13451851E+03</pdfrwt>
<totfact> 0.78871477E+03</totfact>
</mgrwt>
</event>
<event>
 6    4  0.3995738E-003  0.1278006E+03  0.7818608E-02  0.1230756E+00
         21   -1    0    0  501  502  0.00000000000E+00  0.00000000000E+00  0.25275938447E+03  0.25275938447E+03  0.00000000000E+00 0.  1.
          4   -1    0    0  502    0 -0.00000000000E+00 -0.00000000000E+00 -0.28308084739E+02  0.28336558747E+02  0.12700000000E+01 0. -1.
         25    2    1    2    0    0  0.21744477774E+02  0.15315204924E+02  0.12738461460E+03  0.18044341182E+03  0.12500242804E+03 0.  0.
    9000005    1    3    3    0    0 -0.19443097683E+02  0.97818768863E+01  0.13621475479E+03  0.13794628877E+03  0.10000000000E+01 0.  0.
    9000005    1    3    3    0    0  0.41187575457E+02  0.55333280380E+01 -0.88301401905E+01  0.42497123044E+02  0.10000000000E+01 0.  0.
          4    1    1    2  501    0 -0.21744477774E+02 -0.15315204924E+02  0.97066685128E+02  0.10065253140E+03  0.12700000000E+01 0.  1.
<mgrwt>
<rscale>  1 0.12780057E+03</rscale>
<asrwt>0</asrwt>
<pdfrwt beam="1">  1       21 0.38886058E-01 0.12780057E+03</pdfrwt>
<pdfrwt beam="2">  1        4 0.43575259E-02 0.12780057E+03</pdfrwt>
<totfact> 0.76571147E+04</totfact>
</mgrwt>
</event>
<event>
 6    4  0.3995738E-003  0.1271964E+03  0.7818608E-02  0.1231676E+00
         21   -1    0    0  501  502  0.00000000000E+00  0.00000000000E+00  0.16698900431E+03  0.16698900431E+03  0.00000000000E+00 0. -1.
          4   -1    0    0  502    0 -0.00000000000E+00 -0.00000000000E+00 -0.34164756553E+02  0.34188353139E+02  0.12700000000E+01 0. -1.
         25    2    1    2    0    0 -0.22784785385E+02  0.59040720953E+01  0.10703709059E+03  0.16624034431E+03  0.12499963521E+03 0.  0.
    9000005    1    3    3    0    0  0.30480848319E+02  0.49073027333E+02  0.39453615584E+02  0.69963075322E+02  0.10000000000E+01 0.  0.
    9000005    1    3    3    0    0 -0.53265633703E+02 -0.43168955238E+02  0.67583475008E+02  0.96277268991E+02  0.10000000000E+01 0.  0.
          4    1    1    2  501    0  0.22784785385E+02 -0.59040720953E+01  0.25787157166E+02  0.34937013138E+02  0.12700000000E+01 0.  1.
<mgrwt>
<rscale>  1 0.12719636E+03</rscale>
<asrwt>0</asrwt>
<pdfrwt beam="1">  1       21 0.25690616E-01 0.12719636E+03</pdfrwt>
<pdfrwt beam="2">  1        4 0.52583031E-02 0.12719636E+03</pdfrwt>
<totfact> 0.12660434E+05</totfact>
</mgrwt>
</event>
<event>
 6    4  0.3995738E-003  0.1273210E+03  0.7818608E-02  0.1231486E+00
          4   -1    0    0  502    0 -0.00000000000E+00  0.00000000000E+00  0.17543629126E+03  0.17544088803E+03  0.12700000000E+01 0.  1.
         21   -1    0    0  501  502  0.00000000000E+00 -0.00000000000E+00 -0.70509000413E+02  0.70509000413E+02  0.00000000000E+00 0.  1.
         25    2    1    2    0    0  0.50707035625E+01  0.23643263699E+02 -0.10741910954E+02  0.12777335482E+03  0.12500370234E+03 0.  0.
    9000005    1    3    3    0    0 -0.25664471061E+02 -0.38575615060E+02  0.21687374986E+02  0.51167229609E+02  0.10000000000E+01 0.  0.
    9000005    1    3    3    0    0  0.30735174624E+02  0.62218878759E+02 -0.32429285939E+02  0.76606125210E+02  0.10000000000E+01 0.  0.
          4    1    1    2  501    0 -0.50707035625E+01 -0.23643263699E+02  0.11566920180E+03  0.11817653362E+03  0.12700000000E+01 0. -1.
<mgrwt>
<rscale>  1 0.12732102E+03</rscale>
<asrwt>0</asrwt>
<pdfrwt beam="2">  1       21 0.10847539E-01 0.12732102E+03</pdfrwt>
<pdfrwt beam="1">  1        4 0.26991432E-01 0.12732102E+03</pdfrwt>
<totfact> 0.36717166E+04</totfact>
</mgrwt>
</event>
<event>
 6    4  0.3995738E-003  0.1287195E+03  0.7818608E-02  0.1229368E+00
         21   -1    0    0  501  502  0.00000000000E+00  0.00000000000E+00  0.12382274805E+02  0.12382274805E+02  0.00000000000E+00 0. -1.
          4   -1    0    0  502    0 -0.00000000000E+00 -0.00000000000E+00 -0.57160113159E+03  0.57160254245E+03  0.12700000000E+01 0. -1.
         25    2    1    2    0    0 -0.12550215188E+02 -0.28033804654E+02 -0.50968074373E+03  0.52568353383E+03  0.12500126039E+03 0.  0.
    9000005    1    3    3    0    0 -0.24541211247E+02  0.43116550526E+02 -0.12881408055E+03  0.13804120880E+03  0.10000000000E+01 0.  0.
    9000005    1    3    3    0    0  0.11990996059E+02 -0.71150355180E+02 -0.38086666319E+03  0.38764232503E+03  0.10000000000E+01 0.  0.
          4    1    1    2  501    0  0.12550215188E+02  0.28033804654E+02 -0.49538113055E+02  0.58301283431E+02  0.12700000000E+01 0.  1.
<mgrwt>
<rscale>  1 0.12871953E+03</rscale>
<asrwt>0</asrwt>
<pdfrwt beam="1">  1       21 0.19049653E-02 0.12871953E+03</pdfrwt>
<pdfrwt beam="2">  1        4 0.87943757E-01 0.12871953E+03</pdfrwt>
<totfact> 0.61243693E+04</totfact>
</mgrwt>
</event>
<event>
 6    4  0.3995738E-003  0.1305651E+03  0.7818608E-02  0.1226620E+00
         21   -1    0    0  501  502  0.00000000000E+00  0.00000000000E+00  0.23696689213E+03  0.23696689213E+03  0.00000000000E+00 0. -1.
         -4   -1    0    0    0  501 -0.00000000000E+00 -0.00000000000E+00 -0.40205990157E+02  0.40226043112E+02  0.12700000000E+01 0.  1.
         25    2    1    2    0    0 -0.29923202931E+02  0.22948554213E+02  0.76888392835E+02  0.15152247109E+03  0.12500080031E+03 0.  0.
    9000005    1    3    3    0    0 -0.45936782593E+02  0.23772485161E+02 -0.18385824955E+02  0.54903165710E+02  0.10000000000E+01 0.  0.
    9000005    1    3    3    0    0  0.16013579662E+02 -0.82393094819E+00  0.95274217790E+02  0.96619305376E+02  0.10000000000E+01 0.  0.
         -4    1    1    2    0  502  0.29923202931E+02 -0.22948554213E+02  0.11987250914E+03  0.12567046416E+03  0.12700000000E+01 0. -1.
<mgrwt>
<rscale>  1 0.13056506E+03</rscale>
<asrwt>0</asrwt>
<pdfrwt beam="1">  1       21 0.36456444E-01 0.13056506E+03</pdfrwt>
<pdfrwt beam="2">  1       -4 0.61873414E-02 0.13056506E+03</pdfrwt>
<totfact> 0.49615544E+04</totfact>
</mgrwt>
</event>
<event>
 6    4  0.3995738E-003  0.1268854E+03  0.7818608E-02  0.1232152E+00
         21   -1    0    0  501  502  0.00000000000E+00  0.00000000000E+00  0.94083568860E+02  0.94083568860E+02  0.00000000000E+00 0.  1.
          4   -1    0    0  502    0 -0.00000000000E+00 -0.00000000000E+00 -0.88410358292E+02  0.88419479490E+02  0.12700000000E+01 0.  1.
         25    2    1    2    0    0 -0.15568035684E+01 -0.21740885521E+02 -0.39030244312E+02  0.13275265620E+03  0.12499927207E+03 0.  0.
    9000005    1    3    3    0    0  0.36477113762E+02  0.16402294155E+02 -0.62322197302E+02  0.74058567084E+02  0.10000000000E+01 0.  0.
    9000005    1    3    3    0    0 -0.38033917331E+02 -0.38143179676E+02  0.23291952991E+02  0.58694089118E+02  0.10000000000E+01 0.  0.
          4    1    1    2  501    0  0.15568035684E+01  0.21740885521E+02  0.44703454880E+02  0.49750392147E+02  0.12700000000E+01 0. -1.
<mgrwt>
<rscale>  1 0.12688541E+03</rscale>
<asrwt>0</asrwt>
<pdfrwt beam="1">  1       21 0.14474395E-01 0.12688541E+03</pdfrwt>
<pdfrwt beam="2">  1        4 0.13602955E-01 0.12688541E+03</pdfrwt>
<totfact> 0.74953125E+04</totfact>
</mgrwt>
</event>
<event>
 6    4  0.3995738E-003  0.1272096E+03  0.7818608E-02  0.1231656E+00
         21   -1    0    0  501  502  0.00000000000E+00  0.00000000000E+00  0.48562190663E+03  0.48562190663E+03  0.00000000000E+00 0. -1.
         -4   -1    0    0    0  501 -0.00000000000E+00 -0.00000000000E+00 -0.12512936431E+02  0.12577220604E+02  0.12700000000E+01 0. -1.
         25    2    1    2    0    0 -0.22689656617E+02 -0.65030336265E+01  0.34022056621E+03  0.36322486754E+03  0.12500064307E+03 0.  0.
    9000005    1    3    3    0    0 -0.19786942708E+02 -0.56641848300E+02  0.27179495347E+03  0.27834029319E+03  0.10000000000E+01 0.  0.
    9000005    1    3    3    0    0 -0.29027139086E+01  0.50138814674E+02  0.68425612739E+02  0.84884574356E+02  0.10000000000E+01 0.  0.
         -4    1    1    2    0  502  0.22689656617E+02  0.65030336265E+01  0.13288840399E+03  0.13497425969E+03  0.12700000000E+01 0.  1.
<mgrwt>
<rscale>  1 0.12720955E+03</rscale>
<asrwt>0</asrwt>
<pdfrwt beam="1">  1       21 0.74711048E-01 0.12720955E+03</pdfrwt>
<pdfrwt beam="2">  1       -4 0.19301402E-02 0.12720955E+03</pdfrwt>
<totfact> 0.69786084E+04</totfact>
</mgrwt>
</event>
<event>
 6    4  0.3995738E-003  0.1290012E+03  0.7818608E-02  0.1228945E+00
          4   -1    0    0  502    0 -0.00000000000E+00  0.00000000000E+00  0.15904127066E+02  0.15954753452E+02  0.12700000000E+01 0. -1.
         21   -1    0    0  501  502  0.00000000000E+00 -0.00000000000E+00 -0.42273755090E+03  0.42273755090E+03  0.00000000000E+00 0. -1.
         25    2    1    2    0    0  0.29329549861E+02  0.12513432248E+02 -0.28657234601E+03  0.31426904197E+03  0.12499805104E+03 0.  0.
    9000005    1    3    3    0    0  0.21277212994E+02  0.46588825685E+01 -0.29765131660E+03  0.29844887544E+03  0.10000000000E+01 0.  0.
    9000005    1    3    3    0    0  0.80523368675E+01  0.78545496797E+01  0.11078970590E+02  0.15820166530E+02  0.10000000000E+01 0.  0.
          4    1    1    2  501    0 -0.29329549861E+02 -0.12513432248E+02 -0.12026107782E+03  0.12442326238E+03  0.12700000000E+01 0.  1.
<mgrwt>
<rscale>  1 0.12900125E+03</rscale>
<asrwt>0</asrwt>
<pdfrwt beam="2">  1       21 0.65036540E-01 0.12900125E+03</pdfrwt>
<pdfrwt beam="1">  1        4 0.24508301E-02 0.12900125E+03</pdfrwt>
<totfact> 0.65393285E+04</totfact>
</mgrwt>
</event>
<event>
 6    4  0.3995738E-003  0.1326001E+03  0.7818608E-02  0.1223648E+00
         21   -1    0    0  501  502  0.00000000000E+00  0.00000000000E+00  0.15446713614E+03  0.15446713614E+03  0.00000000000E+00 0.  1.
          4   -1    0    0  502    0 -0.00000000000E+00 -0.00000000000E+00 -0.68991867554E+02  0.69003555622E+02  0.12700000000E+01 0. -1.
         25    2    1    2    0    0 -0.28983403809E+02 -0.33435981137E+02  0.62868449436E+01  0.13274901921E+03  0.12499910061E+03 0.  0.
    9000005    1    3    3    0    0  0.43980251296E+02 -0.16864805468E+02 -0.22957078620E+02  0.52409079617E+02  0.10000000000E+01 0.  0.
    9000005    1    3    3    0    0 -0.72963655105E+02 -0.16571175669E+02  0.29243923563E+02  0.80339939598E+02  0.10000000000E+01 0.  0.
          4    1    1    2  501    0  0.28983403809E+02  0.33435981137E+02  0.79188423647E+02  0.90721672552E+02  0.12700000000E+01 0.  1.
<mgrwt>
<rscale>  1 0.13260007E+03</rscale>
<asrwt>0</asrwt>
<pdfrwt beam="1">  1       21 0.23764175E-01 0.13260007E+03</pdfrwt>
<pdfrwt beam="2">  1        4 0.10615434E-01 0.13260007E+03</pdfrwt>
<totfact> 0.46315255E+04</totfact>
</mgrwt>
</event>
<event>
 6    4  0.3995738E-003  0.1301134E+03  0.7818608E-02  0.1227288E+00
         21   -1    0    0  501  502  0.00000000000E+00  0.00000000000E+00  0.11123475887E+02  0.11123475887E+02  0.00000000000E+00 0. -1.
          4   -1    0    0  502    0 -0.00000000000E+00 -0.00000000000E+00 -0.63135966166E+03  0.63136093898E+03  0.12700000000E+01 0. -1.
         25    2    1    2    0    0 -0.25309197576E+02 -0.25762216423E+02 -0.51640758893E+03  0.53254698857E+03  0.12500099944E+03 0.  0.
    9000005    1    3    3    0    0  0.26711753524E+02 -0.60508460530E+02 -0.22632846361E+03  0.23579729645E+03  0.10000000000E+01 0.  0.
    9000005    1    3    3    0    0 -0.52020951101E+02  0.34746244107E+02 -0.29007912531E+03  0.29674969212E+03  0.10000000000E+01 0.  0.
          4    1    1    2  501    0  0.25309197576E+02  0.25762216423E+02 -0.10382859685E+03  0.10993742629E+03  0.12700000000E+01 0.  1.
<mgrwt>
<rscale>  1 0.13011340E+03</rscale>
<asrwt>0</asrwt>
<pdfrwt beam="1">  1       21 0.17113044E-02 0.13011340E+03</pdfrwt>
<pdfrwt beam="2">  1        4 0.97137906E-01 0.13011340E+03</pdfrwt>
<totfact> 0.58150897E+04</totfact>
</mgrwt>
</event>
<event>
 6    4  0.3995738E-003  0.1362309E+03  0.7818608E-02  0.1218492E+00
          4   -1    0    0  502    0 -0.00000000000E+00  0.00000000000E+00  0.15104385615E+02  0.15157683359E+02  0.12700000000E+01 0. -1.
         21   -1    0    0  501  502  0.00000000000E+00 -0.00000000000E+00 -0.59945213187E+03  0.59945213187E+03  0.00000000000E+00 0. -1.
         25    2    1    2    0    0 -0.47289104535E+02  0.26416151651E+02 -0.42538770071E+03  0.44666940480E+03  0.12499915517E+03 0.  0.
    9000005    1    3    3    0    0 -0.75621646550E+02  0.55427434695E+02 -0.26035279509E+03  0.27672262621E+03  0.10000000000E+01 0.  0.
    9000005    1    3    3    0    0  0.28332542014E+02 -0.29011283043E+02 -0.16503490562E+03  0.16994677859E+03  0.10000000000E+01 0.  0.
          4    1    1    2  501    0  0.47289104535E+02 -0.26416151651E+02 -0.15896004554E+03  0.16794041043E+03  0.12700000000E+01 0.  1.
<mgrwt>
<rscale>  1 0.13623091E+03</rscale>
<asrwt>0</asrwt>
<pdfrwt beam="2">  1       21 0.92223397E-01 0.13623091E+03</pdfrwt>
<pdfrwt beam="1">  1        4 0.23279551E-02 0.13623091E+03</pdfrwt>
<totfact> 0.32746640E+04</totfact>
</mgrwt>
</event>
<event>
 6    4  0.3995738E-003  0.1272861E+03  0.7818608E-02  0.1231539E+00
          4   -1    0    0  502    0 -0.00000000000E+00  0.00000000000E+00  0.15507041551E+03  0.15507561596E+03  0.12700000000E+01 0.  1.
         21   -1    0    0  501  502  0.00000000000E+00 -0.00000000000E+00 -0.42556726610E+02  0.42556726610E+02  0.00000000000E+00 0. -1.
         25    2    1    2    0    0  0.23883507391E+02  0.24327656541E+01  0.11733119088E+03  0.17311374760E+03  0.12500168391E+03 0.  0.
    9000005    1    3    3    0    0  0.28819332434E+02 -0.54652319728E+02  0.30079966855E+02  0.68725791226E+02  0.10000000000E+01 0.  0.
    9000005    1    3    3    0    0 -0.49358250426E+01  0.57085085382E+02  0.87251224024E+02  0.10438795637E+03  0.10000000000E+01 0.  0.
          4    1    1    2  501    0 -0.23883507391E+02 -0.24327656541E+01 -0.48175019821E+01  0.24518594972E+02  0.12700000000E+01 0. -1.
<mgrwt>
<rscale>  1 0.12728614E+03</rscale>
<asrwt>0</asrwt>
<pdfrwt beam="2">  1       21 0.65471888E-02 0.12728614E+03</pdfrwt>
<pdfrwt beam="1">  1        4 0.23858844E-01 0.12728614E+03</pdfrwt>
<totfact> 0.11043919E+05</totfact>
</mgrwt>
</event>
<event>
 6    4  0.3995738E-003  0.1273326E+03  0.7818608E-02  0.1231468E+00
         -4   -1    0    0    0  501 -0.00000000000E+00  0.00000000000E+00  0.75135240134E+03  0.75135347467E+03  0.12700000000E+01 0. -1.
         21   -1    0    0  501  502  0.00000000000E+00 -0.00000000000E+00 -0.30803047315E+02  0.30803047315E+02  0.00000000000E+00 0.  1.
         25    2    1    2    0    0 -0.20746189023E+02  0.13061740118E+02  0.73997579545E+03  0.75085136363E+03  0.12495030608E+03 0.  0.
    9000005    1    3    3    0    0  0.41925920767E+02  0.35176967144E+02  0.22297176730E+03  0.22959227091E+03  0.10000000000E+01 0.  0.
    9000005    1    3    3    0    0 -0.62672109790E+02 -0.22115227025E+02  0.51700402815E+03  0.52125909271E+03  0.10000000000E+01 0.  0.
         -4    1    1    2    0  502  0.20746189023E+02 -0.13061740118E+02 -0.19426441422E+02  0.31305158364E+02  0.12700000000E+01 0.  1.
<mgrwt>
<rscale>  1 0.12733261E+03</rscale>
<asrwt>0</asrwt>
<pdfrwt beam="2">  1       21 0.47389310E-02 0.12733261E+03</pdfrwt>
<pdfrwt beam="1">  1       -4 0.11559476E+00 0.12733261E+03</pdfrwt>
<totfact> 0.72888346E+03</totfact>
</mgrwt>
</event>
<event>
 6    4  0.3995738E-003  0.1449500E+03  0.7818608E-02  0.1206819E+00
         21   -1    0    0  501  502  0.00000000000E+00  0.00000000000E+00  0.70391424883E+02  0.70391424883E+02  0.00000000000E+00 0. -1.
         -4   -1    0    0    0  501 -0.00000000000E+00 -0.00000000000E+00 -0.25996887591E+03  0.25997197799E+03  0.12700000000E+01 0.  1.
         25    2    1    2    0    0  0.28774278845E+02  0.67493914634E+02 -0.20910086203E+03  0.25442814023E+03  0.12500848132E+03 0.  0.
    9000005    1    3    3    0    0 -0.45584985332E+02  0.24926653701E+02 -0.42687420599E+02  0.67249868624E+02  0.10000000000E+01 0.  0.
    9000005    1    3    3    0    0  0.74359264177E+02  0.42567260933E+02 -0.16641344143E+03  0.18717827161E+03  0.10000000000E+01 0.  0.
         -4    1    1    2    0  502 -0.28774278845E+02 -0.67493914634E+02  0.19523411006E+02  0.75935262645E+02  0.12700000000E+01 0. -1.
<mgrwt>
<rscale>  1 0.14495002E+03</rscale>
<asrwt>0</asrwt>
<pdfrwt beam="1">  1       21 0.10829450E-01 0.14495002E+03</pdfrwt>
<pdfrwt beam="2">  1       -4 0.39996332E-01 0.14495002E+03</pdfrwt>
<totfact> 0.17589366E+04</totfact>
</mgrwt>
</event>
<event>
 6    4  0.3995738E-003  0.1349672E+03  0.7818608E-02  0.1220266E+00
          4   -1    0    0  502    0 -0.00000000000E+00  0.00000000000E+00  0.13071250424E+03  0.13071867374E+03  0.12700000000E+01 0. -1.
         21   -1    0    0  501  502  0.00000000000E+00 -0.00000000000E+00 -0.66693143811E+02  0.66693143811E+02  0.00000000000E+00 0. -1.
         25    2    1    2    0    0  0.20343186114E+02  0.46661988543E+02  0.37919323816E+02  0.14019284161E+03  0.12499988530E+03 0.  0.
    9000005    1    3    3    0    0 -0.36683668877E+02  0.60328669380E+02  0.40652141609E+02  0.81479055768E+02  0.10000000000E+01 0.  0.
    9000005    1    3    3    0    0  0.57026854991E+02 -0.13666680837E+02 -0.27328177930E+01  0.58713785846E+02  0.10000000000E+01 0.  0.
          4    1    1    2  501    0 -0.20343186114E+02 -0.46661988543E+02  0.26100036610E+02  0.57218975936E+02  0.12700000000E+01 0.  1.
<mgrwt>
<rscale>  1 0.13496725E+03</rscale>
<asrwt>0</asrwt>
<pdfrwt beam="2">  1       21 0.10260484E-01 0.13496725E+03</pdfrwt>
<pdfrwt beam="1">  1        4 0.20111021E-01 0.13496725E+03</pdfrwt>
<totfact> 0.69872381E+04</totfact>
</mgrwt>
</event>
<event>
 6    4  0.3995738E-003  0.1283863E+03  0.7818608E-02  0.1229870E+00
         21   -1    0    0  501  502  0.00000000000E+00  0.00000000000E+00  0.23418232251E+04  0.23418232251E+04  0.00000000000E+00 0. -1.
         -4   -1    0    0    0  501 -0.00000000000E+00 -0.00000000000E+00 -0.25743810793E+01  0.28705988820E+01  0.12700000000E+01 0. -1.
         25    2    1    2    0    0  0.10338035711E+02  0.27421169763E+02  0.17417067726E+04  0.17464322294E+04  0.12499701850E+03 0.  0.
    9000005    1    3    3    0    0 -0.49319739839E+02  0.44554502380E+01  0.37849711972E+03  0.38172419024E+03  0.10000000000E+01 0.  0.
    9000005    1    3    3    0    0  0.59657775549E+02  0.22965719525E+02  0.13632096529E+04  0.13647080391E+04  0.10000000000E+01 0.  0.
         -4    1    1    2    0  502 -0.10338035711E+02 -0.27421169763E+02  0.59754207147E+03  0.59826159463E+03  0.12700000000E+01 0.  1.
<mgrwt>
<rscale>  1 0.12838633E+03</rscale>
<asrwt>0</asrwt>
<pdfrwt beam="1">  1       21 0.36027888E+00 0.12838633E+03</pdfrwt>
<pdfrwt beam="2">  1       -4 0.41887298E-03 0.12838633E+03</pdfrwt>
<totfact> 0.71656521E+03</totfact>
</mgrwt>
</event>
<event>
 6    4  0.3995738E-003  0.1293598E+03  0.7818608E-02  0.1228409E+00
         -4   -1    0    0    0  501 -0.00000000000E+00  0.00000000000E+00  0.44974603625E+02  0.44992531282E+02  0.12700000000E+01 0. -1.
         21   -1    0    0  501  502  0.00000000000E+00 -0.00000000000E+00 -0.32464611717E+03  0.32464611717E+03  0.00000000000E+00 0.  1.
         25    2    1    2    0    0  0.33273948693E+02  0.29607927627E+01 -0.51828331456E+02  0.13935610356E+03  0.12497209970E+03 0.  0.
    9000005    1    3    3    0    0 -0.22015533996E+02 -0.48839934027E+02 -0.20763000667E+02  0.57464120019E+02  0.10000000000E+01 0.  0.
    9000005    1    3    3    0    0  0.55289482689E+02  0.51800726790E+02 -0.31065330789E+02  0.81891983545E+02  0.10000000000E+01 0.  0.
         -4    1    1    2    0  502 -0.33273948693E+02 -0.29607927627E+01 -0.22784318209E+03  0.23028254488E+03  0.12700000000E+01 0.  1.
<mgrwt>
<rscale>  1 0.12935976E+03</rscale>
<asrwt>0</asrwt>
<pdfrwt beam="2">  1       21 0.49945558E-01 0.12935976E+03</pdfrwt>
<pdfrwt beam="1">  1       -4 0.69207397E-02 0.12935976E+03</pdfrwt>
<totfact> 0.21871532E+04</totfact>
</mgrwt>
</event>
<event>
 6    4  0.3995738E-003  0.1271556E+03  0.7818608E-02  0.1231738E+00
         -4   -1    0    0    0  501 -0.00000000000E+00  0.00000000000E+00  0.37374643403E+02  0.37396214642E+02  0.12700000000E+01 0.  1.
         21   -1    0    0  501  502  0.00000000000E+00 -0.00000000000E+00 -0.18576614556E+03  0.18576614556E+03  0.00000000000E+00 0.  1.
         25    2    1    2    0    0 -0.13596610767E+02 -0.18946235786E+02 -0.15342839677E+03  0.19927071141E+03  0.12499886326E+03 0.  0.
    9000005    1    3    3    0    0  0.43705621655E+02  0.16871777648E+02 -0.10830643058E+03  0.11800898758E+03  0.10000000000E+01 0.  0.
    9000005    1    3    3    0    0 -0.57302232422E+02 -0.35818013434E+02 -0.45121966195E+02  0.81261723833E+02  0.10000000000E+01 0.  0.
         -4    1    1    2    0  502  0.13596610767E+02  0.18946235786E+02  0.50368946099E+01  0.23891648794E+02  0.12700000000E+01 0. -1.
<mgrwt>
<rscale>  1 0.12715559E+03</rscale>
<asrwt>0</asrwt>
<pdfrwt beam="2">  1       21 0.28579407E-01 0.12715559E+03</pdfrwt>
<pdfrwt beam="1">  1       -4 0.57519384E-02 0.12715559E+03</pdfrwt>
<totfact> 0.89397017E+04</totfact>
</mgrwt>
</event>
<event>
 6    4  0.3995738E-003  0.1272041E+03  0.7818608E-02  0.1231664E+00
          4   -1    0    0  502    0 -0.00000000000E+00  0.00000000000E+00  0.35708724720E+03  0.35708950561E+03  0.12700000000E+01 0. -1.
         21   -1    0    0  501  502  0.00000000000E+00 -0.00000000000E+00 -0.19353121637E+02  0.19353121637E+02  0.00000000000E+00 0.  1.
         25    2    1    2    0    0 -0.13724807394E+02 -0.19184101781E+02  0.32626095718E+03  0.35018150404E+03  0.12499789395E+03 0.  0.
    9000005    1    3    3    0    0 -0.43751780849E+02  0.38858396917E+02  0.11490295120E+03  0.12894914320E+03  0.10000000000E+01 0.  0.
    9000005    1    3    3    0    0  0.30026973455E+02 -0.58042498698E+02  0.21135800598E+03  0.22123236083E+03  0.10000000000E+01 0.  0.
          4    1    1    2  501    0  0.13724807394E+02  0.19184101781E+02  0.11473168388E+02  0.26261123205E+02  0.12700000000E+01 0.  1.
<mgrwt>
<rscale>  1 0.12720406E+03</rscale>
<asrwt>0</asrwt>
<pdfrwt beam="2">  1       21 0.29774036E-02 0.12720406E+03</pdfrwt>
<pdfrwt beam="1">  1        4 0.54939873E-01 0.12720406E+03</pdfrwt>
<totfact> 0.81524053E+04</totfact>
</mgrwt>
</event>
<event>
 6    4  0.3995738E-003  0.1266099E+03  0.7818608E-02  0.1232574E+00
         21   -1    0    0  501  502  0.00000000000E+00  0.00000000000E+00  0.49458271167E+02  0.49458271167E+02  0.00000000000E+00 0. -1.
         -4   -1    0    0    0  501 -0.00000000000E+00 -0.00000000000E+00 -0.12260670532E+03  0.12261328268E+03  0.12700000000E+01 0. -1.
         25    2    1    2    0    0  0.16976382909E+02 -0.10820892646E+02 -0.81135160369E+02  0.15037616286E+03  0.12499914725E+03 0.  0.
    9000005    1    3    3    0    0  0.46037132647E+02  0.33653076152E+02 -0.78687339462E+02  0.97183560896E+02  0.10000000000E+01 0.  0.
    9000005    1    3    3    0    0 -0.29060749738E+02 -0.44473968798E+02 -0.24478209070E+01  0.53192601959E+02  0.10000000000E+01 0.  0.
         -4    1    1    2    0  502 -0.16976382909E+02  0.10820892646E+02  0.79867262201E+01  0.21695390986E+02  0.12700000000E+01 0.  1.
<mgrwt>
<rscale>  1 0.12660994E+03</rscale>
<asrwt>0</asrwt>
<pdfrwt beam="1">  1       21 0.76089648E-02 0.12660994E+03</pdfrwt>
<pdfrwt beam="2">  1       -4 0.18864330E-01 0.12660994E+03</pdfrwt>
<totfact> 0.13049805E+05</totfact>
</mgrwt>
</event>
<event>
 6    4  0.3995738E-003  0.1324888E+03  0.7818608E-02  0.1223809E+00
         21   -1    0    0  501  502  0.00000000000E+00  0.00000000000E+00  0.72278314936E+02  0.72278314936E+02  0.00000000000E+00 0. -1.
         -4   -1    0    0    0  501 -0.00000000000E+00 -0.00000000000E+00 -0.10830132031E+03  0.10830876641E+03  0.12700000000E+01 0. -1.
         25    2    1    2    0    0  0.23818806428E+02  0.36911965012E+02 -0.32990569050E+02  0.13653441661E+03  0.12499376213E+03 0.  0.
    9000005    1    3    3    0    0 -0.20150639008E+02 -0.22117161791E+02 -0.52451259008E+02  0.60393308153E+02  0.10000000000E+01 0.  0.
    9000005    1    3    3    0    0  0.43969445436E+02  0.59029126803E+02  0.19460689958E+02  0.76141108455E+02  0.10000000000E+01 0.  0.
         -4    1    1    2    0  502 -0.23818806428E+02 -0.36911965012E+02 -0.30324363294E+01  0.44052664741E+02  0.12700000000E+01 0.  1.
<mgrwt>
<rscale>  1 0.13248875E+03</rscale>
<asrwt>0</asrwt>
<pdfrwt beam="1">  1       21 0.11119741E-01 0.13248875E+03</pdfrwt>
<pdfrwt beam="2">  1       -4 0.16663173E-01 0.13248875E+03</pdfrwt>
<totfact> 0.84591379E+04</totfact>
</mgrwt>
</event>
<event>
 6    4  0.3995738E-003  0.1278760E+03  0.7818608E-02  0.1230642E+00
         21   -1    0    0  501  502  0.00000000000E+00  0.00000000000E+00  0.24750235731E+03  0.24750235731E+03  0.00000000000E+00 0. -1.
          4   -1    0    0  502    0 -0.00000000000E+00 -0.00000000000E+00 -0.30736977396E+02  0.30763203335E+02  0.12700000000E+01 0. -1.
         25    2    1    2    0    0  0.16128830214E+02 -0.21620036972E+02  0.11171919040E+03  0.16980413896E+03  0.12499881176E+03 0.  0.
    9000005    1    3    3    0    0 -0.16168633281E+01 -0.54379443153E+02  0.25769294420E+01  0.54473650970E+02  0.10000000000E+01 0.  0.
    9000005    1    3    3    0    0  0.17745693542E+02  0.32759406181E+02  0.10914226096E+03  0.11533048799E+03  0.10000000000E+01 0.  0.
          4    1    1    2  501    0 -0.16128830214E+02  0.21620036972E+02  0.10504618952E+03  0.10846142169E+03  0.12700000000E+01 0.  1.
<mgrwt>
<rscale>  1 0.12787599E+03</rscale>
<asrwt>0</asrwt>
<pdfrwt beam="1">  1       21 0.38077284E-01 0.12787599E+03</pdfrwt>
<pdfrwt beam="2">  1        4 0.47310340E-02 0.12787599E+03</pdfrwt>
<totfact> 0.70015331E+04</totfact>
</mgrwt>
</event>
<event>
 6    4  0.3995738E-003  0.1389206E+03  0.7818608E-02  0.1214789E+00
         -4   -1    0    0    0  501 -0.00000000000E+00  0.00000000000E+00  0.12361789662E+03  0.12362442018E+03  0.12700000000E+01 0. -1.
         21   -1    0    0  501  502  0.00000000000E+00 -0.00000000000E+00 -0.87697636075E+02  0.87697636075E+02  0.00000000000E+00 0.  1.
         25    2    1    2    0    0  0.60467486501E+02  0.44618734687E+01  0.52405094402E+02  0.14847630950E+03  0.12499078095E+03 0.  0.
    9000005    1    3    3    0    0  0.44544827225E+02  0.39480111860E+02  0.81007589502E+02  0.10052935105E+03  0.10000000000E+01 0.  0.
    9000005    1    3    3    0    0  0.15922659277E+02 -0.35018238392E+02 -0.28602495100E+02  0.47946958448E+02  0.10000000000E+01 0.  0.
         -4    1    1    2    0  502 -0.60467486501E+02 -0.44618734687E+01 -0.16484833857E+02  0.62845746761E+02  0.12700000000E+01 0.  1.
<mgrwt>
<rscale>  1 0.13892055E+03</rscale>
<asrwt>0</asrwt>
<pdfrwt beam="2">  1       21 0.13491944E-01 0.13892055E+03</pdfrwt>
<pdfrwt beam="1">  1       -4 0.19019347E-01 0.13892055E+03</pdfrwt>
<totfact> 0.47711033E+04</totfact>
</mgrwt>
</event>
<event>
 6    4  0.3995738E-003  0.1305958E+03  0.7818608E-02  0.1226574E+00
         21   -1    0    0  501  502  0.00000000000E+00  0.00000000000E+00  0.40453993993E+03  0.40453993993E+03  0.00000000000E+00 0. -1.
         -4   -1    0    0    0  501 -0.00000000000E+00 -0.00000000000E+00 -0.62790312566E+02  0.62803154795E+02  0.12700000000E+01 0.  1.
         25    2    1    2    0    0 -0.19281809785E+02 -0.32535470276E+02  0.73428229665E+01  0.13080205898E+03  0.12499966628E+03 0.  0.
    9000005    1    3    3    0    0  0.73121811967E+01  0.37972706532E+02  0.33352867461E+02  0.51076493645E+02  0.10000000000E+01 0.  0.
    9000005    1    3    3    0    0 -0.26593990981E+02 -0.70508176808E+02 -0.26010044494E+02  0.79725565333E+02  0.10000000000E+01 0.  0.
         -4    1    1    2    0  502  0.19281809785E+02  0.32535470276E+02  0.33440680440E+03  0.33654103575E+03  0.12700000000E+01 0. -1.
<mgrwt>
<rscale>  1 0.13059579E+03</rscale>
<asrwt>0</asrwt>
<pdfrwt beam="1">  1       21 0.62236912E-01 0.13059579E+03</pdfrwt>
<pdfrwt beam="2">  1       -4 0.96611895E-02 0.13059579E+03</pdfrwt>
<totfact> 0.79327931E+03</totfact>
</mgrwt>
</event>
<event>
 6    4  0.3995738E-003  0.1268591E+03  0.7818608E-02  0.1232192E+00
         21   -1    0    0  501  502  0.00000000000E+00  0.00000000000E+00  0.27945181360E+03  0.27945181360E+03  0.00000000000E+00 0.  1.
         -4   -1    0    0    0  501 -0.00000000000E+00 -0.00000000000E+00 -0.17072678832E+03  0.17073151188E+03  0.12700000000E+01 0. -1.
         25    2    1    2    0    0  0.12308176007E+02  0.17793671265E+02 -0.14664116654E+03  0.19389908726E+03  0.12500047353E+03 0.  0.
    9000005    1    3    3    0    0  0.13816302777E+02 -0.48529099773E+02 -0.10237991941E+03  0.11414294391E+03  0.10000000000E+01 0.  0.
    9000005    1    3    3    0    0 -0.15081267702E+01  0.66322771038E+02 -0.44261247133E+02  0.79756143352E+02  0.10000000000E+01 0.  0.
         -4    1    1    2    0  502 -0.12308176007E+02 -0.17793671265E+02  0.25536619183E+03  0.25628423822E+03  0.12700000000E+01 0.  1.
<mgrwt>
<rscale>  1 0.12685907E+03</rscale>
<asrwt>0</asrwt>
<pdfrwt beam="1">  1       21 0.42992587E-01 0.12685907E+03</pdfrwt>
<pdfrwt beam="2">  1       -4 0.26266245E-01 0.12685907E+03</pdfrwt>
<totfact> 0.29387263E+03</totfact>
</mgrwt>
</event>
<event>
 6    4  0.3995738E-003  0.1298400E+03  0.7818608E-02  0.1227693E+00
         21   -1    0    0  501  502  0.00000000000E+00  0.00000000000E+00  0.24121180064E+01  0.24121180064E+01  0.00000000000E+00 0. -1.
          4   -1    0    0  502    0 -0.00000000000E+00 -0.00000000000E+00 -0.28323517530E+04  0.28323520378E+04  0.12700000000E+01 0. -1.
         25    2    1    2    0    0 -0.32146592845E+02  0.14156498118E+02 -0.22969595814E+04  0.23006263830E+04  0.12499850215E+03 0.  0.
    9000005    1    3    3    0    0  0.17992156785E+02  0.29819475700E+02 -0.20023155236E+03  0.20324023568E+03  0.10000000000E+01 0.  0.
    9000005    1    3    3    0    0 -0.50138749630E+02 -0.15662977582E+02 -0.20967280291E+04  0.20973861473E+04  0.10000000000E+01 0.  0.
          4    1    1    2  501    0  0.32146592845E+02 -0.14156498118E+02 -0.53298005357E+03  0.53413777275E+03  0.12700000000E+01 0.  1.
<mgrwt>
<rscale>  1 0.12984004E+03</rscale>
<asrwt>0</asrwt>
<pdfrwt beam="1">  1       21 0.37109548E-03 0.12984004E+03</pdfrwt>
<pdfrwt beam="2">  1        4 0.43577170E+00 0.12984004E+03</pdfrwt>
<totfact> 0.37864162E+03</totfact>
</mgrwt>
</event>
<event>
 6    4  0.3995738E-003  0.1268601E+03  0.7818608E-02  0.1232191E+00
         -4   -1    0    0    0  501 -0.00000000000E+00  0.00000000000E+00  0.22191423488E+02  0.22227734397E+02  0.12700000000E+01 0.  1.
         21   -1    0    0  501  502  0.00000000000E+00 -0.00000000000E+00 -0.39938268596E+03  0.39938268596E+03  0.00000000000E+00 0. -1.
         25    2    1    2    0    0 -0.21576901712E+02  0.15959315484E+01 -0.16409179536E+03  0.20741166810E+03  0.12500149229E+03 0.  0.
    9000005    1    3    3    0    0  0.79572616784E+01  0.55836589714E+02 -0.11648981093E+03  0.12942920387E+03  0.10000000000E+01 0.  0.
    9000005    1    3    3    0    0 -0.29534163390E+02 -0.54240658166E+02 -0.47601984427E+02  0.77982464226E+02  0.10000000000E+01 0.  0.
         -4    1    1    2    0  502  0.21576901712E+02 -0.15959315484E+01 -0.21309946711E+03  0.21419875225E+03  0.12700000000E+01 0. -1.
<mgrwt>
<rscale>  1 0.12686009E+03</rscale>
<asrwt>0</asrwt>
<pdfrwt beam="2">  1       21 0.61443488E-01 0.12686009E+03</pdfrwt>
<pdfrwt beam="1">  1       -4 0.34170137E-02 0.12686009E+03</pdfrwt>
<totfact> 0.43866657E+04</totfact>
</mgrwt>
</event>
<event>
 6    4  0.3995738E-003  0.1381724E+03  0.7818608E-02  0.1215809E+00
         21   -1    0    0  501  502  0.00000000000E+00  0.00000000000E+00  0.11919383814E+03  0.11919383814E+03  0.00000000000E+00 0. -1.
          4   -1    0    0  502    0 -0.00000000000E+00 -0.00000000000E+00 -0.12766409587E+03  0.12767041268E+03  0.12700000000E+01 0.  1.
         25    2    1    2    0    0 -0.30359430392E+02 -0.50434513095E+02 -0.75655452357E+02  0.15752893641E+03  0.12500513274E+03 0.  0.
    9000005    1    3    3    0    0  0.21546324203E+02 -0.29610530473E+02  0.23613876848E+02  0.43584891664E+02  0.10000000000E+01 0.  0.
    9000005    1    3    3    0    0 -0.51905754595E+02 -0.20823982622E+02 -0.99269329205E+02  0.11394404475E+03  0.10000000000E+01 0.  0.
          4    1    1    2  501    0  0.30359430392E+02  0.50434513095E+02  0.67185194626E+02  0.89335314416E+02  0.12700000000E+01 0. -1.
<mgrwt>
<rscale>  1 0.13817242E+03</rscale>
<asrwt>0</asrwt>
<pdfrwt beam="1">  1       21 0.18337514E-01 0.13817242E+03</pdfrwt>
<pdfrwt beam="2">  1        4 0.19641637E-01 0.13817242E+03</pdfrwt>
<totfact> 0.25801181E+04</totfact>
</mgrwt>
</event>
<event>
 6    4  0.3995738E-003  0.1314126E+03  0.7818608E-02  0.1225375E+00
         21   -1    0    0  501  502  0.00000000000E+00  0.00000000000E+00  0.10162607939E+04  0.10162607939E+04  0.00000000000E+00 0.  1.
          4   -1    0    0  502    0 -0.00000000000E+00 -0.00000000000E+00 -0.93132644040E+01  0.93994571045E+01  0.12700000000E+01 0. -1.
         25    2    1    2    0    0  0.19269926306E+02 -0.35680504772E+02  0.49629223008E+03  0.51339579177E+03  0.12499933152E+03 0.  0.
    9000005    1    3    3    0    0 -0.40892859061E+02 -0.49970767784E+02  0.18306086562E+03  0.19411744918E+03  0.10000000000E+01 0.  0.
    9000005    1    3    3    0    0  0.60162785366E+02  0.14290263012E+02  0.31323136447E+03  0.31927834259E+03  0.10000000000E+01 0.  0.
          4    1    1    2  501    0 -0.19269926306E+02  0.35680504772E+02  0.51065529942E+03  0.51226445924E+03  0.12700000000E+01 0.  1.
<mgrwt>
<rscale>  1 0.13141256E+03</rscale>
<asrwt>0</asrwt>
<pdfrwt beam="1">  1       21 0.15634773E+00 0.13141256E+03</pdfrwt>
<pdfrwt beam="2">  1        4 0.14395020E-02 0.13141256E+03</pdfrwt>
<totfact> 0.18741475E+04</totfact>
</mgrwt>
</event>
<event>
 6    4  0.3995738E-003  0.1273079E+03  0.7818608E-02  0.1231506E+00
         -4   -1    0    0    0  501 -0.00000000000E+00  0.00000000000E+00  0.17720115168E+02  0.17765567302E+02  0.12700000000E+01 0. -1.
         21   -1    0    0  501  502  0.00000000000E+00 -0.00000000000E+00 -0.32849283906E+03  0.32849283906E+03  0.00000000000E+00 0. -1.
         25    2    1    2    0    0 -0.21175912923E+02 -0.11582260764E+02 -0.24343206000E+03  0.27471159675E+03  0.12499890200E+03 0.  0.
    9000005    1    3    3    0    0 -0.42855735710E+02 -0.34649297688E+02 -0.23576832557E+03  0.24212577570E+03  0.10000000000E+01 0.  0.
    9000005    1    3    3    0    0  0.21679822787E+02  0.23067036924E+02 -0.76637344328E+01  0.32585821057E+02  0.10000000000E+01 0.  0.
         -4    1    1    2    0  502  0.21175912923E+02  0.11582260764E+02 -0.67340663891E+02  0.71546809613E+02  0.12700000000E+01 0.  1.
<mgrwt>
<rscale>  1 0.12730787E+03</rscale>
<asrwt>0</asrwt>
<pdfrwt beam="2">  1       21 0.50537361E-01 0.12730787E+03</pdfrwt>
<pdfrwt beam="1">  1       -4 0.27298566E-02 0.12730787E+03</pdfrwt>
<totfact> 0.93964720E+04</totfact>
</mgrwt>
</event>
<event>
 6    4  0.3995738E-003  0.1477239E+03  0.7818608E-02  0.1203298E+00
         21   -1    0    0  501  502  0.00000000000E+00  0.00000000000E+00  0.37666761972E+02  0.37666761972E+02  0.00000000000E+00 0. -1.
         -4   -1    0    0    0  501 -0.00000000000E+00 -0.00000000000E+00 -0.38205396859E+03  0.38205607941E+03  0.12700000000E+01 0.  1.
         25    2    1    2    0    0  0.40076361718E+01  0.78635413980E+02 -0.28528644169E+03  0.32126420644E+03  0.12499098786E+03 0.  0.
    9000005    1    3    3    0    0  0.31620345785E+01  0.10264618155E+03 -0.13796380647E+03  0.17199200257E+03  0.10000000000E+01 0.  0.
    9000005    1    3    3    0    0  0.84560159332E+00 -0.24010767574E+02 -0.14732263522E+03  0.14927220388E+03  0.10000000000E+01 0.  0.
         -4    1    1    2    0  502 -0.40076361718E+01 -0.78635413980E+02 -0.59100764920E+02  0.98458634937E+02  0.12700000000E+01 0. -1.
<mgrwt>
<rscale>  1 0.14772385E+03</rscale>
<asrwt>0</asrwt>
<pdfrwt beam="1">  1       21 0.57948863E-02 0.14772385E+03</pdfrwt>
<pdfrwt beam="2">  1       -4 0.58779344E-01 0.14772385E+03</pdfrwt>
<totfact> 0.23773579E+04</totfact>
</mgrwt>
</event>
<event>
 6    4  0.3995738E-003  0.1293061E+03  0.7818608E-02  0.1228489E+00
         21   -1    0    0  501  502  0.00000000000E+00  0.00000000000E+00  0.33787062701E+02  0.33787062701E+02  0.00000000000E+00 0. -1.
         -4   -1    0    0    0  501 -0.00000000000E+00 -0.00000000000E+00 -0.22896464852E+03  0.22896817065E+03  0.12700000000E+01 0.  1.
         25    2    1    2    0    0  0.29273046366E+02  0.15426262347E+02 -0.18910946148E+03  0.22909047661E+03  0.12500070895E+03 0.  0.
    9000005    1    3    3    0    0  0.30441386795E+02 -0.21966731434E+02 -0.18793215506E+03  0.19164735904E+03  0.10000000000E+01 0.  0.
    9000005    1    3    3    0    0 -0.11683404291E+01  0.37392993781E+02 -0.11773064207E+01  0.37443117574E+02  0.10000000000E+01 0.  0.
         -4    1    1    2    0  502 -0.29273046366E+02 -0.15426262347E+02 -0.60681243376E+01  0.33664756742E+02  0.12700000000E+01 0. -1.
<mgrwt>
<rscale>  1 0.12930606E+03</rscale>
<asrwt>0</asrwt>
<pdfrwt beam="1">  1       21 0.51980098E-02 0.12930606E+03</pdfrwt>
<pdfrwt beam="2">  1       -4 0.35227437E-01 0.12930606E+03</pdfrwt>
<totfact> 0.78640388E+04</totfact>
</mgrwt>
</event>
<event>
 6    4  0.3995738E-003  0.1272988E+03  0.7818608E-02  0.1231520E+00
         -4   -1    0    0    0  501 -0.00000000000E+00  0.00000000000E+00  0.73103335283E+02  0.73114366095E+02  0.12700000000E+01 0.  1.
         21   -1    0    0  501  502  0.00000000000E+00 -0.00000000000E+00 -0.13148256278E+03  0.13148256278E+03  0.00000000000E+00 0.  1.
         25    2    1    2    0    0 -0.21308326087E+02  0.11178505691E+02  0.14232079351E+02  0.12809190595E+03  0.12500392209E+03 0.  0.
    9000005    1    3    3    0    0 -0.69646790451E+00 -0.36247158057E+02  0.52460573214E+02  0.63776588782E+02  0.10000000000E+01 0.  0.
    9000005    1    3    3    0    0 -0.20611858183E+02  0.47425663748E+02 -0.38228493863E+02  0.64315317170E+02  0.10000000000E+01 0.  0.
         -4    1    1    2    0  502  0.21308326087E+02 -0.11178505691E+02 -0.72611306845E+02  0.76505022920E+02  0.12700000000E+01 0. -1.
<mgrwt>
<rscale>  1 0.12729880E+03</rscale>
<asrwt>0</asrwt>
<pdfrwt beam="2">  1       21 0.20228086E-01 0.12729880E+03</pdfrwt>
<pdfrwt beam="1">  1       -4 0.11247987E-01 0.12729880E+03</pdfrwt>
<totfact> 0.56427004E+04</totfact>
</mgrwt>
</event>
<event>
 6    4  0.3995738E-003  0.1375098E+03  0.7818608E-02  0.1216720E+00
         21   -1    0    0  501  502  0.00000000000E+00  0.00000000000E+00  0.26189426564E+03  0.26189426564E+03  0.00000000000E+00 0. -1.
          4   -1    0    0  502    0 -0.00000000000E+00 -0.00000000000E+00 -0.72586837243E+02  0.72597946534E+02  0.12700000000E+01 0.  1.
         25    2    1    2    0    0 -0.26634945661E+02 -0.50729553415E+02  0.84914577744E+00  0.13751240329E+03  0.12500412829E+03 0.  0.
    9000005    1    3    3    0    0 -0.61114959974E+02 -0.71124013273E+02 -0.13915012274E+02  0.94806598733E+02  0.10000000000E+01 0.  0.
    9000005    1    3    3    0    0  0.34480014313E+02  0.20394459858E+02  0.14764158052E+02  0.42705804558E+02  0.10000000000E+01 0.  0.
          4    1    1    2  501    0  0.26634945661E+02  0.50729553415E+02  0.18845828262E+03  0.19697980888E+03  0.12700000000E+01 0. -1.
<mgrwt>
<rscale>  1 0.13750978E+03</rscale>
<asrwt>0</asrwt>
<pdfrwt beam="1">  1       21 0.40291425E-01 0.13750978E+03</pdfrwt>
<pdfrwt beam="2">  1        4 0.11168297E-01 0.13750978E+03</pdfrwt>
<totfact> 0.15316121E+04</totfact>
</mgrwt>
</event>
<event>
 6    4  0.3995738E-003  0.1280723E+03  0.7818608E-02  0.1230345E+00
         21   -1    0    0  501  502  0.00000000000E+00  0.00000000000E+00  0.85124404014E+02  0.85124404014E+02  0.00000000000E+00 0. -1.
         -4   -1    0    0    0  501 -0.00000000000E+00 -0.00000000000E+00 -0.15446143029E+03  0.15446665124E+03  0.12700000000E+01 0.  1.
         25    2    1    2    0    0  0.69315799116E+01  0.27011217950E+02 -0.12396684399E+03  0.17824219562E+03  0.12499939677E+03 0.  0.
    9000005    1    3    3    0    0 -0.33361118530E+02 -0.33476740991E+02 -0.81059122771E+02  0.93836228618E+02  0.10000000000E+01 0.  0.
    9000005    1    3    3    0    0  0.40292698441E+02  0.60487958941E+02 -0.42907721220E+02  0.84405966998E+02  0.10000000000E+01 0.  0.
         -4    1    1    2    0  502 -0.69315799116E+01 -0.27011217950E+02  0.54629817718E+02  0.61348859640E+02  0.12700000000E+01 0. -1.
<mgrwt>
<rscale>  1 0.12807225E+03</rscale>
<asrwt>0</asrwt>
<pdfrwt beam="1">  1       21 0.13096062E-01 0.12807225E+03</pdfrwt>
<pdfrwt beam="2">  1       -4 0.23764427E-01 0.12807225E+03</pdfrwt>
<totfact> 0.33301762E+04</totfact>
</mgrwt>
</event>
<event>
 6    4  0.3995738E-003  0.1331599E+03  0.7818608E-02  0.1222841E+00
         21   -1    0    0  501  502  0.00000000000E+00  0.00000000000E+00  0.67821405559E+01  0.67821405559E+01  0.00000000000E+00 0. -1.
         -4   -1    0    0    0  501 -0.00000000000E+00 -0.00000000000E+00 -0.21030723600E+04  0.21030727435E+04  0.12700000000E+01 0. -1.
         25    2    1    2    0    0 -0.13313026075E+02  0.43919127764E+02 -0.19850761495E+04  0.19895373512E+04  0.12500170445E+03 0.  0.
    9000005    1    3    3    0    0 -0.19061863028E+01  0.70115030855E+02 -0.18563401945E+04  0.18576651121E+04  0.10000000000E+01 0.  0.
    9000005    1    3    3    0    0 -0.11406839772E+02 -0.26195903091E+02 -0.12873595505E+03  0.13187223914E+03  0.10000000000E+01 0.  0.
         -4    1    1    2    0  502  0.13313026075E+02 -0.43919127764E+02 -0.11121406995E+03  0.12031753281E+03  0.12700000000E+01 0.  1.
<mgrwt>
<rscale>  1 0.13315988E+03</rscale>
<asrwt>0</asrwt>
<pdfrwt beam="1">  1       21 0.10434060E-02 0.13315988E+03</pdfrwt>
<pdfrwt beam="2">  1       -4 0.32355884E+00 0.13315988E+03</pdfrwt>
<totfact> 0.39437786E+03</totfact>
</mgrwt>
</event>
<event>
 6    4  0.3995738E-003  0.1310043E+03  0.7818608E-02  0.1225973E+00
          4   -1    0    0  502    0 -0.00000000000E+00  0.00000000000E+00  0.19593688996E+03  0.19594100578E+03  0.12700000000E+01 0.  1.
         21   -1    0    0  501  502  0.00000000000E+00 -0.00000000000E+00 -0.25281937713E+03  0.25281937713E+03  0.00000000000E+00 0. -1.
         25    2    1    2    0    0 -0.31826575271E+02 -0.22901122545E+02  0.17218621956E+03  0.21635668755E+03  0.12499891893E+03 0.  0.
    9000005    1    3    3    0    0 -0.29453060898E+02 -0.11640971524E+02  0.19136367699E+03  0.19396920344E+03  0.10000000000E+01 0.  0.
    9000005    1    3    3    0    0 -0.23735143729E+01 -0.11260151021E+02 -0.19177457425E+02  0.22387484110E+02  0.10000000000E+01 0.  0.
          4    1    1    2  501    0  0.31826575271E+02  0.22901122545E+02 -0.22906870673E+03  0.23240369535E+03  0.12700000000E+01 0. -1.
<mgrwt>
<rscale>  1 0.13100428E+03</rscale>
<asrwt>0</asrwt>
<pdfrwt beam="2">  1       21 0.38895289E-01 0.13100428E+03</pdfrwt>
<pdfrwt beam="1">  1        4 0.30144699E-01 0.13100428E+03</pdfrwt>
<totfact> 0.27806296E+03</totfact>
</mgrwt>
</event>
<event>
 6    4  0.3995738E-003  0.1275561E+03  0.7818608E-02  0.1231128E+00
          4   -1    0    0  502    0 -0.00000000000E+00  0.00000000000E+00  0.76719525790E+02  0.76730036736E+02  0.12700000000E+01 0.  1.
         21   -1    0    0  501  502  0.00000000000E+00 -0.00000000000E+00 -0.10732220636E+03  0.10732220636E+03  0.00000000000E+00 0. -1.
         25    2    1    2    0    0 -0.13490504579E+02 -0.21527990134E+02  0.18365261600E+02  0.12887144632E+03  0.12500047507E+03 0.  0.
    9000005    1    3    3    0    0  0.31768300966E+01 -0.59603982064E+02 -0.28560184443E+02  0.66177118876E+02  0.10000000000E+01 0.  0.
    9000005    1    3    3    0    0 -0.16667334676E+02  0.38075991930E+02  0.46925446043E+02  0.62694327439E+02  0.10000000000E+01 0.  0.
          4    1    1    2  501    0  0.13490504579E+02  0.21527990134E+02 -0.48967942174E+02  0.55180796784E+02  0.12700000000E+01 0. -1.
<mgrwt>
<rscale>  1 0.12755613E+03</rscale>
<asrwt>0</asrwt>
<pdfrwt beam="2">  1       21 0.16511109E-01 0.12755613E+03</pdfrwt>
<pdfrwt beam="1">  1        4 0.11804391E-01 0.12755613E+03</pdfrwt>
<totfact> 0.75426312E+04</totfact>
</mgrwt>
</event>
<event>
 6    4  0.3995738E-003  0.1270283E+03  0.7818608E-02  0.1231933E+00
          4   -1    0    0  502    0 -0.00000000000E+00  0.00000000000E+00  0.19160412602E+02  0.19202455861E+02  0.12700000000E+01 0.  1.
         21   -1    0    0  501  502  0.00000000000E+00 -0.00000000000E+00 -0.62885990903E+03  0.62885990903E+03  0.00000000000E+00 0. -1.
         25    2    1    2    0    0  0.37300773577E+01  0.22314972609E+02 -0.19488393745E+03  0.23262833602E+03  0.12499728861E+03 0.  0.
    9000005    1    3    3    0    0  0.54946106370E+02  0.41824976958E+02 -0.13368652122E+03  0.15047089173E+03  0.10000000000E+01 0.  0.
    9000005    1    3    3    0    0 -0.51216029013E+02 -0.19510004348E+02 -0.61197416230E+02  0.82157444280E+02  0.10000000000E+01 0.  0.
          4    1    1    2  501    0 -0.37300773577E+01 -0.22314972609E+02 -0.41481555898E+03  0.41543402888E+03  0.12700000000E+01 0. -1.
<mgrwt>
<rscale>  1 0.12702832E+03</rscale>
<asrwt>0</asrwt>
<pdfrwt beam="2">  1       21 0.96747679E-01 0.12702832E+03</pdfrwt>
<pdfrwt beam="1">  1        4 0.29510885E-02 0.12702832E+03</pdfrwt>
<totfact> 0.20149892E+04</totfact>
</mgrwt>
</event>
<event>
 6    4  0.3995738E-003  0.1760923E+03  0.7818608E-02  0.1171639E+00
         21   -1    0    0  501  502  0.00000000000E+00  0.00000000000E+00  0.82427653406E+02  0.82427653406E+02  0.00000000000E+00 0.  1.
         -4   -1    0    0    0  501 -0.00000000000E+00 -0.00000000000E+00 -0.36936485894E+03  0.36936704228E+03  0.12700000000E+01 0. -1.
         25    2    1    2    0    0  0.19720790849E+02 -0.12245043029E+03 -0.27585182473E+03  0.32726551822E+03  0.12500189094E+03 0.  0.
    9000005    1    3    3    0    0 -0.32122429455E+02 -0.47758670735E+02 -0.20225229305E+03  0.21028488093E+03  0.10000000000E+01 0.  0.
    9000005    1    3    3    0    0  0.51843220304E+02 -0.74691759559E+02 -0.73599531683E+02  0.11698063729E+03  0.10000000000E+01 0.  0.
         -4    1    1    2    0  502 -0.19720790849E+02  0.12245043029E+03 -0.11085380804E+02  0.12452917746E+03  0.12700000000E+01 0.  1.
<mgrwt>
<rscale>  1 0.17609228E+03</rscale>
<asrwt>0</asrwt>
<pdfrwt beam="1">  1       21 0.12681178E-01 0.17609228E+03</pdfrwt>
<pdfrwt beam="2">  1       -4 0.56826282E-01 0.17609228E+03</pdfrwt>
<totfact> 0.66130783E+03</totfact>
</mgrwt>
</event>
<event>
 6    4  0.3995738E-003  0.1285248E+03  0.7818608E-02  0.1229661E+00
          4   -1    0    0  502    0 -0.00000000000E+00  0.00000000000E+00  0.28193931745E+03  0.28194217781E+03  0.12700000000E+01 0. -1.
         21   -1    0    0  501  502  0.00000000000E+00 -0.00000000000E+00 -0.11483756675E+03  0.11483756675E+03  0.00000000000E+00 0.  1.
         25    2    1    2    0    0  0.28807409441E+02  0.79743404492E+01  0.26494039870E+03  0.29446908584E+03  0.12500068284E+03 0.  0.
    9000005    1    3    3    0    0  0.68207045525E+02  0.26534196520E+02  0.10032471358E+03  0.12418660475E+03  0.10000000000E+01 0.  0.
    9000005    1    3    3    0    0 -0.39399636084E+02 -0.18559856071E+02  0.16461568512E+03  0.17028248109E+03  0.10000000000E+01 0.  0.
          4    1    1    2  501    0 -0.28807409441E+02 -0.79743404492E+01 -0.97838647992E+02  0.10231065871E+03  0.12700000000E+01 0.  1.
<mgrwt>
<rscale>  1 0.12852481E+03</rscale>
<asrwt>0</asrwt>
<pdfrwt beam="2">  1       21 0.17667318E-01 0.12852481E+03</pdfrwt>
<pdfrwt beam="1">  1        4 0.43376040E-01 0.12852481E+03</pdfrwt>
<totfact> 0.61605414E+03</totfact>
</mgrwt>
</event>
<event>
 6    4  0.3995738E-003  0.1282261E+03  0.7818608E-02  0.1230112E+00
         21   -1    0    0  501  502  0.00000000000E+00  0.00000000000E+00  0.11278749362E+04  0.11278749362E+04  0.00000000000E+00 0. -1.
          4   -1    0    0  502    0 -0.00000000000E+00 -0.00000000000E+00 -0.61062333533E+01  0.62369051432E+01  0.12700000000E+01 0. -1.
         25    2    1    2    0    0 -0.28568659715E+02  0.82574307466E+00  0.72023345412E+03  0.73155871560E+03  0.12500030311E+03 0.  0.
    9000005    1    3    3    0    0  0.54343817577E+01  0.29736482837E+02  0.41465672717E+02  0.51324389236E+02  0.10000000000E+01 0.  0.
    9000005    1    3    3    0    0 -0.34003041473E+02 -0.28910739762E+02  0.67876778140E+03  0.68023432637E+03  0.10000000000E+01 0.  0.
          4    1    1    2  501    0  0.28568659715E+02 -0.82574307466E+00  0.40153524878E+03  0.40255312579E+03  0.12700000000E+01 0.  1.
<mgrwt>
<rscale>  1 0.12822607E+03</rscale>
<asrwt>0</asrwt>
<pdfrwt beam="1">  1       21 0.17351906E+00 0.12822607E+03</pdfrwt>
<pdfrwt beam="2">  1        4 0.94952809E-03 0.12822607E+03</pdfrwt>
<totfact> 0.26559315E+04</totfact>
</mgrwt>
</event>
<event>
 6    4  0.3995738E-003  0.1286108E+03  0.7818608E-02  0.1229532E+00
         -4   -1    0    0    0  501 -0.00000000000E+00  0.00000000000E+00  0.25331067769E+03  0.25331386131E+03  0.12700000000E+01 0.  1.
         21   -1    0    0  501  502  0.00000000000E+00 -0.00000000000E+00 -0.25954693887E+02  0.25954693887E+02  0.00000000000E+00 0. -1.
         25    2    1    2    0    0 -0.24862073817E+02  0.17228555607E+02  0.20345538810E+03  0.24069658068E+03  0.12500321262E+03 0.  0.
    9000005    1    3    3    0    0 -0.76601812605E+01  0.64733954665E+02  0.16432152725E+03  0.17678158157E+03  0.10000000000E+01 0.  0.
    9000005    1    3    3    0    0 -0.17201892557E+02 -0.47505399058E+02  0.39133860843E+02  0.63914999114E+02  0.10000000000E+01 0.  0.
         -4    1    1    2    0  502  0.24862073817E+02 -0.17228555607E+02  0.23900595709E+02  0.38571974515E+02  0.12700000000E+01 0. -1.
<mgrwt>
<rscale>  1 0.12861084E+03</rscale>
<asrwt>0</asrwt>
<pdfrwt beam="2">  1       21 0.39930300E-02 0.12861084E+03</pdfrwt>
<pdfrwt beam="1">  1       -4 0.38973507E-01 0.12861084E+03</pdfrwt>
<totfact> 0.10034189E+05</totfact>
</mgrwt>
</event>
<event>
 6    4  0.3995738E-003  0.1317990E+03  0.7818608E-02  0.1224810E+00
         21   -1    0    0  501  502  0.00000000000E+00  0.00000000000E+00  0.44114901585E+03  0.44114901585E+03  0.00000000000E+00 0.  1.
          4   -1    0    0  502    0 -0.00000000000E+00 -0.00000000000E+00 -0.17128889409E+02  0.17175906159E+02  0.12700000000E+01 0.  1.
         25    2    1    2    0    0 -0.37696935953E+02  0.18030628573E+02  0.30859516457E+03  0.33556215376E+03  0.12499928355E+03 0.  0.
    9000005    1    3    3    0    0  0.43064735730E+02  0.20591988107E+02  0.15236382117E+03  0.15966945682E+03  0.10000000000E+01 0.  0.
    9000005    1    3    3    0    0 -0.80761671683E+02 -0.25613595333E+01  0.15623134340E+03  0.17589269694E+03  0.10000000000E+01 0.  0.
          4    1    1    2  501    0  0.37696935953E+02 -0.18030628573E+02  0.11542496187E+03  0.12276276825E+03  0.12700000000E+01 0. -1.
<mgrwt>
<rscale>  1 0.13179903E+03</rscale>
<asrwt>0</asrwt>
<pdfrwt beam="1">  1       21 0.67869071E-01 0.13179903E+03</pdfrwt>
<pdfrwt beam="2">  1        4 0.26389714E-02 0.13179903E+03</pdfrwt>
<totfact> 0.53287241E+04</totfact>
</mgrwt>
</event>
<event>
 6    4  0.3995738E-003  0.1273602E+03  0.7818608E-02  0.1231426E+00
         21   -1    0    0  501  502  0.00000000000E+00  0.00000000000E+00  0.43404616932E+03  0.43404616932E+03  0.00000000000E+00 0.  1.
          4   -1    0    0  502    0 -0.00000000000E+00 -0.00000000000E+00 -0.15064682450E+02  0.15118120165E+02  0.12700000000E+01 0. -1.
         25    2    1    2    0    0  0.23587868125E+02 -0.63128015131E+01  0.27422583838E+03  0.30235812594E+03  0.12499754758E+03 0.  0.
    9000005    1    3    3    0    0  0.41672892417E+01  0.51938491139E+02  0.19653144397E+03  0.20332383439E+03  0.10000000000E+01 0.  0.
    9000005    1    3    3    0    0  0.19420578884E+02 -0.58251292652E+02  0.77694394405E+02  0.99034291545E+02  0.10000000000E+01 0.  0.
          4    1    1    2  501    0 -0.23587868125E+02  0.63128015131E+01  0.14475564849E+03  0.14680616355E+03  0.12700000000E+01 0.  1.
<mgrwt>
<rscale>  1 0.12736022E+03</rscale>
<asrwt>0</asrwt>
<pdfrwt beam="1">  1       21 0.66776324E-01 0.12736022E+03</pdfrwt>
<pdfrwt beam="2">  1        4 0.23218973E-02 0.12736022E+03</pdfrwt>
<totfact> 0.67071535E+04</totfact>
</mgrwt>
</event>
<event>
 6    4  0.3995738E-003  0.1319435E+03  0.7818608E-02  0.1224600E+00
         21   -1    0    0  501  502  0.00000000000E+00  0.00000000000E+00  0.74880465400E+03  0.74880465400E+03  0.00000000000E+00 0.  1.
         -4   -1    0    0    0  501 -0.00000000000E+00 -0.00000000000E+00 -0.84380322519E+02  0.84389879301E+02  0.12700000000E+01 0.  1.
         25    2    1    2    0    0  0.79748542770E+01  0.41478325764E+02 -0.31773649979E+02  0.13571529196E+03  0.12500010332E+03 0.  0.
    9000005    1    3    3    0    0  0.51313849682E+02  0.50790411390E+02  0.12243730341E+02  0.73237189945E+02  0.10000000000E+01 0.  0.
    9000005    1    3    3    0    0 -0.43338995405E+02 -0.93120856262E+01 -0.44017380320E+02  0.62478102017E+02  0.10000000000E+01 0.  0.
         -4    1    1    2    0  502 -0.79748542770E+01 -0.41478325764E+02  0.69619798146E+03  0.69747924134E+03  0.12700000000E+01 0. -1.
<mgrwt>
<rscale>  1 0.13194346E+03</rscale>
<asrwt>0</asrwt>
<pdfrwt beam="1">  1       21 0.11520071E+00 0.13194346E+03</pdfrwt>
<pdfrwt beam="2">  1       -4 0.12982407E-01 0.13194346E+03</pdfrwt>
<totfact> 0.11897914E+03</totfact>
</mgrwt>
</event>
<event>
 6    4  0.3995738E-003  0.1390124E+03  0.7818608E-02  0.1214664E+00
         -4   -1    0    0    0  501 -0.00000000000E+00  0.00000000000E+00  0.12437638593E+02  0.12502309937E+02  0.12700000000E+01 0. -1.
         21   -1    0    0  501  502  0.00000000000E+00 -0.00000000000E+00 -0.97129159176E+03  0.97129159176E+03  0.00000000000E+00 0.  1.
         25    2    1    2    0    0 -0.56020437579E+02  0.23636093742E+02 -0.44125056116E+03  0.46262997482E+03  0.12500992572E+03 0.  0.
    9000005    1    3    3    0    0 -0.81508260257E+02  0.37692750429E+02 -0.19527737192E+03  0.21493857706E+03  0.10000000000E+01 0.  0.
    9000005    1    3    3    0    0  0.25487822678E+02 -0.14056656687E+02 -0.24597318923E+03  0.24769139776E+03  0.10000000000E+01 0.  0.
         -4    1    1    2    0  502  0.56020437579E+02 -0.23636093742E+02 -0.51760339201E+03  0.52116392688E+03  0.12700000000E+01 0.  1.
<mgrwt>
<rscale>  1 0.13901236E+03</rscale>
<asrwt>0</asrwt>
<pdfrwt beam="2">  1       21 0.14942955E+00 0.13901236E+03</pdfrwt>
<pdfrwt beam="1">  1       -4 0.19185206E-02 0.13901236E+03</pdfrwt>
<totfact> 0.13631100E+04</totfact>
</mgrwt>
</event>
<event>
 6    4  0.3995738E-003  0.1319082E+03  0.7818608E-02  0.1224651E+00
         21   -1    0    0  501  502  0.00000000000E+00  0.00000000000E+00  0.85624757884E+03  0.85624757884E+03  0.00000000000E+00 0.  1.
         -4   -1    0    0    0  501 -0.00000000000E+00 -0.00000000000E+00 -0.10836730491E+02  0.10910894910E+02  0.12700000000E+01 0.  1.
         25    2    1    2    0    0  0.32912512368E+02  0.26303932348E+02  0.76579751130E+03  0.77707503097E+03  0.12499858045E+03 0.  0.
    9000005    1    3    3    0    0  0.66084605849E+02  0.41122731670E+02  0.67181328385E+03  0.67630787556E+03  0.10000000000E+01 0.  0.
    9000005    1    3    3    0    0 -0.33172093482E+02 -0.14818799322E+02  0.93984227448E+02  0.10076715540E+03  0.10000000000E+01 0.  0.
         -4    1    1    2    0  502 -0.32912512368E+02 -0.26303932348E+02  0.79613337049E+02  0.90083442782E+02  0.12700000000E+01 0. -1.
<mgrwt>
<rscale>  1 0.13190821E+03</rscale>
<asrwt>0</asrwt>
<pdfrwt beam="1">  1       21 0.13173034E+00 0.13190821E+03</pdfrwt>
<pdfrwt beam="2">  1       -4 0.16729674E-02 0.13190821E+03</pdfrwt>
<totfact> 0.23111887E+04</totfact>
</mgrwt>
</event>
<event>
 6    4  0.3995738E-003  0.1273874E+03  0.7818608E-02  0.1231385E+00
         -4   -1    0    0    0  501 -0.00000000000E+00  0.00000000000E+00  0.13912754656E+03  0.13913334292E+03  0.12700000000E+01 0. -1.
         21   -1    0    0  501  502  0.00000000000E+00 -0.00000000000E+00 -0.56676495578E+02  0.56676495578E+02  0.00000000000E+00 0.  1.
         25    2    1    2    0    0 -0.24357669271E+02 -0.29934908772E+01  0.10296690174E+03  0.16379780838E+03  0.12500112854E+03 0.  0.
    9000005    1    3    3    0    0  0.44070838022E+02 -0.19701596188E+02  0.13912042711E+02  0.50248747136E+02  0.10000000000E+01 0.  0.
    9000005    1    3    3    0    0 -0.68428507293E+02  0.16708105310E+02  0.89054859026E+02  0.11354906124E+03  0.10000000000E+01 0.  0.
         -4    1    1    2    0  502  0.24357669271E+02  0.29934908772E+01 -0.20515850755E+02  0.32012030116E+02  0.12700000000E+01 0.  1.
<mgrwt>
<rscale>  1 0.12738736E+03</rscale>
<asrwt>0</asrwt>
<pdfrwt beam="2">  1       21 0.87194609E-02 0.12738736E+03</pdfrwt>
<pdfrwt beam="1">  1       -4 0.21405778E-01 0.12738736E+03</pdfrwt>
<totfact> 0.82271869E+04</totfact>
</mgrwt>
</event>
<event>
 6    4  0.3995738E-003  0.1309574E+03  0.7818608E-02  0.1226042E+00
         -4   -1    0    0    0  501 -0.00000000000E+00  0.00000000000E+00  0.13430812815E+03  0.13431413249E+03  0.12700000000E+01 0.  1.
         21   -1    0    0  501  502  0.00000000000E+00 -0.00000000000E+00 -0.23124963372E+03  0.23124963372E+03  0.00000000000E+00 0. -1.
         25    2    1    2    0    0 -0.38270380774E+02  0.77864307105E+01  0.10000700177E+03  0.16477637121E+03  0.12499840622E+03 0.  0.
    9000005    1    3    3    0    0 -0.73007589735E+02 -0.26573169365E+02  0.40013198111E+02  0.87397354148E+02  0.10000000000E+01 0.  0.
    9000005    1    3    3    0    0  0.34737208961E+02  0.34359600076E+02  0.59993803655E+02  0.77379017057E+02  0.10000000000E+01 0.  0.
         -4    1    1    2    0  502  0.38270380774E+02 -0.77864307105E+01 -0.19694850734E+03  0.20078739500E+03  0.12700000000E+01 0. -1.
<mgrwt>
<rscale>  1 0.13095744E+03</rscale>
<asrwt>0</asrwt>
<pdfrwt beam="2">  1       21 0.35576866E-01 0.13095744E+03</pdfrwt>
<pdfrwt beam="1">  1       -4 0.20663519E-01 0.13095744E+03</pdfrwt>
<totfact> 0.66598648E+03</totfact>
</mgrwt>
</event>
<event>
 6    4  0.3995738E-003  0.1340041E+03  0.7818608E-02  0.1221632E+00
         -4   -1    0    0    0  501 -0.00000000000E+00  0.00000000000E+00  0.17626365062E+04  0.17626369638E+04  0.12700000000E+01 0.  1.
         21   -1    0    0  501  502  0.00000000000E+00 -0.00000000000E+00 -0.26688726592E+02  0.26688726592E+02  0.00000000000E+00 0. -1.
         25    2    1    2    0    0 -0.16741945035E+02 -0.45256977957E+02  0.17358899266E+04  0.17410545497E+04  0.12501448253E+03 0.  0.
    9000005    1    3    3    0    0 -0.68307824142E+02 -0.51150343282E+01  0.92833941359E+03  0.93086367919E+03  0.10000000000E+01 0.  0.
    9000005    1    3    3    0    0  0.51565879107E+02 -0.40141943629E+02  0.80755051301E+03  0.81019087047E+03  0.10000000000E+01 0.  0.
         -4    1    1    2    0  502  0.16741945035E+02  0.45256977957E+02  0.57853049827E-01  0.48271140698E+02  0.12700000000E+01 0. -1.
<mgrwt>
<rscale>  1 0.13400413E+03</rscale>
<asrwt>0</asrwt>
<pdfrwt beam="2">  1       21 0.41059593E-02 0.13400413E+03</pdfrwt>
<pdfrwt beam="1">  1       -4 0.27117712E+00 0.13400413E+03</pdfrwt>
<totfact> 0.86307748E+02</totfact>
</mgrwt>
</event>
<event>
 6    4  0.3995738E-003  0.1272466E+03  0.7818608E-02  0.1231599E+00
          4   -1    0    0  502    0 -0.00000000000E+00  0.00000000000E+00  0.85920154365E+03  0.85920248225E+03  0.12700000000E+01 0. -1.
         21   -1    0    0  501  502  0.00000000000E+00 -0.00000000000E+00 -0.79631404725E+01  0.79631404725E+01  0.00000000000E+00 0. -1.
         25    2    1    2    0    0  0.14434316915E+02 -0.18935045410E+02  0.80643993603E+03  0.81641721381E+03  0.12499924447E+03 0.  0.
    9000005    1    3    3    0    0 -0.21256183025E+01 -0.51084802654E+02  0.73062810303E+03  0.73241559258E+03  0.10000000000E+01 0.  0.
    9000005    1    3    3    0    0  0.16559935218E+02  0.32149757244E+02  0.75811833000E+02  0.84001621223E+02  0.10000000000E+01 0.  0.
          4    1    1    2  501    0 -0.14434316915E+02  0.18935045410E+02  0.44798467141E+02  0.50748408918E+02  0.12700000000E+01 0.  1.
<mgrwt>
<rscale>  1 0.12724660E+03</rscale>
<asrwt>0</asrwt>
<pdfrwt beam="2">  1       21 0.12250992E-02 0.12724660E+03</pdfrwt>
<pdfrwt beam="1">  1        4 0.13219264E+00 0.12724660E+03</pdfrwt>
<totfact> 0.47577582E+04</totfact>
</mgrwt>
</event>
<event>
 6    4  0.3995738E-003  0.1275845E+03  0.7818608E-02  0.1231085E+00
         21   -1    0    0  501  502  0.00000000000E+00  0.00000000000E+00  0.57061482959E+02  0.57061482959E+02  0.00000000000E+00 0.  1.
         -4   -1    0    0    0  501 -0.00000000000E+00 -0.00000000000E+00 -0.14509838058E+03  0.14510393843E+03  0.12700000000E+01 0. -1.
         25    2    1    2    0    0 -0.18125362449E+02  0.18014625170E+02 -0.10999094742E+03  0.16845120055E+03  0.12499897188E+03 0.  0.
    9000005    1    3    3    0    0 -0.16719389215E+02 -0.41734431699E+02 -0.97521287049E+02  0.10739041946E+03  0.10000000000E+01 0.  0.
    9000005    1    3    3    0    0 -0.14059732342E+01  0.59749056869E+02 -0.12469660367E+02  0.61060781089E+02  0.10000000000E+01 0.  0.
         -4    1    1    2    0  502  0.18125362449E+02 -0.18014625170E+02  0.21954049795E+02  0.33714220833E+02  0.12700000000E+01 0.  1.
<mgrwt>
<rscale>  1 0.12758448E+03</rscale>
<asrwt>0</asrwt>
<pdfrwt beam="1">  1       21 0.87786897E-02 0.12758448E+03</pdfrwt>
<pdfrwt beam="2">  1       -4 0.22324342E-01 0.12758448E+03</pdfrwt>
<totfact> 0.75359046E+04</totfact>
</mgrwt>
</event>
<event>
 6    4  0.3995738E-003  0.1276911E+03  0.7818608E-02  0.1230922E+00
         21   -1    0    0  501  502  0.00000000000E+00  0.00000000000E+00  0.76131650027E+02  0.76131650027E+02  0.00000000000E+00 0.  1.
          4   -1    0    0  502    0 -0.00000000000E+00 -0.00000000000E+00 -0.12858356184E+03  0.12858983348E+03  0.12700000000E+01 0. -1.
         25    2    1    2    0    0 -0.19075090674E+02 -0.17770247232E+02 -0.91968332119E+02  0.15736326200E+03  0.12500152536E+03 0.  0.
    9000005    1    3    3    0    0  0.53061173553E+01 -0.69537019023E+02 -0.58741467356E+02  0.91187235308E+02  0.10000000000E+01 0.  0.
    9000005    1    3    3    0    0 -0.24381208030E+02  0.51766771791E+02 -0.33226864763E+02  0.66176026691E+02  0.10000000000E+01 0.  0.
          4    1    1    2  501    0  0.19075090674E+02  0.17770247232E+02  0.39516420306E+02  0.47358221511E+02  0.12700000000E+01 0.  1.
<mgrwt>
<rscale>  1 0.12769112E+03</rscale>
<asrwt>0</asrwt>
<pdfrwt beam="1">  1       21 0.11712562E-01 0.12769112E+03</pdfrwt>
<pdfrwt beam="2">  1        4 0.19783383E-01 0.12769112E+03</pdfrwt>
<totfact> 0.56594663E+04</totfact>
</mgrwt>
</event>
<event>
 6    4  0.3995738E-003  0.1299621E+03  0.7818608E-02  0.1227512E+00
         -4   -1    0    0    0  501 -0.00000000000E+00  0.00000000000E+00  0.71707476822E+02  0.71718722327E+02  0.12700000000E+01 0.  1.
         21   -1    0    0  501  502  0.00000000000E+00 -0.00000000000E+00 -0.33114109876E+03  0.33114109876E+03  0.00000000000E+00 0. -1.
         25    2    1    2    0    0  0.13290203740E+02  0.32990307105E+02  0.10690749677E+02  0.13040105555E+03  0.12500061312E+03 0.  0.
    9000005    1    3    3    0    0 -0.40937702491E+02  0.17573373009E+02 -0.35926530193E+02  0.57240147588E+02  0.10000000000E+01 0.  0.
    9000005    1    3    3    0    0  0.54227906231E+02  0.15416934096E+02  0.46617279870E+02  0.73160907961E+02  0.10000000000E+01 0.  0.
         -4    1    1    2    0  502 -0.13290203740E+02 -0.32990307105E+02 -0.27012437162E+03  0.27245876554E+03  0.12700000000E+01 0. -1.
<mgrwt>
<rscale>  1 0.12996208E+03</rscale>
<asrwt>0</asrwt>
<pdfrwt beam="2">  1       21 0.50944785E-01 0.12996208E+03</pdfrwt>
<pdfrwt beam="1">  1       -4 0.11032972E-01 0.12996208E+03</pdfrwt>
<totfact> 0.96550157E+03</totfact>
</mgrwt>
</event>
<event>
 6    4  0.3995738E-003  0.1310039E+03  0.7818608E-02  0.1225974E+00
          4   -1    0    0  502    0 -0.00000000000E+00  0.00000000000E+00  0.21500125319E+03  0.21500500407E+03  0.12700000000E+01 0.  1.
         21   -1    0    0  501  502  0.00000000000E+00 -0.00000000000E+00 -0.77875212234E+02  0.77875212234E+02  0.00000000000E+00 0. -1.
         25    2    1    2    0    0 -0.73352980512E+00  0.39183825650E+02  0.18769392657E+03  0.22889088740E+03  0.12500447193E+03 0.  0.
    9000005    1    3    3    0    0  0.35452074573E+02 -0.18761192619E+02  0.14423313934E+02  0.42636415479E+02  0.10000000000E+01 0.  0.
    9000005    1    3    3    0    0 -0.36185604378E+02  0.57945018269E+02  0.17327061263E+03  0.18625447192E+03  0.10000000000E+01 0.  0.
          4    1    1    2  501    0  0.73352980512E+00 -0.39183825650E+02 -0.50567885611E+02  0.63989328905E+02  0.12700000000E+01 0. -1.
<mgrwt>
<rscale>  1 0.13100392E+03</rscale>
<asrwt>0</asrwt>
<pdfrwt beam="2">  1       21 0.11980802E-01 0.13100392E+03</pdfrwt>
<pdfrwt beam="1">  1        4 0.33078201E-01 0.13100392E+03</pdfrwt>
<totfact> 0.21059714E+04</totfact>
</mgrwt>
</event>
<event>
 6    4  0.3995738E-003  0.1281315E+03  0.7818608E-02  0.1230255E+00
         21   -1    0    0  501  502  0.00000000000E+00  0.00000000000E+00  0.73255554523E+03  0.73255554523E+03  0.00000000000E+00 0. -1.
         -4   -1    0    0    0  501 -0.00000000000E+00 -0.00000000000E+00 -0.10321778661E+02  0.10399616085E+02  0.12700000000E+01 0. -1.
         25    2    1    2    0    0 -0.27579720011E+02  0.56796428812E+01  0.41251424520E+03  0.43195565309E+03  0.12499913778E+03 0.  0.
    9000005    1    3    3    0    0  0.27973271974E+02 -0.39262502830E+02  0.95454393642E+02  0.10694199053E+03  0.10000000000E+01 0.  0.
    9000005    1    3    3    0    0 -0.55552991984E+02  0.44942145711E+02  0.31705985156E+03  0.32501366256E+03  0.10000000000E+01 0.  0.
         -4    1    1    2    0  502  0.27579720011E+02 -0.56796428812E+01  0.30971952136E+03  0.31099950822E+03  0.12700000000E+01 0.  1.
<mgrwt>
<rscale>  1 0.12813151E+03</rscale>
<asrwt>0</asrwt>
<pdfrwt beam="1">  1       21 0.11270081E+00 0.12813151E+03</pdfrwt>
<pdfrwt beam="2">  1       -4 0.15940387E-02 0.12813151E+03</pdfrwt>
<totfact> 0.36377450E+04</totfact>
</mgrwt>
</event>
<event>
 6    4  0.3995738E-003  0.1574061E+03  0.7818608E-02  0.1191657E+00
          4   -1    0    0  502    0 -0.00000000000E+00  0.00000000000E+00  0.65679399859E+02  0.65691677295E+02  0.12700000000E+01 0. -1.
         21   -1    0    0  501  502  0.00000000000E+00 -0.00000000000E+00 -0.30971787915E+03  0.30971787915E+03  0.00000000000E+00 0.  1.
         25    2    1    2    0    0  0.87674308114E+01  0.95260883382E+02 -0.60879571590E+02  0.16876904223E+03  0.12500065452E+03 0.  0.
    9000005    1    3    3    0    0 -0.27533869963E+00  0.10288965041E+03  0.38428352607E+01  0.10296661282E+03  0.10000000000E+01 0.  0.
    9000005    1    3    3    0    0  0.90427695110E+01 -0.76287670309E+01 -0.64722406851E+02  0.65802429404E+02  0.10000000000E+01 0.  0.
          4    1    1    2  501    0 -0.87674308114E+01 -0.95260883382E+02 -0.18315890770E+03  0.20664051422E+03  0.12700000000E+01 0.  1.
<mgrwt>
<rscale>  1 0.15740606E+03</rscale>
<asrwt>0</asrwt>
<pdfrwt beam="2">  1       21 0.47648904E-01 0.15740606E+03</pdfrwt>
<pdfrwt beam="1">  1        4 0.10105668E-01 0.15740606E+03</pdfrwt>
<totfact> 0.13042878E+04</totfact>
</mgrwt>
</event>
<event>
 6    4  0.3995738E-003  0.1266189E+03  0.7818608E-02  0.1232561E+00
         21   -1    0    0  501  502  0.00000000000E+00  0.00000000000E+00  0.15204605419E+03  0.15204605419E+03  0.00000000000E+00 0.  1.
         -4   -1    0    0    0  501 -0.00000000000E+00 -0.00000000000E+00 -0.62586111228E+03  0.62586240083E+03  0.12700000000E+01 0. -1.
         25    2    1    2    0    0 -0.18998003667E+02  0.68056670305E+01 -0.61874860924E+03  0.63157121302E+03  0.12500045776E+03 0.  0.
    9000005    1    3    3    0    0 -0.24875256970E+02  0.17593027662E+02 -0.30258151949E+02  0.42951703005E+02  0.10000000000E+01 0.  0.
    9000005    1    3    3    0    0  0.58772533031E+01 -0.10787360631E+02 -0.58849045729E+03  0.58861951002E+03  0.10000000000E+01 0.  0.
         -4    1    1    2    0  502  0.18998003667E+02 -0.68056670305E+01  0.14493355115E+03  0.14633724200E+03  0.12700000000E+01 0.  1.
<mgrwt>
<rscale>  1 0.12661894E+03</rscale>
<asrwt>0</asrwt>
<pdfrwt beam="1">  1       21 0.23391700E-01 0.12661894E+03</pdfrwt>
<pdfrwt beam="2">  1       -4 0.96286834E-01 0.12661894E+03</pdfrwt>
<totfact> 0.67048633E+02</totfact>
</mgrwt>
</event>
<event>
 6    4  0.3995738E-003  0.1268280E+03  0.7818608E-02  0.1232240E+00
         -4   -1    0    0    0  501 -0.00000000000E+00  0.00000000000E+00  0.30489045310E+03  0.30489309813E+03  0.12700000000E+01 0.  1.
         21   -1    0    0  501  502  0.00000000000E+00 -0.00000000000E+00 -0.45554838904E+02  0.45554838904E+02  0.00000000000E+00 0.  1.
         25    2    1    2    0    0 -0.20053172489E+02  0.76246936341E+01  0.28796055399E+03  0.31465316426E+03  0.12500026980E+03 0.  0.
    9000005    1    3    3    0    0  0.21294761729E+02 -0.36694687434E+02  0.36457467730E+02  0.55947420997E+02  0.10000000000E+01 0.  0.
    9000005    1    3    3    0    0 -0.41347934218E+02  0.44319381068E+02  0.25150308626E+03  0.25870574327E+03  0.10000000000E+01 0.  0.
         -4    1    1    2    0  502  0.20053172489E+02 -0.76246936341E+01 -0.28624939793E+02  0.35794772775E+02  0.12700000000E+01 0. -1.
<mgrwt>
<rscale>  1 0.12682797E+03</rscale>
<asrwt>0</asrwt>
<pdfrwt beam="2">  1       21 0.70084370E-02 0.12682797E+03</pdfrwt>
<pdfrwt beam="1">  1       -4 0.46907787E-01 0.12682797E+03</pdfrwt>
<totfact> 0.26875220E+04</totfact>
</mgrwt>
</event>
<event>
 6    4  0.3995738E-003  0.1303119E+03  0.7818608E-02  0.1226994E+00
         -4   -1    0    0    0  501 -0.00000000000E+00  0.00000000000E+00  0.42380080294E+02  0.42399105011E+02  0.12700000000E+01 0. -1.
         21   -1    0    0  501  502  0.00000000000E+00 -0.00000000000E+00 -0.22197432562E+03  0.22197432562E+03  0.00000000000E+00 0. -1.
         25    2    1    2    0    0  0.73073253844E+01 -0.36106903714E+02 -0.68284068985E+02  0.14711869189E+03  0.12499635965E+03 0.  0.
    9000005    1    3    3    0    0  0.35236284258E+02 -0.34820653176E+02 -0.95814627197E+02  0.10786805088E+03  0.10000000000E+01 0.  0.
    9000005    1    3    3    0    0 -0.27928958874E+02 -0.12862505378E+01  0.27530558212E+02  0.39250641010E+02  0.10000000000E+01 0.  0.
         -4    1    1    2    0  502 -0.73073253844E+01  0.36106903714E+02 -0.11131017634E+03  0.11725473874E+03  0.12700000000E+01 0.  1.
<mgrwt>
<rscale>  1 0.13031192E+03</rscale>
<asrwt>0</asrwt>
<pdfrwt beam="2">  1       21 0.34149896E-01 0.13031192E+03</pdfrwt>
<pdfrwt beam="1">  1       -4 0.65217552E-02 0.13031192E+03</pdfrwt>
<totfact> 0.51771558E+04</totfact>
</mgrwt>
</event>
<event>
 6    4  0.3995738E-003  0.1317108E+03  0.7818608E-02  0.1224939E+00
         -4   -1    0    0    0  501 -0.00000000000E+00  0.00000000000E+00  0.11481355381E+03  0.11482057759E+03  0.12700000000E+01 0. -1.
         21   -1    0    0  501  502  0.00000000000E+00 -0.00000000000E+00 -0.18118106632E+03  0.18118106632E+03  0.00000000000E+00 0.  1.
         25    2    1    2    0    0 -0.39234442525E+02  0.13367177275E+02  0.73005266913E+02  0.15059047703E+03  0.12501879805E+03 0.  0.
    9000005    1    3    3    0    0 -0.48712370776E+02 -0.34672494544E+02 -0.33320069857E+01  0.59893064833E+02  0.10000000000E+01 0.  0.
    9000005    1    3    3    0    0  0.94779282514E+01  0.48039671819E+02  0.76337273899E+02  0.90697412194E+02  0.10000000000E+01 0.  0.
         -4    1    1    2    0  502  0.39234442525E+02 -0.13367177275E+02 -0.13937277942E+03  0.14541116688E+03  0.12700000000E+01 0.  1.
<mgrwt>
<rscale>  1 0.13171075E+03</rscale>
<asrwt>0</asrwt>
<pdfrwt beam="2">  1       21 0.27874010E-01 0.13171075E+03</pdfrwt>
<pdfrwt beam="1">  1       -4 0.17664506E-01 0.13171075E+03</pdfrwt>
<totfact> 0.14163563E+04</totfact>
</mgrwt>
</event>
<event>
 6    4  0.3995738E-003  0.1939172E+03  0.7818608E-02  0.1154975E+00
         -4   -1    0    0    0  501 -0.00000000000E+00  0.00000000000E+00  0.12714078718E+03  0.12714712999E+03  0.12700000000E+01 0.  1.
         21   -1    0    0  501  502  0.00000000000E+00 -0.00000000000E+00 -0.23045919890E+03  0.23045919890E+03  0.00000000000E+00 0. -1.
         25    2    1    2    0    0 -0.11174667063E+03 -0.97425249068E+02 -0.64292493593E+02  0.20429738349E+03  0.12499959445E+03 0.  0.
    9000005    1    3    3    0    0 -0.21653551553E+02 -0.10083195778E+03 -0.26155845905E+02  0.10640060281E+03  0.10000000000E+01 0.  0.
    9000005    1    3    3    0    0 -0.90093119082E+02  0.34067087069E+01 -0.38136647688E+02  0.97896780677E+02  0.10000000000E+01 0.  0.
         -4    1    1    2    0  502  0.11174667063E+03  0.97425249068E+02 -0.39025918125E+02  0.15330894540E+03  0.12700000000E+01 0. -1.
<mgrwt>
<rscale>  1 0.19391724E+03</rscale>
<asrwt>0</asrwt>
<pdfrwt beam="2">  1       21 0.35455261E-01 0.19391724E+03</pdfrwt>
<pdfrwt beam="1">  1       -4 0.19560878E-01 0.19391724E+03</pdfrwt>
<totfact> 0.75779094E+03</totfact>
</mgrwt>
</event>
<event>
 6    4  0.3995738E-003  0.1409160E+03  0.7818608E-02  0.1212102E+00
          4   -1    0    0  502    0 -0.00000000000E+00  0.00000000000E+00  0.64110968907E+03  0.64111094697E+03  0.12700000000E+01 0. -1.
         21   -1    0    0  501  502  0.00000000000E+00 -0.00000000000E+00 -0.72332815361E+02  0.72332815361E+02  0.00000000000E+00 0.  1.
         25    2    1    2    0    0  0.18794037835E+02  0.62273064601E+02  0.61672825324E+03  0.63262236583E+03  0.12500467581E+03 0.  0.
    9000005    1    3    3    0    0 -0.15543631669E+02  0.59474297144E+02  0.57598318392E+03  0.57925506011E+03  0.10000000000E+01 0.  0.
    9000005    1    3    3    0    0  0.34337669504E+02  0.27987674572E+01  0.40745069326E+02  0.53367305728E+02  0.10000000000E+01 0.  0.
          4    1    1    2  501    0 -0.18794037835E+02 -0.62273064601E+02 -0.47951379528E+02  0.80821396497E+02  0.12700000000E+01 0.  1.
<mgrwt>
<rscale>  1 0.14091600E+03</rscale>
<asrwt>0</asrwt>
<pdfrwt beam="2">  1       21 0.11128126E-01 0.14091600E+03</pdfrwt>
<pdfrwt beam="1">  1        4 0.98633210E-01 0.14091600E+03</pdfrwt>
<totfact> 0.24577724E+03</totfact>
</mgrwt>
</event>
<event>
 6    4  0.3995738E-003  0.1563163E+03  0.7818608E-02  0.1192920E+00
          4   -1    0    0  502    0 -0.00000000000E+00  0.00000000000E+00  0.31286845810E+02  0.31312611209E+02  0.12700000000E+01 0.  1.
         21   -1    0    0  501  502  0.00000000000E+00 -0.00000000000E+00 -0.53261068449E+03  0.53261068449E+03  0.00000000000E+00 0. -1.
         25    2    1    2    0    0 -0.49111428093E+02  0.79987894415E+02 -0.37715143705E+03  0.40826214496E+03  0.12499910767E+03 0.  0.
    9000005    1    3    3    0    0 -0.69870086356E+02  0.67883872367E+01 -0.11008069140E+03  0.13056289591E+03  0.10000000000E+01 0.  0.
    9000005    1    3    3    0    0  0.20758658263E+02  0.73199507179E+02 -0.26707074564E+03  0.27769924905E+03  0.10000000000E+01 0.  0.
          4    1    1    2  501    0  0.49111428093E+02 -0.79987894415E+02 -0.12417240164E+03  0.15566115074E+03  0.12700000000E+01 0. -1.
<mgrwt>
<rscale>  1 0.15631626E+03</rscale>
<asrwt>0</asrwt>
<pdfrwt beam="2">  1       21 0.81940093E-01 0.15631626E+03</pdfrwt>
<pdfrwt beam="1">  1        4 0.48154600E-02 0.15631626E+03</pdfrwt>
<totfact> 0.13763903E+04</totfact>
</mgrwt>
</event>
<event>
 6    4  0.3995738E-003  0.1267691E+03  0.7818608E-02  0.1232330E+00
         21   -1    0    0  501  502  0.00000000000E+00  0.00000000000E+00  0.53264374208E+02  0.53264374208E+02  0.00000000000E+00 0.  1.
          4   -1    0    0  502    0 -0.00000000000E+00 -0.00000000000E+00 -0.98492829466E+03  0.98492911345E+03  0.12700000000E+01 0. -1.
         25    2    1    2    0    0 -0.96627401332E+01 -0.18763959689E+02 -0.97856741284E+03  0.98674443298E+03  0.12499975920E+03 0.  0.
    9000005    1    3    3    0    0 -0.44128952694E+02 -0.57568617093E+02 -0.47485391173E+03  0.48036314141E+03  0.10000000000E+01 0.  0.
    9000005    1    3    3    0    0  0.34466212561E+02  0.38804657405E+02 -0.50371350111E+03  0.50638129156E+03  0.10000000000E+01 0.  0.
          4    1    1    2  501    0  0.96627401332E+01  0.18763959689E+02  0.46903492387E+02  0.51449054687E+02  0.12700000000E+01 0.  1.
<mgrwt>
<rscale>  1 0.12676906E+03</rscale>
<asrwt>0</asrwt>
<pdfrwt beam="1">  1       21 0.81945194E-02 0.12676906E+03</pdfrwt>
<pdfrwt beam="2">  1        4 0.15152865E+00 0.12676906E+03</pdfrwt>
<totfact> 0.14769444E+03</totfact>
</mgrwt>
</event>
<event>
 6    4  0.3995738E-003  0.1281702E+03  0.7818608E-02  0.1230196E+00
          4   -1    0    0  502    0 -0.00000000000E+00  0.00000000000E+00  0.15214556587E+02  0.15267469736E+02  0.12700000000E+01 0. -1.
         21   -1    0    0  501  502  0.00000000000E+00 -0.00000000000E+00 -0.49825270018E+03  0.49825270018E+03  0.00000000000E+00 0.  1.
         25    2    1    2    0    0  0.18548623395E+02  0.21434487993E+02 -0.27318654184E+03  0.30175899226E+03  0.12499645619E+03 0.  0.
    9000005    1    3    3    0    0 -0.44065981512E+02  0.41089295854E+02 -0.15925277253E+03  0.17027209554E+03  0.10000000000E+01 0.  0.
    9000005    1    3    3    0    0  0.62614604907E+02 -0.19654807861E+02 -0.11393376931E+03  0.13148689672E+03  0.10000000000E+01 0.  0.
          4    1    1    2  501    0 -0.18548623395E+02 -0.21434487993E+02 -0.20985160175E+03  0.21176117766E+03  0.12700000000E+01 0.  1.
<mgrwt>
<rscale>  1 0.12817021E+03</rscale>
<asrwt>0</asrwt>
<pdfrwt beam="2">  1       21 0.76654270E-01 0.12817021E+03</pdfrwt>
<pdfrwt beam="1">  1        4 0.23448955E-02 0.12817021E+03</pdfrwt>
<totfact> 0.48876218E+04</totfact>
</mgrwt>
</event>
<event>
 6    4  0.3995738E-003  0.1368760E+03  0.7818608E-02  0.1217595E+00
         21   -1    0    0  501  502  0.00000000000E+00  0.00000000000E+00  0.18116846430E+03  0.18116846430E+03  0.00000000000E+00 0. -1.
         -4   -1    0    0    0  501 -0.00000000000E+00 -0.00000000000E+00 -0.80626938755E+02  0.80636940375E+02  0.12700000000E+01 0. -1.
         25    2    1    2    0    0 -0.52560036367E+02  0.18635826428E+02 -0.10770427223E+02  0.13729911897E+03  0.12500077807E+03 0.  0.
    9000005    1    3    3    0    0 -0.88531719102E+02  0.36767691095E+02 -0.13952075879E+02  0.96878216421E+02  0.10000000000E+01 0.  0.
    9000005    1    3    3    0    0  0.35971682735E+02 -0.18131864667E+02  0.31816486561E+01  0.40420902554E+02  0.10000000000E+01 0.  0.
         -4    1    1    2    0  502  0.52560036367E+02 -0.18635826428E+02  0.11131195276E+03  0.12450628570E+03  0.12700000000E+01 0.  1.
<mgrwt>
<rscale>  1 0.13687602E+03</rscale>
<asrwt>0</asrwt>
<pdfrwt beam="1">  1       21 0.27872071E-01 0.13687602E+03</pdfrwt>
<pdfrwt beam="2">  1       -4 0.12405256E-01 0.13687602E+03</pdfrwt>
<totfact> 0.26329541E+04</totfact>
</mgrwt>
</event>
<event>
 6    4  0.3995738E-003  0.1267167E+03  0.7818608E-02  0.1232411E+00
         -4   -1    0    0    0  501 -0.00000000000E+00  0.00000000000E+00  0.10721080446E+03  0.10721832629E+03  0.12700000000E+01 0. -1.
         21   -1    0    0  501  502  0.00000000000E+00 -0.00000000000E+00 -0.25095598734E+03  0.25095598734E+03  0.00000000000E+00 0.  1.
         25    2    1    2    0    0 -0.93116759322E+01  0.18605210275E+02  0.69085224979E+02  0.14432563683E+03  0.12499703988E+03 0.  0.
    9000005    1    3    3    0    0  0.22968475837E+02 -0.12678177432E+02 -0.27357157544E+02  0.37917029606E+02  0.10000000000E+01 0.  0.
    9000005    1    3    3    0    0 -0.32280151770E+02  0.31283387707E+02  0.96442382523E+02  0.10640860722E+03  0.10000000000E+01 0.  0.
         -4    1    1    2    0  502  0.93116759322E+01 -0.18605210275E+02 -0.21283040786E+03  0.21384867680E+03  0.12700000000E+01 0.  1.
<mgrwt>
<rscale>  1 0.12671670E+03</rscale>
<asrwt>0</asrwt>
<pdfrwt beam="2">  1       21 0.38608613E-01 0.12671670E+03</pdfrwt>
<pdfrwt beam="1">  1       -4 0.16494796E-01 0.12671670E+03</pdfrwt>
<totfact> 0.84423268E+03</totfact>
</mgrwt>
</event>
<event>
 6    4  0.3995738E-003  0.1346767E+03  0.7818608E-02  0.1220677E+00
         21   -1    0    0  501  502  0.00000000000E+00  0.00000000000E+00  0.41745578482E+03  0.41745578482E+03  0.00000000000E+00 0.  1.
          4   -1    0    0  502    0 -0.00000000000E+00 -0.00000000000E+00 -0.22967063367E+02  0.23002149893E+02  0.12700000000E+01 0. -1.
         25    2    1    2    0    0 -0.37648369807E+02 -0.33156447628E+02  0.21171780962E+03  0.25092279580E+03  0.12498427411E+03 0.  0.
    9000005    1    3    3    0    0 -0.47898564835E+02  0.35335884400E+02  0.13512636385E+03  0.14765849602E+03  0.10000000000E+01 0.  0.
    9000005    1    3    3    0    0  0.10250195028E+02 -0.68492332028E+02  0.76591445766E+02  0.10326429978E+03  0.10000000000E+01 0.  0.
          4    1    1    2  501    0  0.37648369807E+02  0.33156447628E+02  0.18277091183E+03  0.18953513891E+03  0.12700000000E+01 0.  1.
<mgrwt>
<rscale>  1 0.13467672E+03</rscale>
<asrwt>0</asrwt>
<pdfrwt beam="1">  1       21 0.64223961E-01 0.13467672E+03</pdfrwt>
<pdfrwt beam="2">  1        4 0.35362422E-02 0.13467672E+03</pdfrwt>
<totfact> 0.38031818E+04</totfact>
</mgrwt>
</event>
<event>
 6    4  0.3995738E-003  0.2808522E+03  0.7818608E-02  0.1095224E+00
          4   -1    0    0  502    0 -0.00000000000E+00  0.00000000000E+00  0.30607302361E+03  0.30607565842E+03  0.12700000000E+01 0. -1.
         21   -1    0    0  501  502  0.00000000000E+00 -0.00000000000E+00 -0.36529517268E+03  0.36529517268E+03  0.00000000000E+00 0.  1.
         25    2    1    2    0    0 -0.16688146936E+03 -0.18815947096E+03  0.17232838797E+03  0.32950729776E+03  0.12499829858E+03 0.  0.
    9000005    1    3    3    0    0 -0.41260530789E+02 -0.65257249508E+02 -0.80939945771E+01  0.77636671506E+02  0.10000000000E+01 0.  0.
    9000005    1    3    3    0    0 -0.12562093857E+03 -0.12290222145E+03  0.18042238254E+03  0.25187062625E+03  0.10000000000E+01 0.  0.
          4    1    1    2  501    0  0.16688146936E+03  0.18815947096E+03 -0.23155053704E+03  0.34186353335E+03  0.12700000000E+01 0.  1.
<mgrwt>
<rscale>  1 0.28085225E+03</rscale>
<asrwt>0</asrwt>
<pdfrwt beam="2">  1       21 0.56199258E-01 0.28085225E+03</pdfrwt>
<pdfrwt beam="1">  1        4 0.47088530E-01 0.28085225E+03</pdfrwt>
<totfact> 0.54575280E+02</totfact>
</mgrwt>
</event>
<event>
 6    4  0.3995738E-003  0.1330890E+03  0.7818608E-02  0.1222943E+00
         -4   -1    0    0    0  501 -0.00000000000E+00  0.00000000000E+00  0.30295373292E+03  0.30295639486E+03  0.12700000000E+01 0.  1.
         21   -1    0    0  501  502  0.00000000000E+00 -0.00000000000E+00 -0.75122190616E+02  0.75122190616E+02  0.00000000000E+00 0. -1.
         25    2    1    2    0    0  0.22462475667E+02 -0.39788943231E+02  0.27921188535E+03  0.30930885836E+03  0.12499988050E+03 0.  0.
    9000005    1    3    3    0    0  0.38515996412E+01  0.44407280779E+02  0.12367242844E+03  0.13146372489E+03  0.10000000000E+01 0.  0.
    9000005    1    3    3    0    0  0.18610876026E+02 -0.84196224010E+02  0.15553945691E+03  0.17784513347E+03  0.10000000000E+01 0.  0.
         -4    1    1    2    0  502 -0.22462475667E+02  0.39788943231E+02 -0.51380343045E+02  0.68769727118E+02  0.12700000000E+01 0. -1.
<mgrwt>
<rscale>  1 0.13308904E+03</rscale>
<asrwt>0</asrwt>
<pdfrwt beam="2">  1       21 0.11557260E-01 0.13308904E+03</pdfrwt>
<pdfrwt beam="1">  1       -4 0.46609296E-01 0.13308904E+03</pdfrwt>
<totfact> 0.11471220E+04</totfact>
</mgrwt>
</event>
<event>
 6    4  0.3995738E-003  0.1298313E+03  0.7818608E-02  0.1227706E+00
         -4   -1    0    0    0  501 -0.00000000000E+00  0.00000000000E+00  0.64359010605E+02  0.64371539876E+02  0.12700000000E+01 0. -1.
         21   -1    0    0  501  502  0.00000000000E+00 -0.00000000000E+00 -0.12182423513E+03  0.12182423513E+03  0.00000000000E+00 0. -1.
         25    2    1    2    0    0  0.11507874171E+02 -0.33138609464E+02 -0.14386214519E+02  0.13062588560E+03  0.12500224085E+03 0.  0.
    9000005    1    3    3    0    0  0.32736264969E+02 -0.59521146066E+02 -0.47780266823E+02  0.83056509502E+02  0.10000000000E+01 0.  0.
    9000005    1    3    3    0    0 -0.21228390798E+02  0.26382536602E+02  0.33394052304E+02  0.47569376102E+02  0.10000000000E+01 0.  0.
         -4    1    1    2    0  502 -0.11507874171E+02  0.33138609464E+02 -0.43079010009E+02  0.55569889405E+02  0.12700000000E+01 0.  1.
<mgrwt>
<rscale>  1 0.12983127E+03</rscale>
<asrwt>0</asrwt>
<pdfrwt beam="2">  1       21 0.18742190E-01 0.12983127E+03</pdfrwt>
<pdfrwt beam="1">  1       -4 0.99028593E-02 0.12983127E+03</pdfrwt>
<totfact> 0.80760231E+04</totfact>
</mgrwt>
</event>
<event>
 6    4  0.3995738E-003  0.1326360E+03  0.7818608E-02  0.1223596E+00
         -4   -1    0    0    0  501 -0.00000000000E+00  0.00000000000E+00  0.48592638298E+02  0.48609231601E+02  0.12700000000E+01 0.  1.
         21   -1    0    0  501  502  0.00000000000E+00 -0.00000000000E+00 -0.19535100956E+03  0.19535100956E+03  0.00000000000E+00 0. -1.
         25    2    1    2    0    0 -0.34487150972E+02 -0.27884968048E+02 -0.58066347821E+02  0.14478956532E+03  0.12500152979E+03 0.  0.
    9000005    1    3    3    0    0  0.82690415042E+01  0.25862850467E+02  0.25055666244E+02  0.36960120301E+02  0.10000000000E+01 0.  0.
    9000005    1    3    3    0    0 -0.42756192476E+02 -0.53747818516E+02 -0.83122014065E+02  0.10782944502E+03  0.10000000000E+01 0.  0.
         -4    1    1    2    0  502  0.34487150972E+02  0.27884968048E+02 -0.88692023438E+02  0.99170675841E+02  0.12700000000E+01 0. -1.
<mgrwt>
<rscale>  1 0.13263603E+03</rscale>
<asrwt>0</asrwt>
<pdfrwt beam="2">  1       21 0.30054001E-01 0.13263603E+03</pdfrwt>
<pdfrwt beam="1">  1       -4 0.74773847E-02 0.13263603E+03</pdfrwt>
<totfact> 0.53148706E+04</totfact>
</mgrwt>
</event>
<event>
 6    4  0.3995738E-003  0.1325819E+03  0.7818608E-02  0.1223674E+00
         21   -1    0    0  501  502  0.00000000000E+00  0.00000000000E+00  0.30867741526E+03  0.30867741526E+03  0.00000000000E+00 0. -1.
         -4   -1    0    0    0  501 -0.00000000000E+00 -0.00000000000E+00 -0.28822449642E+02  0.28850416000E+02  0.12700000000E+01 0. -1.
         25    2    1    2    0    0  0.25254029419E+02  0.36274532220E+02  0.14921392904E+03  0.19960647313E+03  0.12499735920E+03 0.  0.
    9000005    1    3    3    0    0  0.12594682250E+02 -0.46796631658E+02  0.57806798498E+02  0.75439888044E+02  0.10000000000E+01 0.  0.
    9000005    1    3    3    0    0  0.12659347170E+02  0.83071163878E+02  0.91407130543E+02  0.12416658509E+03  0.10000000000E+01 0.  0.
         -4    1    1    2    0  502 -0.25254029419E+02 -0.36274532220E+02  0.13064103658E+03  0.13792135813E+03  0.12700000000E+01 0.  1.
<mgrwt>
<rscale>  1 0.13258185E+03</rscale>
<asrwt>0</asrwt>
<pdfrwt beam="1">  1       21 0.47488831E-01 0.13258185E+03</pdfrwt>
<pdfrwt beam="2">  1       -4 0.44365755E-02 0.13258185E+03</pdfrwt>
<totfact> 0.49908998E+04</totfact>
</mgrwt>
</event>
<event>
 6    4  0.3995738E-003  0.1266514E+03  0.7818608E-02  0.1232511E+00
          4   -1    0    0  502    0 -0.00000000000E+00  0.00000000000E+00  0.53489945857E+03  0.53490096623E+03  0.12700000000E+01 0. -1.
         21   -1    0    0  501  502  0.00000000000E+00 -0.00000000000E+00 -0.12635839507E+02  0.12635839507E+02  0.00000000000E+00 0.  1.
         25    2    1    2    0    0  0.19770219879E+02 -0.47982053909E+01  0.50556151624E+03  0.52118424405E+03  0.12500674050E+03 0.  0.
    9000005    1    3    3    0    0 -0.50084192859E+01 -0.35749810302E+02  0.39817842310E+02  0.53754941788E+02  0.10000000000E+01 0.  0.
    9000005    1    3    3    0    0  0.24778639165E+02  0.30951604911E+02  0.46574367393E+03  0.46742930226E+03  0.10000000000E+01 0.  0.
          4    1    1    2  501    0 -0.19770219879E+02  0.47982053909E+01  0.16702102817E+02  0.26352561689E+02  0.12700000000E+01 0.  1.
<mgrwt>
<rscale>  1 0.12665137E+03</rscale>
<asrwt>0</asrwt>
<pdfrwt beam="2">  1       21 0.19439757E-02 0.12665137E+03</pdfrwt>
<pdfrwt beam="1">  1        4 0.82297232E-01 0.12665137E+03</pdfrwt>
<totfact> 0.68583449E+04</totfact>
</mgrwt>
</event>
<event>
 6    4  0.3995738E-003  0.1275484E+03  0.7818608E-02  0.1231140E+00
         21   -1    0    0  501  502  0.00000000000E+00  0.00000000000E+00  0.34757716733E+02  0.34757716733E+02  0.00000000000E+00 0. -1.
          4   -1    0    0  502    0 -0.00000000000E+00 -0.00000000000E+00 -0.28897794763E+03  0.28898073832E+03  0.12700000000E+01 0.  1.
         25    2    1    2    0    0 -0.52818717324E+01 -0.24829377784E+02 -0.26654526165E+03  0.29549105777E+03  0.12499677013E+03 0.  0.
    9000005    1    3    3    0    0  0.47505818116E+02  0.23380232106E+02 -0.82364003038E+02  0.97919696715E+02  0.10000000000E+01 0.  0.
    9000005    1    3    3    0    0 -0.52787689849E+02 -0.48209609891E+02 -0.18418125861E+03  0.19757136106E+03  0.10000000000E+01 0.  0.
          4    1    1    2  501    0  0.52818717324E+01  0.24829377784E+02  0.12325030749E+02  0.28247397281E+02  0.12700000000E+01 0. -1.
<mgrwt>
<rscale>  1 0.12754838E+03</rscale>
<asrwt>0</asrwt>
<pdfrwt beam="1">  1       21 0.53473409E-02 0.12754838E+03</pdfrwt>
<pdfrwt beam="2">  1        4 0.44460147E-01 0.12754838E+03</pdfrwt>
<totfact> 0.47392917E+04</totfact>
</mgrwt>
</event>
<event>
 6    4  0.3995738E-003  0.1294126E+03  0.7818608E-02  0.1228330E+00
          4   -1    0    0  502    0 -0.00000000000E+00  0.00000000000E+00  0.78575801214E+01  0.79595518319E+01  0.12700000000E+01 0. -1.
         21   -1    0    0  501  502  0.00000000000E+00 -0.00000000000E+00 -0.10645400716E+04  0.10645400716E+04  0.00000000000E+00 0.  1.
         25    2    1    2    0    0 -0.30278342268E+02  0.14408854267E+02 -0.56317678182E+03  0.57785440567E+03  0.12499293371E+03 0.  0.
    9000005    1    3    3    0    0 -0.69589898494E+02  0.42057719843E+02 -0.34861744562E+03  0.35797587791E+03  0.10000000000E+01 0.  0.
    9000005    1    3    3    0    0  0.39311556226E+02 -0.27648865577E+02 -0.21455933620E+03  0.21987852777E+03  0.10000000000E+01 0.  0.
          4    1    1    2  501    0  0.30278342268E+02 -0.14408854267E+02 -0.49350570962E+03  0.49464521772E+03  0.12700000000E+01 0.  1.
<mgrwt>
<rscale>  1 0.12941262E+03</rscale>
<asrwt>0</asrwt>
<pdfrwt beam="2">  1       21 0.16377527E+00 0.12941262E+03</pdfrwt>
<pdfrwt beam="1">  1        4 0.12167617E-02 0.12941262E+03</pdfrwt>
<totfact> 0.21366973E+04</totfact>
</mgrwt>
</event>
<event>
 6    4  0.3995738E-003  0.1288305E+03  0.7818608E-02  0.1229201E+00
         21   -1    0    0  501  502  0.00000000000E+00  0.00000000000E+00  0.37336784824E+03  0.37336784824E+03  0.00000000000E+00 0.  1.
         -4   -1    0    0    0  501 -0.00000000000E+00 -0.00000000000E+00 -0.17328884583E+02  0.17375360166E+02  0.12700000000E+01 0.  1.
         25    2    1    2    0    0  0.22622360840E+02 -0.21444824655E+02  0.30226500036E+03  0.32857485839E+03  0.12500262162E+03 0.  0.
    9000005    1    3    3    0    0  0.42313319627E+02  0.20863638006E+02  0.39041958958E+02  0.61245268944E+02  0.10000000000E+01 0.  0.
    9000005    1    3    3    0    0 -0.19690958788E+02 -0.42308462660E+02  0.26322304140E+03  0.26732958945E+03  0.10000000000E+01 0.  0.
         -4    1    1    2    0  502 -0.22622360840E+02  0.21444824655E+02  0.53773963295E+02  0.62168350010E+02  0.12700000000E+01 0. -1.
<mgrwt>
<rscale>  1 0.12883054E+03</rscale>
<asrwt>0</asrwt>
<pdfrwt beam="1">  1       21 0.57441201E-01 0.12883054E+03</pdfrwt>
<pdfrwt beam="2">  1       -4 0.26697237E-02 0.12883054E+03</pdfrwt>
<totfact> 0.74583161E+04</totfact>
</mgrwt>
</event>
<event>
 6    4  0.3995738E-003  0.1339742E+03  0.7818608E-02  0.1221675E+00
         21   -1    0    0  501  502  0.00000000000E+00  0.00000000000E+00  0.15476353171E+02  0.15476353171E+02  0.00000000000E+00 0. -1.
          4   -1    0    0  502    0 -0.00000000000E+00 -0.00000000000E+00 -0.55136648021E+03  0.55136794285E+03  0.12700000000E+01 0.  1.
         25    2    1    2    0    0  0.19043902523E+02  0.44343611157E+02 -0.43174170115E+03  0.45205085723E+03  0.12498021818E+03 0.  0.
    9000005    1    3    3    0    0 -0.15943974479E+02  0.56803305817E+02 -0.39641710281E+03  0.40078466197E+03  0.10000000000E+01 0.  0.
    9000005    1    3    3    0    0  0.34987877002E+02 -0.12459694660E+02 -0.35324598342E+02  0.51266195257E+02  0.10000000000E+01 0.  0.
          4    1    1    2  501    0 -0.19043902523E+02 -0.44343611157E+02 -0.10414842589E+03  0.11479343879E+03  0.12700000000E+01 0. -1.
<mgrwt>
<rscale>  1 0.13397418E+03</rscale>
<asrwt>0</asrwt>
<pdfrwt beam="1">  1       21 0.23809775E-02 0.13397418E+03</pdfrwt>
<pdfrwt beam="2">  1        4 0.84829729E-01 0.13397418E+03</pdfrwt>
<totfact> 0.46528259E+04</totfact>
</mgrwt>
</event>
<event>
 6    4  0.3995738E-003  0.1425592E+03  0.7818608E-02  0.1209926E+00
         -4   -1    0    0    0  501 -0.00000000000E+00  0.00000000000E+00  0.62327807312E+02  0.62340744817E+02  0.12700000000E+01 0.  1.
         21   -1    0    0  501  502  0.00000000000E+00 -0.00000000000E+00 -0.25404828204E+03  0.25404828204E+03  0.00000000000E+00 0. -1.
         25    2    1    2    0    0 -0.59691063203E+02 -0.33745544123E+02 -0.37199923670E+02  0.14733282799E+03  0.12498537158E+03 0.  0.
    9000005    1    3    3    0    0 -0.82368650167E+02  0.98289906623E+01  0.42262891008E+01  0.83066630528E+02  0.10000000000E+01 0.  0.
    9000005    1    3    3    0    0  0.22677586964E+02 -0.43574534785E+02 -0.41426212771E+02  0.64266197466E+02  0.10000000000E+01 0.  0.
         -4    1    1    2    0  502  0.59691063203E+02  0.33745544123E+02 -0.15452055106E+03  0.16905619886E+03  0.12700000000E+01 0. -1.
<mgrwt>
<rscale>  1 0.14255921E+03</rscale>
<asrwt>0</asrwt>
<pdfrwt beam="2">  1       21 0.39084351E-01 0.14255921E+03</pdfrwt>
<pdfrwt beam="1">  1       -4 0.95901329E-02 0.14255921E+03</pdfrwt>
<totfact> 0.21124368E+04</totfact>
</mgrwt>
</event>
<event>
 6    4  0.3995738E-003  0.1278375E+03  0.7818608E-02  0.1230700E+00
         21   -1    0    0  501  502  0.00000000000E+00  0.00000000000E+00  0.39072319384E+03  0.39072319384E+03  0.00000000000E+00 0. -1.
          4   -1    0    0  502    0 -0.00000000000E+00 -0.00000000000E+00 -0.13705902321E+03  0.13706490705E+03  0.12700000000E+01 0.  1.
         25    2    1    2    0    0 -0.23457239658E+02 -0.12889635366E+02 -0.10664740722E+03  0.16648154016E+03  0.12500419575E+03 0.  0.
    9000005    1    3    3    0    0  0.30497535231E+01  0.17242198783E+02  0.24045564066E+02  0.29762116301E+02  0.10000000000E+01 0.  0.
    9000005    1    3    3    0    0 -0.26506993182E+02 -0.30131834149E+02 -0.13069297129E+03  0.13671942386E+03  0.10000000000E+01 0.  0.
          4    1    1    2  501    0  0.23457239658E+02  0.12889635366E+02  0.36031157785E+03  0.36130656072E+03  0.12700000000E+01 0. -1.
<mgrwt>
<rscale>  1 0.12783753E+03</rscale>
<asrwt>0</asrwt>
<pdfrwt beam="1">  1       21 0.60111260E-01 0.12783753E+03</pdfrwt>
<pdfrwt beam="2">  1        4 0.21086615E-01 0.12783753E+03</pdfrwt>
<totfact> 0.21970222E+03</totfact>
</mgrwt>
</event>
<event>
 6    4  0.3995738E-003  0.1266535E+03  0.7818608E-02  0.1232508E+00
          4   -1    0    0  502    0 -0.00000000000E+00  0.00000000000E+00  0.64756430528E+03  0.64756555064E+03  0.12700000000E+01 0. -1.
         21   -1    0    0  501  502  0.00000000000E+00 -0.00000000000E+00 -0.18501996917E+02  0.18501996917E+02  0.00000000000E+00 0.  1.
         25    2    1    2    0    0  0.91618584355E+01  0.18233062146E+02  0.63274259760E+03  0.64529396736E+03  0.12499890115E+03 0.  0.
    9000005    1    3    3    0    0 -0.11353009342E+02 -0.41389843120E+02  0.99913493268E+02  0.10874610831E+03  0.10000000000E+01 0.  0.
    9000005    1    3    3    0    0  0.20514867777E+02  0.59622905266E+02  0.53282910433E+03  0.53654785905E+03  0.10000000000E+01 0.  0.
          4    1    1    2  501    0 -0.91618584355E+01 -0.18233062146E+02 -0.36802892375E+01  0.20773580194E+02  0.12700000000E+01 0.  1.
<mgrwt>
<rscale>  1 0.12665350E+03</rscale>
<asrwt>0</asrwt>
<pdfrwt beam="2">  1       21 0.28464616E-02 0.12665350E+03</pdfrwt>
<pdfrwt beam="1">  1        4 0.99628709E-01 0.12665350E+03</pdfrwt>
<totfact> 0.23981777E+04</totfact>
</mgrwt>
</event>
<event>
 6    4  0.3995738E-003  0.1439286E+03  0.7818608E-02  0.1208138E+00
         21   -1    0    0  501  502  0.00000000000E+00  0.00000000000E+00  0.11601342664E+02  0.11601342664E+02  0.00000000000E+00 0. -1.
         -4   -1    0    0    0  501 -0.00000000000E+00 -0.00000000000E+00 -0.17326179379E+04  0.17326184033E+04  0.12700000000E+01 0.  1.
         25    2    1    2    0    0 -0.47116027384E+02 -0.53575016956E+02 -0.15763982813E+04  0.15829551432E+04  0.12500096716E+03 0.  0.
    9000005    1    3    3    0    0 -0.19824135651E+02 -0.73967663030E+02 -0.14506311308E+04  0.14526513309E+04  0.10000000000E+01 0.  0.
    9000005    1    3    3    0    0 -0.27291891733E+02  0.20392646074E+02 -0.12576715050E+03  0.13030381235E+03  0.10000000000E+01 0.  0.
         -4    1    1    2    0  502  0.47116027384E+02  0.53575016956E+02 -0.14461831395E+03  0.16126460277E+03  0.12700000000E+01 0. -1.
<mgrwt>
<rscale>  1 0.14392861E+03</rscale>
<asrwt>0</asrwt>
<pdfrwt beam="1">  1       21 0.17848213E-02 0.14392861E+03</pdfrwt>
<pdfrwt beam="2">  1       -4 0.26656208E+00 0.14392861E+03</pdfrwt>
<totfact> 0.35909222E+03</totfact>
</mgrwt>
</event>
<event>
 6    4  0.3995738E-003  0.1281116E+03  0.7818608E-02  0.1230285E+00
         -4   -1    0    0    0  501 -0.00000000000E+00  0.00000000000E+00  0.18925932116E+03  0.18926358219E+03  0.12700000000E+01 0. -1.
         21   -1    0    0  501  502  0.00000000000E+00 -0.00000000000E+00 -0.19254304157E+03  0.19254304157E+03  0.00000000000E+00 0.  1.
         25    2    1    2    0    0  0.25973880897E+02 -0.10681938162E+02  0.16629099289E+03  0.20991729140E+03  0.12499531439E+03 0.  0.
    9000005    1    3    3    0    0 -0.14427747759E+02 -0.44627546644E+02  0.14330901304E+02  0.49052548935E+02  0.10000000000E+01 0.  0.
    9000005    1    3    3    0    0  0.40401628655E+02  0.33945608483E+02  0.15196009158E+03  0.16086474246E+03  0.10000000000E+01 0.  0.
         -4    1    1    2    0  502 -0.25973880897E+02  0.10681938162E+02 -0.16957471330E+03  0.17188933237E+03  0.12700000000E+01 0.  1.
<mgrwt>
<rscale>  1 0.12811157E+03</rscale>
<asrwt>0</asrwt>
<pdfrwt beam="2">  1       21 0.29622006E-01 0.12811157E+03</pdfrwt>
<pdfrwt beam="1">  1       -4 0.29117469E-01 0.12811157E+03</pdfrwt>
<totfact> 0.50524267E+03</totfact>
</mgrwt>
</event>
<event>
 6    4  0.3995738E-003  0.1266788E+03  0.7818608E-02  0.1232469E+00
          4   -1    0    0  502    0 -0.00000000000E+00  0.00000000000E+00  0.11584852916E+02  0.11654257466E+02  0.12700000000E+01 0.  1.
         21   -1    0    0  501  502  0.00000000000E+00 -0.00000000000E+00 -0.46937426410E+03  0.46937426410E+03  0.00000000000E+00 0.  1.
         25    2    1    2    0    0  0.14215350808E+00 -0.20562441764E+02 -0.40550318889E+03  0.42482980129E+03  0.12499875857E+03 0.  0.
    9000005    1    3    3    0    0 -0.67032275386E+01  0.63279970626E+01  0.68592011143E+01  0.11533665774E+02  0.10000000000E+01 0.  0.
    9000005    1    3    3    0    0  0.68453810466E+01 -0.26890438826E+02 -0.41236239001E+03  0.41329613552E+03  0.10000000000E+01 0.  0.
          4    1    1    2  501    0 -0.14215350808E+00  0.20562441764E+02 -0.52286222291E+02  0.56198720274E+02  0.12700000000E+01 0. -1.
<mgrwt>
<rscale>  1 0.12667882E+03</rscale>
<asrwt>0</asrwt>
<pdfrwt beam="2">  1       21 0.72211404E-01 0.12667882E+03</pdfrwt>
<pdfrwt beam="1">  1        4 0.17877566E-02 0.12667882E+03</pdfrwt>
<totfact> 0.84547456E+04</totfact>
</mgrwt>
</event>
<event>
 6    4  0.3995738E-003  0.1273331E+03  0.7818608E-02  0.1231467E+00
         -4   -1    0    0    0  501 -0.00000000000E+00  0.00000000000E+00  0.83871262021E+03  0.83871358175E+03  0.12700000000E+01 0.  1.
         21   -1    0    0  501  502  0.00000000000E+00 -0.00000000000E+00 -0.71388852634E+01  0.71388852634E+01  0.00000000000E+00 0.  1.
         25    2    1    2    0    0 -0.36943769907E+01 -0.24033542349E+02  0.62428118968E+03  0.63713478255E+03  0.12498987069E+03 0.  0.
    9000005    1    3    3    0    0  0.37239450018E+02  0.15557163328E+02  0.48472785328E+03  0.48640609959E+03  0.10000000000E+01 0.  0.
    9000005    1    3    3    0    0 -0.40933827009E+02 -0.39590705677E+02  0.13955333640E+03  0.15072868297E+03  0.10000000000E+01 0.  0.
         -4    1    1    2    0  502  0.36943769907E+01  0.24033542349E+02  0.20729254527E+03  0.20871768446E+03  0.12700000000E+01 0. -1.
<mgrwt>
<rscale>  1 0.12733314E+03</rscale>
<asrwt>0</asrwt>
<pdfrwt beam="2">  1       21 0.10982907E-02 0.12733314E+03</pdfrwt>
<pdfrwt beam="1">  1       -4 0.12904140E+00 0.12733314E+03</pdfrwt>
<totfact> 0.60002225E+04</totfact>
</mgrwt>
</event>
<event>
 6    4  0.3995738E-003  0.1327161E+03  0.7818608E-02  0.1223480E+00
         21   -1    0    0  501  502  0.00000000000E+00  0.00000000000E+00  0.12894746218E+04  0.12894746218E+04  0.00000000000E+00 0. -1.
          4   -1    0    0  502    0 -0.00000000000E+00 -0.00000000000E+00 -0.80289087783E+01  0.81287315228E+01  0.12700000000E+01 0. -1.
         25    2    1    2    0    0  0.43714901557E+02 -0.87324262681E+01  0.59097130277E+03  0.60569022872E+03  0.12500529821E+03 0.  0.
    9000005    1    3    3    0    0  0.70705678300E+02 -0.46259928628E+02  0.32950949244E+03  0.34017169128E+03  0.10000000000E+01 0.  0.
    9000005    1    3    3    0    0 -0.26990776743E+02  0.37527502360E+02  0.26146181033E+03  0.26551853744E+03  0.10000000000E+01 0.  0.
          4    1    1    2  501    0 -0.43714901557E+02  0.87324262681E+01  0.69047441026E+03  0.69191312462E+03  0.12700000000E+01 0.  1.
<mgrwt>
<rscale>  1 0.13271613E+03</rscale>
<asrwt>0</asrwt>
<pdfrwt beam="1">  1       21 0.19838055E+00 0.13271613E+03</pdfrwt>
<pdfrwt beam="2">  1        4 0.12429445E-02 0.13271613E+03</pdfrwt>
<totfact> 0.12173013E+04</totfact>
</mgrwt>
</event>
<event>
 6    4  0.3995738E-003  0.1329045E+03  0.7818608E-02  0.1223208E+00
         21   -1    0    0  501  502  0.00000000000E+00  0.00000000000E+00  0.31083938047E+02  0.31083938047E+02  0.00000000000E+00 0. -1.
         -4   -1    0    0    0  501 -0.00000000000E+00 -0.00000000000E+00 -0.26336805574E+03  0.26337111778E+03  0.12700000000E+01 0. -1.
         25    2    1    2    0    0  0.37326647423E+02 -0.25388724288E+02 -0.19450789081E+03  0.23557787735E+03  0.12500300308E+03 0.  0.
    9000005    1    3    3    0    0 -0.18712421766E+02 -0.29009335004E+02 -0.17140085903E+03  0.17484550530E+03  0.10000000000E+01 0.  0.
    9000005    1    3    3    0    0  0.56039069189E+02  0.36206107163E+01 -0.23107031783E+02  0.60732372054E+02  0.10000000000E+01 0.  0.
         -4    1    1    2    0  502 -0.37326647423E+02  0.25388724288E+02 -0.37776226874E+02  0.58877178479E+02  0.12700000000E+01 0.  1.
<mgrwt>
<rscale>  1 0.13290454E+03</rscale>
<asrwt>0</asrwt>
<pdfrwt beam="1">  1       21 0.47821445E-02 0.13290454E+03</pdfrwt>
<pdfrwt beam="2">  1       -4 0.40520392E-01 0.13290454E+03</pdfrwt>
<totfact> 0.69121907E+04</totfact>
</mgrwt>
</event>
<event>
 6    4  0.3995738E-003  0.1266500E+03  0.7818608E-02  0.1232513E+00
         21   -1    0    0  501  502  0.00000000000E+00  0.00000000000E+00  0.15804674038E+03  0.15804674038E+03  0.00000000000E+00 0. -1.
          4   -1    0    0  502    0 -0.00000000000E+00 -0.00000000000E+00 -0.34951294214E+02  0.34974360140E+02  0.12700000000E+01 0. -1.
         25    2    1    2    0    0  0.15669437510E+02 -0.13005751422E+02  0.95102352332E+02  0.15838142609E+03  0.12500215146E+03 0.  0.
    9000005    1    3    3    0    0  0.18604929088E+02 -0.68503639418E+02  0.56007004968E+02  0.90424977773E+02  0.10000000000E+01 0.  0.
    9000005    1    3    3    0    0 -0.29354915785E+01  0.55497887996E+02  0.39095347364E+02  0.67956448320E+02  0.10000000000E+01 0.  0.
          4    1    1    2  501    0 -0.15669437510E+02  0.13005751422E+02  0.27993093834E+02  0.34639674426E+02  0.12700000000E+01 0.  1.
<mgrwt>
<rscale>  1 0.12664999E+03</rscale>
<asrwt>0</asrwt>
<pdfrwt beam="1">  1       21 0.24314883E-01 0.12664999E+03</pdfrwt>
<pdfrwt beam="2">  1        4 0.53792891E-02 0.12664999E+03</pdfrwt>
<totfact> 0.13533711E+05</totfact>
</mgrwt>
</event>
<event>
 6    4  0.3995738E-003  0.1275380E+03  0.7818608E-02  0.1231155E+00
         21   -1    0    0  501  502  0.00000000000E+00  0.00000000000E+00  0.17320931036E+02  0.17320931036E+02  0.00000000000E+00 0. -1.
         -4   -1    0    0    0  501 -0.00000000000E+00 -0.00000000000E+00 -0.55900817864E+03  0.55900962128E+03  0.12700000000E+01 0. -1.
         25    2    1    2    0    0 -0.24676129935E+02 -0.54217241576E+01 -0.53524005616E+03  0.55022527203E+03  0.12501050268E+03 0.  0.
    9000005    1    3    3    0    0  0.46143598093E+02  0.14120092782E+01 -0.32514765575E+03  0.32841014517E+03  0.10000000000E+01 0.  0.
    9000005    1    3    3    0    0 -0.70819728028E+02 -0.68337334358E+01 -0.21009240041E+03  0.22181512685E+03  0.10000000000E+01 0.  0.
         -4    1    1    2    0  502  0.24676129935E+02  0.54217241576E+01 -0.64471914435E+01  0.26105280288E+02  0.12700000000E+01 0.  1.
<mgrwt>
<rscale>  1 0.12753796E+03</rscale>
<asrwt>0</asrwt>
<pdfrwt beam="1">  1       21 0.26647587E-02 0.12753796E+03</pdfrwt>
<pdfrwt beam="2">  1       -4 0.86004947E-01 0.12753796E+03</pdfrwt>
<totfact> 0.37321720E+04</totfact>
</mgrwt>
</event>
<event>
 6    4  0.3995738E-003  0.1334751E+03  0.7818608E-02  0.1222388E+00
         -4   -1    0    0    0  501 -0.00000000000E+00  0.00000000000E+00  0.13769843726E+03  0.13770429377E+03  0.12700000000E+01 0. -1.
         21   -1    0    0  501  502  0.00000000000E+00 -0.00000000000E+00 -0.11359348982E+04  0.11359348982E+04  0.00000000000E+00 0.  1.
         25    2    1    2    0    0 -0.35088354508E+02 -0.30974234660E+02  0.10474296559E+03  0.16966644589E+03  0.12500007275E+03 0.  0.
    9000005    1    3    3    0    0 -0.46363007758E+02 -0.71707331784E+01 -0.13254546337E+02  0.48760956731E+02  0.10000000000E+01 0.  0.
    9000005    1    3    3    0    0  0.11274653251E+02 -0.23803501482E+02  0.11799751193E+03  0.12090548916E+03  0.10000000000E+01 0.  0.
         -4    1    1    2    0  502  0.35088354508E+02  0.30974234660E+02 -0.11029794265E+04  0.11039727461E+04  0.12700000000E+01 0.  1.
<mgrwt>
<rscale>  1 0.13347514E+03</rscale>
<asrwt>0</asrwt>
<pdfrwt beam="2">  1       21 0.17475922E+00 0.13347514E+03</pdfrwt>
<pdfrwt beam="1">  1       -4 0.21184880E-01 0.13347514E+03</pdfrwt>
<totfact> 0.17253851E+02</totfact>
</mgrwt>
</event>
<event>
 6    4  0.3995738E-003  0.1619202E+03  0.7818608E-02  0.1186546E+00
         -4   -1    0    0    0  501 -0.00000000000E+00  0.00000000000E+00  0.18651069709E+03  0.18651502092E+03  0.12700000000E+01 0. -1.
         21   -1    0    0  501  502  0.00000000000E+00 -0.00000000000E+00 -0.96719677969E+02  0.96719677969E+02  0.00000000000E+00 0.  1.
         25    2    1    2    0    0 -0.73322537613E+02  0.72228891205E+02  0.77693120624E+02  0.17959503807E+03  0.12499979784E+03 0.  0.
    9000005    1    3    3    0    0 -0.21284251239E+02 -0.23208330718E+02  0.62286519130E+02  0.69801550347E+02  0.10000000000E+01 0.  0.
    9000005    1    3    3    0    0 -0.52038286374E+02  0.95437221923E+02  0.15406601494E+02  0.10979348772E+03  0.10000000000E+01 0.  0.
         -4    1    1    2    0  502  0.73322537613E+02 -0.72228891205E+02  0.12097898498E+02  0.10363966082E+03  0.12700000000E+01 0.  1.
<mgrwt>
<rscale>  1 0.16192022E+03</rscale>
<asrwt>0</asrwt>
<pdfrwt beam="2">  1       21 0.14879950E-01 0.16192022E+03</pdfrwt>
<pdfrwt beam="1">  1       -4 0.28694927E-01 0.16192022E+03</pdfrwt>
<totfact> 0.19097914E+04</totfact>
</mgrwt>
</event>
<event>
 6    4  0.3995738E-003  0.1353169E+03  0.7818608E-02  0.1219773E+00
         -4   -1    0    0    0  501 -0.00000000000E+00  0.00000000000E+00  0.12406928326E+03  0.12407578309E+03  0.12700000000E+01 0.  1.
         21   -1    0    0  501  502  0.00000000000E+00 -0.00000000000E+00 -0.10827220775E+03  0.10827220775E+03  0.00000000000E+00 0. -1.
         25    2    1    2    0    0  0.93435350352E+01 -0.50970673969E+02  0.74146330752E+02  0.15429954602E+03  0.12500144114E+03 0.  0.
    9000005    1    3    3    0    0  0.56710903805E+02 -0.21323071405E+02  0.77420091209E+02  0.98314141950E+02  0.10000000000E+01 0.  0.
    9000005    1    3    3    0    0 -0.47367368770E+02 -0.29647602564E+02 -0.32737604564E+01  0.55985404075E+02  0.10000000000E+01 0.  0.
         -4    1    1    2    0  502 -0.93435350352E+01  0.50970673969E+02 -0.58349255243E+02  0.78048444822E+02  0.12700000000E+01 0. -1.
<mgrwt>
<rscale>  1 0.13531693E+03</rscale>
<asrwt>0</asrwt>
<pdfrwt beam="2">  1       21 0.16657263E-01 0.13531693E+03</pdfrwt>
<pdfrwt beam="1">  1       -4 0.19088655E-01 0.13531693E+03</pdfrwt>
<totfact> 0.32304043E+04</totfact>
</mgrwt>
</event>
<event>
 6    4  0.3995738E-003  0.1414614E+03  0.7818608E-02  0.1211376E+00
         21   -1    0    0  501  502  0.00000000000E+00  0.00000000000E+00  0.18226236091E+03  0.18226236091E+03  0.00000000000E+00 0.  1.
         -4   -1    0    0    0  501 -0.00000000000E+00 -0.00000000000E+00 -0.64997274613E+02  0.65009680872E+02  0.12700000000E+01 0. -1.
         25    2    1    2    0    0 -0.31279256402E+02 -0.58383063885E+02  0.43217222407E+02  0.14791574819E+03  0.12499746486E+03 0.  0.
    9000005    1    3    3    0    0  0.45778718789E+02 -0.22979318820E+01  0.95460628547E+01  0.46830533853E+02  0.10000000000E+01 0.  0.
    9000005    1    3    3    0    0 -0.77057975191E+02 -0.56085132003E+02  0.33671159552E+02  0.10108521434E+03  0.10000000000E+01 0.  0.
         -4    1    1    2    0  502  0.31279256402E+02  0.58383063885E+02  0.74047863893E+02  0.99356293594E+02  0.12700000000E+01 0.  1.
<mgrwt>
<rscale>  1 0.14146144E+03</rscale>
<asrwt>0</asrwt>
<pdfrwt beam="1">  1       21 0.28040363E-01 0.14146144E+03</pdfrwt>
<pdfrwt beam="2">  1       -4 0.10000875E-01 0.14146144E+03</pdfrwt>
<totfact> 0.37670804E+04</totfact>
</mgrwt>
</event>
<event>
 6    4  0.3995738E-003  0.1321360E+03  0.7818608E-02  0.1224320E+00
         -4   -1    0    0    0  501 -0.00000000000E+00  0.00000000000E+00  0.31992750204E+03  0.31993002275E+03  0.12700000000E+01 0.  1.
         21   -1    0    0  501  502  0.00000000000E+00 -0.00000000000E+00 -0.24176858855E+02  0.24176858855E+02  0.00000000000E+00 0.  1.
         25    2    1    2    0    0 -0.16233172509E+02 -0.39635857213E+02  0.20744687511E+03  0.24595554223E+03  0.12500162276E+03 0.  0.
    9000005    1    3    3    0    0  0.91925521798E+01  0.22133126746E+02  0.16515810683E+03  0.16689091816E+03  0.10000000000E+01 0.  0.
    9000005    1    3    3    0    0 -0.25425724689E+02 -0.61768983959E+02  0.42288768282E+02  0.79064624062E+02  0.10000000000E+01 0.  0.
         -4    1    1    2    0  502  0.16233172509E+02  0.39635857213E+02  0.88303768073E+02  0.98151339383E+02  0.12700000000E+01 0. -1.
<mgrwt>
<rscale>  1 0.13213600E+03</rscale>
<asrwt>0</asrwt>
<pdfrwt beam="2">  1       21 0.37195170E-02 0.13213600E+03</pdfrwt>
<pdfrwt beam="1">  1       -4 0.49222372E-01 0.13213600E+03</pdfrwt>
<totfact> 0.71147546E+04</totfact>
</mgrwt>
</event>
<event>
 6    4  0.3995738E-003  0.1279203E+03  0.7818608E-02  0.1230575E+00
         21   -1    0    0  501  502  0.00000000000E+00  0.00000000000E+00  0.14804978677E+03  0.14804978677E+03  0.00000000000E+00 0. -1.
          4   -1    0    0  502    0 -0.00000000000E+00 -0.00000000000E+00 -0.41939496191E+02  0.41958720676E+02  0.12700000000E+01 0. -1.
         25    2    1    2    0    0 -0.18659122538E+02 -0.19748912614E+02  0.73457205462E+02  0.14751122199E+03  0.12500166869E+03 0.  0.
    9000005    1    3    3    0    0  0.34296797234E+02 -0.39347990012E+02  0.74565637817E+02  0.91025100722E+02  0.10000000000E+01 0.  0.
    9000005    1    3    3    0    0 -0.52955919772E+02  0.19599077398E+02 -0.11084323546E+01  0.56486121270E+02  0.10000000000E+01 0.  0.
          4    1    1    2  501    0  0.18659122538E+02  0.19748912614E+02  0.32653085120E+02  0.42497285457E+02  0.12700000000E+01 0.  1.
<mgrwt>
<rscale>  1 0.12792029E+03</rscale>
<asrwt>0</asrwt>
<pdfrwt beam="1">  1       21 0.22776890E-01 0.12792029E+03</pdfrwt>
<pdfrwt beam="2">  1        4 0.64541281E-02 0.12792029E+03</pdfrwt>
<totfact> 0.11403635E+05</totfact>
</mgrwt>
</event>
<event>
 6    4  0.3995738E-003  0.1290725E+03  0.7818608E-02  0.1228839E+00
         21   -1    0    0  501  502  0.00000000000E+00  0.00000000000E+00  0.29010874605E+02  0.29010874605E+02  0.00000000000E+00 0.  1.
         -4   -1    0    0    0  501 -0.00000000000E+00 -0.00000000000E+00 -0.22879515859E+03  0.22879868333E+03  0.12700000000E+01 0.  1.
         25    2    1    2    0    0  0.14156773618E+02 -0.28885249638E+02 -0.14381322446E+03  0.19324064676E+03  0.12499972858E+03 0.  0.
    9000005    1    3    3    0    0 -0.38632791833E+02 -0.39769738765E+02 -0.21322863633E+02  0.59412029420E+02  0.10000000000E+01 0.  0.
    9000005    1    3    3    0    0  0.52789565451E+02  0.10884489127E+02 -0.12249036083E+03  0.13382861734E+03  0.10000000000E+01 0.  0.
         -4    1    1    2    0  502 -0.14156773618E+02  0.28885249638E+02 -0.55971059520E+02  0.64568911170E+02  0.12700000000E+01 0. -1.
<mgrwt>
<rscale>  1 0.12907248E+03</rscale>
<asrwt>0</asrwt>
<pdfrwt beam="1">  1       21 0.44632115E-02 0.12907248E+03</pdfrwt>
<pdfrwt beam="2">  1       -4 0.35201664E-01 0.12907248E+03</pdfrwt>
<totfact> 0.10165155E+05</totfact>
</mgrwt>
</event>
<event>
 6    4  0.3995738E-003  0.1269374E+03  0.7818608E-02  0.1232072E+00
         21   -1    0    0  501  502  0.00000000000E+00  0.00000000000E+00  0.73262603250E+02  0.73262603250E+02  0.00000000000E+00 0. -1.
         -4   -1    0    0    0  501 -0.00000000000E+00 -0.00000000000E+00 -0.94084627050E+02  0.94093198198E+02  0.12700000000E+01 0. -1.
         25    2    1    2    0    0 -0.21435689451E+02 -0.52864696689E+01 -0.44917684639E+02  0.13465030780E+03  0.12500268578E+03 0.  0.
    9000005    1    3    3    0    0  0.29995077818E+02  0.92394146443E+01 -0.69162011506E+02  0.75956930638E+02  0.10000000000E+01 0.  0.
    9000005    1    3    3    0    0 -0.51430767269E+02 -0.14525884313E+02  0.24244326867E+02  0.58693377158E+02  0.10000000000E+01 0.  0.
         -4    1    1    2    0  502  0.21435689451E+02  0.52864696689E+01  0.24095660839E+02  0.32705493653E+02  0.12700000000E+01 0.  1.
<mgrwt>
<rscale>  1 0.12693741E+03</rscale>
<asrwt>0</asrwt>
<pdfrwt beam="1">  1       21 0.11271170E-01 0.12693741E+03</pdfrwt>
<pdfrwt beam="2">  1       -4 0.14476064E-01 0.12693741E+03</pdfrwt>
<totfact> 0.10502856E+05</totfact>
</mgrwt>
</event>
<event>
 6    4  0.3995738E-003  0.1311343E+03  0.7818608E-02  0.1225782E+00
         21   -1    0    0  501  502  0.00000000000E+00  0.00000000000E+00  0.20178608395E+02  0.20178608395E+02  0.00000000000E+00 0.  1.
         -4   -1    0    0    0  501 -0.00000000000E+00 -0.00000000000E+00 -0.86371803535E+03  0.86371896904E+03  0.12700000000E+01 0. -1.
         25    2    1    2    0    0 -0.33949940325E+02  0.20459322328E+02 -0.83245342233E+03  0.84271876351E+03  0.12500012679E+03 0.  0.
    9000005    1    3    3    0    0  0.88339353662E+01  0.40290417384E+02 -0.71441472087E+03  0.71560516316E+03  0.10000000000E+01 0.  0.
    9000005    1    3    3    0    0 -0.42783875691E+02 -0.19831095056E+02 -0.11803870146E+03  0.12711360035E+03  0.10000000000E+01 0.  0.
         -4    1    1    2    0  502  0.33949940325E+02 -0.20459322328E+02 -0.11086004618E+02  0.41178813928E+02  0.12700000000E+01 0.  1.
<mgrwt>
<rscale>  1 0.13113434E+03</rscale>
<asrwt>0</asrwt>
<pdfrwt beam="1">  1       21 0.31044012E-02 0.13113434E+03</pdfrwt>
<pdfrwt beam="2">  1       -4 0.13288285E+00 0.13113434E+03</pdfrwt>
<totfact> 0.10521643E+04</totfact>
</mgrwt>
</event>
<event>
 6    4  0.3995738E-003  0.1270735E+03  0.7818608E-02  0.1231864E+00
          4   -1    0    0  502    0 -0.00000000000E+00  0.00000000000E+00  0.38990276678E+02  0.39010954556E+02  0.12700000000E+01 0. -1.
         21   -1    0    0  501  502  0.00000000000E+00 -0.00000000000E+00 -0.39709135900E+03  0.39709135900E+03  0.00000000000E+00 0. -1.
         25    2    1    2    0    0 -0.22304386271E+02  0.48659117088E+01 -0.66155515793E+02  0.14326278504E+03  0.12500604211E+03 0.  0.
    9000005    1    3    3    0    0 -0.84825202750E+01 -0.99403303489E+01 -0.10159191495E+03  0.10243378593E+03  0.10000000000E+01 0.  0.
    9000005    1    3    3    0    0 -0.13821865996E+02  0.14806242058E+02  0.35436399154E+02  0.40828999112E+02  0.10000000000E+01 0.  0.
          4    1    1    2  501    0  0.22304386271E+02 -0.48659117088E+01 -0.29194556653E+03  0.29283952851E+03  0.12700000000E+01 0.  1.
<mgrwt>
<rscale>  1 0.12707350E+03</rscale>
<asrwt>0</asrwt>
<pdfrwt beam="2">  1       21 0.61090982E-01 0.12707350E+03</pdfrwt>
<pdfrwt beam="1">  1        4 0.60002505E-02 0.12707350E+03</pdfrwt>
<totfact> 0.18071434E+04</totfact>
</mgrwt>
</event>
<event>
 6    4  0.3995738E-003  0.1270888E+03  0.7818608E-02  0.1231841E+00
         21   -1    0    0  501  502  0.00000000000E+00  0.00000000000E+00  0.39567241872E+02  0.39567241872E+02  0.00000000000E+00 0.  1.
          4   -1    0    0  502    0 -0.00000000000E+00 -0.00000000000E+00 -0.21584678675E+03  0.21585052294E+03  0.12700000000E+01 0.  1.
         25    2    1    2    0    0  0.18898647776E+02  0.13015122502E+02 -0.19004895817E+03  0.22862668525E+03  0.12500000961E+03 0.  0.
    9000005    1    3    3    0    0  0.33127010713E+01  0.48720176374E+02 -0.18251018530E+03  0.18893278517E+03  0.10000000000E+01 0.  0.
    9000005    1    3    3    0    0  0.15585946705E+02 -0.35705053872E+02 -0.75387728720E+01  0.39693900074E+02  0.10000000000E+01 0.  0.
          4    1    1    2  501    0 -0.18898647776E+02 -0.13015122502E+02  0.13769413294E+02  0.26791079560E+02  0.12700000000E+01 0. -1.
<mgrwt>
<rscale>  1 0.12708877E+03</rscale>
<asrwt>0</asrwt>
<pdfrwt beam="1">  1       21 0.60872681E-02 0.12708877E+03</pdfrwt>
<pdfrwt beam="2">  1        4 0.33209052E-01 0.12708877E+03</pdfrwt>
<totfact> 0.67291228E+04</totfact>
</mgrwt>
</event>
<event>
 6    4  0.3995738E-003  0.1302932E+03  0.7818608E-02  0.1227021E+00
          4   -1    0    0  502    0 -0.00000000000E+00  0.00000000000E+00  0.12677407331E+04  0.12677413692E+04  0.12700000000E+01 0.  1.
         21   -1    0    0  501  502  0.00000000000E+00 -0.00000000000E+00 -0.10678584404E+02  0.10678584404E+02  0.00000000000E+00 0. -1.
         25    2    1    2    0    0  0.12338051620E+02  0.34624754316E+02  0.12173108927E+04  0.12242639162E+04  0.12500090431E+03 0.  0.
    9000005    1    3    3    0    0  0.19084546408E+01 -0.10905184205E+02  0.10624703458E+04  0.10625284942E+04  0.10000000000E+01 0.  0.
    9000005    1    3    3    0    0  0.10429596979E+02  0.45529938521E+02  0.15484054683E+03  0.16173542203E+03  0.10000000000E+01 0.  0.
          4    1    1    2  501    0 -0.12338051620E+02 -0.34624754316E+02  0.39751255992E+02  0.54156037356E+02  0.12700000000E+01 0. -1.
<mgrwt>
<rscale>  1 0.13029324E+03</rscale>
<asrwt>0</asrwt>
<pdfrwt beam="2">  1       21 0.16428601E-02 0.13029324E+03</pdfrwt>
<pdfrwt beam="1">  1        4 0.19504278E+00 0.13029324E+03</pdfrwt>
<totfact> 0.10814658E+04</totfact>
</mgrwt>
</event>
<event>
 6    4  0.3995738E-003  0.1500538E+03  0.7818608E-02  0.1200407E+00
         -4   -1    0    0    0  501 -0.00000000000E+00  0.00000000000E+00  0.43726809683E+03  0.43726994112E+03  0.12700000000E+01 0. -1.
         21   -1    0    0  501  502  0.00000000000E+00 -0.00000000000E+00 -0.36318788951E+02  0.36318788951E+02  0.00000000000E+00 0.  1.
         25    2    1    2    0    0  0.39254478622E+02  0.73149222150E+02  0.33664402998E+03  0.36857204350E+03  0.12499770211E+03 0.  0.
    9000005    1    3    3    0    0  0.24197179338E+02  0.71994237042E+02  0.75868934619E+02  0.10735813381E+03  0.10000000000E+01 0.  0.
    9000005    1    3    3    0    0  0.15057299284E+02  0.11549851082E+01  0.26077509536E+03  0.26121390969E+03  0.10000000000E+01 0.  0.
         -4    1    1    2    0  502 -0.39254478622E+02 -0.73149222150E+02  0.64305277896E+02  0.10501668657E+03  0.12700000000E+01 0.  1.
<mgrwt>
<rscale>  1 0.15005382E+03</rscale>
<asrwt>0</asrwt>
<pdfrwt beam="2">  1       21 0.55875063E-02 0.15005382E+03</pdfrwt>
<pdfrwt beam="1">  1       -4 0.67273861E-01 0.15005382E+03</pdfrwt>
<totfact> 0.19023614E+04</totfact>
</mgrwt>
</event>
<event>
 6    4  0.3995738E-003  0.1272930E+03  0.7818608E-02  0.1231529E+00
          4   -1    0    0  502    0 -0.00000000000E+00  0.00000000000E+00  0.27178083914E+03  0.27178380641E+03  0.12700000000E+01 0. -1.
         21   -1    0    0  501  502  0.00000000000E+00 -0.00000000000E+00 -0.21255958083E+02  0.21255958083E+02  0.00000000000E+00 0. -1.
         25    2    1    2    0    0 -0.11253349406E+02  0.21445008720E+02  0.21840212737E+03  0.25279041075E+03  0.12496790090E+03 0.  0.
    9000005    1    3    3    0    0 -0.33309285845E+02  0.68010638803E+02  0.13227750597E+03  0.15242471617E+03  0.10000000000E+01 0.  0.
    9000005    1    3    3    0    0  0.22055936439E+02 -0.46565630083E+02  0.86124621396E+02  0.10036569458E+03  0.10000000000E+01 0.  0.
          4    1    1    2  501    0  0.11253349406E+02 -0.21445008720E+02  0.32122753691E+02  0.40249353741E+02  0.12700000000E+01 0.  1.
<mgrwt>
<rscale>  1 0.12729298E+03</rscale>
<asrwt>0</asrwt>
<pdfrwt beam="2">  1       21 0.32701476E-02 0.12729298E+03</pdfrwt>
<pdfrwt beam="1">  1        4 0.41815581E-01 0.12729298E+03</pdfrwt>
<totfact> 0.12134682E+05</totfact>
</mgrwt>
</event>
<event>
 6    4  0.3995738E-003  0.1305408E+03  0.7818608E-02  0.1226655E+00
         21   -1    0    0  501  502  0.00000000000E+00  0.00000000000E+00  0.84975697775E+01  0.84975697775E+01  0.00000000000E+00 0. -1.
         -4   -1    0    0    0  501 -0.00000000000E+00 -0.00000000000E+00 -0.18127837241E+04  0.18127841690E+04  0.12700000000E+01 0.  1.
         25    2    1    2    0    0 -0.30224982420E+02 -0.22411676330E+02 -0.17519715195E+04  0.17568281375E+04  0.12500026703E+03 0.  0.
    9000005    1    3    3    0    0  0.34789838077E+02 -0.40856321166E+02 -0.46577996308E+03  0.46886196884E+03  0.10000000000E+01 0.  0.
    9000005    1    3    3    0    0 -0.65014820497E+02  0.18444644836E+02 -0.12861915564E+04  0.12879661686E+04  0.10000000000E+01 0.  0.
         -4    1    1    2    0  502  0.30224982420E+02  0.22411676330E+02 -0.52314634849E+02  0.64453601277E+02  0.12700000000E+01 0. -1.
<mgrwt>
<rscale>  1 0.13054080E+03</rscale>
<asrwt>0</asrwt>
<pdfrwt beam="1">  1       21 0.13073174E-02 0.13054080E+03</pdfrwt>
<pdfrwt beam="2">  1       -4 0.27889735E+00 0.13054080E+03</pdfrwt>
<totfact> 0.50020486E+03</totfact>
</mgrwt>
</event>
<event>
 6    4  0.3995738E-003  0.1414783E+03  0.7818608E-02  0.1211353E+00
          4   -1    0    0  502    0 -0.00000000000E+00  0.00000000000E+00  0.13064540404E+04  0.13064546577E+04  0.12700000000E+01 0.  1.
         21   -1    0    0  501  502  0.00000000000E+00 -0.00000000000E+00 -0.24423279707E+02  0.24423279707E+02  0.00000000000E+00 0. -1.
         25    2    1    2    0    0  0.62069026725E+02  0.23217214848E+02  0.12486976386E+04  0.12566868795E+04  0.12499806905E+03 0.  0.
    9000005    1    3    3    0    0 -0.17477508932E+02  0.34933798469E+02  0.14850657769E+03  0.15356118393E+03  0.10000000000E+01 0.  0.
    9000005    1    3    3    0    0  0.79546535657E+02 -0.11716583621E+02  0.11001910609E+04  0.11031256956E+04  0.10000000000E+01 0.  0.
          4    1    1    2  501    0 -0.62069026725E+02 -0.23217214848E+02  0.33333122077E+02  0.74191057893E+02  0.12700000000E+01 0. -1.
<mgrwt>
<rscale>  1 0.14147834E+03</rscale>
<asrwt>0</asrwt>
<pdfrwt beam="2">  1       21 0.37574286E-02 0.14147834E+03</pdfrwt>
<pdfrwt beam="1">  1        4 0.20099546E+00 0.14147834E+03</pdfrwt>
<totfact> 0.25912414E+03</totfact>
</mgrwt>
</event>
<event>
 6    4  0.3995738E-003  0.1293994E+03  0.7818608E-02  0.1228350E+00
         21   -1    0    0  501  502  0.00000000000E+00  0.00000000000E+00  0.48768016295E+03  0.48768016295E+03  0.00000000000E+00 0. -1.
          4   -1    0    0  502    0 -0.00000000000E+00 -0.00000000000E+00 -0.14960544063E+02  0.15014352423E+02  0.12700000000E+01 0. -1.
         25    2    1    2    0    0  0.25512322628E+02 -0.21665537179E+02  0.29937482278E+03  0.32614337450E+03  0.12499576836E+03 0.  0.
    9000005    1    3    3    0    0  0.48881925077E+02  0.11880958020E+02  0.27273141174E+03  0.27733377492E+03  0.10000000000E+01 0.  0.
    9000005    1    3    3    0    0 -0.23369602449E+02 -0.33546495199E+02  0.26643411037E+02  0.48809599573E+02  0.10000000000E+01 0.  0.
          4    1    1    2  501    0 -0.25512322628E+02  0.21665537179E+02  0.17334479611E+03  0.17655114088E+03  0.12700000000E+01 0.  1.
<mgrwt>
<rscale>  1 0.12939944E+03</rscale>
<asrwt>0</asrwt>
<pdfrwt beam="1">  1       21 0.75027705E-01 0.12939944E+03</pdfrwt>
<pdfrwt beam="2">  1        4 0.23058888E-02 0.12939944E+03</pdfrwt>
<totfact> 0.52651193E+04</totfact>
</mgrwt>
</event>
<event>
 6    4  0.3995738E-003  0.1270846E+03  0.7818608E-02  0.1231847E+00
          4   -1    0    0  502    0 -0.00000000000E+00  0.00000000000E+00  0.10078247586E+03  0.10079047743E+03  0.12700000000E+01 0. -1.
         21   -1    0    0  501  502  0.00000000000E+00 -0.00000000000E+00 -0.61794998203E+02  0.61794998203E+02  0.00000000000E+00 0. -1.
         25    2    1    2    0    0 -0.18451619500E+02  0.13592224535E+02  0.12745842357E+02  0.12772221197E+03  0.12500118441E+03 0.  0.
    9000005    1    3    3    0    0  0.43750392157E+02 -0.27725743176E+02 -0.85576761881E+00  0.51812604516E+02  0.10000000000E+01 0.  0.
    9000005    1    3    3    0    0 -0.62202011657E+02  0.41317967710E+02  0.13601609976E+02  0.75909607454E+02  0.10000000000E+01 0.  0.
          4    1    1    2  501    0  0.18451619500E+02 -0.13592224535E+02  0.26241635300E+02  0.34863263662E+02  0.12700000000E+01 0.  1.
<mgrwt>
<rscale>  1 0.12708464E+03</rscale>
<asrwt>0</asrwt>
<pdfrwt beam="2">  1       21 0.95069228E-02 0.12708464E+03</pdfrwt>
<pdfrwt beam="1">  1        4 0.15506616E-01 0.12708464E+03</pdfrwt>
<totfact> 0.12557199E+05</totfact>
</mgrwt>
</event>
<event>
 6    4  0.3995738E-003  0.1271766E+03  0.7818608E-02  0.1231706E+00
          4   -1    0    0  502    0 -0.00000000000E+00  0.00000000000E+00  0.18450061042E+03  0.18450498136E+03  0.12700000000E+01 0. -1.
         21   -1    0    0  501  502  0.00000000000E+00 -0.00000000000E+00 -0.26169767804E+03  0.26169767804E+03  0.00000000000E+00 0.  1.
         25    2    1    2    0    0 -0.11131388158E+02 -0.20607367080E+02  0.16194512911E+03  0.20591288739E+03  0.12500128388E+03 0.  0.
    9000005    1    3    3    0    0 -0.43045849333E+02 -0.55516456368E+02  0.55861434356E+02  0.89758130109E+02  0.10000000000E+01 0.  0.
    9000005    1    3    3    0    0  0.31914461175E+02  0.34909089288E+02  0.10608369475E+03  0.11615475728E+03  0.10000000000E+01 0.  0.
          4    1    1    2  501    0  0.11131388158E+02  0.20607367080E+02 -0.23914219672E+03  0.24028977201E+03  0.12700000000E+01 0.  1.
<mgrwt>
<rscale>  1 0.12717662E+03</rscale>
<asrwt>0</asrwt>
<pdfrwt beam="2">  1       21 0.40261181E-01 0.12717662E+03</pdfrwt>
<pdfrwt beam="1">  1        4 0.28385283E-01 0.12717662E+03</pdfrwt>
<totfact> 0.29018957E+03</totfact>
</mgrwt>
</event>
<event>
 6    4  0.3995738E-003  0.1284140E+03  0.7818608E-02  0.1229828E+00
          4   -1    0    0  502    0 -0.00000000000E+00  0.00000000000E+00  0.46100355846E+02  0.46117845885E+02  0.12700000000E+01 0.  1.
         21   -1    0    0  501  502  0.00000000000E+00 -0.00000000000E+00 -0.16291359181E+03  0.16291359181E+03  0.00000000000E+00 0.  1.
         25    2    1    2    0    0 -0.23241697229E+02 -0.18027168318E+02 -0.53318504012E+02  0.13904323031E+03  0.12500000695E+03 0.  0.
    9000005    1    3    3    0    0 -0.50841867686E+02 -0.47847535368E+02  0.26496227036E+01  0.69873476020E+02  0.10000000000E+01 0.  0.
    9000005    1    3    3    0    0  0.27600170457E+02  0.29820367050E+02 -0.55968126715E+02  0.69169754288E+02  0.10000000000E+01 0.  0.
          4    1    1    2  501    0  0.23241697229E+02  0.18027168318E+02 -0.63494731956E+02  0.69988207391E+02  0.12700000000E+01 0. -1.
<mgrwt>
<rscale>  1 0.12841401E+03</rscale>
<asrwt>0</asrwt>
<pdfrwt beam="2">  1       21 0.25063629E-01 0.12841401E+03</pdfrwt>
<pdfrwt beam="1">  1        4 0.70940886E-02 0.12841401E+03</pdfrwt>
<totfact> 0.81649582E+04</totfact>
</mgrwt>
</event>
<event>
 6    4  0.3995738E-003  0.1301540E+03  0.7818608E-02  0.1227227E+00
         21   -1    0    0  501  502  0.00000000000E+00  0.00000000000E+00  0.63826962225E+03  0.63826962225E+03  0.00000000000E+00 0. -1.
          4   -1    0    0  502    0 -0.00000000000E+00 -0.00000000000E+00 -0.18353360278E+02  0.18397247987E+02  0.12700000000E+01 0.  1.
         25    2    1    2    0    0 -0.16111206597E+02  0.32491775952E+02  0.22382261255E+03  0.25891433600E+03  0.12499914005E+03 0.  0.
    9000005    1    3    3    0    0 -0.93161559499E+00  0.22278224766E+01 -0.16252584860E+02  0.16461397730E+02  0.10000000000E+01 0.  0.
    9000005    1    3    3    0    0 -0.15179591002E+02  0.30263953475E+02  0.24007519741E+03  0.24245293827E+03  0.10000000000E+01 0.  0.
          4    1    1    2  501    0  0.16111206597E+02 -0.32491775952E+02  0.39609364942E+03  0.39775253424E+03  0.12700000000E+01 0. -1.
<mgrwt>
<rscale>  1 0.13015403E+03</rscale>
<asrwt>0</asrwt>
<pdfrwt beam="1">  1       21 0.98195310E-01 0.13015403E+03</pdfrwt>
<pdfrwt beam="2">  1        4 0.28270675E-02 0.13015403E+03</pdfrwt>
<totfact> 0.20856327E+04</totfact>
</mgrwt>
</event>
<event>
 6    4  0.3995738E-003  0.1272762E+03  0.7818608E-02  0.1231554E+00
          4   -1    0    0  502    0 -0.00000000000E+00  0.00000000000E+00  0.24176515046E+03  0.24176848612E+03  0.12700000000E+01 0.  1.
         21   -1    0    0  501  502  0.00000000000E+00 -0.00000000000E+00 -0.38120507292E+02  0.38120507292E+02  0.00000000000E+00 0. -1.
         25    2    1    2    0    0  0.20896626342E+02 -0.11613063856E+02  0.21766490860E+03  0.25214529165E+03  0.12501081321E+03 0.  0.
    9000005    1    3    3    0    0  0.24775583140E+01  0.30976174465E+02  0.20013048955E+03  0.20253116927E+03  0.10000000000E+01 0.  0.
    9000005    1    3    3    0    0  0.18419068028E+02 -0.42589238321E+02  0.17534419052E+02  0.49614122377E+02  0.10000000000E+01 0.  0.
          4    1    1    2  501    0 -0.20896626342E+02  0.11613063856E+02 -0.14020265429E+02  0.27743701759E+02  0.12700000000E+01 0. -1.
<mgrwt>
<rscale>  1 0.12727622E+03</rscale>
<asrwt>0</asrwt>
<pdfrwt beam="2">  1       21 0.58646936E-02 0.12727622E+03</pdfrwt>
<pdfrwt beam="1">  1        4 0.37196522E-01 0.12727622E+03</pdfrwt>
<totfact> 0.57608125E+04</totfact>
</mgrwt>
</event>
<event>
 6    4  0.3995738E-003  0.1284610E+03  0.7818608E-02  0.1229757E+00
          4   -1    0    0  502    0 -0.00000000000E+00  0.00000000000E+00  0.12753655269E+03  0.12754287582E+03  0.12700000000E+01 0. -1.
         21   -1    0    0  501  502  0.00000000000E+00 -0.00000000000E+00 -0.49603380483E+02  0.49603380483E+02  0.00000000000E+00 0. -1.
         25    2    1    2    0    0 -0.15239757189E+02 -0.25389795099E+02  0.55323428768E+02  0.13986750508E+03  0.12500138124E+03 0.  0.
    9000005    1    3    3    0    0 -0.32811795082E+02 -0.11538994166E+02  0.91178335294E+02  0.97592269724E+02  0.10000000000E+01 0.  0.
    9000005    1    3    3    0    0  0.17572037893E+02 -0.13850800933E+02 -0.35854906527E+02  0.42275235354E+02  0.10000000000E+01 0.  0.
          4    1    1    2  501    0  0.15239757189E+02  0.25389795099E+02  0.22609743439E+02  0.37278751223E+02  0.12700000000E+01 0.  1.
<mgrwt>
<rscale>  1 0.12846103E+03</rscale>
<asrwt>0</asrwt>
<pdfrwt beam="2">  1       21 0.76312894E-02 0.12846103E+03</pdfrwt>
<pdfrwt beam="1">  1        4 0.19622745E-01 0.12846103E+03</pdfrwt>
<totfact> 0.12126568E+05</totfact>
</mgrwt>
</event>
<event>
 6    4  0.3995738E-003  0.1276100E+03  0.7818608E-02  0.1231046E+00
         -4   -1    0    0    0  501 -0.00000000000E+00  0.00000000000E+00  0.25045623670E+02  0.25077802237E+02  0.12700000000E+01 0. -1.
         21   -1    0    0  501  502  0.00000000000E+00 -0.00000000000E+00 -0.26508127280E+03  0.26508127280E+03  0.00000000000E+00 0. -1.
         25    2    1    2    0    0 -0.17569834579E+02  0.18707415976E+02 -0.15207669029E+03  0.19852361335E+03  0.12500255528E+03 0.  0.
    9000005    1    3    3    0    0  0.67193228980E+01  0.65495035516E+02 -0.11979825026E+03  0.13670175472E+03  0.10000000000E+01 0.  0.
    9000005    1    3    3    0    0 -0.24289157477E+02 -0.46787619539E+02 -0.32278440028E+02  0.61821858624E+02  0.10000000000E+01 0.  0.
         -4    1    1    2    0  502  0.17569834579E+02 -0.18707415976E+02 -0.87958958834E+02  0.91635461688E+02  0.12700000000E+01 0.  1.
<mgrwt>
<rscale>  1 0.12760997E+03</rscale>
<asrwt>0</asrwt>
<pdfrwt beam="2">  1       21 0.40781737E-01 0.12760997E+03</pdfrwt>
<pdfrwt beam="1">  1       -4 0.38558819E-02 0.12760997E+03</pdfrwt>
<totfact> 0.84539204E+04</totfact>
</mgrwt>
</event>
<event>
 6    4  0.3995738E-003  0.1296680E+03  0.7818608E-02  0.1227949E+00
         -4   -1    0    0    0  501 -0.00000000000E+00  0.00000000000E+00  0.36066115141E+03  0.36066338744E+03  0.12700000000E+01 0.  1.
         21   -1    0    0  501  502  0.00000000000E+00 -0.00000000000E+00 -0.23207604735E+02  0.23207604735E+02  0.00000000000E+00 0.  1.
         25    2    1    2    0    0 -0.28544644549E+02  0.19382125074E+02  0.31981055334E+03  0.34509791364E+03  0.12499326569E+03 0.  0.
    9000005    1    3    3    0    0 -0.20131744876E+02 -0.42682145652E+02  0.52733232607E+02  0.70773204890E+02  0.10000000000E+01 0.  0.
    9000005    1    3    3    0    0 -0.84128996729E+01  0.62064270726E+02  0.26707732074E+03  0.27432470875E+03  0.10000000000E+01 0.  0.
         -4    1    1    2    0  502  0.28544644549E+02 -0.19382125074E+02  0.17642993337E+02  0.38773078530E+02  0.12700000000E+01 0. -1.
<mgrwt>
<rscale>  1 0.12966796E+03</rscale>
<asrwt>0</asrwt>
<pdfrwt beam="2">  1       21 0.35704010E-02 0.12966796E+03</pdfrwt>
<pdfrwt beam="1">  1       -4 0.55489172E-01 0.12966796E+03</pdfrwt>
<totfact> 0.59389479E+04</totfact>
</mgrwt>
</event>
<event>
 6    4  0.3995738E-003  0.1275220E+03  0.7818608E-02  0.1231180E+00
         21   -1    0    0  501  502  0.00000000000E+00  0.00000000000E+00  0.19618730708E+03  0.19618730708E+03  0.00000000000E+00 0. -1.
         -4   -1    0    0    0  501 -0.00000000000E+00 -0.00000000000E+00 -0.29803299221E+02  0.29830346033E+02  0.12700000000E+01 0. -1.
         25    2    1    2    0    0  0.61649986824E+01  0.24477711386E+02  0.14276160219E+03  0.19142290621E+03  0.12499875359E+03 0.  0.
    9000005    1    3    3    0    0 -0.27264345320E+01  0.74737391308E+02  0.69290320207E+02  0.10195714580E+03  0.10000000000E+01 0.  0.
    9000005    1    3    3    0    0  0.88914332144E+01 -0.50259679922E+02  0.73471281983E+02  0.89465760415E+02  0.10000000000E+01 0.  0.
         -4    1    1    2    0  502 -0.61649986824E+01 -0.24477711386E+02  0.23622405666E+02  0.34594746897E+02  0.12700000000E+01 0.  1.
<mgrwt>
<rscale>  1 0.12752197E+03</rscale>
<asrwt>0</asrwt>
<pdfrwt beam="1">  1       21 0.30182662E-01 0.12752197E+03</pdfrwt>
<pdfrwt beam="2">  1       -4 0.45875198E-02 0.12752197E+03</pdfrwt>
<totfact> 0.11584186E+05</totfact>
</mgrwt>
</event>
<event>
 6    4  0.3995738E-003  0.1336491E+03  0.7818608E-02  0.1222139E+00
          4   -1    0    0  502    0 -0.00000000000E+00  0.00000000000E+00  0.67719514988E+03  0.67719634075E+03  0.12700000000E+01 0.  1.
         21   -1    0    0  501  502  0.00000000000E+00 -0.00000000000E+00 -0.39219239034E+02  0.39219239034E+02  0.00000000000E+00 0. -1.
         25    2    1    2    0    0  0.17988612725E+02  0.43748363233E+02  0.65318048791E+03  0.66671345169E+03  0.12499826962E+03 0.  0.
    9000005    1    3    3    0    0  0.77198094249E+01  0.96843894732E+01  0.61263982702E+03  0.61276581212E+03  0.10000000000E+01 0.  0.
    9000005    1    3    3    0    0  0.10268803300E+02  0.34063973760E+02  0.40540660887E+02  0.53947639565E+02  0.10000000000E+01 0.  0.
          4    1    1    2  501    0 -0.17988612725E+02 -0.43748363233E+02 -0.15204577060E+02  0.49702128092E+02  0.12700000000E+01 0. -1.
<mgrwt>
<rscale>  1 0.13364908E+03</rscale>
<asrwt>0</asrwt>
<pdfrwt beam="2">  1       21 0.60337296E-02 0.13364908E+03</pdfrwt>
<pdfrwt beam="1">  1        4 0.10418553E+00 0.13364908E+03</pdfrwt>
<totfact> 0.62200773E+03</totfact>
</mgrwt>
</event>
<event>
 6    4  0.3995738E-003  0.1645553E+03  0.7818608E-02  0.1183648E+00
         -4   -1    0    0    0  501 -0.00000000000E+00  0.00000000000E+00  0.20676288409E+03  0.20676678442E+03  0.12700000000E+01 0. -1.
         21   -1    0    0  501  502  0.00000000000E+00 -0.00000000000E+00 -0.39063807761E+03  0.39063807761E+03  0.00000000000E+00 0.  1.
         25    2    1    2    0    0 -0.92560845521E+02 -0.53732532458E+02  0.16466877731E+03  0.23279656856E+03  0.12499496367E+03 0.  0.
    9000005    1    3    3    0    0  0.93947460004E+01  0.29467758535E+02  0.46941559532E+02  0.56223838866E+02  0.10000000000E+01 0.  0.
    9000005    1    3    3    0    0 -0.10195559152E+03 -0.83200290993E+02  0.11772721778E+03  0.17657272969E+03  0.10000000000E+01 0.  0.
         -4    1    1    2    0  502  0.92560845521E+02  0.53732532458E+02 -0.34854397083E+03  0.36460829347E+03  0.12700000000E+01 0.  1.
<mgrwt>
<rscale>  1 0.16455527E+03</rscale>
<asrwt>0</asrwt>
<pdfrwt beam="2">  1       21 0.60098165E-01 0.16455527E+03</pdfrwt>
<pdfrwt beam="1">  1       -4 0.31810134E-01 0.16455527E+03</pdfrwt>
<totfact> 0.10310420E+03</totfact>
</mgrwt>
</event>
<event>
 6    4  0.3995738E-003  0.1533635E+03  0.7818608E-02  0.1196400E+00
         21   -1    0    0  501  502  0.00000000000E+00  0.00000000000E+00  0.97704436893E+02  0.97704436893E+02  0.00000000000E+00 0. -1.
         -4   -1    0    0    0  501 -0.00000000000E+00 -0.00000000000E+00 -0.15963846802E+03  0.15964351966E+03  0.12700000000E+01 0.  1.
         25    2    1    2    0    0 -0.87195112981E+02  0.17102089213E+02 -0.69063912565E+02  0.16819686406E+03  0.12499956752E+03 0.  0.
    9000005    1    3    3    0    0 -0.91563081095E+02  0.16344057366E+02 -0.10020713553E+03  0.13672379472E+03  0.10000000000E+01 0.  0.
    9000005    1    3    3    0    0  0.43679681147E+01  0.75803184670E+00  0.31143222962E+02  0.31473069348E+02  0.10000000000E+01 0.  0.
         -4    1    1    2    0  502  0.87195112981E+02 -0.17102089213E+02  0.71298814420E+01  0.89151092492E+02  0.12700000000E+01 0. -1.
<mgrwt>
<rscale>  1 0.15336349E+03</rscale>
<asrwt>0</asrwt>
<pdfrwt beam="1">  1       21 0.15031452E-01 0.15336349E+03</pdfrwt>
<pdfrwt beam="2">  1       -4 0.24560787E-01 0.15336349E+03</pdfrwt>
<totfact> 0.24938312E+04</totfact>
</mgrwt>
</event>
<event>
 6    4  0.3995738E-003  0.1272721E+03  0.7818608E-02  0.1231561E+00
          4   -1    0    0  502    0 -0.00000000000E+00  0.00000000000E+00  0.57624636218E+03  0.57624776167E+03  0.12700000000E+01 0. -1.
         21   -1    0    0  501  502  0.00000000000E+00 -0.00000000000E+00 -0.11837555650E+02  0.11837555650E+02  0.00000000000E+00 0. -1.
         25    2    1    2    0    0  0.23888331379E+02 -0.15534443480E+01  0.53605031633E+03  0.55095201109E+03  0.12500044525E+03 0.  0.
    9000005    1    3    3    0    0  0.40493053436E+01 -0.33063792173E+02  0.49257788354E+03  0.49370394223E+03  0.10000000000E+01 0.  0.
    9000005    1    3    3    0    0  0.19839026036E+02  0.31510347825E+02  0.43472432796E+02  0.57248068852E+02  0.10000000000E+01 0.  0.
          4    1    1    2  501    0 -0.23888331379E+02  0.15534443480E+01  0.28358490195E+02  0.37133306230E+02  0.12700000000E+01 0.  1.
<mgrwt>
<rscale>  1 0.12727206E+03</rscale>
<asrwt>0</asrwt>
<pdfrwt beam="2">  1       21 0.18211629E-02 0.12727206E+03</pdfrwt>
<pdfrwt beam="1">  1        4 0.88658613E-01 0.12727206E+03</pdfrwt>
<totfact> 0.64550415E+04</totfact>
</mgrwt>
</event>
<event>
 6    4  0.3995738E-003  0.1327458E+03  0.7818608E-02  0.1223437E+00
         -4   -1    0    0    0  501 -0.00000000000E+00  0.00000000000E+00  0.16479204690E+03  0.16479694057E+03  0.12700000000E+01 0.  1.
         21   -1    0    0  501  502  0.00000000000E+00 -0.00000000000E+00 -0.94815014684E+02  0.94815014684E+02  0.00000000000E+00 0. -1.
         25    2    1    2    0    0  0.15856713416E+01 -0.44653386498E+02  0.12931554627E+03  0.18532123288E+03  0.12500003828E+03 0.  0.
    9000005    1    3    3    0    0  0.36098406584E+02 -0.59065162148E+02  0.13067654525E+03  0.14788220926E+03  0.10000000000E+01 0.  0.
    9000005    1    3    3    0    0 -0.34512735243E+02  0.14411775650E+02 -0.13609989771E+01  0.37439023619E+02  0.10000000000E+01 0.  0.
         -4    1    1    2    0  502 -0.15856713416E+01  0.44653386498E+02 -0.59338514062E+02  0.74290722371E+02  0.12700000000E+01 0. -1.
<mgrwt>
<rscale>  1 0.13274581E+03</rscale>
<asrwt>0</asrwt>
<pdfrwt beam="2">  1       21 0.14586925E-01 0.13274581E+03</pdfrwt>
<pdfrwt beam="1">  1       -4 0.25353653E-01 0.13274581E+03</pdfrwt>
<totfact> 0.24467731E+04</totfact>
</mgrwt>
</event>
<event>
 6    4  0.3995738E-003  0.1307487E+03  0.7818608E-02  0.1226349E+00
          4   -1    0    0  502    0 -0.00000000000E+00  0.00000000000E+00  0.78986719891E+02  0.78996929175E+02  0.12700000000E+01 0.  1.
         21   -1    0    0  501  502  0.00000000000E+00 -0.00000000000E+00 -0.10952101370E+03  0.10952101370E+03  0.00000000000E+00 0. -1.
         25    2    1    2    0    0 -0.27762789310E+02 -0.26171951562E+02  0.12079186264E+02  0.13130548704E+03  0.12505790925E+03 0.  0.
    9000005    1    3    3    0    0 -0.21173571459E+02  0.16901816652E+02  0.60415579945E+02  0.66219587997E+02  0.10000000000E+01 0.  0.
    9000005    1    3    3    0    0 -0.65892178508E+01 -0.43073768215E+02 -0.48336393680E+02  0.65085899042E+02  0.10000000000E+01 0.  0.
          4    1    1    2  501    0  0.27762789310E+02  0.26171951562E+02 -0.42613480077E+02  0.57212455839E+02  0.12700000000E+01 0. -1.
<mgrwt>
<rscale>  1 0.13074871E+03</rscale>
<asrwt>0</asrwt>
<pdfrwt beam="2">  1       21 0.16849387E-01 0.13074871E+03</pdfrwt>
<pdfrwt beam="1">  1        4 0.12153155E-01 0.13074871E+03</pdfrwt>
<totfact> 0.69393313E+04</totfact>
</mgrwt>
</event>
<event>
 6    4  0.3995738E-003  0.1273666E+03  0.7818608E-02  0.1231416E+00
         21   -1    0    0  501  502  0.00000000000E+00  0.00000000000E+00  0.18558563384E+02  0.18558563384E+02  0.00000000000E+00 0.  1.
         -4   -1    0    0    0  501 -0.00000000000E+00 -0.00000000000E+00 -0.55224202657E+03  0.55224348688E+03  0.12700000000E+01 0.  1.
         25    2    1    2    0    0  0.17088405333E+02 -0.17533125103E+02 -0.53109010688E+03  0.54614921129E+03  0.12499134087E+03 0.  0.
    9000005    1    3    3    0    0 -0.31391523978E+02  0.31097797462E+02 -0.34447395183E+03  0.34729786103E+03  0.10000000000E+01 0.  0.
    9000005    1    3    3    0    0  0.48479929311E+02 -0.48630922565E+02 -0.18661615505E+03  0.19885135026E+03  0.10000000000E+01 0.  0.
         -4    1    1    2    0  502 -0.17088405333E+02  0.17533125103E+02 -0.25933562991E+01  0.24652838976E+02  0.12700000000E+01 0. -1.
<mgrwt>
<rscale>  1 0.12736663E+03</rscale>
<asrwt>0</asrwt>
<pdfrwt beam="1">  1       21 0.28551637E-02 0.12736663E+03</pdfrwt>
<pdfrwt beam="2">  1       -4 0.84963765E-01 0.12736663E+03</pdfrwt>
<totfact> 0.34256495E+04</totfact>
</mgrwt>
</event>
<event>
 6    4  0.3995738E-003  0.1488742E+03  0.7818608E-02  0.1201863E+00
         -4   -1    0    0    0  501 -0.00000000000E+00  0.00000000000E+00  0.12068690238E+04  0.12068696920E+04  0.12700000000E+01 0.  1.
         21   -1    0    0  501  502  0.00000000000E+00 -0.00000000000E+00 -0.13441256317E+03  0.13441256317E+03  0.00000000000E+00 0. -1.
         25    2    1    2    0    0 -0.77116581641E+02 -0.24313447116E+02  0.11896314517E+04  0.11989105504E+04  0.12500162433E+03 0.  0.
    9000005    1    3    3    0    0  0.12272935072E+02  0.33105607994E+01  0.71664039933E+03  0.71675382573E+03  0.10000000000E+01 0.  0.
    9000005    1    3    3    0    0 -0.89389516713E+02 -0.27624007916E+02  0.47299105239E+03  0.48215672468E+03  0.10000000000E+01 0.  0.
         -4    1    1    2    0  502  0.77116581641E+02  0.24313447116E+02 -0.11717499110E+03  0.14237170475E+03  0.12700000000E+01 0. -1.
<mgrwt>
<rscale>  1 0.14887416E+03</rscale>
<asrwt>0</asrwt>
<pdfrwt beam="2">  1       21 0.20678857E-01 0.14887416E+03</pdfrwt>
<pdfrwt beam="1">  1       -4 0.18567266E+00 0.14887416E+03</pdfrwt>
<totfact> 0.16488234E+02</totfact>
</mgrwt>
</event>
<event>
 6    4  0.3995738E-003  0.1506836E+03  0.7818608E-02  0.1199636E+00
          4   -1    0    0  502    0 -0.00000000000E+00  0.00000000000E+00  0.22573134641E+03  0.22573491899E+03  0.12700000000E+01 0. -1.
         21   -1    0    0  501  502  0.00000000000E+00 -0.00000000000E+00 -0.14695382734E+03  0.14695382734E+03  0.00000000000E+00 0.  1.
         25    2    1    2    0    0  0.38158677497E+02 -0.74998935025E+02  0.18407983865E+03  0.23788846320E+03  0.12499843600E+03 0.  0.
    9000005    1    3    3    0    0  0.36246779906E+02 -0.44908072414E+02  0.19684342064E+03  0.20513141220E+03  0.10000000000E+01 0.  0.
    9000005    1    3    3    0    0  0.19118975914E+01 -0.30090862611E+02 -0.12763581991E+02  0.32757051001E+02  0.10000000000E+01 0.  0.
          4    1    1    2  501    0 -0.38158677497E+02  0.74998935025E+02 -0.10530231958E+03  0.13480028313E+03  0.12700000000E+01 0.  1.
<mgrwt>
<rscale>  1 0.15068356E+03</rscale>
<asrwt>0</asrwt>
<pdfrwt beam="2">  1       21 0.22608281E-01 0.15068356E+03</pdfrwt>
<pdfrwt beam="1">  1        4 0.34728596E-01 0.15068356E+03</pdfrwt>
<totfact> 0.61010413E+03</totfact>
</mgrwt>
</event>
<event>
 6    4  0.3995738E-003  0.1268455E+03  0.7818608E-02  0.1232213E+00
         21   -1    0    0  501  502  0.00000000000E+00  0.00000000000E+00  0.54658444030E+01  0.54658444030E+01  0.00000000000E+00 0. -1.
         -4   -1    0    0    0  501 -0.00000000000E+00 -0.00000000000E+00 -0.10355350472E+04  0.10355358260E+04  0.12700000000E+01 0. -1.
         25    2    1    2    0    0 -0.93675699936E+00  0.21545966524E+02 -0.80961351195E+03  0.81948997607E+03  0.12499870386E+03 0.  0.
    9000005    1    3    3    0    0  0.35980160473E+02 -0.40044238861E+02 -0.29260320190E+03  0.29751596054E+03  0.10000000000E+01 0.  0.
    9000005    1    3    3    0    0 -0.36916917472E+02  0.61590205385E+02 -0.51701031004E+03  0.52197401553E+03  0.10000000000E+01 0.  0.
         -4    1    1    2    0  502  0.93675699936E+00 -0.21545966524E+02 -0.22045569087E+03  0.22151169433E+03  0.12700000000E+01 0.  1.
<mgrwt>
<rscale>  1 0.12684551E+03</rscale>
<asrwt>0</asrwt>
<pdfrwt beam="1">  1       21 0.84089996E-03 0.12684551E+03</pdfrwt>
<pdfrwt beam="2">  1       -4 0.15932434E+00 0.12684551E+03</pdfrwt>
<totfact> 0.53766399E+04</totfact>
</mgrwt>
</event>
<event>
 6    4  0.3995738E-003  0.1302050E+03  0.7818608E-02  0.1227152E+00
         -4   -1    0    0    0  501 -0.00000000000E+00  0.00000000000E+00  0.35293286473E+02  0.35316129036E+02  0.12700000000E+01 0.  1.
         21   -1    0    0  501  502  0.00000000000E+00 -0.00000000000E+00 -0.56623695135E+03  0.56623695135E+03  0.00000000000E+00 0. -1.
         25    2    1    2    0    0  0.24882932097E+02 -0.26624505485E+02 -0.88098158541E+02  0.15720886698E+03  0.12500127087E+03 0.  0.
    9000005    1    3    3    0    0 -0.43836626928E+02 -0.78645428509E+01 -0.71205216433E+02  0.83992164766E+02  0.10000000000E+01 0.  0.
    9000005    1    3    3    0    0  0.68719559025E+02 -0.18759962634E+02 -0.16892942107E+02  0.73216702218E+02  0.10000000000E+01 0.  0.
         -4    1    1    2    0  502 -0.24882932097E+02  0.26624505485E+02 -0.44284550633E+03  0.44434421340E+03  0.12700000000E+01 0. -1.
<mgrwt>
<rscale>  1 0.13020500E+03</rscale>
<asrwt>0</asrwt>
<pdfrwt beam="2">  1       21 0.87113370E-01 0.13020500E+03</pdfrwt>
<pdfrwt beam="1">  1       -4 0.54316035E-02 0.13020500E+03</pdfrwt>
<totfact> 0.97520372E+03</totfact>
</mgrwt>
</event>
<event>
 6    4  0.3995738E-003  0.1301772E+03  0.7818608E-02  0.1227193E+00
          4   -1    0    0  502    0 -0.00000000000E+00  0.00000000000E+00  0.33187706735E+03  0.33187949731E+03  0.12700000000E+01 0. -1.
         21   -1    0    0  501  502  0.00000000000E+00 -0.00000000000E+00 -0.44646119282E+02  0.44646119282E+02  0.00000000000E+00 0.  1.
         25    2    1    2    0    0  0.21900638646E+02  0.28992466198E+02  0.30819351667E+03  0.33455844786E+03  0.12500364094E+03 0.  0.
    9000005    1    3    3    0    0  0.31611585283E+02 -0.28325060296E+02  0.24513914190E+03  0.24878866585E+03  0.10000000000E+01 0.  0.
    9000005    1    3    3    0    0 -0.97109466368E+01  0.57317526494E+02  0.63054374771E+02  0.85769782008E+02  0.10000000000E+01 0.  0.
          4    1    1    2  501    0 -0.21900638646E+02 -0.28992466198E+02 -0.20962568598E+02  0.41967168735E+02  0.12700000000E+01 0.  1.
<mgrwt>
<rscale>  1 0.13017723E+03</rscale>
<asrwt>0</asrwt>
<pdfrwt beam="2">  1       21 0.68686340E-02 0.13017723E+03</pdfrwt>
<pdfrwt beam="1">  1        4 0.51059585E-01 0.13017723E+03</pdfrwt>
<totfact> 0.23493327E+04</totfact>
</mgrwt>
</event>
<event>
 6    4  0.3995738E-003  0.1274159E+03  0.7818608E-02  0.1231341E+00
         -4   -1    0    0    0  501 -0.00000000000E+00  0.00000000000E+00  0.21056476853E+03  0.21056859843E+03  0.12700000000E+01 0. -1.
         21   -1    0    0  501  502  0.00000000000E+00 -0.00000000000E+00 -0.28219894378E+02  0.28219894378E+02  0.00000000000E+00 0. -1.
         25    2    1    2    0    0 -0.18860784284E+02 -0.16024264637E+02  0.13685785366E+03  0.18698899306E+03  0.12498922024E+03 0.  0.
    9000005    1    3    3    0    0 -0.36974610294E+02  0.22044381288E+02 -0.74897254095E+00  0.43065502582E+02  0.10000000000E+01 0.  0.
    9000005    1    3    3    0    0  0.18113826010E+02 -0.38068645926E+02  0.13760682620E+03  0.14392349048E+03  0.10000000000E+01 0.  0.
         -4    1    1    2    0  502  0.18860784284E+02  0.16024264637E+02  0.45487020495E+02  0.51799499751E+02  0.12700000000E+01 0.  1.
<mgrwt>
<rscale>  1 0.12741590E+03</rscale>
<asrwt>0</asrwt>
<pdfrwt beam="2">  1       21 0.43415224E-02 0.12741590E+03</pdfrwt>
<pdfrwt beam="1">  1       -4 0.32397071E-01 0.12741590E+03</pdfrwt>
<totfact> 0.12458494E+05</totfact>
</mgrwt>
</event>
<event>
 6    4  0.3995738E-003  0.1317011E+03  0.7818608E-02  0.1224953E+00
         -4   -1    0    0    0  501 -0.00000000000E+00  0.00000000000E+00  0.10806239712E+03  0.10806985968E+03  0.12700000000E+01 0.  1.
         21   -1    0    0  501  502  0.00000000000E+00 -0.00000000000E+00 -0.70636924653E+02  0.70636924653E+02  0.00000000000E+00 0.  1.
         25    2    1    2    0    0  0.11837054509E+02 -0.39732081822E+02  0.38508072895E+02  0.13721535017E+03  0.12500570571E+03 0.  0.
    9000005    1    3    3    0    0  0.56841884725E+02 -0.53726229062E+02  0.44014263840E+02  0.89753902253E+02  0.10000000000E+01 0.  0.
    9000005    1    3    3    0    0 -0.45004830216E+02  0.13994147240E+02 -0.55061909442E+01  0.47461447918E+02  0.10000000000E+01 0.  0.
         -4    1    1    2    0  502 -0.11837054509E+02  0.39732081822E+02 -0.10826004277E+01  0.41491434164E+02  0.12700000000E+01 0. -1.
<mgrwt>
<rscale>  1 0.13170110E+03</rscale>
<asrwt>0</asrwt>
<pdfrwt beam="2">  1       21 0.10867219E-01 0.13170110E+03</pdfrwt>
<pdfrwt beam="1">  1       -4 0.16626436E-01 0.13170110E+03</pdfrwt>
<totfact> 0.88355039E+04</totfact>
</mgrwt>
</event>
<event>
 6    4  0.3995738E-003  0.1301849E+03  0.7818608E-02  0.1227182E+00
         21   -1    0    0  501  502  0.00000000000E+00  0.00000000000E+00  0.27280312789E+03  0.27280312789E+03  0.00000000000E+00 0. -1.
         -4   -1    0    0    0  501 -0.00000000000E+00 -0.00000000000E+00 -0.11455521247E+03  0.11456225209E+03  0.12700000000E+01 0.  1.
         25    2    1    2    0    0 -0.35191275068E+02  0.87950600211E+01 -0.75716398534E+02  0.15060243519E+03  0.12502936278E+03 0.  0.
    9000005    1    3    3    0    0 -0.74001159868E+02  0.36327699572E+02 -0.44532543133E+02  0.93701765276E+02  0.10000000000E+01 0.  0.
    9000005    1    3    3    0    0  0.38809884800E+02 -0.27532639551E+02 -0.31183855401E+02  0.56900669913E+02  0.10000000000E+01 0.  0.
         -4    1    1    2    0  502  0.35191275068E+02 -0.87950600211E+01  0.23396431396E+03  0.23676294479E+03  0.12700000000E+01 0. -1.
<mgrwt>
<rscale>  1 0.13018495E+03</rscale>
<asrwt>0</asrwt>
<pdfrwt beam="1">  1       21 0.41969712E-01 0.13018495E+03</pdfrwt>
<pdfrwt beam="2">  1       -4 0.17624648E-01 0.13018495E+03</pdfrwt>
<totfact> 0.63675721E+03</totfact>
</mgrwt>
</event>
<event>
 6    4  0.3995738E-003  0.1297140E+03  0.7818608E-02  0.1227881E+00
          4   -1    0    0  502    0 -0.00000000000E+00  0.00000000000E+00  0.13385043373E+02  0.13445158463E+02  0.12700000000E+01 0. -1.
         21   -1    0    0  501  502  0.00000000000E+00 -0.00000000000E+00 -0.89274045839E+03  0.89274045839E+03  0.00000000000E+00 0.  1.
         25    2    1    2    0    0  0.19742158398E+02 -0.28481231436E+02 -0.31359527446E+03  0.33936370222E+03  0.12499917144E+03 0.  0.
    9000005    1    3    3    0    0 -0.19295121379E+01 -0.90784921462E+01 -0.30988172365E+03  0.31002229709E+03  0.10000000000E+01 0.  0.
    9000005    1    3    3    0    0  0.21671670536E+02 -0.19402739290E+02 -0.37135508079E+01  0.29341405136E+02  0.10000000000E+01 0.  0.
          4    1    1    2  501    0 -0.19742158398E+02  0.28481231436E+02 -0.56576014055E+03  0.56682191463E+03  0.12700000000E+01 0.  1.
<mgrwt>
<rscale>  1 0.12971402E+03</rscale>
<asrwt>0</asrwt>
<pdfrwt beam="2">  1       21 0.13734467E+00 0.12971402E+03</pdfrwt>
<pdfrwt beam="1">  1        4 0.20639314E-02 0.12971402E+03</pdfrwt>
<totfact> 0.15062813E+04</totfact>
</mgrwt>
</event>
<event>
 6    4  0.3995738E-003  0.1288615E+03  0.7818608E-02  0.1229155E+00
          4   -1    0    0  502    0 -0.00000000000E+00  0.00000000000E+00  0.15344738481E+03  0.15345264027E+03  0.12700000000E+01 0.  1.
         21   -1    0    0  501  502  0.00000000000E+00 -0.00000000000E+00 -0.75755272748E+02  0.75755272748E+02  0.00000000000E+00 0. -1.
         25    2    1    2    0    0 -0.13976350433E+02 -0.28041537515E+02  0.12031162282E+03  0.17629570465E+03  0.12499449065E+03 0.  0.
    9000005    1    3    3    0    0  0.41999294445E+02 -0.23403875520E+02  0.10879682567E+03  0.11895138251E+03  0.10000000000E+01 0.  0.
    9000005    1    3    3    0    0 -0.55975644879E+02 -0.46376619946E+01  0.11514797151E+02  0.57344322141E+02  0.10000000000E+01 0.  0.
          4    1    1    2  501    0  0.13976350433E+02  0.28041537515E+02 -0.42619510759E+02  0.52912208373E+02  0.12700000000E+01 0. -1.
<mgrwt>
<rscale>  1 0.12886151E+03</rscale>
<asrwt>0</asrwt>
<pdfrwt beam="2">  1       21 0.11654657E-01 0.12886151E+03</pdfrwt>
<pdfrwt beam="1">  1        4 0.23608513E-01 0.12886151E+03</pdfrwt>
<totfact> 0.41488022E+04</totfact>
</mgrwt>
</event>
<event>
 6    4  0.3995738E-003  0.1286380E+03  0.7818608E-02  0.1229491E+00
         21   -1    0    0  501  502  0.00000000000E+00  0.00000000000E+00  0.85658940952E+02  0.85658940952E+02  0.00000000000E+00 0.  1.
         -4   -1    0    0    0  501 -0.00000000000E+00 -0.00000000000E+00 -0.17684538866E+03  0.17684994880E+03  0.12700000000E+01 0. -1.
         25    2    1    2    0    0  0.13283343005E+02 -0.27329085479E+02 -0.14920515332E+03  0.19700233119E+03  0.12499765838E+03 0.  0.
    9000005    1    3    3    0    0  0.19517380231E+02 -0.49148063075E+02 -0.74196037859E+01  0.53408901463E+02  0.10000000000E+01 0.  0.
    9000005    1    3    3    0    0 -0.62340372259E+01  0.21818977596E+02 -0.14178554953E+03  0.14359342973E+03  0.10000000000E+01 0.  0.
         -4    1    1    2    0  502 -0.13283343005E+02  0.27329085479E+02  0.58018705610E+02  0.65506558566E+02  0.12700000000E+01 0.  1.
<mgrwt>
<rscale>  1 0.12863802E+03</rscale>
<asrwt>0</asrwt>
<pdfrwt beam="1">  1       21 0.13178299E-01 0.12863802E+03</pdfrwt>
<pdfrwt beam="2">  1       -4 0.27208058E-01 0.12863802E+03</pdfrwt>
<totfact> 0.25658833E+04</totfact>
</mgrwt>
</event>
<event>
 6    4  0.3995738E-003  0.1300919E+03  0.7818608E-02  0.1227319E+00
          4   -1    0    0  502    0 -0.00000000000E+00  0.00000000000E+00  0.53139766711E+03  0.53139918471E+03  0.12700000000E+01 0.  1.
         21   -1    0    0  501  502  0.00000000000E+00 -0.00000000000E+00 -0.13229834596E+02  0.13229834596E+02  0.00000000000E+00 0.  1.
         25    2    1    2    0    0  0.24305819339E+02 -0.26545510985E+02  0.43403794961E+03  0.45311461003E+03  0.12501388369E+03 0.  0.
    9000005    1    3    3    0    0  0.10725732558E+02 -0.19135291874E+02  0.34272144092E+01  0.22224907933E+02  0.10000000000E+01 0.  0.
    9000005    1    3    3    0    0  0.13580086781E+02 -0.74102191109E+01  0.43061073520E+03  0.43088970210E+03  0.10000000000E+01 0.  0.
          4    1    1    2  501    0 -0.24305819339E+02  0.26545510985E+02  0.84129882905E+02  0.91514409274E+02  0.12700000000E+01 0. -1.
<mgrwt>
<rscale>  1 0.13009192E+03</rscale>
<asrwt>0</asrwt>
<pdfrwt beam="2">  1       21 0.20353596E-02 0.13009192E+03</pdfrwt>
<pdfrwt beam="1">  1        4 0.81758276E-01 0.13009192E+03</pdfrwt>
<totfact> 0.64867448E+04</totfact>
</mgrwt>
</event>
<event>
 6    4  0.3995738E-003  0.1282111E+03  0.7818608E-02  0.1230134E+00
         -4   -1    0    0    0  501 -0.00000000000E+00  0.00000000000E+00  0.22837144101E+02  0.22872429925E+02  0.12700000000E+01 0.  1.
         21   -1    0    0  501  502  0.00000000000E+00 -0.00000000000E+00 -0.45067796382E+03  0.45067796382E+03  0.00000000000E+00 0. -1.
         25    2    1    2    0    0  0.28366220798E+02 -0.28687308252E+01 -0.16398972441E+03  0.20816033083E+03  0.12500088608E+03 0.  0.
    9000005    1    3    3    0    0 -0.18506607057E+02 -0.46842648337E+02 -0.27738445003E+02  0.57507821548E+02  0.10000000000E+01 0.  0.
    9000005    1    3    3    0    0  0.46872827855E+02  0.43973917512E+02 -0.13625127941E+03  0.15065250928E+03  0.10000000000E+01 0.  0.
         -4    1    1    2    0  502 -0.28366220798E+02  0.28687308252E+01 -0.26385109531E+03  0.26539006292E+03  0.12700000000E+01 0. -1.
<mgrwt>
<rscale>  1 0.12821113E+03</rscale>
<asrwt>0</asrwt>
<pdfrwt beam="2">  1       21 0.69335073E-01 0.12821113E+03</pdfrwt>
<pdfrwt beam="1">  1       -4 0.35162587E-02 0.12821113E+03</pdfrwt>
<totfact> 0.32360045E+04</totfact>
</mgrwt>
</event>
<event>
 6    4  0.3995738E-003  0.1275028E+03  0.7818608E-02  0.1231209E+00
         21   -1    0    0  501  502  0.00000000000E+00  0.00000000000E+00  0.58233081748E+03  0.58233081748E+03  0.00000000000E+00 0.  1.
         -4   -1    0    0    0  501 -0.00000000000E+00 -0.00000000000E+00 -0.10670556873E+02  0.10745868228E+02  0.12700000000E+01 0.  1.
         25    2    1    2    0    0  0.21839927677E+02  0.12099134891E+02  0.40627330278E+03  0.42581093839E+03  0.12503434407E+03 0.  0.
    9000005    1    3    3    0    0  0.28162184587E+02  0.53585106662E+02  0.10168743353E+03  0.11834612978E+03  0.10000000000E+01 0.  0.
    9000005    1    3    3    0    0 -0.63222569104E+01 -0.41485971770E+02  0.30458586925E+03  0.30746480861E+03  0.10000000000E+01 0.  0.
         -4    1    1    2    0  502 -0.21839927677E+02 -0.12099134891E+02  0.16538695783E+03  0.16726574732E+03  0.12700000000E+01 0. -1.
<mgrwt>
<rscale>  1 0.12750278E+03</rscale>
<asrwt>0</asrwt>
<pdfrwt beam="1">  1       21 0.89589332E-01 0.12750278E+03</pdfrwt>
<pdfrwt beam="2">  1       -4 0.16475243E-02 0.12750278E+03</pdfrwt>
<totfact> 0.59192906E+04</totfact>
</mgrwt>
</event>
<event>
 6    4  0.3995738E-003  0.1333641E+03  0.7818608E-02  0.1222548E+00
          4   -1    0    0  502    0 -0.00000000000E+00  0.00000000000E+00  0.54679134671E+03  0.54679282158E+03  0.12700000000E+01 0. -1.
         21   -1    0    0  501  502  0.00000000000E+00 -0.00000000000E+00 -0.20494316916E+02  0.20494316916E+02  0.00000000000E+00 0. -1.
         25    2    1    2    0    0  0.25092846910E+01  0.46415180171E+02  0.49132568830E+03  0.50910403884E+03  0.12500129968E+03 0.  0.
    9000005    1    3    3    0    0 -0.60026681988E+02  0.20389311290E+02  0.19159020339E+03  0.20180865344E+03  0.10000000000E+01 0.  0.
    9000005    1    3    3    0    0  0.62535966679E+02  0.26025868881E+02  0.29973548490E+03  0.30729538540E+03  0.10000000000E+01 0.  0.
          4    1    1    2  501    0 -0.25092846910E+01 -0.46415180171E+02  0.34971341494E+02  0.58183099659E+02  0.12700000000E+01 0.  1.
<mgrwt>
<rscale>  1 0.13336413E+03</rscale>
<asrwt>0</asrwt>
<pdfrwt beam="2">  1       21 0.31529723E-02 0.13336413E+03</pdfrwt>
<pdfrwt beam="1">  1        4 0.84124875E-01 0.13336413E+03</pdfrwt>
<totfact> 0.29932158E+04</totfact>
</mgrwt>
</event>
<event>
 6    4  0.3995738E-003  0.1269897E+03  0.7818608E-02  0.1231992E+00
          4   -1    0    0  502    0 -0.00000000000E+00  0.00000000000E+00  0.21540316075E+02  0.21577722693E+02  0.12700000000E+01 0.  1.
         21   -1    0    0  501  502  0.00000000000E+00 -0.00000000000E+00 -0.32290764954E+03  0.32290764954E+03  0.00000000000E+00 0.  1.
         25    2    1    2    0    0  0.81116540610E+01  0.20794512337E+02 -0.17537164876E+03  0.21652156430E+03  0.12501264714E+03 0.  0.
    9000005    1    3    3    0    0  0.15933256108E+02  0.84294436804E+01  0.16279946265E+02  0.24309685752E+02  0.10000000000E+01 0.  0.
    9000005    1    3    3    0    0 -0.78216020471E+01  0.12365068657E+02 -0.19165159502E+03  0.19221187855E+03  0.10000000000E+01 0.  0.
          4    1    1    2  501    0 -0.81116540610E+01 -0.20794512337E+02 -0.12599568471E+03  0.12796380794E+03  0.12700000000E+01 0. -1.
<mgrwt>
<rscale>  1 0.12698966E+03</rscale>
<asrwt>0</asrwt>
<pdfrwt beam="2">  1       21 0.49678098E-01 0.12698966E+03</pdfrwt>
<pdfrwt beam="1">  1        4 0.33169644E-02 0.12698966E+03</pdfrwt>
<totfact> 0.71750806E+04</totfact>
</mgrwt>
</event>
<event>
 6    4  0.3995738E-003  0.1268302E+03  0.7818608E-02  0.1232236E+00
         21   -1    0    0  501  502  0.00000000000E+00  0.00000000000E+00  0.26781860896E+03  0.26781860896E+03  0.00000000000E+00 0.  1.
         -4   -1    0    0    0  501 -0.00000000000E+00 -0.00000000000E+00 -0.25032475191E+02  0.25064670637E+02  0.12700000000E+01 0.  1.
         25    2    1    2    0    0  0.14525801167E+02 -0.15778349948E+02  0.14445287713E+03  0.19223042326E+03  0.12500378670E+03 0.  0.
    9000005    1    3    3    0    0  0.22243183614E+02 -0.69199255663E+02  0.78210050737E+02  0.10677597219E+03  0.10000000000E+01 0.  0.
    9000005    1    3    3    0    0 -0.77173824476E+01  0.53420905715E+02  0.66242826391E+02  0.85454451069E+02  0.10000000000E+01 0.  0.
         -4    1    1    2    0  502 -0.14525801167E+02  0.15778349948E+02  0.98333256637E+02  0.10065285633E+03  0.12700000000E+01 0. -1.
<mgrwt>
<rscale>  1 0.12683021E+03</rscale>
<asrwt>0</asrwt>
<pdfrwt beam="1">  1       21 0.41202861E-01 0.12683021E+03</pdfrwt>
<pdfrwt beam="2">  1       -4 0.38538584E-02 0.12683021E+03</pdfrwt>
<totfact> 0.82820728E+04</totfact>
</mgrwt>
</event>
<event>
 6    4  0.3995738E-003  0.1268108E+03  0.7818608E-02  0.1232266E+00
         21   -1    0    0  501  502  0.00000000000E+00  0.00000000000E+00  0.42178766802E+01  0.42178766802E+01  0.00000000000E+00 0. -1.
          4   -1    0    0  502    0 -0.00000000000E+00 -0.00000000000E+00 -0.15596492208E+04  0.15596497378E+04  0.12700000000E+01 0.  1.
         25    2    1    2    0    0 -0.19578603827E+02  0.85976714339E+01 -0.14808868009E+04  0.14863063903E+04  0.12499490833E+03 0.  0.
    9000005    1    3    3    0    0 -0.91212654912E+01 -0.26167263431E+02 -0.75185551386E+02  0.80136073629E+02  0.10000000000E+01 0.  0.
    9000005    1    3    3    0    0 -0.10457338336E+02  0.34764934864E+02 -0.14057012495E+04  0.14061703167E+04  0.10000000000E+01 0.  0.
          4    1    1    2  501    0  0.19578603827E+02 -0.85976714339E+01 -0.74544543158E+02  0.77561224182E+02  0.12700000000E+01 0. -1.
<mgrwt>
<rscale>  1 0.12681076E+03</rscale>
<asrwt>0</asrwt>
<pdfrwt beam="1">  1       21 0.64890244E-03 0.12681076E+03</pdfrwt>
<pdfrwt beam="2">  1        4 0.23996140E+00 0.12681076E+03</pdfrwt>
<totfact> 0.25126266E+04</totfact>
</mgrwt>
</event>
<event>
 6    4  0.3995738E-003  0.1347938E+03  0.7818608E-02  0.1220511E+00
         21   -1    0    0  501  502  0.00000000000E+00  0.00000000000E+00  0.37899546662E+02  0.37899546662E+02  0.00000000000E+00 0. -1.
         -4   -1    0    0    0  501 -0.00000000000E+00 -0.00000000000E+00 -0.22635767914E+03  0.22636124183E+03  0.12700000000E+01 0.  1.
         25    2    1    2    0    0 -0.48819265902E+02 -0.12658743275E+02 -0.13620594888E+03  0.19162837084E+03  0.12500322994E+03 0.  0.
    9000005    1    3    3    0    0  0.76944633135E+01 -0.59766912586E+02 -0.72698525795E+02  0.94431796861E+02  0.10000000000E+01 0.  0.
    9000005    1    3    3    0    0 -0.56513729216E+02  0.47108169310E+02 -0.63507423087E+02  0.97196573977E+02  0.10000000000E+01 0.  0.
         -4    1    1    2    0  502  0.48819265902E+02  0.12658743275E+02 -0.52252183594E+02  0.72632417658E+02  0.12700000000E+01 0. -1.
<mgrwt>
<rscale>  1 0.13479381E+03</rscale>
<asrwt>0</asrwt>
<pdfrwt beam="1">  1       21 0.58306996E-02 0.13479381E+03</pdfrwt>
<pdfrwt beam="2">  1       -4 0.34826169E-01 0.13479381E+03</pdfrwt>
<totfact> 0.66598267E+04</totfact>
</mgrwt>
</event>
<event>
 6    4  0.3995738E-003  0.1272912E+03  0.7818608E-02  0.1231531E+00
          4   -1    0    0  502    0 -0.00000000000E+00  0.00000000000E+00  0.18410724175E+03  0.18411162203E+03  0.12700000000E+01 0.  1.
         21   -1    0    0  501  502  0.00000000000E+00 -0.00000000000E+00 -0.50868134246E+02  0.50868134246E+02  0.00000000000E+00 0. -1.
         25    2    1    2    0    0 -0.20015515720E+02 -0.13323738332E+02  0.15634362696E+03  0.20160949119E+03  0.12499965749E+03 0.  0.
    9000005    1    3    3    0    0  0.12890377087E+02 -0.18194643718E+02  0.16557555351E+03  0.16707324981E+03  0.10000000000E+01 0.  0.
    9000005    1    3    3    0    0 -0.32905892807E+02  0.48709053857E+01 -0.92319265482E+01  0.34536241378E+02  0.10000000000E+01 0.  0.
          4    1    1    2  501    0  0.20015515720E+02  0.13323738332E+02 -0.23104519456E+02  0.33370265087E+02  0.12700000000E+01 0. -1.
<mgrwt>
<rscale>  1 0.12729123E+03</rscale>
<asrwt>0</asrwt>
<pdfrwt beam="2">  1       21 0.78258669E-02 0.12729123E+03</pdfrwt>
<pdfrwt beam="1">  1        4 0.28325747E-01 0.12729123E+03</pdfrwt>
<totfact> 0.59206179E+04</totfact>
</mgrwt>
</event>
<event>
 6    4  0.3995738E-003  0.1277535E+03  0.7818608E-02  0.1230828E+00
          4   -1    0    0  502    0 -0.00000000000E+00  0.00000000000E+00  0.99247926501E+01  0.10005718822E+02  0.12700000000E+01 0. -1.
         21   -1    0    0  501  502  0.00000000000E+00 -0.00000000000E+00 -0.13742402801E+04  0.13742402801E+04  0.00000000000E+00 0.  1.
         25    2    1    2    0    0 -0.25565115405E+02 -0.65321950740E+01 -0.40729152326E+03  0.42685750639E+03  0.12499880457E+03 0.  0.
    9000005    1    3    3    0    0 -0.44877757148E+02  0.27577374346E+02 -0.71652696723E+02  0.88936120953E+02  0.10000000000E+01 0.  0.
    9000005    1    3    3    0    0  0.19312641743E+02 -0.34109569420E+02 -0.33563882654E+03  0.33792138544E+03  0.10000000000E+01 0.  0.
          4    1    1    2  501    0  0.25565115405E+02  0.65321950740E+01 -0.95702396416E+03  0.95738849250E+03  0.12700000000E+01 0.  1.
<mgrwt>
<rscale>  1 0.12775346E+03</rscale>
<asrwt>0</asrwt>
<pdfrwt beam="2">  1       21 0.21142146E+00 0.12775346E+03</pdfrwt>
<pdfrwt beam="1">  1        4 0.15331623E-02 0.12775346E+03</pdfrwt>
<totfact> 0.73388901E+03</totfact>
</mgrwt>
</event>
<event>
 6    4  0.3995738E-003  0.1280960E+03  0.7818608E-02  0.1230309E+00
         21   -1    0    0  501  502  0.00000000000E+00  0.00000000000E+00  0.59036286132E+02  0.59036286132E+02  0.00000000000E+00 0.  1.
          4   -1    0    0  502    0 -0.00000000000E+00 -0.00000000000E+00 -0.10513493731E+03  0.10514260765E+03  0.12700000000E+01 0.  1.
         25    2    1    2    0    0 -0.12732727475E+02  0.24928830627E+02 -0.46155782669E+02  0.13615773910E+03  0.12500001879E+03 0.  0.
    9000005    1    3    3    0    0 -0.28953275940E+02 -0.35716166930E+02  0.15136800057E+02  0.48415488057E+02  0.10000000000E+01 0.  0.
    9000005    1    3    3    0    0  0.16220548465E+02  0.60644997557E+02 -0.61292582726E+02  0.87742251045E+02  0.10000000000E+01 0.  0.
          4    1    1    2  501    0  0.12732727475E+02 -0.24928830627E+02  0.57131493374E-01  0.28021154676E+02  0.12700000000E+01 0. -1.
<mgrwt>
<rscale>  1 0.12809595E+03</rscale>
<asrwt>0</asrwt>
<pdfrwt beam="1">  1       21 0.90825055E-02 0.12809595E+03</pdfrwt>
<pdfrwt beam="2">  1        4 0.16176247E-01 0.12809595E+03</pdfrwt>
<totfact> 0.12639811E+05</totfact>
</mgrwt>
</event>
<event>
 6    4  0.3995738E-003  0.1288610E+03  0.7818608E-02  0.1229156E+00
         21   -1    0    0  501  502  0.00000000000E+00  0.00000000000E+00  0.10100945320E+04  0.10100945320E+04  0.00000000000E+00 0.  1.
         -4   -1    0    0    0  501 -0.00000000000E+00 -0.00000000000E+00 -0.19477332253E+02  0.19518692879E+02  0.12700000000E+01 0. -1.
         25    2    1    2    0    0  0.67261392675E+01 -0.30579850565E+02  0.19715113143E+03  0.23552860553E+03  0.12499914876E+03 0.  0.
    9000005    1    3    3    0    0 -0.26115686267E+02  0.28069340773E+02  0.14677062018E+02  0.41064986425E+02  0.10000000000E+01 0.  0.
    9000005    1    3    3    0    0  0.32841825534E+02 -0.58649191338E+02  0.18247406941E+03  0.19446361911E+03  0.10000000000E+01 0.  0.
         -4    1    1    2    0  502 -0.67261392675E+01  0.30579850565E+02  0.79346606831E+03  0.79408461933E+03  0.12700000000E+01 0.  1.
<mgrwt>
<rscale>  1 0.12886099E+03</rscale>
<asrwt>0</asrwt>
<pdfrwt beam="1">  1       21 0.15539912E+00 0.12886099E+03</pdfrwt>
<pdfrwt beam="2">  1       -4 0.29997564E-02 0.12886099E+03</pdfrwt>
<totfact> 0.61331494E+03</totfact>
</mgrwt>
</event>
<event>
 6    4  0.3995738E-003  0.1268379E+03  0.7818608E-02  0.1232225E+00
         21   -1    0    0  501  502  0.00000000000E+00  0.00000000000E+00  0.58637442318E+03  0.58637442318E+03  0.00000000000E+00 0.  1.
          4   -1    0    0  502    0 -0.00000000000E+00 -0.00000000000E+00 -0.13126213218E+02  0.13187508235E+02  0.12700000000E+01 0. -1.
         25    2    1    2    0    0 -0.39431051365E+01 -0.21149708303E+02  0.30328026474E+03  0.32873511852E+03  0.12500000369E+03 0.  0.
    9000005    1    3    3    0    0 -0.59517914317E+02 -0.32908956988E+02  0.19382815534E+03  0.20541600565E+03  0.10000000000E+01 0.  0.
    9000005    1    3    3    0    0  0.55574809180E+02  0.11759248685E+02  0.10945210940E+03  0.12331911286E+03  0.10000000000E+01 0.  0.
          4    1    1    2  501    0  0.39431051365E+01  0.21149708303E+02  0.26996794521E+03  0.27082681290E+03  0.12700000000E+01 0.  1.
<mgrwt>
<rscale>  1 0.12683792E+03</rscale>
<asrwt>0</asrwt>
<pdfrwt beam="1">  1       21 0.90211430E-01 0.12683792E+03</pdfrwt>
<pdfrwt beam="2">  1        4 0.20242387E-02 0.12683792E+03</pdfrwt>
<totfact> 0.42467991E+04</totfact>
</mgrwt>
</event>
<event>
 6    4  0.3995738E-003  0.1278501E+03  0.7818608E-02  0.1230681E+00
         21   -1    0    0  501  502  0.00000000000E+00  0.00000000000E+00  0.49022400480E+02  0.49022400480E+02  0.00000000000E+00 0.  1.
          4   -1    0    0  502    0 -0.00000000000E+00 -0.00000000000E+00 -0.12343066656E+03  0.12343720002E+03  0.12700000000E+01 0.  1.
         25    2    1    2    0    0  0.20600033219E+02  0.17212241972E+02 -0.68094804442E+02  0.14485352616E+03  0.12500007603E+03 0.  0.
    9000005    1    3    3    0    0  0.18729010504E+02 -0.28810045109E+02 -0.88142752068E+02  0.94609403739E+02  0.10000000000E+01 0.  0.
    9000005    1    3    3    0    0  0.18710227144E+01  0.46022287081E+02  0.20047947625E+02  0.50244122424E+02  0.10000000000E+01 0.  0.
          4    1    1    2  501    0 -0.20600033219E+02 -0.17212241972E+02 -0.63134616404E+01  0.27606074335E+02  0.12700000000E+01 0. -1.
<mgrwt>
<rscale>  1 0.12785007E+03</rscale>
<asrwt>0</asrwt>
<pdfrwt beam="1">  1       21 0.75419079E-02 0.12785007E+03</pdfrwt>
<pdfrwt beam="2">  1        4 0.18991101E-01 0.12785007E+03</pdfrwt>
<totfact> 0.13111528E+05</totfact>
</mgrwt>
</event>
<event>
 6    4  0.3995738E-003  0.1281753E+03  0.7818608E-02  0.1230189E+00
         21   -1    0    0  501  502  0.00000000000E+00  0.00000000000E+00  0.12143830485E+03  0.12143830485E+03  0.00000000000E+00 0.  1.
         -4   -1    0    0    0  501 -0.00000000000E+00 -0.00000000000E+00 -0.53840396488E+02  0.53855372935E+02  0.12700000000E+01 0.  1.
         25    2    1    2    0    0  0.27158541943E+02 -0.81720574784E+01  0.71286606454E+02  0.14666522485E+03  0.12499815597E+03 0.  0.
    9000005    1    3    3    0    0 -0.38123475166E+02 -0.23750053168E+02  0.65318802294E+02  0.79278056973E+02  0.10000000000E+01 0.  0.
    9000005    1    3    3    0    0  0.65282017110E+02  0.15577995690E+02  0.59678041600E+01  0.67387167874E+02  0.10000000000E+01 0.  0.
         -4    1    1    2    0  502 -0.27158541943E+02  0.81720574784E+01 -0.36886980940E+01  0.28628452937E+02  0.12700000000E+01 0. -1.
<mgrwt>
<rscale>  1 0.12817530E+03</rscale>
<asrwt>0</asrwt>
<pdfrwt beam="1">  1       21 0.18682816E-01 0.12817530E+03</pdfrwt>
<pdfrwt beam="2">  1       -4 0.82848008E-02 0.12817530E+03</pdfrwt>
<totfact> 0.10923903E+05</totfact>
</mgrwt>
</event>
<event>
 6    4  0.3995738E-003  0.1268574E+03  0.7818608E-02  0.1232195E+00
          4   -1    0    0  502    0 -0.00000000000E+00  0.00000000000E+00  0.77066400374E+02  0.77076864016E+02  0.12700000000E+01 0.  1.
         21   -1    0    0  501  502  0.00000000000E+00 -0.00000000000E+00 -0.73826723958E+02  0.73826723958E+02  0.00000000000E+00 0.  1.
         25    2    1    2    0    0  0.40583293215E+01  0.21233003034E+02  0.12253440029E+02  0.12744785756E+03  0.12500199658E+03 0.  0.
    9000005    1    3    3    0    0  0.40576295282E+02 -0.36418214091E+02 -0.10441133010E+02  0.55522421732E+02  0.10000000000E+01 0.  0.
    9000005    1    3    3    0    0 -0.36517965961E+02  0.57651217125E+02  0.22694573039E+02  0.71925435830E+02  0.10000000000E+01 0.  0.
          4    1    1    2  501    0 -0.40583293215E+01 -0.21233003034E+02 -0.90137636133E+01  0.23455730413E+02  0.12700000000E+01 0. -1.
<mgrwt>
<rscale>  1 0.12685744E+03</rscale>
<asrwt>0</asrwt>
<pdfrwt beam="2">  1       21 0.11357958E-01 0.12685744E+03</pdfrwt>
<pdfrwt beam="1">  1        4 0.11858014E-01 0.12685744E+03</pdfrwt>
<totfact> 0.14606844E+05</totfact>
</mgrwt>
</event>
<event>
 6    4  0.3995738E-003  0.1266677E+03  0.7818608E-02  0.1232486E+00
         21   -1    0    0  501  502  0.00000000000E+00  0.00000000000E+00  0.18007983262E+03  0.18007983262E+03  0.00000000000E+00 0. -1.
         -4   -1    0    0    0  501 -0.00000000000E+00 -0.00000000000E+00 -0.68777768596E+02  0.68789493043E+02  0.12700000000E+01 0. -1.
         25    2    1    2    0    0 -0.18832549681E+02 -0.80797120490E+01 -0.88491906891E+01  0.12697640715E+03  0.12499901249E+03 0.  0.
    9000005    1    3    3    0    0 -0.29516255758E+02  0.41391742487E+02  0.33571338352E+02  0.60930455922E+02  0.10000000000E+01 0.  0.
    9000005    1    3    3    0    0  0.10683706078E+02 -0.49471454536E+02 -0.42420529041E+02  0.66045951228E+02  0.10000000000E+01 0.  0.
         -4    1    1    2    0  502  0.18832549681E+02  0.80797120490E+01  0.12015125471E+03  0.12189291851E+03  0.12700000000E+01 0.  1.
<mgrwt>
<rscale>  1 0.12666767E+03</rscale>
<asrwt>0</asrwt>
<pdfrwt beam="1">  1       21 0.27704589E-01 0.12666767E+03</pdfrwt>
<pdfrwt beam="2">  1       -4 0.10582442E-01 0.12666767E+03</pdfrwt>
<totfact> 0.34629474E+04</totfact>
</mgrwt>
</event>
<event>
 6    4  0.3995738E-003  0.1266817E+03  0.7818608E-02  0.1232464E+00
         21   -1    0    0  501  502  0.00000000000E+00  0.00000000000E+00  0.13979412870E+03  0.13979412870E+03  0.00000000000E+00 0. -1.
         -4   -1    0    0    0  501 -0.00000000000E+00 -0.00000000000E+00 -0.86640710833E+02  0.86650018313E+02  0.12700000000E+01 0.  1.
         25    2    1    2    0    0  0.12673414754E+02 -0.15968766785E+02 -0.38609989626E+02  0.13243482402E+03  0.12503053372E+03 0.  0.
    9000005    1    3    3    0    0  0.60847145890E+02 -0.32804386897E+02 -0.11858413324E+01  0.69144118928E+02  0.10000000000E+01 0.  0.
    9000005    1    3    3    0    0 -0.48173731136E+02  0.16835620112E+02 -0.37424148293E+02  0.63290705096E+02  0.10000000000E+01 0.  0.
         -4    1    1    2    0  502 -0.12673414754E+02  0.15968766785E+02  0.91763407493E+02  0.94009322989E+02  0.12700000000E+01 0. -1.
<mgrwt>
<rscale>  1 0.12668169E+03</rscale>
<asrwt>0</asrwt>
<pdfrwt beam="1">  1       21 0.21506789E-01 0.12668169E+03</pdfrwt>
<pdfrwt beam="2">  1       -4 0.13330500E-01 0.12668169E+03</pdfrwt>
<totfact> 0.37635777E+04</totfact>
</mgrwt>
</event>
<event>
 6    4  0.3995738E-003  0.1746304E+03  0.7818608E-02  0.1173103E+00
         -4   -1    0    0    0  501 -0.00000000000E+00  0.00000000000E+00  0.10409580862E+03  0.10410355552E+03  0.12700000000E+01 0. -1.
         21   -1    0    0  501  502  0.00000000000E+00 -0.00000000000E+00 -0.28614369282E+03  0.28614369282E+03  0.00000000000E+00 0.  1.
         25    2    1    2    0    0  0.70862831114E+02  0.99238355796E+02 -0.42939519655E+01  0.17468318496E+03  0.12500393990E+03 0.  0.
    9000005    1    3    3    0    0 -0.27559381589E+02  0.22379622171E+01  0.20304425017E+02  0.34319056859E+02  0.10000000000E+01 0.  0.
    9000005    1    3    3    0    0  0.98422212702E+02  0.97000393579E+02 -0.24598376982E+02  0.14036412810E+03  0.10000000000E+01 0.  0.
         -4    1    1    2    0  502 -0.70862831114E+02 -0.99238355796E+02 -0.17775393223E+03  0.21556406337E+03  0.12700000000E+01 0.  1.
<mgrwt>
<rscale>  1 0.17463040E+03</rscale>
<asrwt>0</asrwt>
<pdfrwt beam="2">  1       21 0.44022106E-01 0.17463040E+03</pdfrwt>
<pdfrwt beam="1">  1       -4 0.16015553E-01 0.17463040E+03</pdfrwt>
<totfact> 0.69672558E+03</totfact>
</mgrwt>
</event>
<event>
 6    4  0.3995738E-003  0.1286130E+03  0.7818608E-02  0.1229528E+00
         21   -1    0    0  501  502  0.00000000000E+00  0.00000000000E+00  0.21777778180E+03  0.21777778180E+03  0.00000000000E+00 0.  1.
         -4   -1    0    0    0  501 -0.00000000000E+00 -0.00000000000E+00 -0.29047555119E+02  0.29075304958E+02  0.12700000000E+01 0.  1.
         25    2    1    2    0    0 -0.30280688192E+02 -0.14390582940E+01  0.14823807522E+03  0.19625448800E+03  0.12498922414E+03 0.  0.
    9000005    1    3    3    0    0 -0.74321478385E+02  0.19360733656E+02  0.69059289234E+02  0.10328942631E+03  0.10000000000E+01 0.  0.
    9000005    1    3    3    0    0  0.44040790193E+02 -0.20799791950E+02  0.79178785985E+02  0.92965061695E+02  0.10000000000E+01 0.  0.
         -4    1    1    2    0  502  0.30280688192E+02  0.14390582940E+01  0.40492151468E+02  0.50598598762E+02  0.12700000000E+01 0. -1.
<mgrwt>
<rscale>  1 0.12861297E+03</rscale>
<asrwt>0</asrwt>
<pdfrwt beam="1">  1       21 0.33504273E-01 0.12861297E+03</pdfrwt>
<pdfrwt beam="2">  1       -4 0.44712742E-02 0.12861297E+03</pdfrwt>
<totfact> 0.98655622E+04</totfact>
</mgrwt>
</event>
<event>
 6    4  0.3995738E-003  0.1330963E+03  0.7818608E-02  0.1222932E+00
         -4   -1    0    0    0  501 -0.00000000000E+00  0.00000000000E+00  0.55750670376E+03  0.55750815029E+03  0.12700000000E+01 0.  1.
         21   -1    0    0  501  502  0.00000000000E+00 -0.00000000000E+00 -0.19697235927E+02  0.19697235927E+02  0.00000000000E+00 0. -1.
         25    2    1    2    0    0 -0.34757709775E+02  0.29684270326E+02  0.50137067275E+03  0.51873613805E+03  0.12500150052E+03 0.  0.
    9000005    1    3    3    0    0 -0.72434325537E+02  0.43943740856E+02  0.24544879578E+03  0.25966111612E+03  0.10000000000E+01 0.  0.
    9000005    1    3    3    0    0  0.37676615762E+02 -0.14259470531E+02  0.25592187697E+03  0.25907502193E+03  0.10000000000E+01 0.  0.
         -4    1    1    2    0  502  0.34757709775E+02 -0.29684270326E+02  0.36438795081E+02  0.58469248161E+02  0.12700000000E+01 0. -1.
<mgrwt>
<rscale>  1 0.13309632E+03</rscale>
<asrwt>0</asrwt>
<pdfrwt beam="2">  1       21 0.30303444E-02 0.13309632E+03</pdfrwt>
<pdfrwt beam="1">  1       -4 0.85773511E-01 0.13309632E+03</pdfrwt>
<totfact> 0.30586289E+04</totfact>
</mgrwt>
</event>
<event>
 6    4  0.3995738E-003  0.1291696E+03  0.7818608E-02  0.1228693E+00
         21   -1    0    0  501  502  0.00000000000E+00  0.00000000000E+00  0.12133608337E+03  0.12133608337E+03  0.00000000000E+00 0.  1.
          4   -1    0    0  502    0 -0.00000000000E+00 -0.00000000000E+00 -0.56610148737E+03  0.56610291193E+03  0.12700000000E+01 0. -1.
         25    2    1    2    0    0 -0.25125767974E+02  0.20706554664E+02 -0.55637396860E+03  0.57117141506E+03  0.12499890727E+03 0.  0.
    9000005    1    3    3    0    0  0.26725031400E+02 -0.40045115157E+02 -0.24714875331E+03  0.25179623670E+03  0.10000000000E+01 0.  0.
    9000005    1    3    3    0    0 -0.51850799373E+02  0.60751669821E+02 -0.30922521529E+03  0.31937517836E+03  0.10000000000E+01 0.  0.
          4    1    1    2  501    0  0.25125767974E+02 -0.20706554664E+02  0.11160856460E+03  0.11626758024E+03  0.12700000000E+01 0.  1.
<mgrwt>
<rscale>  1 0.12916963E+03</rscale>
<asrwt>0</asrwt>
<pdfrwt beam="1">  1       21 0.18667090E-01 0.12916963E+03</pdfrwt>
<pdfrwt beam="2">  1        4 0.87093155E-01 0.12916963E+03</pdfrwt>
<totfact> 0.12802265E+03</totfact>
</mgrwt>
</event>
<event>
 6    4  0.3995738E-003  0.1444746E+03  0.7818608E-02  0.1207432E+00
         21   -1    0    0  501  502  0.00000000000E+00  0.00000000000E+00  0.13549634822E+03  0.13549634822E+03  0.00000000000E+00 0.  1.
         -4   -1    0    0    0  501 -0.00000000000E+00 -0.00000000000E+00 -0.98305323995E+02  0.98313527176E+02  0.12700000000E+01 0. -1.
         25    2    1    2    0    0  0.20482463709E+02  0.69486904745E+02 -0.13918234217E+02  0.14514347562E+03  0.12499980008E+03 0.  0.
    9000005    1    3    3    0    0  0.59927917928E+02  0.37834798387E+02 -0.46686118155E+02  0.84872969458E+02  0.10000000000E+01 0.  0.
    9000005    1    3    3    0    0 -0.39445454219E+02  0.31652106358E+02  0.32767883938E+02  0.60270506163E+02  0.10000000000E+01 0.  0.
         -4    1    1    2    0  502 -0.20482463709E+02 -0.69486904745E+02  0.51109258444E+02  0.88666399777E+02  0.12700000000E+01 0.  1.
<mgrwt>
<rscale>  1 0.14447460E+03</rscale>
<asrwt>0</asrwt>
<pdfrwt beam="1">  1       21 0.20845592E-01 0.14447460E+03</pdfrwt>
<pdfrwt beam="2">  1       -4 0.15124985E-01 0.14447460E+03</pdfrwt>
<totfact> 0.32490650E+04</totfact>
</mgrwt>
</event>
<event>
 6    4  0.3995738E-003  0.1269570E+03  0.7818608E-02  0.1232042E+00
         21   -1    0    0  501  502  0.00000000000E+00  0.00000000000E+00  0.21791825990E+02  0.21791825990E+02  0.00000000000E+00 0. -1.
          4   -1    0    0  502    0 -0.00000000000E+00 -0.00000000000E+00 -0.34230370323E+03  0.34230605917E+03  0.12700000000E+01 0.  1.
         25    2    1    2    0    0 -0.21348658226E+02 -0.60170634405E+01 -0.31716438004E+03  0.34163037756E+03  0.12500440250E+03 0.  0.
    9000005    1    3    3    0    0  0.87863411470E+01  0.19578572444E+02 -0.29598936756E+03  0.29676796660E+03  0.10000000000E+01 0.  0.
    9000005    1    3    3    0    0 -0.30134999373E+02 -0.25595635884E+02 -0.21175012479E+02  0.44862410959E+02  0.10000000000E+01 0.  0.
          4    1    1    2  501    0  0.21348658226E+02  0.60170634405E+01 -0.33474972021E+01  0.22467507606E+02  0.12700000000E+01 0. -1.
<mgrwt>
<rscale>  1 0.12695696E+03</rscale>
<asrwt>0</asrwt>
<pdfrwt beam="1">  1       21 0.33525889E-02 0.12695696E+03</pdfrwt>
<pdfrwt beam="2">  1        4 0.52665131E-01 0.12695696E+03</pdfrwt>
<totfact> 0.73159853E+04</totfact>
</mgrwt>
</event>
<event>
 6    4  0.3995738E-003  0.2290704E+03  0.7818608E-02  0.1127296E+00
         21   -1    0    0  501  502  0.00000000000E+00  0.00000000000E+00  0.10197136892E+03  0.10197136892E+03  0.00000000000E+00 0.  1.
         -4   -1    0    0    0  501 -0.00000000000E+00 -0.00000000000E+00 -0.49387017352E+03  0.49387180643E+03  0.12700000000E+01 0. -1.
         25    2    1    2    0    0  0.15920451520E+03 -0.10724490019E+03 -0.31400416155E+03  0.38867962984E+03  0.12500277960E+03 0.  0.
    9000005    1    3    3    0    0  0.47945360777E+02 -0.28811058818E+02 -0.21011634406E+03  0.21743668681E+03  0.10000000000E+01 0.  0.
    9000005    1    3    3    0    0  0.11125915442E+03 -0.78433841375E+02 -0.10388781749E+03  0.17124294303E+03  0.10000000000E+01 0.  0.
         -4    1    1    2    0  502 -0.15920451520E+03  0.10724490019E+03 -0.77894643044E+02  0.20716354552E+03  0.12700000000E+01 0.  1.
<mgrwt>
<rscale>  1 0.22907038E+03</rscale>
<asrwt>0</asrwt>
<pdfrwt beam="1">  1       21 0.15687903E-01 0.22907038E+03</pdfrwt>
<pdfrwt beam="2">  1       -4 0.75980760E-01 0.22907038E+03</pdfrwt>
<totfact> 0.24320444E+03</totfact>
</mgrwt>
</event>
<event>
 6    4  0.3995738E-003  0.1279422E+03  0.7818608E-02  0.1230541E+00
         21   -1    0    0  501  502  0.00000000000E+00  0.00000000000E+00  0.21433967842E+02  0.21433967842E+02  0.00000000000E+00 0. -1.
          4   -1    0    0  502    0 -0.00000000000E+00 -0.00000000000E+00 -0.62048565574E+03  0.62048695545E+03  0.12700000000E+01 0.  1.
         25    2    1    2    0    0 -0.25508370519E+02 -0.96936656502E+01 -0.60106322943E+03  0.61452925814E+03  0.12499823687E+03 0.  0.
    9000005    1    3    3    0    0  0.45052434636E+02  0.12931380276E+02 -0.33769047155E+03  0.34092931384E+03  0.10000000000E+01 0.  0.
    9000005    1    3    3    0    0 -0.70560805155E+02 -0.22625045926E+02 -0.26337275788E+03  0.27359994430E+03  0.10000000000E+01 0.  0.
          4    1    1    2  501    0  0.25508370519E+02  0.96936656502E+01  0.20115415283E+01  0.27391665148E+02  0.12700000000E+01 0. -1.
<mgrwt>
<rscale>  1 0.12794219E+03</rscale>
<asrwt>0</asrwt>
<pdfrwt beam="1">  1       21 0.32975338E-02 0.12794219E+03</pdfrwt>
<pdfrwt beam="2">  1        4 0.95462317E-01 0.12794219E+03</pdfrwt>
<totfact> 0.20801833E+04</totfact>
</mgrwt>
</event>
<event>
 6    4  0.3995738E-003  0.1289790E+03  0.7818608E-02  0.1228979E+00
          4   -1    0    0  502    0 -0.00000000000E+00  0.00000000000E+00  0.18349450958E+03  0.18349890448E+03  0.12700000000E+01 0. -1.
         21   -1    0    0  501  502  0.00000000000E+00 -0.00000000000E+00 -0.68669840076E+02  0.68669840076E+02  0.00000000000E+00 0.  1.
         25    2    1    2    0    0 -0.16815576597E+02 -0.26975372535E+02  0.15453467604E+03  0.20128719722E+03  0.12500054130E+03 0.  0.
    9000005    1    3    3    0    0 -0.21204469206E+02  0.26100483983E+02 -0.41526353718E+01  0.33898512637E+02  0.10000000000E+01 0.  0.
    9000005    1    3    3    0    0  0.43888926090E+01 -0.53075856518E+02  0.15868731141E+03  0.16738868459E+03  0.10000000000E+01 0.  0.
          4    1    1    2  501    0  0.16815576597E+02  0.26975372535E+02 -0.39710006540E+02  0.50881547334E+02  0.12700000000E+01 0.  1.
<mgrwt>
<rscale>  1 0.12897895E+03</rscale>
<asrwt>0</asrwt>
<pdfrwt beam="2">  1       21 0.10564591E-01 0.12897895E+03</pdfrwt>
<pdfrwt beam="1">  1        4 0.28231166E-01 0.12897895E+03</pdfrwt>
<totfact> 0.35424272E+04</totfact>
</mgrwt>
</event>
<event>
 6    4  0.3995738E-003  0.1274893E+03  0.7818608E-02  0.1231229E+00
          4   -1    0    0  502    0 -0.00000000000E+00  0.00000000000E+00  0.98225946341E+01  0.99043558773E+01  0.12700000000E+01 0. -1.
         21   -1    0    0  501  502  0.00000000000E+00 -0.00000000000E+00 -0.87866142659E+03  0.87866142659E+03  0.00000000000E+00 0. -1.
         25    2    1    2    0    0  0.19643397829E+02  0.15587050064E+02 -0.41755825519E+03  0.43658725303E+03  0.12499885528E+03 0.  0.
    9000005    1    3    3    0    0  0.18455355579E+02  0.57146862862E+01 -0.42416574704E+03  0.42460668712E+03  0.10000000000E+01 0.  0.
    9000005    1    3    3    0    0  0.11880422492E+01  0.98723637777E+01  0.66074918466E+01  0.11980565907E+02  0.10000000000E+01 0.  0.
          4    1    1    2  501    0 -0.19643397829E+02 -0.15587050064E+02 -0.45128057677E+03  0.45197852944E+03  0.12700000000E+01 0.  1.
<mgrwt>
<rscale>  1 0.12748934E+03</rscale>
<asrwt>0</asrwt>
<pdfrwt beam="2">  1       21 0.13517872E+00 0.12748934E+03</pdfrwt>
<pdfrwt beam="1">  1        4 0.15175279E-02 0.12748934E+03</pdfrwt>
<totfact> 0.25083044E+04</totfact>
</mgrwt>
</event>
<event>
 6    4  0.3995738E-003  0.1274110E+03  0.7818608E-02  0.1231349E+00
         21   -1    0    0  501  502  0.00000000000E+00  0.00000000000E+00  0.51125024290E+02  0.51125024290E+02  0.00000000000E+00 0.  1.
          4   -1    0    0  502    0 -0.00000000000E+00 -0.00000000000E+00 -0.40685429719E+03  0.40685627934E+03  0.12700000000E+01 0. -1.
         25    2    1    2    0    0  0.71690161631E+01  0.23596161140E+02 -0.39307553530E+03  0.41320932770E+03  0.12500159372E+03 0.  0.
    9000005    1    3    3    0    0 -0.47487226596E+02  0.15413101651E+02 -0.30616609618E+03  0.31021166780E+03  0.10000000000E+01 0.  0.
    9000005    1    3    3    0    0  0.54656242759E+02  0.81830594886E+01 -0.86909439123E+02  0.10299765990E+03  0.10000000000E+01 0.  0.
          4    1    1    2  501    0 -0.71690161631E+01 -0.23596161140E+02  0.37346262404E+02  0.44771975932E+02  0.12700000000E+01 0.  1.
<mgrwt>
<rscale>  1 0.12741104E+03</rscale>
<asrwt>0</asrwt>
<pdfrwt beam="1">  1       21 0.78653881E-02 0.12741104E+03</pdfrwt>
<pdfrwt beam="2">  1        4 0.62594337E-01 0.12741104E+03</pdfrwt>
<totfact> 0.12170070E+04</totfact>
</mgrwt>
</event>
<event>
 6    4  0.3995738E-003  0.1316847E+03  0.7818608E-02  0.1224977E+00
          4   -1    0    0  502    0 -0.00000000000E+00  0.00000000000E+00  0.36504345981E+02  0.36526431190E+02  0.12700000000E+01 0. -1.
         21   -1    0    0  501  502  0.00000000000E+00 -0.00000000000E+00 -0.59255513514E+03  0.59255513514E+03  0.00000000000E+00 0.  1.
         25    2    1    2    0    0 -0.41404411759E+02 -0.25298656543E+01 -0.86172265461E+02  0.15737385443E+03  0.12498057925E+03 0.  0.
    9000005    1    3    3    0    0 -0.24547057104E+02  0.58311850714E+02 -0.65160035535E+02  0.90827639940E+02  0.10000000000E+01 0.  0.
    9000005    1    3    3    0    0 -0.16857354655E+02 -0.60841716368E+02 -0.21012229927E+02  0.66546214491E+02  0.10000000000E+01 0.  0.
          4    1    1    2  501    0  0.41404411759E+02  0.25298656543E+01 -0.46987852370E+03  0.47170771190E+03  0.12700000000E+01 0.  1.
<mgrwt>
<rscale>  1 0.13168474E+03</rscale>
<asrwt>0</asrwt>
<pdfrwt beam="2">  1       21 0.91162329E-01 0.13168474E+03</pdfrwt>
<pdfrwt beam="1">  1        4 0.56178568E-02 0.13168474E+03</pdfrwt>
<totfact> 0.83310990E+03</totfact>
</mgrwt>
</event>
<event>
 6    4  0.3995738E-003  0.1300354E+03  0.7818608E-02  0.1227403E+00
         21   -1    0    0  501  502  0.00000000000E+00  0.00000000000E+00  0.23010716364E+03  0.23010716364E+03  0.00000000000E+00 0.  1.
         -4   -1    0    0    0  501 -0.00000000000E+00 -0.00000000000E+00 -0.33360277687E+02  0.33384442894E+02  0.12700000000E+01 0. -1.
         25    2    1    2    0    0  0.31565794740E+02  0.16975353799E+02  0.11256430641E+03  0.17198815505E+03  0.12499856146E+03 0.  0.
    9000005    1    3    3    0    0 -0.25245382505E+02  0.36390165882E+02 -0.12347246602E+00  0.44301114616E+02  0.10000000000E+01 0.  0.
    9000005    1    3    3    0    0  0.56811177245E+02 -0.19414812083E+02  0.11268777888E+03  0.12768704044E+03  0.10000000000E+01 0.  0.
         -4    1    1    2    0  502 -0.31565794740E+02 -0.16975353799E+02  0.84182579544E+02  0.91503451480E+02  0.12700000000E+01 0.  1.
<mgrwt>
<rscale>  1 0.13003539E+03</rscale>
<asrwt>0</asrwt>
<pdfrwt beam="1">  1       21 0.35401101E-01 0.13003539E+03</pdfrwt>
<pdfrwt beam="2">  1       -4 0.51344790E-02 0.13003539E+03</pdfrwt>
<totfact> 0.71054970E+04</totfact>
</mgrwt>
</event>
<event>
 6    4  0.3995738E-003  0.1268009E+03  0.7818608E-02  0.1232281E+00
          4   -1    0    0  502    0 -0.00000000000E+00  0.00000000000E+00  0.53513081896E+03  0.53513232597E+03  0.12700000000E+01 0.  1.
         21   -1    0    0  501  502  0.00000000000E+00 -0.00000000000E+00 -0.24790328942E+02  0.24790328942E+02  0.00000000000E+00 0. -1.
         25    2    1    2    0    0  0.13635246697E+02  0.16383099627E+02  0.52089317662E+03  0.53610463651E+03  0.12499661569E+03 0.  0.
    9000005    1    3    3    0    0  0.16661844550E+02  0.35808012107E+02  0.45313508053E+02  0.60117757833E+02  0.10000000000E+01 0.  0.
    9000005    1    3    3    0    0 -0.30265978524E+01 -0.19424912480E+02  0.47557966857E+03  0.47598687868E+03  0.10000000000E+01 0.  0.
          4    1    1    2  501    0 -0.13635246697E+02 -0.16383099627E+02 -0.10552686606E+02  0.23818018399E+02  0.12700000000E+01 0. -1.
<mgrwt>
<rscale>  1 0.12680095E+03</rscale>
<asrwt>0</asrwt>
<pdfrwt beam="2">  1       21 0.38138971E-02 0.12680095E+03</pdfrwt>
<pdfrwt beam="1">  1        4 0.82330428E-01 0.12680095E+03</pdfrwt>
<totfact> 0.22799535E+04</totfact>
</mgrwt>
</event>
<event>
 6    4  0.3995738E-003  0.1266126E+03  0.7818608E-02  0.1232570E+00
          4   -1    0    0  502    0 -0.00000000000E+00  0.00000000000E+00  0.28344627730E+03  0.28344912244E+03  0.12700000000E+01 0.  1.
         21   -1    0    0  501  502  0.00000000000E+00 -0.00000000000E+00 -0.20650938664E+02  0.20650938664E+02  0.00000000000E+00 0.  1.
         25    2    1    2    0    0  0.18870769467E+02  0.70307100400E+01  0.24992623885E+03  0.28016758415E+03  0.12500085408E+03 0.  0.
    9000005    1    3    3    0    0 -0.95099927062E+01  0.26143950504E+02  0.24381006152E+03  0.24539415683E+03  0.10000000000E+01 0.  0.
    9000005    1    3    3    0    0  0.28380762173E+02 -0.19113240464E+02  0.61161773343E+01  0.34773427322E+02  0.10000000000E+01 0.  0.
          4    1    1    2  501    0 -0.18870769467E+02 -0.70307100400E+01  0.12869099780E+02  0.23932476953E+02  0.12700000000E+01 0. -1.
<mgrwt>
<rscale>  1 0.12661260E+03</rscale>
<asrwt>0</asrwt>
<pdfrwt beam="2">  1       21 0.31770677E-02 0.12661260E+03</pdfrwt>
<pdfrwt beam="1">  1        4 0.43610340E-01 0.12661260E+03</pdfrwt>
<totfact> 0.11697029E+05</totfact>
</mgrwt>
</event>
<event>
 6    4  0.3995738E-003  0.1267108E+03  0.7818608E-02  0.1232420E+00
          4   -1    0    0  502    0 -0.00000000000E+00  0.00000000000E+00  0.13666381135E+03  0.13666971220E+03  0.12700000000E+01 0.  1.
         21   -1    0    0  501  502  0.00000000000E+00 -0.00000000000E+00 -0.40733497214E+02  0.40733497214E+02  0.00000000000E+00 0.  1.
         25    2    1    2    0    0 -0.47422392739E+01 -0.20193442906E+02  0.72113191643E+02  0.14579415702E+03  0.12500143936E+03 0.  0.
    9000005    1    3    3    0    0 -0.49453257849E+00 -0.46693361058E+02 -0.19285267755E+02  0.50531535518E+02  0.10000000000E+01 0.  0.
    9000005    1    3    3    0    0 -0.42477066954E+01  0.26499918152E+02  0.91398459398E+02  0.95262621498E+02  0.10000000000E+01 0.  0.
          4    1    1    2  501    0  0.47422392739E+01  0.20193442906E+02  0.23817122495E+02  0.31609052401E+02  0.12700000000E+01 0. -1.
<mgrwt>
<rscale>  1 0.12671079E+03</rscale>
<asrwt>0</asrwt>
<pdfrwt beam="2">  1       21 0.62666920E-02 0.12671079E+03</pdfrwt>
<pdfrwt beam="1">  1        4 0.21027178E-01 0.12671079E+03</pdfrwt>
<totfact> 0.14963264E+05</totfact>
</mgrwt>
</event>
<event>
 6    4  0.3995738E-003  0.1471654E+03  0.7818608E-02  0.1204000E+00
         21   -1    0    0  501  502  0.00000000000E+00  0.00000000000E+00  0.16329598705E+02  0.16329598705E+02  0.00000000000E+00 0.  1.
          4   -1    0    0  502    0 -0.00000000000E+00 -0.00000000000E+00 -0.94071556150E+03  0.94071641877E+03  0.12700000000E+01 0.  1.
         25    2    1    2    0    0  0.57417880770E+02 -0.52295435769E+02 -0.77313049069E+03  0.78701232560E+03  0.12500407740E+03 0.  0.
    9000005    1    3    3    0    0  0.88723086610E+02 -0.12870852290E+02 -0.36797829705E+03  0.37874327986E+03  0.10000000000E+01 0.  0.
    9000005    1    3    3    0    0 -0.31305205840E+02 -0.39424583479E+02 -0.40515219364E+03  0.40826904574E+03  0.10000000000E+01 0.  0.
          4    1    1    2  501    0 -0.57417880770E+02  0.52295435769E+02 -0.15125547210E+03  0.17003369188E+03  0.12700000000E+01 0. -1.
<mgrwt>
<rscale>  1 0.14716537E+03</rscale>
<asrwt>0</asrwt>
<pdfrwt beam="1">  1       21 0.25122451E-02 0.14716537E+03</pdfrwt>
<pdfrwt beam="2">  1        4 0.14472938E+00 0.14716537E+03</pdfrwt>
<totfact> 0.12150731E+04</totfact>
</mgrwt>
</event>
<event>
 6    4  0.3995738E-003  0.1271032E+03  0.7818608E-02  0.1231819E+00
         21   -1    0    0  501  502  0.00000000000E+00  0.00000000000E+00  0.79306505311E+02  0.79306505311E+02  0.00000000000E+00 0. -1.
         -4   -1    0    0    0  501 -0.00000000000E+00 -0.00000000000E+00 -0.75789182462E+02  0.75799822416E+02  0.12700000000E+01 0. -1.
         25    2    1    2    0    0 -0.13652060800E+02 -0.18519361031E+02 -0.11468232007E+02  0.12761950813E+03  0.12500349201E+03 0.  0.
    9000005    1    3    3    0    0  0.44620788097E+01  0.44212409352E+02  0.26827036955E+02  0.51916637023E+02  0.10000000000E+01 0.  0.
    9000005    1    3    3    0    0 -0.18114139610E+02 -0.62731770384E+02 -0.38295268962E+02  0.75702871109E+02  0.10000000000E+01 0.  0.
         -4    1    1    2    0  502  0.13652060800E+02  0.18519361031E+02  0.14985554855E+02  0.27486819595E+02  0.12700000000E+01 0.  1.
<mgrwt>
<rscale>  1 0.12710318E+03</rscale>
<asrwt>0</asrwt>
<pdfrwt beam="1">  1       21 0.12201001E-01 0.12710318E+03</pdfrwt>
<pdfrwt beam="2">  1       -4 0.11661475E-01 0.12710318E+03</pdfrwt>
<totfact> 0.13245571E+05</totfact>
</mgrwt>
</event>
<event>
 6    4  0.3995738E-003  0.1357145E+03  0.7818608E-02  0.1219215E+00
         21   -1    0    0  501  502  0.00000000000E+00  0.00000000000E+00  0.13052631962E+03  0.13052631962E+03  0.00000000000E+00 0.  1.
         -4   -1    0    0    0  501 -0.00000000000E+00 -0.00000000000E+00 -0.19550216491E+03  0.19550628989E+03  0.12700000000E+01 0. -1.
         25    2    1    2    0    0 -0.40949656867E+02  0.33396293610E+02 -0.16455203805E+03  0.21329744247E+03  0.12500495557E+03 0.  0.
    9000005    1    3    3    0    0 -0.60592232930E+01  0.92980583416E+01  0.20561436370E+02  0.23386764236E+02  0.10000000000E+01 0.  0.
    9000005    1    3    3    0    0 -0.34890433574E+02  0.24098235269E+02 -0.18511347442E+03  0.18991067824E+03  0.10000000000E+01 0.  0.
         -4    1    1    2    0  502  0.40949656867E+02 -0.33396293610E+02  0.99576192753E+02  0.11273516704E+03  0.12700000000E+01 0.  1.
<mgrwt>
<rscale>  1 0.13571450E+03</rscale>
<asrwt>0</asrwt>
<pdfrwt beam="1">  1       21 0.20080972E-01 0.13571450E+03</pdfrwt>
<pdfrwt beam="2">  1       -4 0.30078048E-01 0.13571450E+03</pdfrwt>
<totfact> 0.99404371E+03</totfact>
</mgrwt>
</event>
<event>
 6    4  0.3995738E-003  0.1266791E+03  0.7818608E-02  0.1232468E+00
         -4   -1    0    0    0  501 -0.00000000000E+00  0.00000000000E+00  0.84908205131E+01  0.85852741940E+01  0.12700000000E+01 0.  1.
         21   -1    0    0  501  502  0.00000000000E+00 -0.00000000000E+00 -0.67451822417E+03  0.67451822417E+03  0.00000000000E+00 0.  1.
         25    2    1    2    0    0  0.18341853690E+02 -0.96105115272E+01 -0.50057156227E+03  0.51635208495E+03  0.12497520212E+03 0.  0.
    9000005    1    3    3    0    0  0.36311359355E+02 -0.19953423615E+02 -0.48464767981E+02  0.63769018086E+02  0.10000000000E+01 0.  0.
    9000005    1    3    3    0    0 -0.17969505665E+02  0.10342912088E+02 -0.45210679429E+03  0.45258306686E+03  0.10000000000E+01 0.  0.
         -4    1    1    2    0  502 -0.18341853690E+02  0.96105115272E+01 -0.16545584138E+03  0.16675141342E+03  0.12700000000E+01 0. -1.
<mgrwt>
<rscale>  1 0.12667907E+03</rscale>
<asrwt>0</asrwt>
<pdfrwt beam="2">  1       21 0.10377202E+00 0.12667907E+03</pdfrwt>
<pdfrwt beam="1">  1       -4 0.13136379E-02 0.12667907E+03</pdfrwt>
<totfact> 0.59362597E+04</totfact>
</mgrwt>
</event>
<event>
 6    4  0.3995738E-003  0.1317460E+03  0.7818608E-02  0.1224888E+00
         -4   -1    0    0    0  501 -0.00000000000E+00  0.00000000000E+00  0.17117794791E+03  0.17118265902E+03  0.12700000000E+01 0. -1.
         21   -1    0    0  501  502  0.00000000000E+00 -0.00000000000E+00 -0.54348503638E+02  0.54348503638E+02  0.00000000000E+00 0.  1.
         25    2    1    2    0    0 -0.25571954095E+02 -0.32822966066E+02  0.12666238228E+03  0.18275767195E+03  0.12500294250E+03 0.  0.
    9000005    1    3    3    0    0  0.77545620304E+01 -0.77037275877E+01 -0.24014980796E+02  0.26404544186E+02  0.10000000000E+01 0.  0.
    9000005    1    3    3    0    0 -0.33326516126E+02 -0.25119238479E+02  0.15067736308E+03  0.15635312777E+03  0.10000000000E+01 0.  0.
         -4    1    1    2    0  502  0.25571954095E+02  0.32822966066E+02 -0.98329380093E+01  0.42773490710E+02  0.12700000000E+01 0.  1.
<mgrwt>
<rscale>  1 0.13174600E+03</rscale>
<asrwt>0</asrwt>
<pdfrwt beam="2">  1       21 0.83613083E-02 0.13174600E+03</pdfrwt>
<pdfrwt beam="1">  1       -4 0.26336572E-01 0.13174600E+03</pdfrwt>
<totfact> 0.60778508E+04</totfact>
</mgrwt>
</event>
<event>
 6    4  0.3995738E-003  0.1291559E+03  0.7818608E-02  0.1228714E+00
          4   -1    0    0  502    0 -0.00000000000E+00  0.00000000000E+00  0.47616425046E+03  0.47616594409E+03  0.12700000000E+01 0. -1.
         21   -1    0    0  501  502  0.00000000000E+00 -0.00000000000E+00 -0.20903205574E+02  0.20903205574E+02  0.00000000000E+00 0.  1.
         25    2    1    2    0    0 -0.60698283314E+01  0.31938131147E+02  0.44437151507E+03  0.46276052398E+03  0.12499748841E+03 0.  0.
    9000005    1    3    3    0    0 -0.45829377912E+02  0.25618022931E+02  0.39754789556E+03  0.40100117736E+03  0.10000000000E+01 0.  0.
    9000005    1    3    3    0    0  0.39759549580E+02  0.63201082157E+01  0.46823619508E+02  0.61759346617E+02  0.10000000000E+01 0.  0.
          4    1    1    2  501    0  0.60698283314E+01 -0.31938131147E+02  0.10889529813E+02  0.34308625689E+02  0.12700000000E+01 0.  1.
<mgrwt>
<rscale>  1 0.12915595E+03</rscale>
<asrwt>0</asrwt>
<pdfrwt beam="2">  1       21 0.32158781E-02 0.12915595E+03</pdfrwt>
<pdfrwt beam="1">  1        4 0.73259129E-01 0.12915595E+03</pdfrwt>
<totfact> 0.39131232E+04</totfact>
</mgrwt>
</event>
<event>
 6    4  0.3995738E-003  0.1269016E+03  0.7818608E-02  0.1232127E+00
          4   -1    0    0  502    0 -0.00000000000E+00  0.00000000000E+00  0.22692811429E+03  0.22693166803E+03  0.12700000000E+01 0.  1.
         21   -1    0    0  501  502  0.00000000000E+00 -0.00000000000E+00 -0.13682988407E+03  0.13682988407E+03  0.00000000000E+00 0. -1.
         25    2    1    2    0    0  0.86050481275E+01  0.20130814358E+02  0.20809915124E+03  0.24374019233E+03  0.12499891228E+03 0.  0.
    9000005    1    3    3    0    0 -0.12579821319E+02  0.36813953649E+02  0.21281790769E+03  0.21634689949E+03  0.10000000000E+01 0.  0.
    9000005    1    3    3    0    0  0.21184869446E+02 -0.16683139291E+02 -0.47187564473E+01  0.27393292837E+02  0.10000000000E+01 0.  0.
          4    1    1    2  501    0 -0.86050481275E+01 -0.20130814358E+02 -0.11800092101E+03  0.12002135977E+03  0.12700000000E+01 0. -1.
<mgrwt>
<rscale>  1 0.12690163E+03</rscale>
<asrwt>0</asrwt>
<pdfrwt beam="2">  1       21 0.21050751E-01 0.12690163E+03</pdfrwt>
<pdfrwt beam="1">  1        4 0.34912744E-01 0.12690163E+03</pdfrwt>
<totfact> 0.68160408E+03</totfact>
</mgrwt>
</event>
<event>
 6    4  0.3995738E-003  0.1489944E+03  0.7818608E-02  0.1201714E+00
         -4   -1    0    0    0  501 -0.00000000000E+00  0.00000000000E+00  0.34522794795E+03  0.34523028393E+03  0.12700000000E+01 0.  1.
         21   -1    0    0  501  502  0.00000000000E+00 -0.00000000000E+00 -0.55331613087E+02  0.55331613087E+02  0.00000000000E+00 0. -1.
         25    2    1    2    0    0 -0.67678664172E+02 -0.44663732395E+02  0.28217701406E+03  0.31909747909E+03  0.12499633323E+03 0.  0.
    9000005    1    3    3    0    0 -0.22143545059E+02 -0.82542122957E+02  0.20262301211E+03  0.21991049017E+03  0.10000000000E+01 0.  0.
    9000005    1    3    3    0    0 -0.45535119113E+02  0.37878390562E+02  0.79554001946E+02  0.99186988914E+02  0.10000000000E+01 0.  0.
         -4    1    1    2    0  502  0.67678664172E+02  0.44663732395E+02  0.77193208008E+01  0.81464417933E+02  0.12700000000E+01 0. -1.
<mgrwt>
<rscale>  1 0.14899441E+03</rscale>
<asrwt>0</asrwt>
<pdfrwt beam="2">  1       21 0.85125561E-02 0.14899441E+03</pdfrwt>
<pdfrwt beam="1">  1       -4 0.53113291E-01 0.14899441E+03</pdfrwt>
<totfact> 0.15177499E+04</totfact>
</mgrwt>
</event>
<event>
 6    4  0.3995738E-003  0.1269748E+03  0.7818608E-02  0.1232015E+00
         21   -1    0    0  501  502  0.00000000000E+00  0.00000000000E+00  0.71973891016E+02  0.71973891016E+02  0.00000000000E+00 0. -1.
          4   -1    0    0  502    0 -0.00000000000E+00 -0.00000000000E+00 -0.10539245129E+03  0.10540010289E+03  0.12700000000E+01 0.  1.
         25    2    1    2    0    0 -0.19273792209E+02 -0.11227308736E+02 -0.61831445195E+02  0.14122933377E+03  0.12500026229E+03 0.  0.
    9000005    1    3    3    0    0 -0.62715279817E+02 -0.40290511690E+02 -0.39703991889E+02  0.84462646340E+02  0.10000000000E+01 0.  0.
    9000005    1    3    3    0    0  0.43441487608E+02  0.29063202955E+02 -0.22127453306E+02  0.56766687427E+02  0.10000000000E+01 0.  0.
          4    1    1    2  501    0  0.19273792209E+02  0.11227308736E+02  0.28412884917E+02  0.36144660143E+02  0.12700000000E+01 0. -1.
<mgrwt>
<rscale>  1 0.12697479E+03</rscale>
<asrwt>0</asrwt>
<pdfrwt beam="1">  1       21 0.11072906E-01 0.12697479E+03</pdfrwt>
<pdfrwt beam="2">  1        4 0.16215674E-01 0.12697479E+03</pdfrwt>
<totfact> 0.88878323E+04</totfact>
</mgrwt>
</event>
<event>
 6    4  0.3995738E-003  0.1745779E+03  0.7818608E-02  0.1173156E+00
         -4   -1    0    0    0  501 -0.00000000000E+00  0.00000000000E+00  0.56665295792E+03  0.56665438110E+03  0.12700000000E+01 0.  1.
         21   -1    0    0  501  502  0.00000000000E+00 -0.00000000000E+00 -0.67728561345E+02  0.67728561345E+02  0.00000000000E+00 0. -1.
         25    2    1    2    0    0 -0.60153454677E+02 -0.10599207699E+03  0.48035837275E+03  0.51109843962E+03  0.12499876086E+03 0.  0.
    9000005    1    3    3    0    0  0.31483714169E+02 -0.65548216079E+02  0.23774835622E+03  0.24862235172E+03  0.10000000000E+01 0.  0.
    9000005    1    3    3    0    0 -0.91637168845E+02 -0.40443860916E+02  0.24261001653E+03  0.26247608790E+03  0.10000000000E+01 0.  0.
         -4    1    1    2    0  502  0.60153454677E+02  0.10599207699E+03  0.18566023822E+02  0.12328450282E+03  0.12700000000E+01 0. -1.
<mgrwt>
<rscale>  1 0.17457792E+03</rscale>
<asrwt>0</asrwt>
<pdfrwt beam="2">  1       21 0.10419779E-01 0.17457792E+03</pdfrwt>
<pdfrwt beam="1">  1       -4 0.87178400E-01 0.17457792E+03</pdfrwt>
<totfact> 0.36996048E+03</totfact>
</mgrwt>
</event>
<event>
 6    4  0.3995738E-003  0.1415768E+03  0.7818608E-02  0.1211223E+00
         -4   -1    0    0    0  501 -0.00000000000E+00  0.00000000000E+00  0.20709924970E+04  0.20709928864E+04  0.12700000000E+01 0. -1.
         21   -1    0    0  501  502  0.00000000000E+00 -0.00000000000E+00 -0.55031401350E+01  0.55031401350E+01  0.00000000000E+00 0. -1.
         25    2    1    2    0    0 -0.61800811644E+02  0.24472281202E+02  0.16050327075E+04  0.16112647166E+04  0.12500304823E+03 0.  0.
    9000005    1    3    3    0    0  0.35459077699E+02 -0.10464879617E+02  0.52372355131E+03  0.52502782602E+03  0.10000000000E+01 0.  0.
    9000005    1    3    3    0    0 -0.97259889342E+02  0.34937160819E+02  0.10813091562E+04  0.10862368906E+04  0.10000000000E+01 0.  0.
         -4    1    1    2    0  502  0.61800811644E+02 -0.24472281202E+02  0.46045664932E+03  0.46523130985E+03  0.12700000000E+01 0.  1.
<mgrwt>
<rscale>  1 0.14157682E+03</rscale>
<asrwt>0</asrwt>
<pdfrwt beam="2">  1       21 0.84663860E-03 0.14157682E+03</pdfrwt>
<pdfrwt beam="1">  1       -4 0.31862491E+00 0.14157682E+03</pdfrwt>
<totfact> 0.58698878E+03</totfact>
</mgrwt>
</event>
<event>
 6    4  0.3995738E-003  0.1489970E+03  0.7818608E-02  0.1201711E+00
         21   -1    0    0  501  502  0.00000000000E+00  0.00000000000E+00  0.78567475085E+03  0.78567475085E+03  0.00000000000E+00 0.  1.
          4   -1    0    0  502    0 -0.00000000000E+00 -0.00000000000E+00 -0.12709986396E+03  0.12710620881E+03  0.12700000000E+01 0. -1.
         25    2    1    2    0    0 -0.70569499610E+02 -0.39915462745E+02 -0.80444591410E+02  0.16932638764E+03  0.12500717909E+03 0.  0.
    9000005    1    3    3    0    0  0.13247727046E+02 -0.44940791903E+02  0.78046757415E+01  0.47508841411E+02  0.10000000000E+01 0.  0.
    9000005    1    3    3    0    0 -0.83817226656E+02  0.50253291581E+01 -0.88249267152E+02  0.12181754623E+03  0.10000000000E+01 0.  0.
          4    1    1    2  501    0  0.70569499610E+02  0.39915462745E+02  0.73901947830E+03  0.74345457201E+03  0.12700000000E+01 0.  1.
<mgrwt>
<rscale>  1 0.14899696E+03</rscale>
<asrwt>0</asrwt>
<pdfrwt beam="1">  1       21 0.12087304E+00 0.14899696E+03</pdfrwt>
<pdfrwt beam="2">  1        4 0.19554393E-01 0.14899696E+03</pdfrwt>
<totfact> 0.51512701E+02</totfact>
</mgrwt>
</event>
<event>
 6    4  0.3995738E-003  0.1267615E+03  0.7818608E-02  0.1232342E+00
         -4   -1    0    0    0  501 -0.00000000000E+00  0.00000000000E+00  0.97115929819E+02  0.97124233457E+02  0.12700000000E+01 0.  1.
         21   -1    0    0  501  502  0.00000000000E+00 -0.00000000000E+00 -0.64899036623E+02  0.64899036623E+02  0.00000000000E+00 0. -1.
         25    2    1    2    0    0  0.12485680002E+02 -0.16954971041E+02  0.48138891232E+02  0.13559438116E+03  0.12500048042E+03 0.  0.
    9000005    1    3    3    0    0  0.46137399301E+02  0.17560469134E+02  0.67504097907E+02  0.83635117772E+02  0.10000000000E+01 0.  0.
    9000005    1    3    3    0    0 -0.33651719299E+02 -0.34515440175E+02 -0.19365206675E+02  0.51959263388E+02  0.10000000000E+01 0.  0.
         -4    1    1    2    0  502 -0.12485680002E+02  0.16954971041E+02 -0.15921998035E+02  0.26428888920E+02  0.12700000000E+01 0. -1.
<mgrwt>
<rscale>  1 0.12676152E+03</rscale>
<asrwt>0</asrwt>
<pdfrwt beam="2">  1       21 0.99844672E-02 0.12676152E+03</pdfrwt>
<pdfrwt beam="1">  1       -4 0.14942507E-01 0.12676152E+03</pdfrwt>
<totfact> 0.12293419E+05</totfact>
</mgrwt>
</event>
<event>
 6    4  0.3995738E-003  0.1344292E+03  0.7818608E-02  0.1221028E+00
         21   -1    0    0  501  502  0.00000000000E+00  0.00000000000E+00  0.75378579759E+02  0.75378579759E+02  0.00000000000E+00 0. -1.
         -4   -1    0    0    0  501 -0.00000000000E+00 -0.00000000000E+00 -0.13022291324E+03  0.13022910594E+03  0.12700000000E+01 0.  1.
         25    2    1    2    0    0 -0.42197679543E+02 -0.25814000772E+02 -0.72911472813E+02  0.15292902571E+03  0.12499678893E+03 0.  0.
    9000005    1    3    3    0    0  0.18862549767E+02 -0.44850847673E+02  0.84903349711E+01  0.49401215659E+02  0.10000000000E+01 0.  0.
    9000005    1    3    3    0    0 -0.61060229310E+02  0.19036846901E+02 -0.81401807784E+02  0.10352781005E+03  0.10000000000E+01 0.  0.
         -4    1    1    2    0  502  0.42197679543E+02  0.25814000772E+02  0.18067139328E+02  0.52678659988E+02  0.12700000000E+01 0. -1.
<mgrwt>
<rscale>  1 0.13442918E+03</rscale>
<asrwt>0</asrwt>
<pdfrwt beam="1">  1       21 0.11596705E-01 0.13442918E+03</pdfrwt>
<pdfrwt beam="2">  1       -4 0.20035593E-01 0.13442918E+03</pdfrwt>
<totfact> 0.56671783E+04</totfact>
</mgrwt>
</event>
<event>
 6    4  0.3995738E-003  0.1275145E+03  0.7818608E-02  0.1231191E+00
         -4   -1    0    0    0  501 -0.00000000000E+00  0.00000000000E+00  0.33741259217E+03  0.33741498226E+03  0.12700000000E+01 0. -1.
         21   -1    0    0  501  502  0.00000000000E+00 -0.00000000000E+00 -0.20520027345E+02  0.20520027345E+02  0.00000000000E+00 0. -1.
         25    2    1    2    0    0  0.19246742195E+02 -0.16260819962E+02  0.30387753471E+03  0.32954741971E+03  0.12500037755E+03 0.  0.
    9000005    1    3    3    0    0  0.70399924452E+02  0.65237381790E+01  0.15105400705E+03  0.16678435649E+03  0.10000000000E+01 0.  0.
    9000005    1    3    3    0    0 -0.51153182257E+02 -0.22784558141E+02  0.15282352765E+03  0.16276306322E+03  0.10000000000E+01 0.  0.
         -4    1    1    2    0  502 -0.19246742195E+02  0.16260819962E+02  0.13015030114E+02  0.28387589892E+02  0.12700000000E+01 0.  1.
<mgrwt>
<rscale>  1 0.12751449E+03</rscale>
<asrwt>0</asrwt>
<pdfrwt beam="2">  1       21 0.31569276E-02 0.12751449E+03</pdfrwt>
<pdfrwt beam="1">  1       -4 0.51912832E-01 0.12751449E+03</pdfrwt>
<totfact> 0.83237747E+04</totfact>
</mgrwt>
</event>
<event>
 6    4  0.3995738E-003  0.1283841E+03  0.7818608E-02  0.1229873E+00
          4   -1    0    0  502    0 -0.00000000000E+00  0.00000000000E+00  0.49294075337E+03  0.49294238936E+03  0.12700000000E+01 0. -1.
         21   -1    0    0  501  502  0.00000000000E+00 -0.00000000000E+00 -0.16859800274E+02  0.16859800274E+02  0.00000000000E+00 0.  1.
         25    2    1    2    0    0 -0.25439643906E+02  0.14513829365E+02  0.45731486826E+03  0.47499406465E+03  0.12499858399E+03 0.  0.
    9000005    1    3    3    0    0  0.36536992347E+02  0.11308015339E+02  0.49905294842E+02  0.62883713900E+02  0.10000000000E+01 0.  0.
    9000005    1    3    3    0    0 -0.61976636252E+02  0.32058140257E+01  0.40740957342E+03  0.41211035075E+03  0.10000000000E+01 0.  0.
          4    1    1    2  501    0  0.25439643906E+02 -0.14513829365E+02  0.18766084835E+02  0.34808124984E+02  0.12700000000E+01 0.  1.
<mgrwt>
<rscale>  1 0.12838408E+03</rscale>
<asrwt>0</asrwt>
<pdfrwt beam="2">  1       21 0.25938158E-02 0.12838408E+03</pdfrwt>
<pdfrwt beam="1">  1        4 0.75840833E-01 0.12838408E+03</pdfrwt>
<totfact> 0.51552408E+04</totfact>
</mgrwt>
</event>
<event>
 6    4  0.3995738E-003  0.1279767E+03  0.7818608E-02  0.1230489E+00
         -4   -1    0    0    0  501 -0.00000000000E+00  0.00000000000E+00  0.41898588017E+02  0.41917831263E+02  0.12700000000E+01 0.  1.
         21   -1    0    0  501  502  0.00000000000E+00 -0.00000000000E+00 -0.14447082136E+03  0.14447082136E+03  0.00000000000E+00 0.  1.
         25    2    1    2    0    0  0.25481120916E+02  0.10198700516E+02 -0.81002225218E+02  0.15145758957E+03  0.12499895973E+03 0.  0.
    9000005    1    3    3    0    0  0.75628852651E+02 -0.17326660401E+01 -0.39966570163E+02  0.85563147532E+02  0.10000000000E+01 0.  0.
    9000005    1    3    3    0    0 -0.50147731735E+02  0.11931366556E+02 -0.41035655056E+02  0.65894442041E+02  0.10000000000E+01 0.  0.
         -4    1    1    2    0  502 -0.25481120916E+02 -0.10198700516E+02 -0.21570008125E+02  0.34931063051E+02  0.12700000000E+01 0. -1.
<mgrwt>
<rscale>  1 0.12797672E+03</rscale>
<asrwt>0</asrwt>
<pdfrwt beam="2">  1       21 0.22226280E-01 0.12797672E+03</pdfrwt>
<pdfrwt beam="1">  1       -4 0.64478463E-02 0.12797672E+03</pdfrwt>
<totfact> 0.11957143E+05</totfact>
</mgrwt>
</event>
<event>
 6    4  0.3995738E-003  0.1283277E+03  0.7818608E-02  0.1229958E+00
         21   -1    0    0  501  502  0.00000000000E+00  0.00000000000E+00  0.84474986531E+01  0.84474986531E+01  0.00000000000E+00 0.  1.
         -4   -1    0    0    0  501 -0.00000000000E+00 -0.00000000000E+00 -0.76008254294E+03  0.76008360394E+03  0.12700000000E+01 0.  1.
         25    2    1    2    0    0 -0.28188440637E+02 -0.70101612923E+01 -0.66117310598E+03  0.67351160076E+03  0.12499707893E+03 0.  0.
    9000005    1    3    3    0    0  0.26352464427E+02 -0.34694155119E+02 -0.48627992610E+03  0.48822874076E+03  0.10000000000E+01 0.  0.
    9000005    1    3    3    0    0 -0.54540905064E+02  0.27683993827E+02 -0.17489317988E+03  0.18528285999E+03  0.10000000000E+01 0.  0.
         -4    1    1    2    0  502  0.28188440637E+02  0.70101612923E+01 -0.90461938311E+02  0.95019501840E+02  0.12700000000E+01 0. -1.
<mgrwt>
<rscale>  1 0.12832771E+03</rscale>
<asrwt>0</asrwt>
<pdfrwt beam="1">  1       21 0.12996154E-02 0.12832771E+03</pdfrwt>
<pdfrwt beam="2">  1       -4 0.11694318E+00 0.12832771E+03</pdfrwt>
<totfact> 0.58350483E+04</totfact>
</mgrwt>
</event>
<event>
 6    4  0.3995738E-003  0.1386165E+03  0.7818608E-02  0.1215203E+00
          4   -1    0    0  502    0 -0.00000000000E+00  0.00000000000E+00  0.34876733507E+02  0.34899848712E+02  0.12700000000E+01 0. -1.
         21   -1    0    0  501  502  0.00000000000E+00 -0.00000000000E+00 -0.28382757083E+03  0.28382757083E+03  0.00000000000E+00 0.  1.
         25    2    1    2    0    0 -0.47769166807E+02  0.36148736070E+02 -0.16331836948E+03  0.21421351202E+03  0.12500365797E+03 0.  0.
    9000005    1    3    3    0    0 -0.35707642852E+02 -0.39337612739E+02 -0.10630283130E+03  0.11884349152E+03  0.10000000000E+01 0.  0.
    9000005    1    3    3    0    0 -0.12061523954E+02  0.75486348809E+02 -0.57015538188E+02  0.95370020507E+02  0.10000000000E+01 0.  0.
          4    1    1    2  501    0  0.47769166807E+02 -0.36148736070E+02 -0.85632467840E+02  0.10451390752E+03  0.12700000000E+01 0.  1.
<mgrwt>
<rscale>  1 0.13861652E+03</rscale>
<asrwt>0</asrwt>
<pdfrwt beam="2">  1       21 0.43665783E-01 0.13861652E+03</pdfrwt>
<pdfrwt beam="1">  1        4 0.53676476E-02 0.13861652E+03</pdfrwt>
<totfact> 0.43818462E+04</totfact>
</mgrwt>
</event>
<event>
 6    4  0.3995738E-003  0.1289896E+03  0.7818608E-02  0.1228963E+00
         -4   -1    0    0    0  501 -0.00000000000E+00  0.00000000000E+00  0.11337388295E+03  0.11338099592E+03  0.12700000000E+01 0. -1.
         21   -1    0    0  501  502  0.00000000000E+00 -0.00000000000E+00 -0.67185524825E+02  0.67185524825E+02  0.00000000000E+00 0.  1.
         25    2    1    2    0    0  0.12453570569E+02 -0.29213232085E+02  0.64148849584E+02  0.14406040478E+03  0.12501928241E+03 0.  0.
    9000005    1    3    3    0    0  0.40242845304E+02 -0.68523767025E+02  0.29642182246E+02  0.84821295756E+02  0.10000000000E+01 0.  0.
    9000005    1    3    3    0    0 -0.27789274735E+02  0.39310534940E+02  0.34506667338E+02  0.59239109027E+02  0.10000000000E+01 0.  0.
         -4    1    1    2    0  502 -0.12453570569E+02  0.29213232085E+02 -0.17960491460E+02  0.36506115957E+02  0.12700000000E+01 0.  1.
<mgrwt>
<rscale>  1 0.12898963E+03</rscale>
<asrwt>0</asrwt>
<pdfrwt beam="2">  1       21 0.10336235E-01 0.12898963E+03</pdfrwt>
<pdfrwt beam="1">  1       -4 0.17443606E-01 0.12898963E+03</pdfrwt>
<totfact> 0.88384612E+04</totfact>
</mgrwt>
</event>
<event>
 6    4  0.3995738E-003  0.1296390E+03  0.7818608E-02  0.1227992E+00
         21   -1    0    0  501  502  0.00000000000E+00  0.00000000000E+00  0.19481822803E+03  0.19481822803E+03  0.00000000000E+00 0. -1.
          4   -1    0    0  502    0 -0.00000000000E+00 -0.00000000000E+00 -0.74240445337E+02  0.74251307220E+02  0.12700000000E+01 0.  1.
         25    2    1    2    0    0  0.18000388405E+02  0.29283818430E+02 -0.13788643221E+02  0.13037020101E+03  0.12499882650E+03 0.  0.
    9000005    1    3    3    0    0  0.51386175856E+02 -0.23186807388E+02  0.19702316938E+02  0.59727283536E+02  0.10000000000E+01 0.  0.
    9000005    1    3    3    0    0 -0.33385787451E+02  0.52470625818E+02 -0.33490960159E+02  0.70642917478E+02  0.10000000000E+01 0.  0.
          4    1    1    2  501    0 -0.18000388405E+02 -0.29283818430E+02  0.13436642592E+03  0.13869933424E+03  0.12700000000E+01 0. -1.
<mgrwt>
<rscale>  1 0.12963897E+03</rscale>
<asrwt>0</asrwt>
<pdfrwt beam="1">  1       21 0.29972035E-01 0.12963897E+03</pdfrwt>
<pdfrwt beam="2">  1        4 0.11422761E-01 0.12963897E+03</pdfrwt>
<totfact> 0.26221778E+04</totfact>
</mgrwt>
</event>
<event>
 6    4  0.3995738E-003  0.1307323E+03  0.7818608E-02  0.1226373E+00
         21   -1    0    0  501  502  0.00000000000E+00  0.00000000000E+00  0.18956192723E+03  0.18956192723E+03  0.00000000000E+00 0. -1.
         -4   -1    0    0    0  501 -0.00000000000E+00 -0.00000000000E+00 -0.44227084290E+02  0.44245314835E+02  0.12700000000E+01 0. -1.
         25    2    1    2    0    0  0.89517502513E+01 -0.37245452485E+02  0.67687853354E+02  0.14721610248E+03  0.12499431096E+03 0.  0.
    9000005    1    3    3    0    0  0.42257361895E+02  0.25895121503E+02  0.56143534294E+02  0.74895516521E+02  0.10000000000E+01 0.  0.
    9000005    1    3    3    0    0 -0.33305611643E+02 -0.63140573988E+02  0.11544319060E+02  0.72320585956E+02  0.10000000000E+01 0.  0.
         -4    1    1    2    0  502 -0.89517502513E+01  0.37245452485E+02  0.77646989588E+02  0.86591139590E+02  0.12700000000E+01 0.  1.
<mgrwt>
<rscale>  1 0.13073230E+03</rscale>
<asrwt>0</asrwt>
<pdfrwt beam="1">  1       21 0.29163373E-01 0.13073230E+03</pdfrwt>
<pdfrwt beam="2">  1       -4 0.68058965E-02 0.13073230E+03</pdfrwt>
<totfact> 0.65619972E+04</totfact>
</mgrwt>
</event>
<event>
 6    4  0.3995738E-003  0.1274090E+03  0.7818608E-02  0.1231352E+00
         -4   -1    0    0    0  501 -0.00000000000E+00  0.00000000000E+00  0.75198416785E+02  0.75209140316E+02  0.12700000000E+01 0.  1.
         21   -1    0    0  501  502  0.00000000000E+00 -0.00000000000E+00 -0.92228618704E+02  0.92228618704E+02  0.00000000000E+00 0.  1.
         25    2    1    2    0    0  0.17059689864E+02 -0.17725177330E+02  0.13597793997E+02  0.12813251810E+03  0.12501130855E+03 0.  0.
    9000005    1    3    3    0    0  0.49164135640E+02  0.19064392604E+02  0.45619052368E+02  0.69732784524E+02  0.10000000000E+01 0.  0.
    9000005    1    3    3    0    0 -0.32104445776E+02 -0.36789569934E+02 -0.32021258371E+02  0.58399733580E+02  0.10000000000E+01 0.  0.
         -4    1    1    2    0  502 -0.17059689864E+02  0.17725177330E+02 -0.30627995915E+02  0.39305240915E+02  0.12700000000E+01 0. -1.
<mgrwt>
<rscale>  1 0.12740896E+03</rscale>
<asrwt>0</asrwt>
<pdfrwt beam="2">  1       21 0.14189018E-01 0.12740896E+03</pdfrwt>
<pdfrwt beam="1">  1       -4 0.11570485E-01 0.12740896E+03</pdfrwt>
<totfact> 0.10258688E+05</totfact>
</mgrwt>
</event>
<event>
 6    4  0.3995738E-003  0.1298323E+03  0.7818608E-02  0.1227705E+00
         -4   -1    0    0    0  501 -0.00000000000E+00  0.00000000000E+00  0.11168541551E+03  0.11169263601E+03  0.12700000000E+01 0. -1.
         21   -1    0    0  501  502  0.00000000000E+00 -0.00000000000E+00 -0.81011953966E+02  0.81011953966E+02  0.00000000000E+00 0.  1.
         25    2    1    2    0    0 -0.29223012641E+02 -0.19398500012E+02  0.63605349125E+02  0.14457550947E+03  0.12500460484E+03 0.  0.
    9000005    1    3    3    0    0 -0.12403010964E+02 -0.72236799991E+02  0.26955447172E+02  0.78099846903E+02  0.10000000000E+01 0.  0.
    9000005    1    3    3    0    0 -0.16820001677E+02  0.52838299979E+02  0.36649901953E+02  0.66475662571E+02  0.10000000000E+01 0.  0.
         -4    1    1    2    0  502  0.29223012641E+02  0.19398500012E+02 -0.32931887577E+02  0.48129080502E+02  0.12700000000E+01 0.  1.
<mgrwt>
<rscale>  1 0.12983234E+03</rscale>
<asrwt>0</asrwt>
<pdfrwt beam="2">  1       21 0.12463378E-01 0.12983234E+03</pdfrwt>
<pdfrwt beam="1">  1       -4 0.17183693E-01 0.12983234E+03</pdfrwt>
<totfact> 0.65293428E+04</totfact>
</mgrwt>
</event>
<event>
 6    4  0.3995738E-003  0.1293897E+03  0.7818608E-02  0.1228364E+00
          4   -1    0    0  502    0 -0.00000000000E+00  0.00000000000E+00  0.29348474908E+03  0.29348749691E+03  0.12700000000E+01 0. -1.
         21   -1    0    0  501  502  0.00000000000E+00 -0.00000000000E+00 -0.24557429408E+02  0.24557429408E+02  0.00000000000E+00 0. -1.
         25    2    1    2    0    0  0.32242106786E+01 -0.33225551398E+02  0.24461842033E+03  0.27673066380E+03  0.12500942332E+03 0.  0.
    9000005    1    3    3    0    0 -0.13653802542E+02 -0.34250063092E+01  0.24195313801E+03  0.24236434966E+03  0.10000000000E+01 0.  0.
    9000005    1    3    3    0    0  0.16878013221E+02 -0.29800545089E+02  0.26652823254E+01  0.34366314143E+02  0.10000000000E+01 0.  0.
          4    1    1    2  501    0 -0.32242106786E+01  0.33225551398E+02  0.24308899334E+02  0.41314262514E+02  0.12700000000E+01 0.  1.
<mgrwt>
<rscale>  1 0.12938968E+03</rscale>
<asrwt>0</asrwt>
<pdfrwt beam="2">  1       21 0.37780663E-02 0.12938968E+03</pdfrwt>
<pdfrwt beam="1">  1        4 0.45154235E-01 0.12938968E+03</pdfrwt>
<totfact> 0.82254537E+04</totfact>
</mgrwt>
</event>
<event>
 6    4  0.3995738E-003  0.1313380E+03  0.7818608E-02  0.1225484E+00
         21   -1    0    0  501  502  0.00000000000E+00  0.00000000000E+00  0.79731902991E+01  0.79731902991E+01  0.00000000000E+00 0. -1.
         -4   -1    0    0    0  501 -0.00000000000E+00 -0.00000000000E+00 -0.15632122710E+04  0.15632127869E+04  0.12700000000E+01 0.  1.
         25    2    1    2    0    0  0.50405822489E+01 -0.39988269449E+02 -0.14800512592E+04  0.14858672186E+04  0.12500076943E+03 0.  0.
    9000005    1    3    3    0    0  0.17560709407E+02  0.13075893239E+02 -0.12182538592E+04  0.12184509932E+04  0.10000000000E+01 0.  0.
    9000005    1    3    3    0    0 -0.12520127159E+02 -0.53064162689E+02 -0.26179740000E+03  0.26741622537E+03  0.10000000000E+01 0.  0.
         -4    1    1    2    0  502 -0.50405822489E+01  0.39988269449E+02 -0.75187821573E+02  0.85318758640E+02  0.12700000000E+01 0. -1.
<mgrwt>
<rscale>  1 0.13133797E+03</rscale>
<asrwt>0</asrwt>
<pdfrwt beam="1">  1       21 0.12266451E-02 0.13133797E+03</pdfrwt>
<pdfrwt beam="2">  1       -4 0.24050192E+00 0.13133797E+03</pdfrwt>
<totfact> 0.92030170E+03</totfact>
</mgrwt>
</event>
<event>
 6    4  0.3995738E-003  0.1341349E+03  0.7818608E-02  0.1221446E+00
          4   -1    0    0  502    0 -0.00000000000E+00  0.00000000000E+00  0.85710564707E+03  0.85710658797E+03  0.12700000000E+01 0.  1.
         21   -1    0    0  501  502  0.00000000000E+00 -0.00000000000E+00 -0.53403658417E+02  0.53403658417E+02  0.00000000000E+00 0. -1.
         25    2    1    2    0    0 -0.39038528022E+02  0.29048324093E+02  0.83946132839E+03  0.85011028711E+03  0.12499746630E+03 0.  0.
    9000005    1    3    3    0    0 -0.65206749266E+02  0.52631488639E+02  0.73717693774E+03  0.74192508469E+03  0.10000000000E+01 0.  0.
    9000005    1    3    3    0    0  0.26168221243E+02 -0.23583164546E+02  0.10228439064E+03  0.10818520242E+03  0.10000000000E+01 0.  0.
          4    1    1    2  501    0  0.39038528022E+02 -0.29048324093E+02 -0.35759339734E+02  0.60399959280E+02  0.12700000000E+01 0. -1.
<mgrwt>
<rscale>  1 0.13413493E+03</rscale>
<asrwt>0</asrwt>
<pdfrwt beam="2">  1       21 0.82159480E-02 0.13413493E+03</pdfrwt>
<pdfrwt beam="1">  1        4 0.13186363E+00 0.13413493E+03</pdfrwt>
<totfact> 0.20875899E+03</totfact>
</mgrwt>
</event>
<event>
 6    4  0.3995738E-003  0.1349940E+03  0.7818608E-02  0.1220228E+00
          4   -1    0    0  502    0 -0.00000000000E+00  0.00000000000E+00  0.70064963055E+02  0.70076472143E+02  0.12700000000E+01 0. -1.
         21   -1    0    0  501  502  0.00000000000E+00 -0.00000000000E+00 -0.25156305703E+03  0.25156305703E+03  0.00000000000E+00 0.  1.
         25    2    1    2    0    0 -0.41291673901E+02  0.29879648601E+02 -0.19659220983E+01  0.13500831696E+03  0.12500234023E+03 0.  0.
    9000005    1    3    3    0    0 -0.31829902152E+02  0.78160992802E+02 -0.10546526873E+02  0.85055938628E+02  0.10000000000E+01 0.  0.
    9000005    1    3    3    0    0 -0.94617717490E+01 -0.48281344202E+02  0.85806047748E+01  0.49952378330E+02  0.10000000000E+01 0.  0.
          4    1    1    2  501    0  0.41291673901E+02 -0.29879648601E+02 -0.17953217187E+03  0.18663121221E+03  0.12700000000E+01 0.  1.
<mgrwt>
<rscale>  1 0.13499400E+03</rscale>
<asrwt>0</asrwt>
<pdfrwt beam="2">  1       21 0.38702010E-01 0.13499400E+03</pdfrwt>
<pdfrwt beam="1">  1        4 0.10780357E-01 0.13499400E+03</pdfrwt>
<totfact> 0.17598416E+04</totfact>
</mgrwt>
</event>
<event>
 6    4  0.3995738E-003  0.1416492E+03  0.7818608E-02  0.1211127E+00
          4   -1    0    0  502    0 -0.00000000000E+00  0.00000000000E+00  0.37385014992E+03  0.37385230706E+03  0.12700000000E+01 0.  1.
         21   -1    0    0  501  502  0.00000000000E+00 -0.00000000000E+00 -0.32007202305E+02  0.32007202305E+02  0.00000000000E+00 0.  1.
         25    2    1    2    0    0 -0.49866445663E+02  0.44203736416E+02  0.28500672151E+03  0.31826611799E+03  0.12499543125E+03 0.  0.
    9000005    1    3    3    0    0 -0.20882778239E+02 -0.34818811047E+02  0.17554080778E+03  0.18017773232E+03  0.10000000000E+01 0.  0.
    9000005    1    3    3    0    0 -0.28983667424E+02  0.79022547463E+02  0.10946591374E+03  0.13808838567E+03  0.10000000000E+01 0.  0.
          4    1    1    2  501    0  0.49866445663E+02 -0.44203736416E+02  0.56836226097E+02  0.87593391378E+02  0.12700000000E+01 0. -1.
<mgrwt>
<rscale>  1 0.14164918E+03</rscale>
<asrwt>0</asrwt>
<pdfrwt beam="2">  1       21 0.49241852E-02 0.14164918E+03</pdfrwt>
<pdfrwt beam="1">  1        4 0.57517509E-01 0.14164918E+03</pdfrwt>
<totfact> 0.32605784E+04</totfact>
</mgrwt>
</event>
<event>
 6    4  0.3995738E-003  0.1268095E+03  0.7818608E-02  0.1232268E+00
         21   -1    0    0  501  502  0.00000000000E+00  0.00000000000E+00  0.94698518697E+02  0.94698518697E+02  0.00000000000E+00 0.  1.
         -4   -1    0    0    0  501 -0.00000000000E+00 -0.00000000000E+00 -0.18091494005E+03  0.18091939761E+03  0.12700000000E+01 0. -1.
         25    2    1    2    0    0  0.10892903976E+02  0.18357954591E+02 -0.15691862035E+03  0.20175260851E+03  0.12499996710E+03 0.  0.
    9000005    1    3    3    0    0  0.12553814427E+02 -0.53251642134E+02 -0.76475553206E+02  0.94036407230E+02  0.10000000000E+01 0.  0.
    9000005    1    3    3    0    0 -0.16609104504E+01  0.71609596725E+02 -0.80443067140E+02  0.10771620128E+03  0.10000000000E+01 0.  0.
         -4    1    1    2    0  502 -0.10892903976E+02 -0.18357954591E+02  0.70702198996E+02  0.73865307802E+02  0.12700000000E+01 0.  1.
<mgrwt>
<rscale>  1 0.12680955E+03</rscale>
<asrwt>0</asrwt>
<pdfrwt beam="1">  1       21 0.14569003E-01 0.12680955E+03</pdfrwt>
<pdfrwt beam="2">  1       -4 0.27834065E-01 0.12680955E+03</pdfrwt>
<totfact> 0.20515419E+04</totfact>
</mgrwt>
</event>
<event>
 6    4  0.3995738E-003  0.1297191E+03  0.7818608E-02  0.1227873E+00
          4   -1    0    0  502    0 -0.00000000000E+00  0.00000000000E+00  0.10000710035E+03  0.10001516395E+03  0.12700000000E+01 0. -1.
         21   -1    0    0  501  502  0.00000000000E+00 -0.00000000000E+00 -0.68062971279E+02  0.68062971279E+02  0.00000000000E+00 0. -1.
         25    2    1    2    0    0  0.42594711678E+01 -0.34420934422E+02  0.30935185752E+02  0.13335674862E+03  0.12499637141E+03 0.  0.
    9000005    1    3    3    0    0 -0.25455544308E+02  0.41148776747E+02  0.14269300434E+02  0.50456114582E+02  0.10000000000E+01 0.  0.
    9000005    1    3    3    0    0  0.29715015476E+02 -0.75569711169E+02  0.16665885318E+02  0.82900634041E+02  0.10000000000E+01 0.  0.
          4    1    1    2  501    0 -0.42594711678E+01  0.34420934422E+02  0.10089433149E+01  0.34721386604E+02  0.12700000000E+01 0.  1.
<mgrwt>
<rscale>  1 0.12971907E+03</rscale>
<asrwt>0</asrwt>
<pdfrwt beam="2">  1       21 0.10471226E-01 0.12971907E+03</pdfrwt>
<pdfrwt beam="1">  1        4 0.15387239E-01 0.12971907E+03</pdfrwt>
<totfact> 0.10781690E+05</totfact>
</mgrwt>
</event>
<event>
 6    4  0.3995738E-003  0.1274732E+03  0.7818608E-02  0.1231254E+00
         -4   -1    0    0    0  501 -0.00000000000E+00  0.00000000000E+00  0.19911386001E+03  0.19911791016E+03  0.12700000000E+01 0.  1.
         21   -1    0    0  501  502  0.00000000000E+00 -0.00000000000E+00 -0.29197425822E+02  0.29197425822E+02  0.00000000000E+00 0.  1.
         25    2    1    2    0    0 -0.66186493408E+01 -0.24099296781E+02  0.14256992365E+03  0.19124746360E+03  0.12499930632E+03 0.  0.
    9000005    1    3    3    0    0 -0.39780001533E+02  0.27875585903E+02  0.11271286216E+03  0.12273828298E+03  0.10000000000E+01 0.  0.
    9000005    1    3    3    0    0  0.33161352192E+02 -0.51974882684E+02  0.29857061485E+02  0.68509180624E+02  0.10000000000E+01 0.  0.
         -4    1    1    2    0  502  0.66186493408E+01  0.24099296781E+02  0.27346510540E+02  0.37067872385E+02  0.12700000000E+01 0. -1.
<mgrwt>
<rscale>  1 0.12747317E+03</rscale>
<asrwt>0</asrwt>
<pdfrwt beam="2">  1       21 0.44919118E-02 0.12747317E+03</pdfrwt>
<pdfrwt beam="1">  1       -4 0.30635337E-01 0.12747317E+03</pdfrwt>
<totfact> 0.13090197E+05</totfact>
</mgrwt>
</event>
<event>
 6    4  0.3995738E-003  0.1371193E+03  0.7818608E-02  0.1217259E+00
         21   -1    0    0  501  502  0.00000000000E+00  0.00000000000E+00  0.31888451105E+03  0.31888451105E+03  0.00000000000E+00 0.  1.
         -4   -1    0    0    0  501 -0.00000000000E+00 -0.00000000000E+00 -0.33437204945E+02  0.33461314597E+02  0.12700000000E+01 0. -1.
         25    2    1    2    0    0  0.56263193642E+02 -0.30987098360E+01  0.13820762693E+03  0.19468706444E+03  0.12500622368E+03 0.  0.
    9000005    1    3    3    0    0  0.65768414255E+02  0.10278829788E+02  0.15651217100E+03  0.17008291603E+03  0.10000000000E+01 0.  0.
    9000005    1    3    3    0    0 -0.95052206130E+01 -0.13377539624E+02 -0.18304544070E+02  0.24604148408E+02  0.10000000000E+01 0.  0.
         -4    1    1    2    0  502 -0.56263193642E+02  0.30987098360E+01  0.14723967918E+03  0.15765876121E+03  0.12700000000E+01 0.  1.
<mgrwt>
<rscale>  1 0.13711931E+03</rscale>
<asrwt>0</asrwt>
<pdfrwt beam="1">  1       21 0.49059153E-01 0.13711931E+03</pdfrwt>
<pdfrwt beam="2">  1       -4 0.51462347E-02 0.13711931E+03</pdfrwt>
<totfact> 0.36924164E+04</totfact>
</mgrwt>
</event>
<event>
 6    4  0.3995738E-003  0.1285952E+03  0.7818608E-02  0.1229555E+00
         21   -1    0    0  501  502  0.00000000000E+00  0.00000000000E+00  0.71638543973E+02  0.71638543973E+02  0.00000000000E+00 0.  1.
         -4   -1    0    0    0  501 -0.00000000000E+00 -0.00000000000E+00 -0.20209638112E+03  0.20210037150E+03  0.12700000000E+01 0. -1.
         25    2    1    2    0    0  0.29714353282E+02  0.53292468064E+01 -0.17667607785E+03  0.21852041916E+03  0.12500157376E+03 0.  0.
    9000005    1    3    3    0    0  0.31959293542E+02  0.34145011781E+02 -0.80920818371E+01  0.47473782888E+02  0.10000000000E+01 0.  0.
    9000005    1    3    3    0    0 -0.22449402599E+01 -0.28815764974E+02 -0.16858399601E+03  0.17104663627E+03  0.10000000000E+01 0.  0.
         -4    1    1    2    0  502 -0.29714353282E+02 -0.53292468064E+01  0.46218240700E+02  0.55218496321E+02  0.12700000000E+01 0.  1.
<mgrwt>
<rscale>  1 0.12859525E+03</rscale>
<asrwt>0</asrwt>
<pdfrwt beam="1">  1       21 0.11021315E-01 0.12859525E+03</pdfrwt>
<pdfrwt beam="2">  1       -4 0.31092923E-01 0.12859525E+03</pdfrwt>
<totfact> 0.27402927E+04</totfact>
</mgrwt>
</event>
<event>
 6    4  0.3995738E-003  0.1280313E+03  0.7818608E-02  0.1230407E+00
         -4   -1    0    0    0  501 -0.00000000000E+00  0.00000000000E+00  0.21783346112E+03  0.21783716323E+03  0.12700000000E+01 0.  1.
         21   -1    0    0  501  502  0.00000000000E+00 -0.00000000000E+00 -0.31695783195E+02  0.31695783195E+02  0.00000000000E+00 0.  1.
         25    2    1    2    0    0 -0.27531160884E+02 -0.30777311198E+01  0.11102868020E+03  0.16946789982E+03  0.12499825597E+03 0.  0.
    9000005    1    3    3    0    0 -0.59837907369E+02  0.69340655032E+01  0.76961123877E+01  0.60736204760E+02  0.10000000000E+01 0.  0.
    9000005    1    3    3    0    0  0.32306746485E+02 -0.10011796623E+02  0.10333256781E+03  0.10873169506E+03  0.10000000000E+01 0.  0.
         -4    1    1    2    0  502  0.27531160884E+02  0.30777311198E+01  0.75108997723E+02  0.80065046603E+02  0.12700000000E+01 0. -1.
<mgrwt>
<rscale>  1 0.12803125E+03</rscale>
<asrwt>0</asrwt>
<pdfrwt beam="2">  1       21 0.48762745E-02 0.12803125E+03</pdfrwt>
<pdfrwt beam="1">  1       -4 0.33515081E-01 0.12803125E+03</pdfrwt>
<totfact> 0.96217551E+04</totfact>
</mgrwt>
</event>
<event>
 6    4  0.3995738E-003  0.1295983E+03  0.7818608E-02  0.1228053E+00
         21   -1    0    0  501  502  0.00000000000E+00  0.00000000000E+00  0.22986008137E+03  0.22986008137E+03  0.00000000000E+00 0. -1.
         -4   -1    0    0    0  501 -0.00000000000E+00 -0.00000000000E+00 -0.34171777184E+02  0.34195368925E+02  0.12700000000E+01 0.  1.
         25    2    1    2    0    0 -0.40726687762E+01 -0.33985562451E+02  0.10396650649E+03  0.16614678796E+03  0.12499646232E+03 0.  0.
    9000005    1    3    3    0    0 -0.49943556520E+02  0.55951950558E+01  0.55495074689E+01  0.50571356307E+02  0.10000000000E+01 0.  0.
    9000005    1    3    3    0    0  0.45870887744E+02 -0.39580757507E+02  0.98416999016E+02  0.11557543166E+03  0.10000000000E+01 0.  0.
         -4    1    1    2    0  502  0.40726687762E+01  0.33985562451E+02  0.91721797697E+02  0.97908662328E+02  0.12700000000E+01 0. -1.
<mgrwt>
<rscale>  1 0.12959831E+03</rscale>
<asrwt>0</asrwt>
<pdfrwt beam="1">  1       21 0.35363088E-01 0.12959831E+03</pdfrwt>
<pdfrwt beam="2">  1       -4 0.52592813E-02 0.12959831E+03</pdfrwt>
<totfact> 0.68476845E+04</totfact>
</mgrwt>
</event>
<event>
 6    4  0.3995738E-003  0.1345418E+03  0.7818608E-02  0.1220868E+00
         -4   -1    0    0    0  501 -0.00000000000E+00  0.00000000000E+00  0.22480994158E+03  0.22481352880E+03  0.12700000000E+01 0.  1.
         21   -1    0    0  501  502  0.00000000000E+00 -0.00000000000E+00 -0.11942864455E+03  0.11942864455E+03  0.00000000000E+00 0. -1.
         25    2    1    2    0    0  0.14091060053E+02 -0.47729953758E+02  0.19782806236E+03  0.23924348869E+03  0.12499919266E+03 0.  0.
    9000005    1    3    3    0    0 -0.31479462562E+02 -0.74900059575E+02  0.11285067434E+03  0.13905844162E+03  0.10000000000E+01 0.  0.
    9000005    1    3    3    0    0  0.45570522615E+02  0.27170105818E+02  0.84977388018E+02  0.10018504707E+03  0.10000000000E+01 0.  0.
         -4    1    1    2    0  502 -0.14091060053E+02  0.47729953758E+02 -0.92446765335E+02  0.10499868466E+03  0.12700000000E+01 0. -1.
<mgrwt>
<rscale>  1 0.13454183E+03</rscale>
<asrwt>0</asrwt>
<pdfrwt beam="2">  1       21 0.18373638E-01 0.13454183E+03</pdfrwt>
<pdfrwt beam="1">  1       -4 0.34586940E-01 0.13454183E+03</pdfrwt>
<totfact> 0.89642404E+03</totfact>
</mgrwt>
</event>
<event>
 6    4  0.3995738E-003  0.1266360E+03  0.7818608E-02  0.1232534E+00
         21   -1    0    0  501  502  0.00000000000E+00  0.00000000000E+00  0.60503676816E+02  0.60503676816E+02  0.00000000000E+00 0. -1.
         -4   -1    0    0    0  501 -0.00000000000E+00 -0.00000000000E+00 -0.39738081567E+03  0.39738284508E+03  0.12700000000E+01 0.  1.
         25    2    1    2    0    0 -0.11951026437E+02  0.16427274786E+02 -0.38518385365E+03  0.40546673571E+03  0.12499596100E+03 0.  0.
    9000005    1    3    3    0    0  0.54447449388E+02 -0.66192209458E+01 -0.20014111787E+03  0.20752302497E+03  0.10000000000E+01 0.  0.
    9000005    1    3    3    0    0 -0.66398475825E+02  0.23046495732E+02 -0.18504273577E+03  0.19794371073E+03  0.10000000000E+01 0.  0.
         -4    1    1    2    0  502  0.11951026437E+02 -0.16427274786E+02  0.48306714791E+02  0.52419786186E+02  0.12700000000E+01 0. -1.
<mgrwt>
<rscale>  1 0.12663598E+03</rscale>
<asrwt>0</asrwt>
<pdfrwt beam="1">  1       21 0.93082578E-02 0.12663598E+03</pdfrwt>
<pdfrwt beam="2">  1       -4 0.61136693E-01 0.12663598E+03</pdfrwt>
<totfact> 0.95500970E+03</totfact>
</mgrwt>
</event>
<event>
 6    4  0.3995738E-003  0.1376222E+03  0.7818608E-02  0.1216565E+00
          4   -1    0    0  502    0 -0.00000000000E+00  0.00000000000E+00  0.40393035168E+03  0.40393234818E+03  0.12700000000E+01 0.  1.
         21   -1    0    0  501  502  0.00000000000E+00 -0.00000000000E+00 -0.29681980317E+02  0.29681980317E+02  0.00000000000E+00 0. -1.
         25    2    1    2    0    0  0.86005495810E+01 -0.56926007813E+02  0.33955662690E+03  0.36638583861E+03  0.12500136017E+03 0.  0.
    9000005    1    3    3    0    0 -0.20564570473E+02 -0.67999204353E+02  0.88943222883E+02  0.11383624312E+03  0.10000000000E+01 0.  0.
    9000005    1    3    3    0    0  0.29165120054E+02  0.11073196540E+02  0.25061340402E+03  0.25254959549E+03  0.10000000000E+01 0.  0.
          4    1    1    2  501    0 -0.86005495810E+01  0.56926007813E+02  0.34691744462E+02  0.67228489886E+02  0.12700000000E+01 0. -1.
<mgrwt>
<rscale>  1 0.13762224E+03</rscale>
<asrwt>0</asrwt>
<pdfrwt beam="2">  1       21 0.45664588E-02 0.13762224E+03</pdfrwt>
<pdfrwt beam="1">  1        4 0.62145370E-01 0.13762224E+03</pdfrwt>
<totfact> 0.31352381E+04</totfact>
</mgrwt>
</event>
<event>
 6    4  0.3995738E-003  0.1280035E+03  0.7818608E-02  0.1230449E+00
         21   -1    0    0  501  502  0.00000000000E+00  0.00000000000E+00  0.14620241809E+03  0.14620241809E+03  0.00000000000E+00 0. -1.
         -4   -1    0    0    0  501 -0.00000000000E+00 -0.00000000000E+00 -0.41498134311E+02  0.41517563166E+02  0.12700000000E+01 0. -1.
         25    2    1    2    0    0 -0.26718217495E+02 -0.68408290468E+01  0.89625146925E+02  0.15626122482E+03  0.12499697330E+03 0.  0.
    9000005    1    3    3    0    0 -0.24294987366E+01  0.53171497413E+02  0.10919683600E+02  0.54344733795E+02  0.10000000000E+01 0.  0.
    9000005    1    3    3    0    0 -0.24288718758E+02 -0.60012326460E+02  0.78705463326E+02  0.10191649103E+03  0.10000000000E+01 0.  0.
         -4    1    1    2    0  502  0.26718217495E+02  0.68408290468E+01  0.15079136855E+02  0.31458756435E+02  0.12700000000E+01 0.  1.
<mgrwt>
<rscale>  1 0.12800353E+03</rscale>
<asrwt>0</asrwt>
<pdfrwt beam="1">  1       21 0.22492679E-01 0.12800353E+03</pdfrwt>
<pdfrwt beam="2">  1       -4 0.63862473E-02 0.12800353E+03</pdfrwt>
<totfact> 0.11878711E+05</totfact>
</mgrwt>
</event>
<event>
 6    4  0.3995738E-003  0.1313120E+03  0.7818608E-02  0.1225522E+00
         -4   -1    0    0    0  501 -0.00000000000E+00  0.00000000000E+00  0.11903317413E+02  0.11970875717E+02  0.12700000000E+01 0. -1.
         21   -1    0    0  501  502  0.00000000000E+00 -0.00000000000E+00 -0.66278490742E+03  0.66278490742E+03  0.00000000000E+00 0. -1.
         25    2    1    2    0    0 -0.37355680445E+02 -0.14837099894E+02 -0.40924384740E+03  0.42979456591E+03  0.12500902309E+03 0.  0.
    9000005    1    3    3    0    0  0.10985365574E+02 -0.47436228907E+02 -0.68216894957E+02  0.83817771548E+02  0.10000000000E+01 0.  0.
    9000005    1    3    3    0    0 -0.48341046019E+02  0.32599129013E+02 -0.34102695245E+03  0.34597679436E+03  0.10000000000E+01 0.  0.
         -4    1    1    2    0  502  0.37355680445E+02  0.14837099894E+02 -0.24163774260E+03  0.24496121722E+03  0.12700000000E+01 0.  1.
<mgrwt>
<rscale>  1 0.13131200E+03</rscale>
<asrwt>0</asrwt>
<pdfrwt beam="2">  1       21 0.10196689E+00 0.13131200E+03</pdfrwt>
<pdfrwt beam="1">  1       -4 0.18365704E-02 0.13131200E+03</pdfrwt>
<totfact> 0.37242141E+04</totfact>
</mgrwt>
</event>
<event>
 6    4  0.3995738E-003  0.1460441E+03  0.7818608E-02  0.1205420E+00
         21   -1    0    0  501  502  0.00000000000E+00  0.00000000000E+00  0.37911144643E+02  0.37911144643E+02  0.00000000000E+00 0.  1.
          4   -1    0    0  502    0 -0.00000000000E+00 -0.00000000000E+00 -0.42994013762E+03  0.42994201334E+03  0.12700000000E+01 0. -1.
         25    2    1    2    0    0  0.37840437416E+02 -0.65360532754E+02 -0.35471706675E+03  0.38360536463E+03  0.12499992154E+03 0.  0.
    9000005    1    3    3    0    0  0.12742072778E+02  0.34797659435E+02 -0.52767069515E+02  0.64487216920E+02  0.10000000000E+01 0.  0.
    9000005    1    3    3    0    0  0.25098364638E+02 -0.10015819219E+03 -0.30194999723E+03  0.31911814771E+03  0.10000000000E+01 0.  0.
          4    1    1    2  501    0 -0.37840437416E+02  0.65360532754E+02 -0.37311926226E+02  0.84247793351E+02  0.12700000000E+01 0.  1.
<mgrwt>
<rscale>  1 0.14604410E+03</rscale>
<asrwt>0</asrwt>
<pdfrwt beam="1">  1       21 0.58324840E-02 0.14604410E+03</pdfrwt>
<pdfrwt beam="2">  1        4 0.66146414E-01 0.14604410E+03</pdfrwt>
<totfact> 0.18290268E+04</totfact>
</mgrwt>
</event>
<event>
 6    4  0.3995738E-003  0.1276250E+03  0.7818608E-02  0.1231023E+00
         21   -1    0    0  501  502  0.00000000000E+00  0.00000000000E+00  0.73701060710E+02  0.73701060710E+02  0.00000000000E+00 0. -1.
         -4   -1    0    0    0  501 -0.00000000000E+00 -0.00000000000E+00 -0.80519067764E+02  0.80529082782E+02  0.12700000000E+01 0. -1.
         25    2    1    2    0    0  0.20254292251E+02  0.15890066103E+02 -0.22392059322E+00  0.12762515464E+03  0.12500159760E+03 0.  0.
    9000005    1    3    3    0    0 -0.42156460905E+02 -0.28617474116E+02  0.18130888635E+00  0.50962337994E+02  0.10000000000E+01 0.  0.
    9000005    1    3    3    0    0  0.62410753156E+02  0.44507540219E+02 -0.40522947957E+00  0.76662816650E+02  0.10000000000E+01 0.  0.
         -4    1    1    2    0  502 -0.20254292251E+02 -0.15890066103E+02 -0.65940864612E+01  0.26604988847E+02  0.12700000000E+01 0.  1.
<mgrwt>
<rscale>  1 0.12762496E+03</rscale>
<asrwt>0</asrwt>
<pdfrwt beam="1">  1       21 0.11338625E-01 0.12762496E+03</pdfrwt>
<pdfrwt beam="2">  1       -4 0.12389161E-01 0.12762496E+03</pdfrwt>
<totfact> 0.13605705E+05</totfact>
</mgrwt>
</event>
<event>
 6    4  0.3995738E-003  0.1436720E+03  0.7818608E-02  0.1208472E+00
         -4   -1    0    0    0  501 -0.00000000000E+00  0.00000000000E+00  0.61777336876E+02  0.61790389637E+02  0.12700000000E+01 0. -1.
         21   -1    0    0  501  502  0.00000000000E+00 -0.00000000000E+00 -0.18639335465E+03  0.18639335465E+03  0.00000000000E+00 0. -1.
         25    2    1    2    0    0 -0.70681909133E+02 -0.47099910478E+01 -0.79737479643E+02  0.16431591745E+03  0.12499415495E+03 0.  0.
    9000005    1    3    3    0    0 -0.58954933477E+02  0.44766224965E+02 -0.85542081492E+02  0.11312889456E+03  0.10000000000E+01 0.  0.
    9000005    1    3    3    0    0 -0.11726975656E+02 -0.49476216013E+02  0.58046018487E+01  0.51187022883E+02  0.10000000000E+01 0.  0.
         -4    1    1    2    0  502  0.70681909133E+02  0.47099910478E+01 -0.44878538129E+02  0.83867826841E+02  0.12700000000E+01 0.  1.
<mgrwt>
<rscale>  1 0.14367204E+03</rscale>
<asrwt>0</asrwt>
<pdfrwt beam="2">  1       21 0.28675900E-01 0.14367204E+03</pdfrwt>
<pdfrwt beam="1">  1       -4 0.95055427E-02 0.14367204E+03</pdfrwt>
<totfact> 0.39367570E+04</totfact>
</mgrwt>
</event>
<event>
 6    4  0.3995738E-003  0.1347003E+03  0.7818608E-02  0.1220643E+00
          4   -1    0    0  502    0 -0.00000000000E+00  0.00000000000E+00  0.14749638714E+04  0.14749644182E+04  0.12700000000E+01 0. -1.
         21   -1    0    0  501  502  0.00000000000E+00 -0.00000000000E+00 -0.65497914827E+01  0.65497914827E+01  0.00000000000E+00 0.  1.
         25    2    1    2    0    0 -0.56181033358E+01  0.49884589655E+02  0.12580015786E+04  0.12651925303E+04  0.12499652570E+03 0.  0.
    9000005    1    3    3    0    0 -0.14773659394E+02  0.81197202921E+02  0.11329239109E+04  0.11359264213E+04  0.10000000000E+01 0.  0.
    9000005    1    3    3    0    0  0.91555560581E+01 -0.31312613266E+02  0.12507766774E+03  0.12926610895E+03  0.10000000000E+01 0.  0.
          4    1    1    2  501    0  0.56181033358E+01 -0.49884589655E+02  0.21041250132E+03  0.21632167941E+03  0.12700000000E+01 0.  1.
<mgrwt>
<rscale>  1 0.13470029E+03</rscale>
<asrwt>0</asrwt>
<pdfrwt beam="2">  1       21 0.10076614E-02 0.13470029E+03</pdfrwt>
<pdfrwt beam="1">  1        4 0.22692677E+00 0.13470029E+03</pdfrwt>
<totfact> 0.15110465E+04</totfact>
</mgrwt>
</event>
<event>
 6    4  0.3995738E-003  0.1408348E+03  0.7818608E-02  0.1212210E+00
         21   -1    0    0  501  502  0.00000000000E+00  0.00000000000E+00  0.11897439509E+02  0.11897439509E+02  0.00000000000E+00 0.  1.
          4   -1    0    0  502    0 -0.00000000000E+00 -0.00000000000E+00 -0.89051225813E+03  0.89051316373E+03  0.12700000000E+01 0. -1.
         25    2    1    2    0    0  0.61890461674E+02 -0.19463443566E+02 -0.58578172025E+03  0.60247379109E+03  0.12500076116E+03 0.  0.
    9000005    1    3    3    0    0 -0.37047136934E+02 -0.17088205011E+02 -0.20632862380E+03  0.21032593303E+03  0.10000000000E+01 0.  0.
    9000005    1    3    3    0    0  0.98937598608E+02 -0.23752385551E+01 -0.37945309645E+03  0.39214785806E+03  0.10000000000E+01 0.  0.
          4    1    1    2  501    0 -0.61890461674E+02  0.19463443566E+02 -0.29283309837E+03  0.29993681215E+03  0.12700000000E+01 0.  1.
<mgrwt>
<rscale>  1 0.14083482E+03</rscale>
<asrwt>0</asrwt>
<pdfrwt beam="1">  1       21 0.18303749E-02 0.14083482E+03</pdfrwt>
<pdfrwt beam="2">  1        4 0.13700720E+00 0.14083482E+03</pdfrwt>
<totfact> 0.23205772E+04</totfact>
</mgrwt>
</event>
<event>
 6    4  0.3995738E-003  0.1274954E+03  0.7818608E-02  0.1231220E+00
         -4   -1    0    0    0  501 -0.00000000000E+00  0.00000000000E+00  0.93569778916E+01  0.94427715880E+01  0.12700000000E+01 0.  1.
         21   -1    0    0  501  502  0.00000000000E+00 -0.00000000000E+00 -0.12109317165E+04  0.12109317165E+04  0.00000000000E+00 0. -1.
         25    2    1    2    0    0 -0.20130183609E+02  0.15044399939E+02 -0.43280704786E+03  0.45119509842E+03  0.12499407143E+03 0.  0.
    9000005    1    3    3    0    0  0.29068196750E+02 -0.79420213798E+01 -0.35516268937E+03  0.35644013759E+03  0.10000000000E+01 0.  0.
    9000005    1    3    3    0    0 -0.49198380360E+02  0.22986421319E+02 -0.77644358492E+02  0.94754960824E+02  0.10000000000E+01 0.  0.
         -4    1    1    2    0  502  0.20130183609E+02 -0.15044399939E+02 -0.76876769079E+03  0.76917938972E+03  0.12700000000E+01 0. -1.
<mgrwt>
<rscale>  1 0.12749540E+03</rscale>
<asrwt>0</asrwt>
<pdfrwt beam="2">  1       21 0.18629731E+00 0.12749540E+03</pdfrwt>
<pdfrwt beam="1">  1       -4 0.14461849E-02 0.12749540E+03</pdfrwt>
<totfact> 0.11552664E+04</totfact>
</mgrwt>
</event>
<event>
 6    4  0.3995738E-003  0.1270525E+03  0.7818608E-02  0.1231896E+00
          4   -1    0    0  502    0 -0.00000000000E+00  0.00000000000E+00  0.50119711796E+02  0.50135799690E+02  0.12700000000E+01 0.  1.
         21   -1    0    0  501  502  0.00000000000E+00 -0.00000000000E+00 -0.72808762170E+03  0.72808762170E+03  0.00000000000E+00 0. -1.
         25    2    1    2    0    0 -0.11883480729E+02 -0.19363236908E+02 -0.30900628857E+02  0.13075617808E+03  0.12500470865E+03 0.  0.
    9000005    1    3    3    0    0 -0.32579891262E+02 -0.41755543707E+02 -0.65753830396E+02  0.84436609102E+02  0.10000000000E+01 0.  0.
    9000005    1    3    3    0    0  0.20696410533E+02  0.22392306799E+02  0.34853201539E+02  0.46319568977E+02  0.10000000000E+01 0.  0.
          4    1    1    2  501    0  0.11883480729E+02  0.19363236908E+02 -0.64706728105E+03  0.64746724331E+03  0.12700000000E+01 0. -1.
<mgrwt>
<rscale>  1 0.12705247E+03</rscale>
<asrwt>0</asrwt>
<pdfrwt beam="2">  1       21 0.11201348E+00 0.12705247E+03</pdfrwt>
<pdfrwt beam="1">  1        4 0.77120475E-02 0.12705247E+03</pdfrwt>
<totfact> 0.30566253E+03</totfact>
</mgrwt>
</event>
<event>
 6    4  0.3995738E-003  0.1283924E+03  0.7818608E-02  0.1229861E+00
         21   -1    0    0  501  502  0.00000000000E+00  0.00000000000E+00  0.23239414563E+02  0.23239414563E+02  0.00000000000E+00 0.  1.
          4   -1    0    0  502    0 -0.00000000000E+00 -0.00000000000E+00 -0.34692945276E+03  0.34693177729E+03  0.12700000000E+01 0. -1.
         25    2    1    2    0    0  0.17170847032E+02 -0.23755811798E+02 -0.31406175009E+03  0.33929250319E+03  0.12500177306E+03 0.  0.
    9000005    1    3    3    0    0  0.19072929818E+02 -0.73797419228E+02 -0.21823233491E+03  0.23116268673E+03  0.10000000000E+01 0.  0.
    9000005    1    3    3    0    0 -0.19020827865E+01  0.50041607430E+02 -0.95829415177E+02  0.10812981645E+03  0.10000000000E+01 0.  0.
          4    1    1    2  501    0 -0.17170847032E+02  0.23755811798E+02 -0.96282881131E+01  0.30878688670E+02  0.12700000000E+01 0.  1.
<mgrwt>
<rscale>  1 0.12839244E+03</rscale>
<asrwt>0</asrwt>
<pdfrwt beam="1">  1       21 0.35752946E-02 0.12839244E+03</pdfrwt>
<pdfrwt beam="2">  1        4 0.53376609E-01 0.12839244E+03</pdfrwt>
<totfact> 0.64107723E+04</totfact>
</mgrwt>
</event>
<event>
 6    4  0.3995738E-003  0.1295817E+03  0.7818608E-02  0.1228078E+00
         -4   -1    0    0    0  501 -0.00000000000E+00  0.00000000000E+00  0.68270420477E+03  0.68270538603E+03  0.12700000000E+01 0. -1.
         21   -1    0    0  501  502  0.00000000000E+00 -0.00000000000E+00 -0.25470857471E+02  0.25470857471E+02  0.00000000000E+00 0.  1.
         25    2    1    2    0    0  0.13734083712E+02 -0.31265791592E+02  0.66119621257E+03  0.67377432523E+03  0.12500094019E+03 0.  0.
    9000005    1    3    3    0    0 -0.47086501303E+02 -0.39492665299E+02  0.22359730402E+03  0.23189127535E+03  0.10000000000E+01 0.  0.
    9000005    1    3    3    0    0  0.60820585015E+02  0.82268737069E+01  0.43759890854E+03  0.44188304988E+03  0.10000000000E+01 0.  0.
         -4    1    1    2    0  502 -0.13734083712E+02  0.31265791592E+02 -0.39628652683E+01  0.34401918267E+02  0.12700000000E+01 0.  1.
<mgrwt>
<rscale>  1 0.12958167E+03</rscale>
<asrwt>0</asrwt>
<pdfrwt beam="2">  1       21 0.39185940E-02 0.12958167E+03</pdfrwt>
<pdfrwt beam="1">  1       -4 0.10503393E+00 0.12958167E+03</pdfrwt>
<totfact> 0.12558237E+04</totfact>
</mgrwt>
</event>
<event>
 6    4  0.3995738E-003  0.1538330E+03  0.7818608E-02  0.1195841E+00
         21   -1    0    0  501  502  0.00000000000E+00  0.00000000000E+00  0.13937556442E+04  0.13937556442E+04  0.00000000000E+00 0. -1.
          4   -1    0    0  502    0 -0.00000000000E+00 -0.00000000000E+00 -0.11676517342E+02  0.11745380251E+02  0.12700000000E+01 0.  1.
         25    2    1    2    0    0  0.87232022784E+02  0.20728248010E+02  0.65025058166E+03  0.66819937754E+03  0.12500201253E+03 0.  0.
    9000005    1    3    3    0    0 -0.32505237621E+01  0.56176201796E+02  0.21654654029E+03  0.22374033088E+03  0.10000000000E+01 0.  0.
    9000005    1    3    3    0    0  0.90482546546E+02 -0.35447953786E+02  0.43370404137E+03  0.44445904666E+03  0.10000000000E+01 0.  0.
          4    1    1    2  501    0 -0.87232022784E+02 -0.20728248010E+02  0.73182854516E+03  0.73730164687E+03  0.12700000000E+01 0. -1.
<mgrwt>
<rscale>  1 0.15383299E+03</rscale>
<asrwt>0</asrwt>
<pdfrwt beam="1">  1       21 0.21442381E+00 0.15383299E+03</pdfrwt>
<pdfrwt beam="2">  1        4 0.18017300E-02 0.15383299E+03</pdfrwt>
<totfact> 0.55007306E+03</totfact>
</mgrwt>
</event>
<event>
 6    4  0.3995738E-003  0.1287274E+03  0.7818608E-02  0.1229356E+00
          4   -1    0    0  502    0 -0.00000000000E+00  0.00000000000E+00  0.88871786814E+02  0.88880860659E+02  0.12700000000E+01 0. -1.
         21   -1    0    0  501  502  0.00000000000E+00 -0.00000000000E+00 -0.88232411013E+02  0.88232411013E+02  0.00000000000E+00 0.  1.
         25    2    1    2    0    0 -0.24726179693E+02  0.18277255350E+02  0.32552273999E+02  0.13277944715E+03  0.12500115607E+03 0.  0.
    9000005    1    3    3    0    0 -0.32247912592E+02  0.10702734235E+02 -0.43932066269E+02  0.55547302664E+02  0.10000000000E+01 0.  0.
    9000005    1    3    3    0    0  0.75217328988E+01  0.75745211155E+01  0.76484340267E+02  0.77232144487E+02  0.10000000000E+01 0.  0.
          4    1    1    2  501    0  0.24726179693E+02 -0.18277255350E+02 -0.31912898197E+02  0.44333824521E+02  0.12700000000E+01 0.  1.
<mgrwt>
<rscale>  1 0.12872735E+03</rscale>
<asrwt>0</asrwt>
<pdfrwt beam="2">  1       21 0.13574217E-01 0.12872735E+03</pdfrwt>
<pdfrwt beam="1">  1        4 0.13673984E-01 0.12872735E+03</pdfrwt>
<totfact> 0.83506388E+04</totfact>
</mgrwt>
</event>
<event>
 6    4  0.3995738E-003  0.1293443E+03  0.7818608E-02  0.1228432E+00
          4   -1    0    0  502    0 -0.00000000000E+00  0.00000000000E+00  0.17690237733E+03  0.17690693600E+03  0.12700000000E+01 0.  1.
         21   -1    0    0  501  502  0.00000000000E+00 -0.00000000000E+00 -0.13126040382E+03  0.13126040382E+03  0.00000000000E+00 0. -1.
         25    2    1    2    0    0 -0.50769350735E+01 -0.32856391778E+02  0.15033240118E+03  0.19831736805E+03  0.12499851948E+03 0.  0.
    9000005    1    3    3    0    0 -0.61490780805E+02 -0.11647112825E+02  0.45468870075E+02  0.77364006535E+02  0.10000000000E+01 0.  0.
    9000005    1    3    3    0    0  0.56413845732E+02 -0.21209278954E+02  0.10486353111E+03  0.12095336151E+03  0.10000000000E+01 0.  0.
          4    1    1    2  501    0  0.50769350735E+01  0.32856391778E+02 -0.10469042768E+03  0.10984997177E+03  0.12700000000E+01 0. -1.
<mgrwt>
<rscale>  1 0.12934430E+03</rscale>
<asrwt>0</asrwt>
<pdfrwt beam="2">  1       21 0.20193908E-01 0.12934430E+03</pdfrwt>
<pdfrwt beam="1">  1        4 0.27216574E-01 0.12934430E+03</pdfrwt>
<totfact> 0.11819972E+04</totfact>
</mgrwt>
</event>
<event>
 6    4  0.3995738E-003  0.1269556E+03  0.7818608E-02  0.1232044E+00
          4   -1    0    0  502    0 -0.00000000000E+00  0.00000000000E+00  0.17616254506E+03  0.17616712288E+03  0.12700000000E+01 0.  1.
         21   -1    0    0  501  502  0.00000000000E+00 -0.00000000000E+00 -0.51204182713E+02  0.51204182713E+02  0.00000000000E+00 0. -1.
         25    2    1    2    0    0 -0.10641969974E+02  0.19462224438E+02  0.14825049338E+03  0.19518177355E+03  0.12500274491E+03 0.  0.
    9000005    1    3    3    0    0 -0.14624738992E+02  0.55770370295E+02  0.18767519944E+02  0.60641874957E+02  0.10000000000E+01 0.  0.
    9000005    1    3    3    0    0  0.39827690183E+01 -0.36308145858E+02  0.12948297343E+03  0.13453989860E+03  0.10000000000E+01 0.  0.
          4    1    1    2  501    0  0.10641969974E+02 -0.19462224438E+02 -0.23292131028E+02  0.32189532038E+02  0.12700000000E+01 0. -1.
<mgrwt>
<rscale>  1 0.12695557E+03</rscale>
<asrwt>0</asrwt>
<pdfrwt beam="2">  1       21 0.78775667E-02 0.12695557E+03</pdfrwt>
<pdfrwt beam="1">  1        4 0.27103493E-01 0.12695557E+03</pdfrwt>
<totfact> 0.63543445E+04</totfact>
</mgrwt>
</event>
<event>
 6    4  0.3995738E-003  0.1329253E+03  0.7818608E-02  0.1223179E+00
         -4   -1    0    0    0  501 -0.00000000000E+00  0.00000000000E+00  0.11650226431E+03  0.11650918629E+03  0.12700000000E+01 0. -1.
         21   -1    0    0  501  502  0.00000000000E+00 -0.00000000000E+00 -0.11845072409E+03  0.11845072409E+03  0.00000000000E+00 0.  1.
         25    2    1    2    0    0  0.13693531208E+02 -0.43089061628E+02  0.69805652801E+02  0.15013983257E+03  0.12499984053E+03 0.  0.
    9000005    1    3    3    0    0  0.58308765254E+02  0.95212329263E+01  0.52431286073E+02  0.78997504651E+02  0.10000000000E+01 0.  0.
    9000005    1    3    3    0    0 -0.44615234046E+02 -0.52610294554E+02  0.17374366728E+02  0.71142327916E+02  0.10000000000E+01 0.  0.
         -4    1    1    2    0  502 -0.13693531208E+02  0.43089061628E+02 -0.71754112574E+02  0.84820077813E+02  0.12700000000E+01 0.  1.
<mgrwt>
<rscale>  1 0.13292532E+03</rscale>
<asrwt>0</asrwt>
<pdfrwt beam="2">  1       21 0.18223188E-01 0.13292532E+03</pdfrwt>
<pdfrwt beam="1">  1       -4 0.17924481E-01 0.13292532E+03</pdfrwt>
<totfact> 0.30610830E+04</totfact>
</mgrwt>
</event>
<event>
 6    4  0.3995738E-003  0.1309201E+03  0.7818608E-02  0.1226097E+00
         -4   -1    0    0    0  501 -0.00000000000E+00  0.00000000000E+00  0.77055625480E+02  0.77066090586E+02  0.12700000000E+01 0.  1.
         21   -1    0    0  501  502  0.00000000000E+00 -0.00000000000E+00 -0.13757131846E+03  0.13757131846E+03  0.00000000000E+00 0.  1.
         25    2    1    2    0    0 -0.35565850729E+02  0.15814545479E+02  0.12877504652E+02  0.13155188717E+03  0.12500015722E+03 0.  0.
    9000005    1    3    3    0    0 -0.79396378598E+02  0.13490789614E+02 -0.11463470261E+02  0.81352304757E+02  0.10000000000E+01 0.  0.
    9000005    1    3    3    0    0  0.43830527870E+02  0.23237558651E+01  0.24340974913E+02  0.50199582412E+02  0.10000000000E+01 0.  0.
         -4    1    1    2    0  502  0.35565850729E+02 -0.15814545479E+02 -0.73393197632E+02  0.83085521876E+02  0.12700000000E+01 0. -1.
<mgrwt>
<rscale>  1 0.13092009E+03</rscale>
<asrwt>0</asrwt>
<pdfrwt beam="2">  1       21 0.21164818E-01 0.13092009E+03</pdfrwt>
<pdfrwt beam="1">  1       -4 0.11855968E-01 0.13092009E+03</pdfrwt>
<totfact> 0.47596749E+04</totfact>
</mgrwt>
</event>
<event>
 6    4  0.3995738E-003  0.1701135E+03  0.7818608E-02  0.1177730E+00
         21   -1    0    0  501  502  0.00000000000E+00  0.00000000000E+00  0.75521570440E+02  0.75521570440E+02  0.00000000000E+00 0. -1.
          4   -1    0    0  502    0 -0.00000000000E+00 -0.00000000000E+00 -0.66583097404E+03  0.66583218523E+03  0.12700000000E+01 0.  1.
         25    2    1    2    0    0 -0.20885350774E+02  0.11347705087E+03 -0.60181102018E+03  0.62539195577E+03  0.12500142153E+03 0.  0.
    9000005    1    3    3    0    0 -0.34475482814E+02  0.13563596534E+03 -0.54849217939E+03  0.56606567186E+03  0.10000000000E+01 0.  0.
    9000005    1    3    3    0    0  0.13590132040E+02 -0.22158914470E+02 -0.53318840789E+02  0.59326283909E+02  0.10000000000E+01 0.  0.
          4    1    1    2  501    0  0.20885350774E+02 -0.11347705087E+03  0.11501616585E+02  0.11596179989E+03  0.12700000000E+01 0. -1.
<mgrwt>
<rscale>  1 0.17011347E+03</rscale>
<asrwt>0</asrwt>
<pdfrwt beam="1">  1       21 0.11618703E-01 0.17011347E+03</pdfrwt>
<pdfrwt beam="2">  1        4 0.10243645E+00 0.17011347E+03</pdfrwt>
<totfact> 0.21034619E+03</totfact>
</mgrwt>
</event>
<event>
 6    4  0.3995738E-003  0.1269150E+03  0.7818608E-02  0.1232106E+00
          4   -1    0    0  502    0 -0.00000000000E+00  0.00000000000E+00  0.59260838833E+01  0.60606410710E+01  0.12700000000E+01 0.  1.
         21   -1    0    0  501  502  0.00000000000E+00 -0.00000000000E+00 -0.14459692761E+04  0.14459692761E+04  0.00000000000E+00 0.  1.
         25    2    1    2    0    0 -0.21877074148E+02 -0.10350077940E+01 -0.68438541164E+03  0.69605374568E+03  0.12501098990E+03 0.  0.
    9000005    1    3    3    0    0 -0.17452899422E+02 -0.42528770209E+01 -0.80749734362E+01  0.19720442621E+02  0.10000000000E+01 0.  0.
    9000005    1    3    3    0    0 -0.44241747266E+01  0.32178692269E+01 -0.67631043821E+03  0.67633330306E+03  0.10000000000E+01 0.  0.
          4    1    1    2  501    0  0.21877074148E+02  0.10350077940E+01 -0.75565778059E+03  0.75597617150E+03  0.12700000000E+01 0. -1.
<mgrwt>
<rscale>  1 0.12691503E+03</rscale>
<asrwt>0</asrwt>
<pdfrwt beam="2">  1       21 0.22245706E+00 0.12691503E+03</pdfrwt>
<pdfrwt beam="1">  1        4 0.92209764E-03 0.12691503E+03</pdfrwt>
<totfact> 0.13575785E+04</totfact>
</mgrwt>
</event>
<event>
 6    4  0.3995738E-003  0.1367706E+03  0.7818608E-02  0.1217742E+00
         -4   -1    0    0    0  501 -0.00000000000E+00  0.00000000000E+00  0.13777956245E+04  0.13777962098E+04  0.12700000000E+01 0.  1.
         21   -1    0    0  501  502  0.00000000000E+00 -0.00000000000E+00 -0.69983718725E+01  0.69983718725E+01  0.00000000000E+00 0. -1.
         25    2    1    2    0    0 -0.25422544778E+02  0.49343308616E+02  0.10911934398E+04  0.10997314783E+04  0.12500053333E+03 0.  0.
    9000005    1    3    3    0    0 -0.19657851463E+02  0.34713262459E+02  0.90423401200E+02  0.98837407894E+02  0.10000000000E+01 0.  0.
    9000005    1    3    3    0    0 -0.57646933150E+01  0.14630046157E+02  0.10007700386E+04  0.10008940704E+04  0.10000000000E+01 0.  0.
         -4    1    1    2    0  502  0.25422544778E+02 -0.49343308616E+02  0.27960381279E+03  0.28506310339E+03  0.12700000000E+01 0. -1.
<mgrwt>
<rscale>  1 0.13677062E+03</rscale>
<asrwt>0</asrwt>
<pdfrwt beam="2">  1       21 0.10766737E-02 0.13677062E+03</pdfrwt>
<pdfrwt beam="1">  1       -4 0.21197725E+00 0.13677062E+03</pdfrwt>
<totfact> 0.16734770E+04</totfact>
</mgrwt>
</event>
<event>
 6    4  0.3995738E-003  0.1285347E+03  0.7818608E-02  0.1229646E+00
          4   -1    0    0  502    0 -0.00000000000E+00  0.00000000000E+00  0.21464826437E+03  0.21465202141E+03  0.12700000000E+01 0.  1.
         21   -1    0    0  501  502  0.00000000000E+00 -0.00000000000E+00 -0.51503421335E+02  0.51503421335E+02  0.00000000000E+00 0. -1.
         25    2    1    2    0    0 -0.20463275822E+02  0.21852923564E+02  0.18764706202E+03  0.22744798143E+03  0.12499947379E+03 0.  0.
    9000005    1    3    3    0    0 -0.52127379731E+02  0.59613496802E+02  0.11259799597E+03  0.13766023905E+03  0.10000000000E+01 0.  0.
    9000005    1    3    3    0    0  0.31664103909E+02 -0.37760573237E+02  0.75049066054E+02  0.89787742388E+02  0.10000000000E+01 0.  0.
          4    1    1    2  501    0  0.20463275822E+02 -0.21852923564E+02 -0.24502218990E+02  0.38707461311E+02  0.12700000000E+01 0. -1.
<mgrwt>
<rscale>  1 0.12853468E+03</rscale>
<asrwt>0</asrwt>
<pdfrwt beam="2">  1       21 0.79236034E-02 0.12853468E+03</pdfrwt>
<pdfrwt beam="1">  1        4 0.33024303E-01 0.12853468E+03</pdfrwt>
<totfact> 0.43400604E+04</totfact>
</mgrwt>
</event>
<event>
 6    4  0.3995738E-003  0.1302053E+03  0.7818608E-02  0.1227151E+00
         21   -1    0    0  501  502  0.00000000000E+00  0.00000000000E+00  0.22636156732E+03  0.22636156732E+03  0.00000000000E+00 0.  1.
          4   -1    0    0  502    0 -0.00000000000E+00 -0.00000000000E+00 -0.35241664148E+02  0.35264540149E+02  0.12700000000E+01 0. -1.
         25    2    1    2    0    0 -0.35800828229E+02  0.68323804417E+01  0.10221976127E+03  0.16553641575E+03  0.12500017848E+03 0.  0.
    9000005    1    3    3    0    0  0.19022124428E+02 -0.25255420870E+02 -0.12809810510E+02  0.34128708537E+02  0.10000000000E+01 0.  0.
    9000005    1    3    3    0    0 -0.54822952658E+02  0.32087801312E+02  0.11502957178E+03  0.13140770721E+03  0.10000000000E+01 0.  0.
          4    1    1    2  501    0  0.35800828229E+02 -0.68323804417E+01  0.88900141906E+02  0.96089691723E+02  0.12700000000E+01 0.  1.
<mgrwt>
<rscale>  1 0.13020532E+03</rscale>
<asrwt>0</asrwt>
<pdfrwt beam="1">  1       21 0.34824856E-01 0.13020532E+03</pdfrwt>
<pdfrwt beam="2">  1        4 0.54238284E-02 0.13020532E+03</pdfrwt>
<totfact> 0.67190968E+04</totfact>
</mgrwt>
</event>
<event>
 6    4  0.3995738E-003  0.1517422E+03  0.7818608E-02  0.1198348E+00
         21   -1    0    0  501  502  0.00000000000E+00  0.00000000000E+00  0.11165061184E+03  0.11165061184E+03  0.00000000000E+00 0. -1.
         -4   -1    0    0    0  501 -0.00000000000E+00 -0.00000000000E+00 -0.85093339965E+03  0.85093434738E+03  0.12700000000E+01 0.  1.
         25    2    1    2    0    0 -0.21280202797E+02 -0.83353423788E+02 -0.82635792283E+03  0.84017445180E+03  0.12500021014E+03 0.  0.
    9000005    1    3    3    0    0 -0.20873506884E+02 -0.26698412718E+01 -0.17743113925E+02  0.27543591519E+02  0.10000000000E+01 0.  0.
    9000005    1    3    3    0    0 -0.40669591319E+00 -0.80683582516E+02 -0.80861480891E+03  0.81263086028E+03  0.10000000000E+01 0.  0.
         -4    1    1    2    0  502  0.21280202797E+02  0.83353423788E+02  0.87075135016E+02  0.12241050742E+03  0.12700000000E+01 0. -1.
<mgrwt>
<rscale>  1 0.15174219E+03</rscale>
<asrwt>0</asrwt>
<pdfrwt beam="1">  1       21 0.17177018E-01 0.15174219E+03</pdfrwt>
<pdfrwt beam="2">  1       -4 0.13091345E+00 0.15174219E+03</pdfrwt>
<totfact> 0.57551908E+02</totfact>
</mgrwt>
</event>
<event>
 6    4  0.3995738E-003  0.1290722E+03  0.7818608E-02  0.1228839E+00
          4   -1    0    0  502    0 -0.00000000000E+00  0.00000000000E+00  0.23595043950E+02  0.23629198018E+02  0.12700000000E+01 0. -1.
         21   -1    0    0  501  502  0.00000000000E+00 -0.00000000000E+00 -0.32071011853E+03  0.32071011853E+03  0.00000000000E+00 0.  1.
         25    2    1    2    0    0 -0.26393713005E+02  0.18381771245E+02 -0.17137079054E+03  0.21454041259E+03  0.12500049273E+03 0.  0.
    9000005    1    3    3    0    0 -0.63739985024E+02  0.41790960340E+02 -0.67952096432E+02  0.10211639176E+03  0.10000000000E+01 0.  0.
    9000005    1    3    3    0    0  0.37346272020E+02 -0.23409189095E+02 -0.10341869411E+03  0.11242402083E+03  0.10000000000E+01 0.  0.
          4    1    1    2  501    0  0.26393713005E+02 -0.18381771245E+02 -0.12574428404E+03  0.12979890396E+03  0.12700000000E+01 0.  1.
<mgrwt>
<rscale>  1 0.12907223E+03</rscale>
<asrwt>0</asrwt>
<pdfrwt beam="2">  1       21 0.49340018E-01 0.12907223E+03</pdfrwt>
<pdfrwt beam="1">  1        4 0.36328274E-02 0.12907223E+03</pdfrwt>
<totfact> 0.63173746E+04</totfact>
</mgrwt>
</event>
<event>
 6    4  0.3995738E-003  0.1329382E+03  0.7818608E-02  0.1223160E+00
         21   -1    0    0  501  502  0.00000000000E+00  0.00000000000E+00  0.52017795792E+03  0.52017795792E+03  0.00000000000E+00 0.  1.
         -4   -1    0    0    0  501 -0.00000000000E+00 -0.00000000000E+00 -0.37166673978E+02  0.37188365850E+02  0.12700000000E+01 0. -1.
         25    2    1    2    0    0 -0.33806668299E+02  0.30080413950E+02  0.87224447978E+02  0.15899896247E+03  0.12499937447E+03 0.  0.
    9000005    1    3    3    0    0 -0.69786423304E+01  0.68678992875E+02  0.11683815319E+02  0.70021547052E+02  0.10000000000E+01 0.  0.
    9000005    1    3    3    0    0 -0.26828025969E+02 -0.38598578926E+02  0.75540632659E+02  0.88977415421E+02  0.10000000000E+01 0.  0.
         -4    1    1    2    0  502  0.33806668299E+02 -0.30080413950E+02  0.39578683596E+03  0.39836736130E+03  0.12700000000E+01 0.  1.
<mgrwt>
<rscale>  1 0.13293820E+03</rscale>
<asrwt>0</asrwt>
<pdfrwt beam="1">  1       21 0.80027373E-01 0.13293820E+03</pdfrwt>
<pdfrwt beam="2">  1       -4 0.57197381E-02 0.13293820E+03</pdfrwt>
<totfact> 0.10875943E+04</totfact>
</mgrwt>
</event>
<event>
 6    4  0.3995738E-003  0.1438820E+03  0.7818608E-02  0.1208199E+00
         21   -1    0    0  501  502  0.00000000000E+00  0.00000000000E+00  0.17521366018E+03  0.17521366018E+03  0.00000000000E+00 0. -1.
         -4   -1    0    0    0  501 -0.00000000000E+00 -0.00000000000E+00 -0.95456437365E+02  0.95464885347E+02  0.12700000000E+01 0. -1.
         25    2    1    2    0    0  0.64886805065E+02 -0.29434209589E+02 -0.22918822585E+02  0.14569593328E+03  0.12500144951E+03 0.  0.
    9000005    1    3    3    0    0 -0.11940266846E+02  0.39110396805E+02 -0.73822778056E+01  0.41565504162E+02  0.10000000000E+01 0.  0.
    9000005    1    3    3    0    0  0.76827071911E+02 -0.68544606395E+02 -0.15536544779E+02  0.10413042912E+03  0.10000000000E+01 0.  0.
         -4    1    1    2    0  502 -0.64886805065E+02  0.29434209589E+02  0.10267604540E+03  0.12498261225E+03  0.12700000000E+01 0.  1.
<mgrwt>
<rscale>  1 0.14388201E+03</rscale>
<asrwt>0</asrwt>
<pdfrwt beam="1">  1       21 0.26955948E-01 0.14388201E+03</pdfrwt>
<pdfrwt beam="2">  1       -4 0.14686610E-01 0.14388201E+03</pdfrwt>
<totfact> 0.21058353E+04</totfact>
</mgrwt>
</event>
<event>
 6    4  0.3995738E-003  0.1284676E+03  0.7818608E-02  0.1229747E+00
         21   -1    0    0  501  502  0.00000000000E+00  0.00000000000E+00  0.79201667074E+02  0.79201667074E+02  0.00000000000E+00 0.  1.
         -4   -1    0    0    0  501 -0.00000000000E+00 -0.00000000000E+00 -0.21512651998E+03  0.21513026867E+03  0.12700000000E+01 0. -1.
         25    2    1    2    0    0  0.99513753238E+01  0.27923638607E+02 -0.19192750829E+03  0.23095473343E+03  0.12500064397E+03 0.  0.
    9000005    1    3    3    0    0  0.64350111988E+02  0.86000968232E+01 -0.13534642793E+03  0.15011513625E+03  0.10000000000E+01 0.  0.
    9000005    1    3    3    0    0 -0.54398736664E+02  0.19323541784E+02 -0.56581080359E+02  0.80839597180E+02  0.10000000000E+01 0.  0.
         -4    1    1    2    0  502 -0.99513753238E+01 -0.27923638607E+02  0.56002655380E+02  0.63377202317E+02  0.12700000000E+01 0.  1.
<mgrwt>
<rscale>  1 0.12846759E+03</rscale>
<asrwt>0</asrwt>
<pdfrwt beam="1">  1       21 0.12184872E-01 0.12846759E+03</pdfrwt>
<pdfrwt beam="2">  1       -4 0.33097459E-01 0.12846759E+03</pdfrwt>
<totfact> 0.20372759E+04</totfact>
</mgrwt>
</event>
<event>
 6    4  0.3995738E-003  0.1344764E+03  0.7818608E-02  0.1220961E+00
         21   -1    0    0  501  502  0.00000000000E+00  0.00000000000E+00  0.10344119016E+03  0.10344119016E+03  0.00000000000E+00 0. -1.
         -4   -1    0    0    0  501 -0.00000000000E+00 -0.00000000000E+00 -0.87933432035E+02  0.87942602699E+02  0.12700000000E+01 0. -1.
         25    2    1    2    0    0  0.47736563567E+02  0.13426926007E+02 -0.11385511950E+02  0.13495753374E+03  0.12499937675E+03 0.  0.
    9000005    1    3    3    0    0  0.72179203468E+02  0.41602722222E+02 -0.35463145597E+02  0.90549757621E+02  0.10000000000E+01 0.  0.
    9000005    1    3    3    0    0 -0.24442639901E+02 -0.28175796216E+02  0.24077633647E+02  0.44407776118E+02  0.10000000000E+01 0.  0.
         -4    1    1    2    0  502 -0.47736563567E+02 -0.13426926007E+02  0.26893270078E+02  0.56426259124E+02  0.12700000000E+01 0.  1.
<mgrwt>
<rscale>  1 0.13447641E+03</rscale>
<asrwt>0</asrwt>
<pdfrwt beam="1">  1       21 0.15914029E-01 0.13447641E+03</pdfrwt>
<pdfrwt beam="2">  1       -4 0.13529525E-01 0.13447641E+03</pdfrwt>
<totfact> 0.64237867E+04</totfact>
</mgrwt>
</event>
<event>
 6    4  0.3995738E-003  0.1331628E+03  0.7818608E-02  0.1222837E+00
         -4   -1    0    0    0  501 -0.00000000000E+00  0.00000000000E+00  0.67467619984E+01  0.68652529059E+01  0.12700000000E+01 0.  1.
         21   -1    0    0  501  502  0.00000000000E+00 -0.00000000000E+00 -0.12154144818E+04  0.12154144818E+04  0.00000000000E+00 0.  1.
         25    2    1    2    0    0  0.45016183369E+02  0.89593166942E+01 -0.79549775075E+03  0.80656617666E+03  0.12500239900E+03 0.  0.
    9000005    1    3    3    0    0  0.73127471418E+02  0.32405964851E+02 -0.32709617232E+03  0.33673532571E+03  0.10000000000E+01 0.  0.
    9000005    1    3    3    0    0 -0.28111288049E+02 -0.23446648157E+02 -0.46840157843E+03  0.46983085094E+03  0.10000000000E+01 0.  0.
         -4    1    1    2    0  502 -0.45016183369E+02 -0.89593166942E+01 -0.41316996905E+03  0.41571355805E+03  0.12700000000E+01 0. -1.
<mgrwt>
<rscale>  1 0.13316278E+03</rscale>
<asrwt>0</asrwt>
<pdfrwt beam="2">  1       21 0.18698674E+00 0.13316278E+03</pdfrwt>
<pdfrwt beam="1">  1       -4 0.10471297E-02 0.13316278E+03</pdfrwt>
<totfact> 0.18670753E+04</totfact>
</mgrwt>
</event>
<event>
 6    4  0.3995738E-003  0.1316411E+03  0.7818608E-02  0.1225041E+00
         -4   -1    0    0    0  501 -0.00000000000E+00  0.00000000000E+00  0.16866980139E+02  0.16914724917E+02  0.12700000000E+01 0.  1.
         21   -1    0    0  501  502  0.00000000000E+00 -0.00000000000E+00 -0.58497515127E+03  0.58497515127E+03  0.00000000000E+00 0. -1.
         25    2    1    2    0    0  0.39720667010E+02 -0.11248468201E+02 -0.26411279290E+03  0.29510157408E+03  0.12500044890E+03 0.  0.
    9000005    1    3    3    0    0 -0.17304464292E+02  0.46262036515E+02 -0.81028230631E+02  0.94900972946E+02  0.10000000000E+01 0.  0.
    9000005    1    3    3    0    0  0.57025131302E+02 -0.57510504716E+02 -0.18308456227E+03  0.20020060113E+03  0.10000000000E+01 0.  0.
         -4    1    1    2    0  502 -0.39720667010E+02  0.11248468201E+02 -0.30399537823E+03  0.30678830211E+03  0.12700000000E+01 0. -1.
<mgrwt>
<rscale>  1 0.13164107E+03</rscale>
<asrwt>0</asrwt>
<pdfrwt beam="2">  1       21 0.89996172E-01 0.13164107E+03</pdfrwt>
<pdfrwt beam="1">  1       -4 0.25986989E-02 0.13164107E+03</pdfrwt>
<totfact> 0.29111197E+04</totfact>
</mgrwt>
</event>
<event>
 6    4  0.3995738E-003  0.1287614E+03  0.7818608E-02  0.1229305E+00
         21   -1    0    0  501  502  0.00000000000E+00  0.00000000000E+00  0.59617488239E+02  0.59617488239E+02  0.00000000000E+00 0. -1.
         -4   -1    0    0    0  501 -0.00000000000E+00 -0.00000000000E+00 -0.13184706991E+03  0.13185318632E+03  0.12700000000E+01 0.  1.
         25    2    1    2    0    0 -0.29002684158E+02  0.10659886953E+02 -0.88773666930E+02  0.15639777141E+03  0.12499884033E+03 0.  0.
    9000005    1    3    3    0    0 -0.54320528241E+02  0.28787997392E+02 -0.10469185311E+03  0.12141191329E+03  0.10000000000E+01 0.  0.
    9000005    1    3    3    0    0  0.25317844084E+02 -0.18128110439E+02  0.15918186177E+02  0.34985858119E+02  0.10000000000E+01 0.  0.
         -4    1    1    2    0  502  0.29002684158E+02 -0.10659886953E+02  0.16544085262E+02  0.35072903150E+02  0.12700000000E+01 0. -1.
<mgrwt>
<rscale>  1 0.12876140E+03</rscale>
<asrwt>0</asrwt>
<pdfrwt beam="1">  1       21 0.91719213E-02 0.12876140E+03</pdfrwt>
<pdfrwt beam="2">  1       -4 0.20285676E-01 0.12876140E+03</pdfrwt>
<totfact> 0.83156112E+04</totfact>
</mgrwt>
</event>
<event>
 6    4  0.3995738E-003  0.1310368E+03  0.7818608E-02  0.1225925E+00
         21   -1    0    0  501  502  0.00000000000E+00  0.00000000000E+00  0.15973509121E+03  0.15973509121E+03  0.00000000000E+00 0.  1.
         -4   -1    0    0    0  501 -0.00000000000E+00 -0.00000000000E+00 -0.45416327008E+02  0.45434080368E+02  0.12700000000E+01 0.  1.
         25    2    1    2    0    0 -0.27208972859E+02  0.28354474929E+02  0.89039016195E+02  0.15842536973E+03  0.12500538754E+03 0.  0.
    9000005    1    3    3    0    0  0.43050239326E+02  0.30825708189E+02  0.12340682845E+02  0.54376831872E+02  0.10000000000E+01 0.  0.
    9000005    1    3    3    0    0 -0.70259212185E+02 -0.24712332598E+01  0.76698333351E+02  0.10404853785E+03  0.10000000000E+01 0.  0.
         -4    1    1    2    0  502  0.27208972859E+02 -0.28354474929E+02  0.25279748011E+02  0.46743801857E+02  0.12700000000E+01 0. -1.
<mgrwt>
<rscale>  1 0.13103683E+03</rscale>
<asrwt>0</asrwt>
<pdfrwt beam="1">  1       21 0.24574629E-01 0.13103683E+03</pdfrwt>
<pdfrwt beam="2">  1       -4 0.69888813E-02 0.13103683E+03</pdfrwt>
<totfact> 0.87078208E+04</totfact>
</mgrwt>
</event>
<event>
 6    4  0.3995738E-003  0.1314938E+03  0.7818608E-02  0.1225256E+00
          4   -1    0    0  502    0 -0.00000000000E+00  0.00000000000E+00  0.14796933784E+02  0.14851334937E+02  0.12700000000E+01 0.  1.
         21   -1    0    0  501  502  0.00000000000E+00 -0.00000000000E+00 -0.10389810184E+04  0.10389810184E+04  0.00000000000E+00 0. -1.
         25    2    1    2    0    0  0.21720120704E+02  0.34554551080E+02 -0.28892438206E+03  0.31743964306E+03  0.12499939118E+03 0.  0.
    9000005    1    3    3    0    0  0.11667510870E+01 -0.22862185071E+02 -0.79732846998E+00  0.22927637188E+02  0.10000000000E+01 0.  0.
    9000005    1    3    3    0    0  0.20553369617E+02  0.57416736152E+02 -0.28812705359E+03  0.29451200587E+03  0.10000000000E+01 0.  0.
          4    1    1    2  501    0 -0.21720120704E+02 -0.34554551080E+02 -0.73525970259E+03  0.73639271031E+03  0.12700000000E+01 0. -1.
<mgrwt>
<rscale>  1 0.13149383E+03</rscale>
<asrwt>0</asrwt>
<pdfrwt beam="2">  1       21 0.15984326E+00 0.13149383E+03</pdfrwt>
<pdfrwt beam="1">  1        4 0.22806953E-02 0.13149383E+03</pdfrwt>
<totfact> 0.87266347E+03</totfact>
</mgrwt>
</event>
<event>
 6    4  0.3995738E-003  0.1295672E+03  0.7818608E-02  0.1228099E+00
         21   -1    0    0  501  502  0.00000000000E+00  0.00000000000E+00  0.38183226326E+03  0.38183226326E+03  0.00000000000E+00 0. -1.
          4   -1    0    0  502    0 -0.00000000000E+00 -0.00000000000E+00 -0.40663467028E+02  0.40683294492E+02  0.12700000000E+01 0.  1.
         25    2    1    2    0    0 -0.26216896958E+02 -0.21800307907E+02  0.66314616864E+02  0.14555163966E+03  0.12500028914E+03 0.  0.
    9000005    1    3    3    0    0  0.43853621296E+01 -0.70783414374E+02  0.28099885745E+02  0.76289755081E+02  0.10000000000E+01 0.  0.
    9000005    1    3    3    0    0 -0.30602259088E+02  0.48983106466E+02  0.38214731119E+02  0.69261884575E+02  0.10000000000E+01 0.  0.
          4    1    1    2  501    0  0.26216896958E+02  0.21800307907E+02  0.27485417937E+03  0.27696391810E+03  0.12700000000E+01 0. -1.
<mgrwt>
<rscale>  1 0.12956717E+03</rscale>
<asrwt>0</asrwt>
<pdfrwt beam="1">  1       21 0.58743423E-01 0.12956717E+03</pdfrwt>
<pdfrwt beam="2">  1        4 0.62576059E-02 0.12956717E+03</pdfrwt>
<totfact> 0.18374312E+04</totfact>
</mgrwt>
</event>
<event>
 6    4  0.3995738E-003  0.1457732E+03  0.7818608E-02  0.1205765E+00
         -4   -1    0    0    0  501 -0.00000000000E+00  0.00000000000E+00  0.32414172027E+03  0.32414420822E+03  0.12700000000E+01 0. -1.
         21   -1    0    0  501  502  0.00000000000E+00 -0.00000000000E+00 -0.12021150359E+03  0.12021150359E+03  0.00000000000E+00 0.  1.
         25    2    1    2    0    0  0.38356728714E+01  0.74905312753E+02  0.29338912661E+03  0.32760800206E+03  0.12499722051E+03 0.  0.
    9000005    1    3    3    0    0  0.89164780399E+01  0.23416032464E+02 -0.43106238143E+01  0.25443970497E+02  0.10000000000E+01 0.  0.
    9000005    1    3    3    0    0 -0.50808051685E+01  0.51489280289E+02  0.29769975043E+03  0.30216403156E+03  0.10000000000E+01 0.  0.
         -4    1    1    2    0  502 -0.38356728714E+01 -0.74905312753E+02 -0.89458909935E+02  0.11674770975E+03  0.12700000000E+01 0.  1.
<mgrwt>
<rscale>  1 0.14577319E+03</rscale>
<asrwt>0</asrwt>
<pdfrwt beam="2">  1       21 0.18494078E-01 0.14577319E+03</pdfrwt>
<pdfrwt beam="1">  1       -4 0.49868664E-01 0.14577319E+03</pdfrwt>
<totfact> 0.43145105E+03</totfact>
</mgrwt>
</event>
<event>
 6    4  0.3995738E-003  0.1280777E+03  0.7818608E-02  0.1230336E+00
         21   -1    0    0  501  502  0.00000000000E+00  0.00000000000E+00  0.64336452137E+03  0.64336452137E+03  0.00000000000E+00 0.  1.
          4   -1    0    0  502    0 -0.00000000000E+00 -0.00000000000E+00 -0.20370920449E+02  0.20410470350E+02  0.12700000000E+01 0.  1.
         25    2    1    2    0    0 -0.27570197922E+02 -0.44200841464E+01  0.18567460667E+03  0.22556366303E+03  0.12499701421E+03 0.  0.
    9000005    1    3    3    0    0 -0.72526801625E+02  0.77033425080E+01  0.70995643536E+02  0.10178830896E+03  0.10000000000E+01 0.  0.
    9000005    1    3    3    0    0  0.44956603703E+02 -0.12123426654E+02  0.11467896313E+03  0.12377535407E+03  0.10000000000E+01 0.  0.
          4    1    1    2  501    0  0.27570197922E+02  0.44200841464E+01  0.43731899426E+03  0.43821132869E+03  0.12700000000E+01 0. -1.
<mgrwt>
<rscale>  1 0.12807774E+03</rscale>
<asrwt>0</asrwt>
<pdfrwt beam="1">  1       21 0.98979142E-01 0.12807774E+03</pdfrwt>
<pdfrwt beam="2">  1        4 0.31371270E-02 0.12807774E+03</pdfrwt>
<totfact> 0.17375925E+04</totfact>
</mgrwt>
</event>
<event>
 6    4  0.3995738E-003  0.1275162E+03  0.7818608E-02  0.1231188E+00
         21   -1    0    0  501  502  0.00000000000E+00  0.00000000000E+00  0.12333955373E+03  0.12333955373E+03  0.00000000000E+00 0.  1.
          4   -1    0    0  502    0 -0.00000000000E+00 -0.00000000000E+00 -0.49296768537E+02  0.49313124908E+02  0.12700000000E+01 0.  1.
         25    2    1    2    0    0  0.13808394409E+02 -0.21092350058E+02  0.73955379172E+02  0.14741026341E+03  0.12499931465E+03 0.  0.
    9000005    1    3    3    0    0  0.29445951794E+02  0.44999630902E+02  0.11214632801E+02  0.54943596962E+02  0.10000000000E+01 0.  0.
    9000005    1    3    3    0    0 -0.15637557384E+02 -0.66091980960E+02  0.62740746371E+02  0.92466666444E+02  0.10000000000E+01 0.  0.
          4    1    1    2  501    0 -0.13808394409E+02  0.21092350058E+02  0.87406025294E-01  0.25242415236E+02  0.12700000000E+01 0. -1.
<mgrwt>
<rscale>  1 0.12751623E+03</rscale>
<asrwt>0</asrwt>
<pdfrwt beam="1">  1       21 0.18975316E-01 0.12751623E+03</pdfrwt>
<pdfrwt beam="2">  1        4 0.75858794E-02 0.12751623E+03</pdfrwt>
<totfact> 0.12272980E+05</totfact>
</mgrwt>
</event>
<event>
 6    4  0.3995738E-003  0.1344301E+03  0.7818608E-02  0.1221026E+00
         21   -1    0    0  501  502  0.00000000000E+00  0.00000000000E+00  0.23836428188E+03  0.23836428188E+03  0.00000000000E+00 0.  1.
         -4   -1    0    0    0  501 -0.00000000000E+00 -0.00000000000E+00 -0.35485924481E+02  0.35508643120E+02  0.12700000000E+01 0.  1.
         25    2    1    2    0    0 -0.36430837676E+02 -0.33469143782E+02  0.15129293470E+03  0.20238825354E+03  0.12499625418E+03 0.  0.
    9000005    1    3    3    0    0 -0.34668770842E+02 -0.56807476893E+02  0.20688547862E+02  0.69699563236E+02  0.10000000000E+01 0.  0.
    9000005    1    3    3    0    0 -0.17620668345E+01  0.23338333111E+02  0.13060438684E+03  0.13268869030E+03  0.10000000000E+01 0.  0.
         -4    1    1    2    0  502  0.36430837676E+02  0.33469143782E+02  0.51585422694E+02  0.71484671460E+02  0.12700000000E+01 0. -1.
<mgrwt>
<rscale>  1 0.13443010E+03</rscale>
<asrwt>0</asrwt>
<pdfrwt beam="1">  1       21 0.36671427E-01 0.13443010E+03</pdfrwt>
<pdfrwt beam="2">  1       -4 0.54613810E-02 0.13443010E+03</pdfrwt>
<totfact> 0.60239446E+04</totfact>
</mgrwt>
</event>
<event>
 6    4  0.3995738E-003  0.1269154E+03  0.7818608E-02  0.1232106E+00
         21   -1    0    0  501  502  0.00000000000E+00  0.00000000000E+00  0.18844525015E+02  0.18844525015E+02  0.00000000000E+00 0.  1.
         -4   -1    0    0    0  501 -0.00000000000E+00 -0.00000000000E+00 -0.30935764867E+03  0.30936025551E+03  0.12700000000E+01 0.  1.
         25    2    1    2    0    0 -0.21083605876E+02  0.59343655110E+01 -0.21597575672E+03  0.25050557139E+03  0.12501111421E+03 0.  0.
    9000005    1    3    3    0    0 -0.13225888894E+02 -0.11206901255E+02  0.12408380786E+02  0.21342134066E+02  0.10000000000E+01 0.  0.
    9000005    1    3    3    0    0 -0.78577169820E+01  0.17141266766E+02 -0.22838413751E+03  0.22916343733E+03  0.10000000000E+01 0.  0.
         -4    1    1    2    0  502  0.21083605876E+02 -0.59343655110E+01 -0.74537366930E+02  0.77699209131E+02  0.12700000000E+01 0. -1.
<mgrwt>
<rscale>  1 0.12691538E+03</rscale>
<asrwt>0</asrwt>
<pdfrwt beam="1">  1       21 0.28991577E-02 0.12691538E+03</pdfrwt>
<pdfrwt beam="2">  1       -4 0.47596977E-01 0.12691538E+03</pdfrwt>
<totfact> 0.11410356E+05</totfact>
</mgrwt>
</event>
<event>
 6    4  0.3995738E-003  0.1661202E+03  0.7818608E-02  0.1181955E+00
         21   -1    0    0  501  502  0.00000000000E+00  0.00000000000E+00  0.69816550688E+02  0.69816550688E+02  0.00000000000E+00 0. -1.
         -4   -1    0    0    0  501 -0.00000000000E+00 -0.00000000000E+00 -0.41909419180E+03  0.41909611607E+03  0.12700000000E+01 0.  1.
         25    2    1    2    0    0  0.99307850518E+02 -0.45903610890E+02 -0.34085136386E+03  0.37917750504E+03  0.12500694947E+03 0.  0.
    9000005    1    3    3    0    0 -0.11530661597E+01  0.56364754008E+01  0.94604500916E+01  0.11117532660E+02  0.10000000000E+01 0.  0.
    9000005    1    3    3    0    0  0.10046091668E+03 -0.51540086291E+02 -0.35031181396E+03  0.36805997238E+03  0.10000000000E+01 0.  0.
         -4    1    1    2    0  502 -0.99307850518E+02  0.45903610890E+02 -0.84262772488E+01  0.10973516171E+03  0.12700000000E+01 0. -1.
<mgrwt>
<rscale>  1 0.16612022E+03</rscale>
<asrwt>0</asrwt>
<pdfrwt beam="1">  1       21 0.10741008E-01 0.16612022E+03</pdfrwt>
<pdfrwt beam="2">  1       -4 0.64477067E-01 0.16612022E+03</pdfrwt>
<totfact> 0.67816538E+03</totfact>
</mgrwt>
</event>
<event>
 6    4  0.3995738E-003  0.1278446E+03  0.7818608E-02  0.1230689E+00
          4   -1    0    0  502    0 -0.00000000000E+00  0.00000000000E+00  0.29400497957E+02  0.29427914981E+02  0.12700000000E+01 0. -1.
         21   -1    0    0  501  502  0.00000000000E+00 -0.00000000000E+00 -0.20982027438E+03  0.20982027438E+03  0.00000000000E+00 0. -1.
         25    2    1    2    0    0 -0.22959285047E+02  0.13946830989E+02 -0.13136917694E+03  0.18330878398E+03  0.12499042672E+03 0.  0.
    9000005    1    3    3    0    0 -0.27832303509E+02 -0.25721133717E+02  0.76332278457E+01  0.38671436560E+02  0.10000000000E+01 0.  0.
    9000005    1    3    3    0    0  0.48730184618E+01  0.39667964705E+02 -0.13900240479E+03  0.14463734742E+03  0.10000000000E+01 0.  0.
          4    1    1    2  501    0  0.22959285047E+02 -0.13946830989E+02 -0.49050599478E+02  0.55939405374E+02  0.12700000000E+01 0.  1.
<mgrwt>
<rscale>  1 0.12784463E+03</rscale>
<asrwt>0</asrwt>
<pdfrwt beam="2">  1       21 0.32280042E-01 0.12784463E+03</pdfrwt>
<pdfrwt beam="1">  1        4 0.45255583E-02 0.12784463E+03</pdfrwt>
<totfact> 0.10397416E+05</totfact>
</mgrwt>
</event>
<event>
 6    4  0.3995738E-003  0.1266748E+03  0.7818608E-02  0.1232475E+00
         21   -1    0    0  501  502  0.00000000000E+00  0.00000000000E+00  0.48940397263E+01  0.48940397263E+01  0.00000000000E+00 0. -1.
          4   -1    0    0  502    0 -0.00000000000E+00 -0.00000000000E+00 -0.17761817170E+04  0.17761821710E+04  0.12700000000E+01 0. -1.
         25    2    1    2    0    0 -0.20149157891E+02  0.38212682484E+01 -0.17329986311E+04  0.17376221590E+04  0.12500368608E+03 0.  0.
    9000005    1    3    3    0    0  0.50836781346E+02  0.22232155529E+01 -0.50093796368E+03  0.50351679662E+03  0.10000000000E+01 0.  0.
    9000005    1    3    3    0    0 -0.70985939237E+02  0.15980526955E+01 -0.12320606674E+04  0.12341053624E+04  0.10000000000E+01 0.  0.
          4    1    1    2  501    0  0.20149157891E+02 -0.38212682484E+01 -0.38289046221E+02  0.43454051770E+02  0.12700000000E+01 0.  1.
<mgrwt>
<rscale>  1 0.12667483E+03</rscale>
<asrwt>0</asrwt>
<pdfrwt beam="1">  1       21 0.75292757E-03 0.12667483E+03</pdfrwt>
<pdfrwt beam="2">  1        4 0.27327203E+00 0.12667483E+03</pdfrwt>
<totfact> 0.12826734E+04</totfact>
</mgrwt>
</event>
<event>
 6    4  0.3995738E-003  0.1281785E+03  0.7818608E-02  0.1230184E+00
         21   -1    0    0  501  502  0.00000000000E+00  0.00000000000E+00  0.69015560017E+03  0.69015560017E+03  0.00000000000E+00 0. -1.
         -4   -1    0    0    0  501 -0.00000000000E+00 -0.00000000000E+00 -0.22250564507E+02  0.22286779061E+02  0.12700000000E+01 0.  1.
         25    2    1    2    0    0  0.23681368074E+02  0.15680085405E+02  0.16597577026E+03  0.20970858024E+03  0.12499223993E+03 0.  0.
    9000005    1    3    3    0    0  0.46715217808E+02  0.36715452020E+02  0.23579475130E+02  0.63932211282E+02  0.10000000000E+01 0.  0.
    9000005    1    3    3    0    0 -0.23033849734E+02 -0.21035366615E+02  0.14239629513E+03  0.14577636896E+03  0.10000000000E+01 0.  0.
         -4    1    1    2    0  502 -0.23681368074E+02 -0.15680085405E+02  0.50192926541E+03  0.50273379899E+03  0.12700000000E+01 0. -1.
<mgrwt>
<rscale>  1 0.12817852E+03</rscale>
<asrwt>0</asrwt>
<pdfrwt beam="1">  1       21 0.10617777E+00 0.12817852E+03</pdfrwt>
<pdfrwt beam="2">  1       -4 0.34260399E-02 0.12817852E+03</pdfrwt>
<totfact> 0.12822901E+04</totfact>
</mgrwt>
</event>
<event>
 6    4  0.3995738E-003  0.1437120E+03  0.7818608E-02  0.1208420E+00
          4   -1    0    0  502    0 -0.00000000000E+00  0.00000000000E+00  0.10677349579E+03  0.10678104843E+03  0.12700000000E+01 0. -1.
         21   -1    0    0  501  502  0.00000000000E+00 -0.00000000000E+00 -0.23772128269E+03  0.23772128269E+03  0.00000000000E+00 0.  1.
         25    2    1    2    0    0 -0.65236425734E+02 -0.27794840462E+02  0.48397971303E+02  0.15164264564E+03  0.12499913580E+03 0.  0.
    9000005    1    3    3    0    0 -0.94344541593E+01  0.48019204493E+02  0.23316341058E+02  0.54217199169E+02  0.10000000000E+01 0.  0.
    9000005    1    3    3    0    0 -0.55801971575E+02 -0.75814044955E+02  0.25081630244E+02  0.97425446470E+02  0.10000000000E+01 0.  0.
          4    1    1    2  501    0  0.65236425734E+02  0.27794840462E+02 -0.17934575820E+03  0.19285968548E+03  0.12700000000E+01 0.  1.
<mgrwt>
<rscale>  1 0.14371196E+03</rscale>
<asrwt>0</asrwt>
<pdfrwt beam="2">  1       21 0.36572505E-01 0.14371196E+03</pdfrwt>
<pdfrwt beam="1">  1        4 0.16427534E-01 0.14371196E+03</pdfrwt>
<totfact> 0.95568342E+03</totfact>
</mgrwt>
</event>
<event>
 6    4  0.3995738E-003  0.1298845E+03  0.7818608E-02  0.1227627E+00
         21   -1    0    0  501  502  0.00000000000E+00  0.00000000000E+00  0.99579964575E+02  0.99579964575E+02  0.00000000000E+00 0. -1.
          4   -1    0    0  502    0 -0.00000000000E+00 -0.00000000000E+00 -0.71293178912E+02  0.71304489756E+02  0.12700000000E+01 0. -1.
         25    2    1    2    0    0 -0.32034784139E+02  0.14804072828E+02  0.79350595611E+01  0.13012671123E+03  0.12499843135E+03 0.  0.
    9000005    1    3    3    0    0  0.44941236712E+02 -0.51029072217E+01 -0.14499304559E+02  0.47507728340E+02  0.10000000000E+01 0.  0.
    9000005    1    3    3    0    0 -0.76976020851E+02  0.19906980049E+02  0.22434364120E+02  0.82618982893E+02  0.10000000000E+01 0.  0.
          4    1    1    2  501    0  0.32034784139E+02 -0.14804072828E+02  0.20351726102E+02  0.40757743098E+02  0.12700000000E+01 0.  1.
<mgrwt>
<rscale>  1 0.12988455E+03</rscale>
<asrwt>0</asrwt>
<pdfrwt beam="1">  1       21 0.15319995E-01 0.12988455E+03</pdfrwt>
<pdfrwt beam="2">  1        4 0.10969674E-01 0.12988455E+03</pdfrwt>
<totfact> 0.98097640E+04</totfact>
</mgrwt>
</event>
<event>
 6    4  0.3995738E-003  0.1461376E+03  0.7818608E-02  0.1205301E+00
          4   -1    0    0  502    0 -0.00000000000E+00  0.00000000000E+00  0.82568762803E+03  0.82568860473E+03  0.12700000000E+01 0.  1.
         21   -1    0    0  501  502  0.00000000000E+00 -0.00000000000E+00 -0.52694395625E+02  0.52694395625E+02  0.00000000000E+00 0. -1.
         25    2    1    2    0    0  0.70678899878E+02 -0.27136360985E+02  0.78779089522E+03  0.80123073078E+03  0.12499720146E+03 0.  0.
    9000005    1    3    3    0    0 -0.29012625118E+02  0.90049509947E+01  0.32630161003E+03  0.32771414719E+03  0.10000000000E+01 0.  0.
    9000005    1    3    3    0    0  0.99691524996E+02 -0.36141311979E+02  0.46148928519E+03  0.47351658359E+03  0.10000000000E+01 0.  0.
          4    1    1    2  501    0 -0.70678899878E+02  0.27136360985E+02 -0.14797662821E+02  0.77152269574E+02  0.12700000000E+01 0. -1.
<mgrwt>
<rscale>  1 0.14613757E+03</rscale>
<asrwt>0</asrwt>
<pdfrwt beam="2">  1       21 0.81068307E-02 0.14613757E+03</pdfrwt>
<pdfrwt beam="1">  1        4 0.12703011E+00 0.14613757E+03</pdfrwt>
<totfact> 0.23509066E+03</totfact>
</mgrwt>
</event>
<event>
 6    4  0.3995738E-003  0.1273926E+03  0.7818608E-02  0.1231377E+00
         21   -1    0    0  501  502  0.00000000000E+00  0.00000000000E+00  0.71358898140E+02  0.71358898140E+02  0.00000000000E+00 0. -1.
         -4   -1    0    0    0  501 -0.00000000000E+00 -0.00000000000E+00 -0.16619933788E+03  0.16620419011E+03  0.12700000000E+01 0.  1.
         25    2    1    2    0    0  0.23777603701E+02 -0.66132092759E+01 -0.13801146808E+03  0.18781914829E+03  0.12497903092E+03 0.  0.
    9000005    1    3    3    0    0  0.59523964864E+02  0.20260475892E+02 -0.27572218871E+02  0.68664521625E+02  0.10000000000E+01 0.  0.
    9000005    1    3    3    0    0 -0.35746361163E+02 -0.26873685168E+02 -0.11043924921E+03  0.11915462667E+03  0.10000000000E+01 0.  0.
         -4    1    1    2    0  502 -0.23777603701E+02  0.66132092759E+01  0.43171028341E+02  0.49743939959E+02  0.12700000000E+01 0. -1.
<mgrwt>
<rscale>  1 0.12739257E+03</rscale>
<asrwt>0</asrwt>
<pdfrwt beam="1">  1       21 0.10978292E-01 0.12739257E+03</pdfrwt>
<pdfrwt beam="2">  1       -4 0.25570371E-01 0.12739257E+03</pdfrwt>
<totfact> 0.39748032E+04</totfact>
</mgrwt>
</event>
<event>
 6    4  0.3995738E-003  0.1653396E+03  0.7818608E-02  0.1182797E+00
         21   -1    0    0  501  502  0.00000000000E+00  0.00000000000E+00  0.32765745294E+02  0.32765745294E+02  0.00000000000E+00 0.  1.
          4   -1    0    0  502    0 -0.00000000000E+00 -0.00000000000E+00 -0.14481931160E+04  0.14481936729E+04  0.12700000000E+01 0. -1.
         25    2    1    2    0    0  0.11940691465E+02  0.10756080704E+03 -0.13372884275E+04  0.13474707869E+04  0.12500110427E+03 0.  0.
    9000005    1    3    3    0    0  0.28440035501E+02  0.94228291991E+02 -0.13057153577E+04  0.13094202541E+04  0.10000000000E+01 0.  0.
    9000005    1    3    3    0    0 -0.16499344036E+02  0.13332515047E+02 -0.31573069797E+02  0.38050532815E+02  0.10000000000E+01 0.  0.
          4    1    1    2  501    0 -0.11940691465E+02 -0.10756080704E+03 -0.78138943292E+02  0.13348863128E+03  0.12700000000E+01 0.  1.
<mgrwt>
<rscale>  1 0.16533960E+03</rscale>
<asrwt>0</asrwt>
<pdfrwt beam="1">  1       21 0.50408838E-02 0.16533960E+03</pdfrwt>
<pdfrwt beam="2">  1        4 0.22280088E+00 0.16533960E+03</pdfrwt>
<totfact> 0.11723496E+03</totfact>
</mgrwt>
</event>
<event>
 6    4  0.3995738E-003  0.1591783E+03  0.7818608E-02  0.1189628E+00
          4   -1    0    0  502    0 -0.00000000000E+00  0.00000000000E+00  0.44629287588E+02  0.44647353904E+02  0.12700000000E+01 0.  1.
         21   -1    0    0  501  502  0.00000000000E+00 -0.00000000000E+00 -0.63110390051E+03  0.63110390051E+03  0.00000000000E+00 0. -1.
         25    2    1    2    0    0 -0.98441041919E+02 -0.48409512928E+01 -0.12097871048E+03  0.19993393481E+03  0.12499462531E+03 0.  0.
    9000005    1    3    3    0    0  0.17788668968E+02 -0.13000853764E+02  0.10351962511E+02  0.24364360654E+02  0.10000000000E+01 0.  0.
    9000005    1    3    3    0    0 -0.11622971089E+03  0.81599024713E+01 -0.13133067299E+03  0.17556957415E+03  0.10000000000E+01 0.  0.
          4    1    1    2  501    0  0.98441041919E+02  0.48409512928E+01 -0.46549590245E+03  0.47581731961E+03  0.12700000000E+01 0. -1.
<mgrwt>
<rscale>  1 0.15917830E+03</rscale>
<asrwt>0</asrwt>
<pdfrwt beam="2">  1       21 0.97092906E-01 0.15917830E+03</pdfrwt>
<pdfrwt beam="1">  1        4 0.68675324E-02 0.15917830E+03</pdfrwt>
<totfact> 0.52381576E+03</totfact>
</mgrwt>
</event>
<event>
 6    4  0.3995738E-003  0.1319727E+03  0.7818608E-02  0.1224558E+00
         21   -1    0    0  501  502  0.00000000000E+00  0.00000000000E+00  0.37188814964E+02  0.37188814964E+02  0.00000000000E+00 0. -1.
         -4   -1    0    0    0  501 -0.00000000000E+00 -0.00000000000E+00 -0.39068203739E+03  0.39068410160E+03  0.12700000000E+01 0.  1.
         25    2    1    2    0    0 -0.17067678584E+02  0.38736255354E+02 -0.36144444742E+03  0.38478419402E+03  0.12499993707E+03 0.  0.
    9000005    1    3    3    0    0 -0.45866591588E+02 -0.29606258544E+02 -0.19623590066E+03  0.20369045996E+03  0.10000000000E+01 0.  0.
    9000005    1    3    3    0    0  0.28798913003E+02  0.68342513898E+02 -0.16520854675E+03  0.18109373406E+03  0.10000000000E+01 0.  0.
         -4    1    1    2    0  502  0.17067678584E+02 -0.38736255354E+02  0.79512249917E+01  0.43088722539E+02  0.12700000000E+01 0. -1.
<mgrwt>
<rscale>  1 0.13197268E+03</rscale>
<asrwt>0</asrwt>
<pdfrwt beam="1">  1       21 0.57213565E-02 0.13197268E+03</pdfrwt>
<pdfrwt beam="2">  1       -4 0.60106752E-01 0.13197268E+03</pdfrwt>
<totfact> 0.22905419E+04</totfact>
</mgrwt>
</event>
<event>
 6    4  0.3995738E-003  0.1297707E+03  0.7818608E-02  0.1227796E+00
          4   -1    0    0  502    0 -0.00000000000E+00  0.00000000000E+00  0.99779609085E+02  0.99787691071E+02  0.12700000000E+01 0.  1.
         21   -1    0    0  501  502  0.00000000000E+00 -0.00000000000E+00 -0.23571970118E+03  0.23571970118E+03  0.00000000000E+00 0.  1.
         25    2    1    2    0    0 -0.29691202247E+02  0.18290916016E+02  0.55334462323E+02  0.14107567373E+03  0.12499727156E+03 0.  0.
    9000005    1    3    3    0    0 -0.17652163929E-01  0.39292331187E+01  0.91810322476E+02  0.91899806842E+02  0.10000000000E+01 0.  0.
    9000005    1    3    3    0    0 -0.29673550083E+02  0.14361682898E+02 -0.36475860153E+02  0.49175866887E+02  0.10000000000E+01 0.  0.
          4    1    1    2  501    0  0.29691202247E+02 -0.18290916016E+02 -0.19127455442E+03  0.19443171852E+03  0.12700000000E+01 0. -1.
<mgrwt>
<rscale>  1 0.12977073E+03</rscale>
<asrwt>0</asrwt>
<pdfrwt beam="2">  1       21 0.36264569E-01 0.12977073E+03</pdfrwt>
<pdfrwt beam="1">  1        4 0.15351594E-01 0.12977073E+03</pdfrwt>
<totfact> 0.10861139E+04</totfact>
</mgrwt>
</event>
<event>
 6    4  0.3995738E-003  0.1275022E+03  0.7818608E-02  0.1231210E+00
         -4   -1    0    0    0  501 -0.00000000000E+00  0.00000000000E+00  0.35731489835E+03  0.35731715532E+03  0.12700000000E+01 0.  1.
         21   -1    0    0  501  502  0.00000000000E+00 -0.00000000000E+00 -0.17978463325E+02  0.17978463325E+02  0.00000000000E+00 0.  1.
         25    2    1    2    0    0  0.22954164109E+02  0.10242413443E+02  0.31686549804E+03  0.34155607816E+03  0.12500003998E+03 0.  0.
    9000005    1    3    3    0    0  0.34643573523E+02  0.62373922048E+02  0.14554687312E+03  0.16209742630E+03  0.10000000000E+01 0.  0.
    9000005    1    3    3    0    0 -0.11689409414E+02 -0.52131508605E+02  0.17131862493E+03  0.17945865186E+03  0.10000000000E+01 0.  0.
         -4    1    1    2    0  502 -0.22954164109E+02 -0.10242413443E+02  0.22470936986E+02  0.33739540485E+02  0.12700000000E+01 0. -1.
<mgrwt>
<rscale>  1 0.12750220E+03</rscale>
<asrwt>0</asrwt>
<pdfrwt beam="2">  1       21 0.27659177E-02 0.12750220E+03</pdfrwt>
<pdfrwt beam="1">  1       -4 0.54975141E-01 0.12750220E+03</pdfrwt>
<totfact> 0.91879420E+04</totfact>
</mgrwt>
</event>
<event>
 6    4  0.3995738E-003  0.2004777E+03  0.7818608E-02  0.1149337E+00
         -4   -1    0    0    0  501 -0.00000000000E+00  0.00000000000E+00  0.30338557629E+03  0.30338823445E+03  0.12700000000E+01 0.  1.
         21   -1    0    0  501  502  0.00000000000E+00 -0.00000000000E+00 -0.31233315748E+03  0.31233315748E+03  0.00000000000E+00 0. -1.
         25    2    1    2    0    0  0.83589167476E+02 -0.13258275709E+03  0.24544833803E+03  0.31691671825E+03  0.12500393303E+03 0.  0.
    9000005    1    3    3    0    0  0.67778565524E+02 -0.14534006448E+03  0.24909231342E+03  0.29625267744E+03  0.10000000000E+01 0.  0.
    9000005    1    3    3    0    0  0.15810601951E+02  0.12757307392E+02 -0.36439753921E+01  0.20664040811E+02  0.10000000000E+01 0.  0.
         -4    1    1    2    0  502 -0.83589167476E+02  0.13258275709E+03 -0.25439591922E+03  0.29880467368E+03  0.12700000000E+01 0. -1.
<mgrwt>
<rscale>  1 0.20047773E+03</rscale>
<asrwt>0</asrwt>
<pdfrwt beam="2">  1       21 0.48051255E-01 0.20047773E+03</pdfrwt>
<pdfrwt beam="1">  1       -4 0.46675107E-01 0.20047773E+03</pdfrwt>
<totfact> 0.77659465E+02</totfact>
</mgrwt>
</event>
<event>
 6    4  0.3995738E-003  0.1269687E+03  0.7818608E-02  0.1232024E+00
          4   -1    0    0  502    0 -0.00000000000E+00  0.00000000000E+00  0.92390268309E+02  0.92398996630E+02  0.12700000000E+01 0. -1.
         21   -1    0    0  501  502  0.00000000000E+00 -0.00000000000E+00 -0.65139947657E+02  0.65139947657E+02  0.00000000000E+00 0. -1.
         25    2    1    2    0    0  0.15413600303E+02 -0.16031095581E+02  0.38373674893E+02  0.13264081164E+03  0.12500588341E+03 0.  0.
    9000005    1    3    3    0    0  0.21536272385E+01 -0.25241261554E+02 -0.42868315306E+02  0.49804134892E+02  0.10000000000E+01 0.  0.
    9000005    1    3    3    0    0  0.13259973065E+02  0.92101659730E+01  0.81241990199E+02  0.82836676747E+02  0.10000000000E+01 0.  0.
          4    1    1    2  501    0 -0.15413600303E+02  0.16031095581E+02 -0.11123354241E+02  0.24898132649E+02  0.12700000000E+01 0.  1.
<mgrwt>
<rscale>  1 0.12696868E+03</rscale>
<asrwt>0</asrwt>
<pdfrwt beam="2">  1       21 0.10021530E-01 0.12696868E+03</pdfrwt>
<pdfrwt beam="1">  1        4 0.14215511E-01 0.12696868E+03</pdfrwt>
<totfact> 0.13323793E+05</totfact>
</mgrwt>
</event>
<event>
 6    4  0.3995738E-003  0.2681750E+03  0.7818608E-02  0.1102329E+00
         -4   -1    0    0    0  501 -0.00000000000E+00  0.00000000000E+00  0.62491864580E+03  0.62491993629E+03  0.12700000000E+01 0. -1.
         21   -1    0    0  501  502  0.00000000000E+00 -0.00000000000E+00 -0.24277570428E+03  0.24277570428E+03  0.00000000000E+00 0.  1.
         25    2    1    2    0    0  0.22482471958E+03 -0.75807336894E+02  0.52586353524E+03  0.59029677824E+03  0.12499968741E+03 0.  0.
    9000005    1    3    3    0    0  0.19076468124E+03 -0.98532070541E+02  0.49319958734E+03  0.53790943985E+03  0.10000000000E+01 0.  0.
    9000005    1    3    3    0    0  0.34060038347E+02  0.22724733647E+02  0.32663947899E+02  0.52387338393E+02  0.10000000000E+01 0.  0.
         -4    1    1    2    0  502 -0.22482471958E+03  0.75807336894E+02 -0.14372059371E+03  0.27739886233E+03  0.12700000000E+01 0.  1.
<mgrwt>
<rscale>  1 0.26817500E+03</rscale>
<asrwt>0</asrwt>
<pdfrwt beam="2">  1       21 0.37350109E-01 0.26817500E+03</pdfrwt>
<pdfrwt beam="1">  1       -4 0.96141684E-01 0.26817500E+03</pdfrwt>
<totfact> 0.26985963E+02</totfact>
</mgrwt>
</event>
<event>
 6    4  0.3995738E-003  0.1375536E+03  0.7818608E-02  0.1216659E+00
         21   -1    0    0  501  502  0.00000000000E+00  0.00000000000E+00  0.44619889310E+02  0.44619889310E+02  0.00000000000E+00 0.  1.
          4   -1    0    0  502    0 -0.00000000000E+00 -0.00000000000E+00 -0.47061371082E+03  0.47061542443E+03  0.12700000000E+01 0. -1.
         25    2    1    2    0    0 -0.53945665599E+02  0.19642511436E+02 -0.43578795731E+03  0.45698154915E+03  0.12500011773E+03 0.  0.
    9000005    1    3    3    0    0 -0.67834737002E+02  0.12183349316E+02 -0.43576691367E+03  0.44118452896E+03  0.10000000000E+01 0.  0.
    9000005    1    3    3    0    0  0.13889071403E+02  0.74591621199E+01 -0.21043640980E-01  0.15797020188E+02  0.10000000000E+01 0.  0.
          4    1    1    2  501    0  0.53945665599E+02 -0.19642511436E+02  0.97941358052E+01  0.58253764587E+02  0.12700000000E+01 0.  1.
<mgrwt>
<rscale>  1 0.13755360E+03</rscale>
<asrwt>0</asrwt>
<pdfrwt beam="1">  1       21 0.68645983E-02 0.13755360E+03</pdfrwt>
<pdfrwt beam="2">  1        4 0.72403632E-01 0.13755360E+03</pdfrwt>
<totfact> 0.11337299E+04</totfact>
</mgrwt>
</event>
<event>
 6    4  0.3995738E-003  0.1267862E+03  0.7818608E-02  0.1232304E+00
         21   -1    0    0  501  502  0.00000000000E+00  0.00000000000E+00  0.30102838399E+02  0.30102838399E+02  0.00000000000E+00 0.  1.
         -4   -1    0    0    0  501 -0.00000000000E+00 -0.00000000000E+00 -0.19857773816E+03  0.19858179924E+03  0.12700000000E+01 0.  1.
         25    2    1    2    0    0  0.70028621308E+01  0.20015773346E+02 -0.11510498359E+03  0.17124221332E+03  0.12500026846E+03 0.  0.
    9000005    1    3    3    0    0 -0.59018601630E+02  0.10113383776E+02 -0.58326300258E+02  0.83596849053E+02  0.10000000000E+01 0.  0.
    9000005    1    3    3    0    0  0.66021463761E+02  0.99023895707E+01 -0.56778683332E+02  0.87645364266E+02  0.10000000000E+01 0.  0.
         -4    1    1    2    0  502 -0.70028621308E+01 -0.20015773346E+02 -0.53369916167E+02  0.57442424325E+02  0.12700000000E+01 0. -1.
<mgrwt>
<rscale>  1 0.12678619E+03</rscale>
<asrwt>0</asrwt>
<pdfrwt beam="1">  1       21 0.46312059E-02 0.12678619E+03</pdfrwt>
<pdfrwt beam="2">  1       -4 0.30552795E-01 0.12678619E+03</pdfrwt>
<totfact> 0.12492094E+05</totfact>
</mgrwt>
</event>
<event>
 6    4  0.3995738E-003  0.1299435E+03  0.7818608E-02  0.1227540E+00
         -4   -1    0    0    0  501 -0.00000000000E+00  0.00000000000E+00  0.12016937975E+02  0.12083861068E+02  0.12700000000E+01 0. -1.
         21   -1    0    0  501  502  0.00000000000E+00 -0.00000000000E+00 -0.10833827766E+04  0.10833827766E+04  0.00000000000E+00 0.  1.
         25    2    1    2    0    0  0.11534936822E+02 -0.33529510073E+02 -0.35187951307E+03  0.37510598607E+03  0.12501210442E+03 0.  0.
    9000005    1    3    3    0    0 -0.29920380918E+02  0.35881412625E+02 -0.16490217251E+03  0.17139554097E+03  0.10000000000E+01 0.  0.
    9000005    1    3    3    0    0  0.41455317740E+02 -0.69410922698E+02 -0.18697734056E+03  0.20371044510E+03  0.10000000000E+01 0.  0.
         -4    1    1    2    0  502 -0.11534936822E+02  0.33529510073E+02 -0.71948632552E+03  0.72036065156E+03  0.12700000000E+01 0.  1.
<mgrwt>
<rscale>  1 0.12994348E+03</rscale>
<asrwt>0</asrwt>
<pdfrwt beam="2">  1       21 0.16667438E+00 0.12994348E+03</pdfrwt>
<pdfrwt beam="1">  1       -4 0.18539637E-02 0.12994348E+03</pdfrwt>
<totfact> 0.10734197E+04</totfact>
</mgrwt>
</event>
<event>
 6    4  0.3995738E-003  0.1354798E+03  0.7818608E-02  0.1219544E+00
         -4   -1    0    0    0  501 -0.00000000000E+00  0.00000000000E+00  0.10516100701E+03  0.10516867545E+03  0.12700000000E+01 0.  1.
         21   -1    0    0  501  502  0.00000000000E+00 -0.00000000000E+00 -0.10579263943E+03  0.10579263943E+03  0.00000000000E+00 0. -1.
         25    2    1    2    0    0 -0.26753014189E+02  0.44874956337E+02  0.43781486396E+02  0.14237834690E+03  0.12500115855E+03 0.  0.
    9000005    1    3    3    0    0 -0.17862307290E+02 -0.36629597306E+02 -0.12833605096E+02  0.42737464130E+02  0.10000000000E+01 0.  0.
    9000005    1    3    3    0    0 -0.88907068997E+01  0.81504553643E+02  0.56615091491E+02  0.99640882766E+02  0.10000000000E+01 0.  0.
         -4    1    1    2    0  502  0.26753014189E+02 -0.44874956337E+02 -0.44413118812E+02  0.68582967981E+02  0.12700000000E+01 0. -1.
<mgrwt>
<rscale>  1 0.13547980E+03</rscale>
<asrwt>0</asrwt>
<pdfrwt beam="2">  1       21 0.16275791E-01 0.13547980E+03</pdfrwt>
<pdfrwt beam="1">  1       -4 0.16179793E-01 0.13547980E+03</pdfrwt>
<totfact> 0.45183792E+04</totfact>
</mgrwt>
</event>
<event>
 6    4  0.3995738E-003  0.1335608E+03  0.7818608E-02  0.1222266E+00
         -4   -1    0    0    0  501 -0.00000000000E+00  0.00000000000E+00  0.11093840530E+03  0.11094567441E+03  0.12700000000E+01 0.  1.
         21   -1    0    0  501  502  0.00000000000E+00 -0.00000000000E+00 -0.19285893826E+04  0.19285893826E+04  0.00000000000E+00 0. -1.
         25    2    1    2    0    0 -0.54044334499E+00 -0.47037894517E+02  0.70344603083E+02  0.15095310749E+03  0.12500248749E+03 0.  0.
    9000005    1    3    3    0    0 -0.91440325619E+01  0.48698256559E+01  0.93055882172E+02  0.93636134800E+02  0.10000000000E+01 0.  0.
    9000005    1    3    3    0    0  0.86035892169E+01 -0.51907720173E+02 -0.22711279090E+02  0.57316972694E+02  0.10000000000E+01 0.  0.
         -4    1    1    2    0  502  0.54044334499E+00  0.47037894517E+02 -0.18879955804E+04  0.18885819495E+04  0.12700000000E+01 0. -1.
<mgrwt>
<rscale>  1 0.13356076E+03</rscale>
<asrwt>0</asrwt>
<pdfrwt beam="2">  1       21 0.29670607E+00 0.13356076E+03</pdfrwt>
<pdfrwt beam="1">  1       -4 0.17068037E-01 0.13356076E+03</pdfrwt>
<totfact> 0.47430914E+01</totfact>
</mgrwt>
</event>
<event>
 6    4  0.3995738E-003  0.1281229E+03  0.7818608E-02  0.1230268E+00
         -4   -1    0    0    0  501 -0.00000000000E+00  0.00000000000E+00  0.61135796680E+02  0.61148986384E+02  0.12700000000E+01 0.  1.
         21   -1    0    0  501  502  0.00000000000E+00 -0.00000000000E+00 -0.10190606397E+03  0.10190606397E+03  0.00000000000E+00 0.  1.
         25    2    1    2    0    0 -0.22088150700E+02  0.17397942620E+02 -0.24183197857E+02  0.13038520828E+03  0.12499960268E+03 0.  0.
    9000005    1    3    3    0    0  0.18048826796E+02  0.13283256337E+02 -0.67529858858E+02  0.71158182136E+02  0.10000000000E+01 0.  0.
    9000005    1    3    3    0    0 -0.40136977496E+02  0.41146862831E+01  0.43346661000E+02  0.59227026142E+02  0.10000000000E+01 0.  0.
         -4    1    1    2    0  502  0.22088150700E+02 -0.17397942620E+02 -0.16587069429E+02  0.32669842072E+02  0.12700000000E+01 0. -1.
<mgrwt>
<rscale>  1 0.12812289E+03</rscale>
<asrwt>0</asrwt>
<pdfrwt beam="2">  1       21 0.15677856E-01 0.12812289E+03</pdfrwt>
<pdfrwt beam="1">  1       -4 0.94071305E-02 0.12812289E+03</pdfrwt>
<totfact> 0.12166515E+05</totfact>
</mgrwt>
</event>
<event>
 6    4  0.3995738E-003  0.1287018E+03  0.7818608E-02  0.1229395E+00
          4   -1    0    0  502    0 -0.00000000000E+00  0.00000000000E+00  0.41537405497E+02  0.41556815992E+02  0.12700000000E+01 0. -1.
         21   -1    0    0  501  502  0.00000000000E+00 -0.00000000000E+00 -0.15707827302E+03  0.15707827302E+03  0.00000000000E+00 0. -1.
         25    2    1    2    0    0 -0.33338055564E+01 -0.30467944863E+02 -0.79369518895E+02  0.15120736205E+03  0.12499894353E+03 0.  0.
    9000005    1    3    3    0    0  0.44730093841E+02 -0.44526762557E+02 -0.78996639767E+02  0.10111816342E+03  0.10000000000E+01 0.  0.
    9000005    1    3    3    0    0 -0.48063899398E+02  0.14058817694E+02 -0.37287912881E+00  0.50089198627E+02  0.10000000000E+01 0.  0.
          4    1    1    2  501    0  0.33338055564E+01  0.30467944863E+02 -0.36171348631E+02  0.47427726969E+02  0.12700000000E+01 0.  1.
<mgrwt>
<rscale>  1 0.12870177E+03</rscale>
<asrwt>0</asrwt>
<pdfrwt beam="2">  1       21 0.24165888E-01 0.12870177E+03</pdfrwt>
<pdfrwt beam="1">  1        4 0.63922580E-02 0.12870177E+03</pdfrwt>
<totfact> 0.10374420E+05</totfact>
</mgrwt>
</event>
<event>
 6    4  0.3995738E-003  0.1269110E+03  0.7818608E-02  0.1232113E+00
          4   -1    0    0  502    0 -0.00000000000E+00  0.00000000000E+00  0.12421967672E+02  0.12486720180E+02  0.12700000000E+01 0.  1.
         21   -1    0    0  501  502  0.00000000000E+00 -0.00000000000E+00 -0.59966420890E+03  0.59966420890E+03  0.00000000000E+00 0. -1.
         25    2    1    2    0    0  0.11267965352E+02  0.18740845572E+02 -0.32354283980E+03  0.34754334500E+03  0.12501288388E+03 0.  0.
    9000005    1    3    3    0    0  0.30113258345E+02 -0.43590174049E+02 -0.21064986810E+03  0.21721251928E+03  0.10000000000E+01 0.  0.
    9000005    1    3    3    0    0 -0.18845292993E+02  0.62331019620E+02 -0.11289297170E+03  0.13033082572E+03  0.10000000000E+01 0.  0.
          4    1    1    2  501    0 -0.11267965352E+02 -0.18740845572E+02 -0.26369940143E+03  0.26460758407E+03  0.12700000000E+01 0. -1.
<mgrwt>
<rscale>  1 0.12691102E+03</rscale>
<asrwt>0</asrwt>
<pdfrwt beam="2">  1       21 0.92256021E-01 0.12691102E+03</pdfrwt>
<pdfrwt beam="1">  1        4 0.19161566E-02 0.12691102E+03</pdfrwt>
<totfact> 0.43895121E+04</totfact>
</mgrwt>
</event>
<event>
 6    4  0.3995738E-003  0.1351711E+03  0.7818608E-02  0.1219978E+00
         21   -1    0    0  501  502  0.00000000000E+00  0.00000000000E+00  0.29814048684E+03  0.29814048684E+03  0.00000000000E+00 0. -1.
         -4   -1    0    0    0  501 -0.00000000000E+00 -0.00000000000E+00 -0.32038541302E+02  0.32063702668E+02  0.12700000000E+01 0.  1.
         25    2    1    2    0    0 -0.19933582806E+02  0.47402701144E+02  0.14293497612E+03  0.19672730366E+03  0.12500744301E+03 0.  0.
    9000005    1    3    3    0    0 -0.72634597259E+02  0.22812180829E+02  0.69882591432E+02  0.10334774743E+03  0.10000000000E+01 0.  0.
    9000005    1    3    3    0    0  0.52701014454E+02  0.24590520316E+02  0.73052384683E+02  0.93379556230E+02  0.10000000000E+01 0.  0.
         -4    1    1    2    0  502  0.19933582806E+02 -0.47402701144E+02  0.12316696942E+03  0.13347688584E+03  0.12700000000E+01 0. -1.
<mgrwt>
<rscale>  1 0.13517109E+03</rscale>
<asrwt>0</asrwt>
<pdfrwt beam="1">  1       21 0.45867765E-01 0.13517109E+03</pdfrwt>
<pdfrwt beam="2">  1       -4 0.49311501E-02 0.13517109E+03</pdfrwt>
<totfact> 0.45331556E+04</totfact>
</mgrwt>
</event>
<event>
 6    4  0.3995738E-003  0.1589875E+03  0.7818608E-02  0.1189845E+00
         21   -1    0    0  501  502  0.00000000000E+00  0.00000000000E+00  0.29526066387E+03  0.29526066387E+03  0.00000000000E+00 0.  1.
         -4   -1    0    0    0  501 -0.00000000000E+00 -0.00000000000E+00 -0.56032329358E+02  0.56046720094E+02  0.12700000000E+01 0. -1.
         25    2    1    2    0    0  0.80548633459E+02  0.56249976153E+02  0.15030591932E+03  0.21878964555E+03  0.12499958980E+03 0.  0.
    9000005    1    3    3    0    0  0.69186415843E+02  0.33189545107E+02  0.11474895732E+02  0.77594969384E+02  0.10000000000E+01 0.  0.
    9000005    1    3    3    0    0  0.11362217616E+02  0.23060431046E+02  0.13883102358E+03  0.14119467617E+03  0.10000000000E+01 0.  0.
         -4    1    1    2    0  502 -0.80548633459E+02 -0.56249976153E+02  0.88922415200E+02  0.13251773841E+03  0.12700000000E+01 0.  1.
<mgrwt>
<rscale>  1 0.15898755E+03</rscale>
<asrwt>0</asrwt>
<pdfrwt beam="1">  1       21 0.45424717E-01 0.15898755E+03</pdfrwt>
<pdfrwt beam="2">  1       -4 0.86216756E-02 0.15898755E+03</pdfrwt>
<totfact> 0.18805990E+04</totfact>
</mgrwt>
</event>
<event>
 6    4  0.3995738E-003  0.1270585E+03  0.7818608E-02  0.1231887E+00
         21   -1    0    0  501  502  0.00000000000E+00  0.00000000000E+00  0.10126158893E+03  0.10126158893E+03  0.00000000000E+00 0. -1.
         -4   -1    0    0    0  501 -0.00000000000E+00 -0.00000000000E+00 -0.13238596755E+03  0.13239205907E+03  0.12700000000E+01 0.  1.
         25    2    1    2    0    0 -0.21573764948E+02  0.71835444949E+01 -0.99629836761E+02  0.16146194945E+03  0.12500730419E+03 0.  0.
    9000005    1    3    3    0    0 -0.66015690717E+01 -0.11190141077E+02 -0.12560798059E+03  0.12628208408E+03  0.10000000000E+01 0.  0.
    9000005    1    3    3    0    0 -0.14972195876E+02  0.18373685572E+02  0.25978143827E+02  0.35179865372E+02  0.10000000000E+01 0.  0.
         -4    1    1    2    0  502  0.21573764948E+02 -0.71835444949E+01  0.68505458135E+02  0.72191698552E+02  0.12700000000E+01 0. -1.
<mgrwt>
<rscale>  1 0.12705848E+03</rscale>
<asrwt>0</asrwt>
<pdfrwt beam="1">  1       21 0.15578706E-01 0.12705848E+03</pdfrwt>
<pdfrwt beam="2">  1       -4 0.20368153E-01 0.12705848E+03</pdfrwt>
<totfact> 0.32236896E+04</totfact>
</mgrwt>
</event>
<event>
 6    4  0.3995738E-003  0.1325887E+03  0.7818608E-02  0.1223664E+00
         21   -1    0    0  501  502  0.00000000000E+00  0.00000000000E+00  0.39855754140E+02  0.39855754140E+02  0.00000000000E+00 0. -1.
          4   -1    0    0  502    0 -0.00000000000E+00 -0.00000000000E+00 -0.21044372903E+03  0.21044756114E+03  0.12700000000E+01 0. -1.
         25    2    1    2    0    0 -0.38837757984E+02 -0.21126295448E+02 -0.96392331463E+02  0.16392450880E+03  0.12500028486E+03 0.  0.
    9000005    1    3    3    0    0 -0.55726964019E+02 -0.45098417781E+02 -0.11022103369E+03  0.13148778679E+03  0.10000000000E+01 0.  0.
    9000005    1    3    3    0    0  0.16889206035E+02  0.23972122333E+02  0.13828702232E+02  0.32436722015E+02  0.10000000000E+01 0.  0.
          4    1    1    2  501    0  0.38837757984E+02  0.21126295448E+02 -0.74195643431E+02  0.86378806479E+02  0.12700000000E+01 0.  1.
<mgrwt>
<rscale>  1 0.13258870E+03</rscale>
<asrwt>0</asrwt>
<pdfrwt beam="1">  1       21 0.61316547E-02 0.13258870E+03</pdfrwt>
<pdfrwt beam="2">  1        4 0.32377809E-01 0.13258870E+03</pdfrwt>
<totfact> 0.70175729E+04</totfact>
</mgrwt>
</event>
<event>
 6    4  0.3995738E-003  0.1318932E+03  0.7818608E-02  0.1224673E+00
         21   -1    0    0  501  502  0.00000000000E+00  0.00000000000E+00  0.78247741459E+02  0.78247741459E+02  0.00000000000E+00 0. -1.
         -4   -1    0    0    0  501 -0.00000000000E+00 -0.00000000000E+00 -0.33139568956E+03  0.33139812305E+03  0.12700000000E+01 0. -1.
         25    2    1    2    0    0 -0.38280179534E+02  0.17483899386E+02 -0.31116372108E+03  0.33796252127E+03  0.12499898233E+03 0.  0.
    9000005    1    3    3    0    0 -0.26916876376E+02 -0.48104120031E+02 -0.20800831367E+03  0.21519057403E+03  0.10000000000E+01 0.  0.
    9000005    1    3    3    0    0 -0.11363303158E+02  0.65588019417E+02 -0.10315540741E+03  0.12277194724E+03  0.10000000000E+01 0.  0.
         -4    1    1    2    0  502  0.38280179534E+02 -0.17483899386E+02  0.58015772981E+02  0.71683343236E+02  0.12700000000E+01 0.  1.
<mgrwt>
<rscale>  1 0.13189316E+03</rscale>
<asrwt>0</asrwt>
<pdfrwt beam="1">  1       21 0.12038114E-01 0.13189316E+03</pdfrwt>
<pdfrwt beam="2">  1       -4 0.50984932E-01 0.13189316E+03</pdfrwt>
<totfact> 0.88898637E+03</totfact>
</mgrwt>
</event>
<event>
 6    4  0.3995738E-003  0.1280942E+03  0.7818608E-02  0.1230311E+00
         -4   -1    0    0    0  501 -0.00000000000E+00  0.00000000000E+00  0.75989569645E+03  0.75989675771E+03  0.12700000000E+01 0.  1.
         21   -1    0    0  501  502  0.00000000000E+00 -0.00000000000E+00 -0.28985506385E+02  0.28985506385E+02  0.00000000000E+00 0. -1.
         25    2    1    2    0    0 -0.13396317784E+02  0.24551700152E+02  0.74610926683E+03  0.75702520608E+03  0.12500350909E+03 0.  0.
    9000005    1    3    3    0    0  0.50932929215E+01  0.69907770994E+02  0.56771060178E+03  0.57202217217E+03  0.10000000000E+01 0.  0.
    9000005    1    3    3    0    0 -0.18489610705E+02 -0.45356070842E+02  0.17839866505E+03  0.18500303391E+03  0.10000000000E+01 0.  0.
         -4    1    1    2    0  502  0.13396317784E+02 -0.24551700152E+02 -0.15199076769E+02  0.31857058012E+02  0.12700000000E+01 0. -1.
<mgrwt>
<rscale>  1 0.12809420E+03</rscale>
<asrwt>0</asrwt>
<pdfrwt beam="2">  1       21 0.44593092E-02 0.12809420E+03</pdfrwt>
<pdfrwt beam="1">  1       -4 0.11690924E+00 0.12809420E+03</pdfrwt>
<totfact> 0.78597001E+03</totfact>
</mgrwt>
</event>
<event>
 6    4  0.3995738E-003  0.1277363E+03  0.7818608E-02  0.1230854E+00
          4   -1    0    0  502    0 -0.00000000000E+00  0.00000000000E+00  0.58650668745E+01  0.60009923715E+01  0.12700000000E+01 0.  1.
         21   -1    0    0  501  502  0.00000000000E+00 -0.00000000000E+00 -0.12305952214E+04  0.12305952214E+04  0.00000000000E+00 0.  1.
         25    2    1    2    0    0 -0.85516773165E+01 -0.25130795636E+02 -0.72550367117E+03  0.73666283555E+03  0.12494746227E+03 0.  0.
    9000005    1    3    3    0    0  0.26609382587E+02 -0.23676629235E+02 -0.66992696235E+03  0.67087389045E+03  0.10000000000E+01 0.  0.
    9000005    1    3    3    0    0 -0.35161059903E+02 -0.14541664017E+01 -0.55576708819E+02  0.65788945094E+02  0.10000000000E+01 0.  0.
          4    1    1    2  501    0  0.85516773165E+01  0.25130795636E+02 -0.49922648337E+03  0.49993337823E+03  0.12700000000E+01 0. -1.
<mgrwt>
<rscale>  1 0.12773628E+03</rscale>
<asrwt>0</asrwt>
<pdfrwt beam="2">  1       21 0.18932270E+00 0.12773628E+03</pdfrwt>
<pdfrwt beam="1">  1        4 0.91282247E-03 0.12773628E+03</pdfrwt>
<totfact> 0.22122187E+04</totfact>
</mgrwt>
</event>
<event>
 6    4  0.3995738E-003  0.1287403E+03  0.7818608E-02  0.1229337E+00
         21   -1    0    0  501  502  0.00000000000E+00  0.00000000000E+00  0.12561993344E+03  0.12561993344E+03  0.00000000000E+00 0.  1.
          4   -1    0    0  502    0 -0.00000000000E+00 -0.00000000000E+00 -0.50696355016E+02  0.50712259976E+02  0.12700000000E+01 0.  1.
         25    2    1    2    0    0  0.26164684717E+02 -0.16266159381E+02  0.62136731774E+02  0.14295113569E+03  0.12499950037E+03 0.  0.
    9000005    1    3    3    0    0  0.14407403767E+02  0.54210091110E+02  0.36991457118E+02  0.67198773510E+02  0.10000000000E+01 0.  0.
    9000005    1    3    3    0    0  0.11757280950E+02 -0.70476250491E+02  0.25145274656E+02  0.75752362182E+02  0.10000000000E+01 0.  0.
          4    1    1    2  501    0 -0.26164684717E+02  0.16266159381E+02  0.12786846646E+02  0.33381057719E+02  0.12700000000E+01 0. -1.
<mgrwt>
<rscale>  1 0.12874026E+03</rscale>
<asrwt>0</asrwt>
<pdfrwt beam="1">  1       21 0.19326144E-01 0.12874026E+03</pdfrwt>
<pdfrwt beam="2">  1        4 0.78011565E-02 0.12874026E+03</pdfrwt>
<totfact> 0.11345716E+05</totfact>
</mgrwt>
</event>
<event>
 6    4  0.3995738E-003  0.1279930E+03  0.7818608E-02  0.1230464E+00
          4   -1    0    0  502    0 -0.00000000000E+00  0.00000000000E+00  0.23238648633E+03  0.23238995660E+03  0.12700000000E+01 0. -1.
         21   -1    0    0  501  502  0.00000000000E+00 -0.00000000000E+00 -0.11879943914E+03  0.11879943914E+03  0.00000000000E+00 0.  1.
         25    2    1    2    0    0 -0.12663435022E+02 -0.24423885495E+02  0.21274412500E+03  0.24827862008E+03  0.12500128678E+03 0.  0.
    9000005    1    3    3    0    0 -0.10333653790E+01  0.79312646215E+01 -0.15492881040E+02  0.17464311193E+02  0.10000000000E+01 0.  0.
    9000005    1    3    3    0    0 -0.11630069643E+02 -0.32355150117E+02  0.22823700604E+03  0.23081430888E+03  0.10000000000E+01 0.  0.
          4    1    1    2  501    0  0.12663435022E+02  0.24423885495E+02 -0.99157077810E+02  0.10291077567E+03  0.12700000000E+01 0.  1.
<mgrwt>
<rscale>  1 0.12799301E+03</rscale>
<asrwt>0</asrwt>
<pdfrwt beam="2">  1       21 0.18276837E-01 0.12799301E+03</pdfrwt>
<pdfrwt beam="1">  1        4 0.35752556E-01 0.12799301E+03</pdfrwt>
<totfact> 0.84553973E+03</totfact>
</mgrwt>
</event>
<event>
 6    4  0.3995738E-003  0.1271929E+03  0.7818608E-02  0.1231681E+00
         21   -1    0    0  501  502  0.00000000000E+00  0.00000000000E+00  0.96867311204E+02  0.96867311204E+02  0.00000000000E+00 0.  1.
         -4   -1    0    0    0  501 -0.00000000000E+00 -0.00000000000E+00 -0.66380879470E+02  0.66393027188E+02  0.12700000000E+01 0.  1.
         25    2    1    2    0    0  0.17264338292E+02 -0.15922602732E+02  0.31960387041E+01  0.12723305559E+03  0.12500579633E+03 0.  0.
    9000005    1    3    3    0    0 -0.20150427611E+02 -0.50119798605E+01  0.57066728029E+02  0.60735254367E+02  0.10000000000E+01 0.  0.
    9000005    1    3    3    0    0  0.37414765903E+02 -0.10910622871E+02 -0.53870689325E+02  0.66497801222E+02  0.10000000000E+01 0.  0.
         -4    1    1    2    0  502 -0.17264338292E+02  0.15922602732E+02  0.27290393030E+02  0.36027282803E+02  0.12700000000E+01 0. -1.
<mgrwt>
<rscale>  1 0.12719291E+03</rscale>
<asrwt>0</asrwt>
<pdfrwt beam="1">  1       21 0.14902663E-01 0.12719291E+03</pdfrwt>
<pdfrwt beam="2">  1       -4 0.10214018E-01 0.12719291E+03</pdfrwt>
<totfact> 0.11598873E+05</totfact>
</mgrwt>
</event>
<event>
 6    4  0.3995738E-003  0.1283362E+03  0.7818608E-02  0.1229946E+00
         21   -1    0    0  501  502  0.00000000000E+00  0.00000000000E+00  0.11143113381E+02  0.11143113381E+02  0.00000000000E+00 0.  1.
         -4   -1    0    0    0  501 -0.00000000000E+00 -0.00000000000E+00 -0.55895095244E+03  0.55895239523E+03  0.12700000000E+01 0.  1.
         25    2    1    2    0    0  0.15247115096E+01  0.29041420000E+02 -0.42985951664E+03  0.44860827273E+03  0.12499779796E+03 0.  0.
    9000005    1    3    3    0    0 -0.30172698745E+02 -0.39085789284E+02 -0.22615888522E+03  0.23148851384E+03  0.10000000000E+01 0.  0.
    9000005    1    3    3    0    0  0.31697410254E+02  0.68127209285E+02 -0.20370063142E+03  0.21711975890E+03  0.10000000000E+01 0.  0.
         -4    1    1    2    0  502 -0.15247115096E+01 -0.29041420000E+02 -0.11794832241E+03  0.12148723587E+03  0.12700000000E+01 0. -1.
<mgrwt>
<rscale>  1 0.12833619E+03</rscale>
<asrwt>0</asrwt>
<pdfrwt beam="1">  1       21 0.17143257E-02 0.12833619E+03</pdfrwt>
<pdfrwt beam="2">  1       -4 0.85998106E-01 0.12833619E+03</pdfrwt>
<totfact> 0.76253852E+04</totfact>
</mgrwt>
</event>
<event>
 6    4  0.3995738E-003  0.1310245E+03  0.7818608E-02  0.1225943E+00
         21   -1    0    0  501  502  0.00000000000E+00  0.00000000000E+00  0.35764541458E+03  0.35764541458E+03  0.00000000000E+00 0.  1.
         -4   -1    0    0    0  501 -0.00000000000E+00 -0.00000000000E+00 -0.33685378947E+02  0.33709311100E+02  0.12700000000E+01 0. -1.
         25    2    1    2    0    0  0.36026851316E+02 -0.15667192977E+02  0.10228459895E+03  0.16622141611E+03  0.12499610009E+03 0.  0.
    9000005    1    3    3    0    0 -0.21906791003E+02 -0.18587439214E+02  0.10428143804E+03  0.10817124714E+03  0.10000000000E+01 0.  0.
    9000005    1    3    3    0    0  0.57933642319E+02  0.29202462369E+01 -0.19968390893E+01  0.58050168964E+02  0.10000000000E+01 0.  0.
         -4    1    1    2    0  502 -0.36026851316E+02  0.15667192977E+02  0.22167543668E+03  0.22513330957E+03  0.12700000000E+01 0.  1.
<mgrwt>
<rscale>  1 0.13102450E+03</rscale>
<asrwt>0</asrwt>
<pdfrwt beam="1">  1       21 0.55022369E-01 0.13102450E+03</pdfrwt>
<pdfrwt beam="2">  1       -4 0.51843806E-02 0.13102450E+03</pdfrwt>
<totfact> 0.28625345E+04</totfact>
</mgrwt>
</event>
<event>
 6    4  0.3995738E-003  0.1351847E+03  0.7818608E-02  0.1219959E+00
         -4   -1    0    0    0  501 -0.00000000000E+00  0.00000000000E+00  0.10542362605E+03  0.10543127539E+03  0.12700000000E+01 0. -1.
         21   -1    0    0  501  502  0.00000000000E+00 -0.00000000000E+00 -0.17543159947E+03  0.17543159947E+03  0.00000000000E+00 0.  1.
         25    2    1    2    0    0  0.37817746311E+02  0.34929652363E+02  0.54783721074E+02  0.14586345832E+03  0.12499851930E+03 0.  0.
    9000005    1    3    3    0    0  0.79489659388E+02  0.46223821702E+02  0.38924153647E+02  0.99856584057E+02  0.10000000000E+01 0.  0.
    9000005    1    3    3    0    0 -0.41671913077E+02 -0.11294169339E+02  0.15859567428E+02  0.46006874264E+02  0.10000000000E+01 0.  0.
         -4    1    1    2    0  502 -0.37817746311E+02 -0.34929652363E+02 -0.12479169450E+03  0.13499941654E+03  0.12700000000E+01 0.  1.
<mgrwt>
<rscale>  1 0.13518466E+03</rscale>
<asrwt>0</asrwt>
<pdfrwt beam="2">  1       21 0.26989477E-01 0.13518466E+03</pdfrwt>
<pdfrwt beam="1">  1       -4 0.16219961E-01 0.13518466E+03</pdfrwt>
<totfact> 0.17554385E+04</totfact>
</mgrwt>
</event>
<event>
 6    4  0.3995738E-003  0.1302511E+03  0.7818608E-02  0.1227084E+00
          4   -1    0    0  502    0 -0.00000000000E+00  0.00000000000E+00  0.62641915101E+02  0.62654787746E+02  0.12700000000E+01 0.  1.
         21   -1    0    0  501  502  0.00000000000E+00 -0.00000000000E+00 -0.19911903658E+03  0.19911903658E+03  0.00000000000E+00 0.  1.
         25    2    1    2    0    0 -0.27925059231E+02 -0.23714710304E+02 -0.10616134818E+02  0.13068302648E+03  0.12499261847E+03 0.  0.
    9000005    1    3    3    0    0 -0.45138699839E+02  0.42370834102E+02 -0.65730913006E+01  0.62265522843E+02  0.10000000000E+01 0.  0.
    9000005    1    3    3    0    0  0.17213640607E+02 -0.66085544406E+02 -0.40430435169E+01  0.68417503632E+02  0.10000000000E+01 0.  0.
          4    1    1    2  501    0  0.27925059231E+02  0.23714710304E+02 -0.12586098666E+03  0.13109079785E+03  0.12700000000E+01 0. -1.
<mgrwt>
<rscale>  1 0.13025111E+03</rscale>
<asrwt>0</asrwt>
<pdfrwt beam="2">  1       21 0.30633698E-01 0.13025111E+03</pdfrwt>
<pdfrwt beam="1">  1        4 0.96385195E-02 0.13025111E+03</pdfrwt>
<totfact> 0.33513101E+04</totfact>
</mgrwt>
</event>
<event>
 6    4  0.3995738E-003  0.1302492E+03  0.7818608E-02  0.1227086E+00
         21   -1    0    0  501  502  0.00000000000E+00  0.00000000000E+00  0.97624717675E+03  0.97624717675E+03  0.00000000000E+00 0.  1.
         -4   -1    0    0    0  501 -0.00000000000E+00 -0.00000000000E+00 -0.43474068051E+02  0.43492614234E+02  0.12700000000E+01 0. -1.
         25    2    1    2    0    0  0.35574956796E+02  0.86878783942E+01  0.55300810996E+02  0.14150274843E+03  0.12499516524E+03 0.  0.
    9000005    1    3    3    0    0 -0.43936540143E+02  0.71299742790E+01  0.41336106349E+02  0.60753022815E+02  0.10000000000E+01 0.  0.
    9000005    1    3    3    0    0  0.79511496939E+02  0.15579041152E+01  0.13964704647E+02  0.80749725613E+02  0.10000000000E+01 0.  0.
         -4    1    1    2    0  502 -0.35574956796E+02 -0.86878783942E+01  0.87747229770E+03  0.87823704256E+03  0.12700000000E+01 0.  1.
<mgrwt>
<rscale>  1 0.13024918E+03</rscale>
<asrwt>0</asrwt>
<pdfrwt beam="1">  1       21 0.15019186E+00 0.13024918E+03</pdfrwt>
<pdfrwt beam="2">  1       -4 0.66898091E-02 0.13024918E+03</pdfrwt>
<totfact> 0.18614794E+03</totfact>
</mgrwt>
</event>
<event>
 6    4  0.3995738E-003  0.1270494E+03  0.7818608E-02  0.1231901E+00
          4   -1    0    0  502    0 -0.00000000000E+00  0.00000000000E+00  0.19981667859E+03  0.19982071450E+03  0.12700000000E+01 0. -1.
         21   -1    0    0  501  502  0.00000000000E+00 -0.00000000000E+00 -0.74632202628E+02  0.74632202628E+02  0.00000000000E+00 0.  1.
         25    2    1    2    0    0 -0.82985802483E+01  0.21142972009E+02  0.17699202750E+03  0.21787087938E+03  0.12500260231E+03 0.  0.
    9000005    1    3    3    0    0 -0.96573489696E+01 -0.46091509664E+02  0.29003018232E+02  0.55316062033E+02  0.10000000000E+01 0.  0.
    9000005    1    3    3    0    0  0.13587687214E+01  0.67234481674E+02  0.14798900927E+03  0.16255481735E+03  0.10000000000E+01 0.  0.
          4    1    1    2  501    0  0.82985802483E+01 -0.21142972009E+02 -0.51807551537E+02  0.56582037748E+02  0.12700000000E+01 0.  1.
<mgrwt>
<rscale>  1 0.12704937E+03</rscale>
<asrwt>0</asrwt>
<pdfrwt beam="2">  1       21 0.11481877E-01 0.12704937E+03</pdfrwt>
<pdfrwt beam="1">  1        4 0.30742169E-01 0.12704937E+03</pdfrwt>
<totfact> 0.26012939E+04</totfact>
</mgrwt>
</event>
<event>
 6    4  0.3995738E-003  0.1270345E+03  0.7818608E-02  0.1231924E+00
         -4   -1    0    0    0  501 -0.00000000000E+00  0.00000000000E+00  0.19398996475E+02  0.19440523765E+02  0.12700000000E+01 0. -1.
         21   -1    0    0  501  502  0.00000000000E+00 -0.00000000000E+00 -0.31760898611E+03  0.31760898611E+03  0.00000000000E+00 0. -1.
         25    2    1    2    0    0  0.22645603187E+02 -0.91896078770E-01 -0.20541199162E+03  0.24151986461E+03  0.12499970765E+03 0.  0.
    9000005    1    3    3    0    0  0.40308218073E+02 -0.47965042786E+02 -0.16475339417E+03  0.17626706630E+03  0.10000000000E+01 0.  0.
    9000005    1    3    3    0    0 -0.17662614886E+02  0.47873146707E+02 -0.40658597454E+02  0.65252798309E+02  0.10000000000E+01 0.  0.
         -4    1    1    2    0  502 -0.22645603187E+02  0.91896078770E-01 -0.92797998011E+02  0.95529645260E+02  0.12700000000E+01 0.  1.
<mgrwt>
<rscale>  1 0.12703448E+03</rscale>
<asrwt>0</asrwt>
<pdfrwt beam="2">  1       21 0.48862920E-01 0.12703448E+03</pdfrwt>
<pdfrwt beam="1">  1       -4 0.29878508E-02 0.12703448E+03</pdfrwt>
<totfact> 0.87454696E+04</totfact>
</mgrwt>
</event>
<event>
 6    4  0.3995738E-003  0.1271624E+03  0.7818608E-02  0.1231728E+00
         21   -1    0    0  501  502  0.00000000000E+00  0.00000000000E+00  0.98433550113E+02  0.98433550113E+02  0.00000000000E+00 0.  1.
          4   -1    0    0  502    0 -0.00000000000E+00 -0.00000000000E+00 -0.67371519846E+02  0.67383488975E+02  0.12700000000E+01 0.  1.
         25    2    1    2    0    0  0.18778223457E+02  0.13873889692E+02  0.28156861900E+00  0.12716272224E+03  0.12500068862E+03 0.  0.
    9000005    1    3    3    0    0  0.68059408045E+02 -0.82510347198E+01 -0.16622018195E+02  0.70551074310E+02  0.10000000000E+01 0.  0.
    9000005    1    3    3    0    0 -0.49281184588E+02  0.22124924412E+02  0.16903586814E+02  0.56611647934E+02  0.10000000000E+01 0.  0.
          4    1    1    2  501    0 -0.18778223457E+02 -0.13873889692E+02  0.30780461648E+02  0.38654316843E+02  0.12700000000E+01 0. -1.
<mgrwt>
<rscale>  1 0.12716241E+03</rscale>
<asrwt>0</asrwt>
<pdfrwt beam="1">  1       21 0.15143623E-01 0.12716241E+03</pdfrwt>
<pdfrwt beam="2">  1        4 0.10366400E-01 0.12716241E+03</pdfrwt>
<totfact> 0.10990065E+05</totfact>
</mgrwt>
</event>
<event>
 6    4  0.3995738E-003  0.1365617E+03  0.7818608E-02  0.1218032E+00
         21   -1    0    0  501  502  0.00000000000E+00  0.00000000000E+00  0.73572172616E+03  0.73572172616E+03  0.00000000000E+00 0. -1.
         -4   -1    0    0    0  501 -0.00000000000E+00 -0.00000000000E+00 -0.60799045967E+02  0.60812308709E+02  0.12700000000E+01 0.  1.
         25    2    1    2    0    0  0.47255107091E+02 -0.28115026259E+02  0.18497670088E+02  0.13780882157E+03  0.12500243060E+03 0.  0.
    9000005    1    3    3    0    0 -0.20258455745E+01  0.19924197677E+01  0.64129053793E+02  0.64199761115E+02  0.10000000000E+01 0.  0.
    9000005    1    3    3    0    0  0.49280952666E+02 -0.30107446027E+02 -0.45631383705E+02  0.73609060453E+02  0.10000000000E+01 0.  0.
         -4    1    1    2    0  502 -0.47255107091E+02  0.28115026259E+02  0.65642501010E+03  0.65872521330E+03  0.12700000000E+01 0. -1.
<mgrwt>
<rscale>  1 0.13656174E+03</rscale>
<asrwt>0</asrwt>
<pdfrwt beam="1">  1       21 0.11318795E+00 0.13656174E+03</pdfrwt>
<pdfrwt beam="2">  1       -4 0.93548044E-02 0.13656174E+03</pdfrwt>
<totfact> 0.21668941E+03</totfact>
</mgrwt>
</event>
<event>
 6    4  0.3995738E-003  0.1275914E+03  0.7818608E-02  0.1231074E+00
          4   -1    0    0  502    0 -0.00000000000E+00  0.00000000000E+00  0.46420079361E+03  0.46420253089E+03  0.12700000000E+01 0.  1.
         21   -1    0    0  501  502  0.00000000000E+00 -0.00000000000E+00 -0.23696231308E+02  0.23696231308E+02  0.00000000000E+00 0. -1.
         25    2    1    2    0    0 -0.42614556360E+01 -0.25228717931E+02  0.44406794607E+03  0.46203452402E+03  0.12499964977E+03 0.  0.
    9000005    1    3    3    0    0  0.42689489158E+02  0.31860970216E+02  0.20404120218E+03  0.21088225647E+03  0.10000000000E+01 0.  0.
    9000005    1    3    3    0    0 -0.46950944794E+02 -0.57089688147E+02  0.24002674389E+03  0.25115226755E+03  0.10000000000E+01 0.  0.
          4    1    1    2  501    0  0.42614556360E+01  0.25228717931E+02 -0.35633837776E+01  0.25864238178E+02  0.12700000000E+01 0. -1.
<mgrwt>
<rscale>  1 0.12759138E+03</rscale>
<asrwt>0</asrwt>
<pdfrwt beam="2">  1       21 0.36455744E-02 0.12759138E+03</pdfrwt>
<pdfrwt beam="1">  1        4 0.71418251E-01 0.12759138E+03</pdfrwt>
<totfact> 0.33571776E+04</totfact>
</mgrwt>
</event>
<event>
 6    4  0.3995738E-003  0.1310550E+03  0.7818608E-02  0.1225899E+00
         21   -1    0    0  501  502  0.00000000000E+00  0.00000000000E+00  0.83197370561E+02  0.83197370561E+02  0.00000000000E+00 0.  1.
          4   -1    0    0  502    0 -0.00000000000E+00 -0.00000000000E+00 -0.17554663711E+03  0.17555123099E+03  0.12700000000E+01 0. -1.
         25    2    1    2    0    0 -0.22271114945E+02  0.32529616919E+02 -0.14338043829E+03  0.19425075719E+03  0.12498491128E+03 0.  0.
    9000005    1    3    3    0    0 -0.13316218382E+02  0.80170267721E+02 -0.10263605771E+03  0.13091888267E+03  0.10000000000E+01 0.  0.
    9000005    1    3    3    0    0 -0.89548965629E+01 -0.47640650802E+02 -0.40744380580E+02  0.63331874519E+02  0.10000000000E+01 0.  0.
          4    1    1    2  501    0  0.22271114945E+02 -0.32529616919E+02  0.51031171737E+02  0.64497844357E+02  0.12700000000E+01 0.  1.
<mgrwt>
<rscale>  1 0.13105498E+03</rscale>
<asrwt>0</asrwt>
<pdfrwt beam="1">  1       21 0.12799596E-01 0.13105498E+03</pdfrwt>
<pdfrwt beam="2">  1        4 0.27008274E-01 0.13105498E+03</pdfrwt>
<totfact> 0.27459033E+04</totfact>
</mgrwt>
</event>
<event>
 6    4  0.3995738E-003  0.1279534E+03  0.7818608E-02  0.1230524E+00
         21   -1    0    0  501  502  0.00000000000E+00  0.00000000000E+00  0.59958342325E+02  0.59958342325E+02  0.00000000000E+00 0. -1.
         -4   -1    0    0    0  501 -0.00000000000E+00 -0.00000000000E+00 -0.12586299241E+03  0.12586939961E+03  0.12700000000E+01 0. -1.
         25    2    1    2    0    0  0.27215132910E+02 -0.24604331684E+01 -0.16043423677E+02  0.12895532340E+03  0.12500146719E+03 0.  0.
    9000005    1    3    3    0    0 -0.37552639990E+02  0.31017099589E+02 -0.26235450927E+02  0.55331366534E+02  0.10000000000E+01 0.  0.
    9000005    1    3    3    0    0  0.64767772900E+02 -0.33477532757E+02  0.10192027250E+02  0.73623956871E+02  0.10000000000E+01 0.  0.
         -4    1    1    2    0  502 -0.27215132910E+02  0.24604331684E+01 -0.49861226404E+02  0.56872418527E+02  0.12700000000E+01 0.  1.
<mgrwt>
<rscale>  1 0.12795344E+03</rscale>
<asrwt>0</asrwt>
<pdfrwt beam="1">  1       21 0.92243605E-02 0.12795344E+03</pdfrwt>
<pdfrwt beam="2">  1       -4 0.19365065E-01 0.12795344E+03</pdfrwt>
<totfact> 0.89415213E+04</totfact>
</mgrwt>
</event>
<event>
 6    4  0.3995738E-003  0.1268067E+03  0.7818608E-02  0.1232272E+00
          4   -1    0    0  502    0 -0.00000000000E+00  0.00000000000E+00  0.32268148581E+03  0.32268398501E+03  0.12700000000E+01 0. -1.
         21   -1    0    0  501  502  0.00000000000E+00 -0.00000000000E+00 -0.18184223813E+02  0.18184223813E+02  0.00000000000E+00 0. -1.
         25    2    1    2    0    0  0.66807704251E+01  0.20285753193E+02  0.28493449490E+03  0.31187753390E+03  0.12499514108E+03 0.  0.
    9000005    1    3    3    0    0 -0.56984240565E+02  0.22436988086E+02  0.16625822712E+03  0.17718188449E+03  0.10000000000E+01 0.  0.
    9000005    1    3    3    0    0  0.63665010990E+02 -0.21512348924E+01  0.11867626778E+03  0.13469564941E+03  0.10000000000E+01 0.  0.
          4    1    1    2  501    0 -0.66807704251E+01 -0.20285753193E+02  0.19562767100E+02  0.28990674926E+02  0.12700000000E+01 0.  1.
<mgrwt>
<rscale>  1 0.12680666E+03</rscale>
<asrwt>0</asrwt>
<pdfrwt beam="2">  1       21 0.27975731E-02 0.12680666E+03</pdfrwt>
<pdfrwt beam="1">  1        4 0.49646905E-01 0.12680666E+03</pdfrwt>
<totfact> 0.11104373E+05</totfact>
</mgrwt>
</event>
<event>
 6    4  0.3995738E-003  0.1270883E+03  0.7818608E-02  0.1231841E+00
         -4   -1    0    0    0  501 -0.00000000000E+00  0.00000000000E+00  0.64678113344E+02  0.64690580812E+02  0.12700000000E+01 0. -1.
         21   -1    0    0  501  502  0.00000000000E+00 -0.00000000000E+00 -0.10790891381E+03  0.10790891381E+03  0.00000000000E+00 0. -1.
         25    2    1    2    0    0  0.22601753719E+02  0.40573100977E+01 -0.40320832949E+01  0.12715223547E+03  0.12499652897E+03 0.  0.
    9000005    1    3    3    0    0 -0.36872327055E+02  0.22401108448E+02 -0.36882604984E+02  0.56768870981E+02  0.10000000000E+01 0.  0.
    9000005    1    3    3    0    0  0.59474080773E+02 -0.18343798351E+02  0.32850521689E+02  0.70383364490E+02  0.10000000000E+01 0.  0.
         -4    1    1    2    0  502 -0.22601753719E+02 -0.40573100977E+01 -0.39198717170E+02  0.45447259149E+02  0.12700000000E+01 0.  1.
<mgrwt>
<rscale>  1 0.12708829E+03</rscale>
<asrwt>0</asrwt>
<pdfrwt beam="2">  1       21 0.16601371E-01 0.12708829E+03</pdfrwt>
<pdfrwt beam="1">  1       -4 0.99520129E-02 0.12708829E+03</pdfrwt>
<totfact> 0.99669108E+04</totfact>
</mgrwt>
</event>
<event>
 6    4  0.3995738E-003  0.1279755E+03  0.7818608E-02  0.1230491E+00
          4   -1    0    0  502    0 -0.00000000000E+00  0.00000000000E+00  0.93564202439E+02  0.93572821258E+02  0.12700000000E+01 0. -1.
         21   -1    0    0  501  502  0.00000000000E+00 -0.00000000000E+00 -0.65231350253E+02  0.65231350253E+02  0.00000000000E+00 0. -1.
         25    2    1    2    0    0  0.15004441178E+02 -0.22989347005E+02  0.29370826620E+02  0.13130265116E+03  0.12499638960E+03 0.  0.
    9000005    1    3    3    0    0 -0.42846348213E+02  0.27151662048E+02  0.51267816807E+01  0.50993197562E+02  0.10000000000E+01 0.  0.
    9000005    1    3    3    0    0  0.57850789391E+02 -0.50141009053E+02  0.24244044939E+02  0.80309453596E+02  0.10000000000E+01 0.  0.
          4    1    1    2  501    0 -0.15004441178E+02  0.22989347005E+02 -0.10379744335E+01  0.27501520352E+02  0.12700000000E+01 0.  1.
<mgrwt>
<rscale>  1 0.12797555E+03</rscale>
<asrwt>0</asrwt>
<pdfrwt beam="2">  1       21 0.10035592E-01 0.12797555E+03</pdfrwt>
<pdfrwt beam="1">  1        4 0.14396107E-01 0.12797555E+03</pdfrwt>
<totfact> 0.13018389E+05</totfact>
</mgrwt>
</event>
<event>
 6    4  0.3995738E-003  0.1307726E+03  0.7818608E-02  0.1226314E+00
         21   -1    0    0  501  502  0.00000000000E+00  0.00000000000E+00  0.42864300337E+02  0.42864300337E+02  0.00000000000E+00 0. -1.
          4   -1    0    0  502    0 -0.00000000000E+00 -0.00000000000E+00 -0.28671978409E+03  0.28672259675E+03  0.12700000000E+01 0. -1.
         25    2    1    2    0    0 -0.16833457508E+02 -0.34589616350E+02 -0.25745656776E+03  0.28876522102E+03  0.12498664623E+03 0.  0.
    9000005    1    3    3    0    0 -0.63905650394E+02 -0.63224765914E+01 -0.19645022932E+03  0.20668236128E+03  0.10000000000E+01 0.  0.
    9000005    1    3    3    0    0  0.47072192886E+02 -0.28267139759E+02 -0.61006338437E+02  0.82082859738E+02  0.10000000000E+01 0.  0.
          4    1    1    2  501    0  0.16833457508E+02  0.34589616350E+02  0.13601084010E+02  0.40821676070E+02  0.12700000000E+01 0.  1.
<mgrwt>
<rscale>  1 0.13077258E+03</rscale>
<asrwt>0</asrwt>
<pdfrwt beam="1">  1       21 0.65945075E-02 0.13077258E+03</pdfrwt>
<pdfrwt beam="2">  1        4 0.44112401E-01 0.13077258E+03</pdfrwt>
<totfact> 0.33852653E+04</totfact>
</mgrwt>
</event>
<event>
 6    4  0.3995738E-003  0.1326257E+03  0.7818608E-02  0.1223611E+00
         -4   -1    0    0    0  501 -0.00000000000E+00  0.00000000000E+00  0.19094585891E+02  0.19136773771E+02  0.12700000000E+01 0.  1.
         21   -1    0    0  501  502  0.00000000000E+00 -0.00000000000E+00 -0.52148213279E+03  0.52148213279E+03  0.00000000000E+00 0. -1.
         25    2    1    2    0    0 -0.44230549856E+02 -0.30462293262E+01 -0.23730636284E+03  0.27185271059E+03  0.12499586136E+03 0.  0.
    9000005    1    3    3    0    0 -0.35862973785E+02 -0.62565111683E+02 -0.13975879472E+03  0.15727068001E+03  0.10000000000E+01 0.  0.
    9000005    1    3    3    0    0 -0.83675760709E+01  0.59518882357E+02 -0.97547568118E+02  0.11458203058E+03  0.10000000000E+01 0.  0.
         -4    1    1    2    0  502  0.44230549856E+02  0.30462293262E+01 -0.26508118407E+03  0.26876619598E+03  0.12700000000E+01 0. -1.
<mgrwt>
<rscale>  1 0.13262574E+03</rscale>
<asrwt>0</asrwt>
<pdfrwt beam="2">  1       21 0.80228026E-01 0.13262574E+03</pdfrwt>
<pdfrwt beam="1">  1       -4 0.29409926E-02 0.13262574E+03</pdfrwt>
<totfact> 0.31146623E+04</totfact>
</mgrwt>
</event>
<event>
 6    4  0.3995738E-003  0.1307479E+03  0.7818608E-02  0.1226350E+00
         -4   -1    0    0    0  501 -0.00000000000E+00  0.00000000000E+00  0.77715301232E+02  0.77725677518E+02  0.12700000000E+01 0. -1.
         21   -1    0    0  501  502  0.00000000000E+00 -0.00000000000E+00 -0.14122316188E+03  0.14122316188E+03  0.00000000000E+00 0.  1.
         25    2    1    2    0    0 -0.16470812859E+02 -0.34624069188E+02  0.14964085453E+02  0.13160141203E+03  0.12499957580E+03 0.  0.
    9000005    1    3    3    0    0  0.23094457989E+02  0.39358061674E+02 -0.31929704524E+01  0.45755940258E+02  0.10000000000E+01 0.  0.
    9000005    1    3    3    0    0 -0.39565270847E+02 -0.73982130862E+02  0.18157055905E+02  0.85845471769E+02  0.10000000000E+01 0.  0.
         -4    1    1    2    0  502  0.16470812859E+02  0.34624069188E+02 -0.78471946096E+02  0.87347427366E+02  0.12700000000E+01 0.  1.
<mgrwt>
<rscale>  1 0.13074788E+03</rscale>
<asrwt>0</asrwt>
<pdfrwt beam="2">  1       21 0.21726640E-01 0.13074788E+03</pdfrwt>
<pdfrwt beam="1">  1       -4 0.11957438E-01 0.13074788E+03</pdfrwt>
<totfact> 0.44668669E+04</totfact>
</mgrwt>
</event>
<event>
 6    4  0.3995738E-003  0.1279964E+03  0.7818608E-02  0.1230459E+00
          4   -1    0    0  502    0 -0.00000000000E+00  0.00000000000E+00  0.55678208627E+02  0.55692690867E+02  0.12700000000E+01 0. -1.
         21   -1    0    0  501  502  0.00000000000E+00 -0.00000000000E+00 -0.12079256666E+03  0.12079256666E+03  0.00000000000E+00 0.  1.
         25    2    1    2    0    0  0.26503604950E+02  0.73812287533E+01 -0.29302858168E+02  0.13130782914E+03  0.12500465944E+03 0.  0.
    9000005    1    3    3    0    0  0.40569545900E+02 -0.21028843831E+01 -0.73483755474E+02  0.83971259939E+02  0.10000000000E+01 0.  0.
    9000005    1    3    3    0    0 -0.14065940950E+02  0.94841131364E+01  0.44180897305E+02  0.47336569199E+02  0.10000000000E+01 0.  0.
          4    1    1    2  501    0 -0.26503604950E+02 -0.73812287533E+01 -0.35811499861E+02  0.45177428386E+02  0.12700000000E+01 0.  1.
<mgrwt>
<rscale>  1 0.12799644E+03</rscale>
<asrwt>0</asrwt>
<pdfrwt beam="2">  1       21 0.18583472E-01 0.12799644E+03</pdfrwt>
<pdfrwt beam="1">  1        4 0.85675059E-02 0.12799644E+03</pdfrwt>
<totfact> 0.10431415E+05</totfact>
</mgrwt>
</event>
<event>
 6    4  0.3995738E-003  0.1269051E+03  0.7818608E-02  0.1232122E+00
          4   -1    0    0  502    0 -0.00000000000E+00  0.00000000000E+00  0.31368204022E+03  0.31368461113E+03  0.12700000000E+01 0. -1.
         21   -1    0    0  501  502  0.00000000000E+00 -0.00000000000E+00 -0.24591700983E+02  0.24591700983E+02  0.00000000000E+00 0. -1.
         25    2    1    2    0    0  0.21415048352E+02 -0.48762225167E+01  0.14574438104E+03  0.19325197459E+03  0.12499007655E+03 0.  0.
    9000005    1    3    3    0    0 -0.49750837900E+02  0.10276973739E+02  0.38949170458E+02  0.64021870797E+02  0.10000000000E+01 0.  0.
    9000005    1    3    3    0    0  0.71165886251E+02 -0.15153196256E+02  0.10679521059E+03  0.12923010380E+03  0.10000000000E+01 0.  0.
          4    1    1    2  501    0 -0.21415048352E+02  0.48762225167E+01  0.14334595820E+03  0.14502433752E+03  0.12700000000E+01 0.  1.
<mgrwt>
<rscale>  1 0.12690509E+03</rscale>
<asrwt>0</asrwt>
<pdfrwt beam="2">  1       21 0.37833388E-02 0.12690509E+03</pdfrwt>
<pdfrwt beam="1">  1        4 0.48261493E-01 0.12690509E+03</pdfrwt>
<totfact> 0.71578676E+04</totfact>
</mgrwt>
</event>
<event>
 6    4  0.3995738E-003  0.1295481E+03  0.7818608E-02  0.1228128E+00
         21   -1    0    0  501  502  0.00000000000E+00  0.00000000000E+00  0.62213035302E+02  0.62213035302E+02  0.00000000000E+00 0. -1.
          4   -1    0    0  502    0 -0.00000000000E+00 -0.00000000000E+00 -0.10221715549E+04  0.10221723438E+04  0.12700000000E+01 0. -1.
         25    2    1    2    0    0 -0.11576567359E+02  0.31961982693E+02 -0.10130668768E+04  0.10213164029E+04  0.12500845105E+03 0.  0.
    9000005    1    3    3    0    0  0.37355760686E+02  0.32866758036E+02 -0.83963959677E+03  0.84111314882E+03  0.10000000000E+01 0.  0.
    9000005    1    3    3    0    0 -0.48932328045E+02 -0.90477534275E+00 -0.17342728000E+03  0.18020325412E+03  0.10000000000E+01 0.  0.
          4    1    1    2  501    0  0.11576567359E+02 -0.31961982693E+02  0.53108357222E+02  0.63068976179E+02  0.12700000000E+01 0. -1.
<mgrwt>
<rscale>  1 0.12954805E+03</rscale>
<asrwt>0</asrwt>
<pdfrwt beam="1">  1       21 0.95712364E-02 0.12954805E+03</pdfrwt>
<pdfrwt beam="2">  1        4 0.15725822E+00 0.12954805E+03</pdfrwt>
<totfact> 0.10265575E+03</totfact>
</mgrwt>
</event>
<event>
 6    4  0.3995738E-003  0.1497346E+03  0.7818608E-02  0.1200800E+00
         -4   -1    0    0    0  501 -0.00000000000E+00  0.00000000000E+00  0.17464989575E+03  0.17465451322E+03  0.12700000000E+01 0. -1.
         21   -1    0    0  501  502  0.00000000000E+00 -0.00000000000E+00 -0.22087848021E+03  0.22087848021E+03  0.00000000000E+00 0.  1.
         25    2    1    2    0    0  0.75668830533E+02  0.32706124396E+02  0.13171237533E+03  0.19942062626E+03  0.12499989550E+03 0.  0.
    9000005    1    3    3    0    0  0.75447558944E+02 -0.29024336515E+02  0.43659215214E+02  0.91879667684E+02  0.10000000000E+01 0.  0.
    9000005    1    3    3    0    0  0.22127158913E+00  0.61730460910E+02  0.88053160114E+02  0.10754095858E+03  0.10000000000E+01 0.  0.
         -4    1    1    2    0  502 -0.75668830533E+02 -0.32706124396E+02 -0.17794095979E+03  0.19611236717E+03  0.12700000000E+01 0.  1.
<mgrwt>
<rscale>  1 0.14973455E+03</rscale>
<asrwt>0</asrwt>
<pdfrwt beam="2">  1       21 0.33981305E-01 0.14973455E+03</pdfrwt>
<pdfrwt beam="1">  1       -4 0.26869851E-01 0.14973455E+03</pdfrwt>
<totfact> 0.45397324E+03</totfact>
</mgrwt>
</event>
<event>
 6    4  0.3995738E-003  0.1273268E+03  0.7818608E-02  0.1231477E+00
         21   -1    0    0  501  502  0.00000000000E+00  0.00000000000E+00  0.34945818153E+03  0.34945818153E+03  0.00000000000E+00 0.  1.
         -4   -1    0    0    0  501 -0.00000000000E+00 -0.00000000000E+00 -0.20079473990E+02  0.20119596808E+02  0.12700000000E+01 0.  1.
         25    2    1    2    0    0  0.15921402379E+02  0.18268795554E+02  0.19407116269E+03  0.23211147506E+03  0.12499952288E+03 0.  0.
    9000005    1    3    3    0    0 -0.47922073246E+02 -0.18986117979E+02  0.60850992587E+02  0.79754881223E+02  0.10000000000E+01 0.  0.
    9000005    1    3    3    0    0  0.63843475625E+02  0.37254913533E+02  0.13322017010E+03  0.15235659383E+03  0.10000000000E+01 0.  0.
         -4    1    1    2    0  502 -0.15921402379E+02 -0.18268795554E+02  0.13530754485E+03  0.13746630328E+03  0.12700000000E+01 0. -1.
<mgrwt>
<rscale>  1 0.12732683E+03</rscale>
<asrwt>0</asrwt>
<pdfrwt beam="1">  1       21 0.53762793E-01 0.12732683E+03</pdfrwt>
<pdfrwt beam="2">  1       -4 0.30924140E-02 0.12732683E+03</pdfrwt>
<totfact> 0.68016354E+04</totfact>
</mgrwt>
</event>
<event>
 6    4  0.3995738E-003  0.1276862E+03  0.7818608E-02  0.1230930E+00
         -4   -1    0    0    0  501 -0.00000000000E+00  0.00000000000E+00  0.15369373811E+02  0.15421755780E+02  0.12700000000E+01 0. -1.
         21   -1    0    0  501  502  0.00000000000E+00 -0.00000000000E+00 -0.40336141182E+03  0.40336141182E+03  0.00000000000E+00 0.  1.
         25    2    1    2    0    0 -0.10969176019E+02 -0.23630208079E+02 -0.28087275885E+03  0.30853407498E+03  0.12500023681E+03 0.  0.
    9000005    1    3    3    0    0 -0.25388315342E+02 -0.59998706213E+02 -0.76677315382E+02  0.10062217448E+03  0.10000000000E+01 0.  0.
    9000005    1    3    3    0    0  0.14419139323E+02  0.36368498134E+02 -0.20419544346E+03  0.20791190049E+03  0.10000000000E+01 0.  0.
         -4    1    1    2    0  502  0.10969176019E+02  0.23630208079E+02 -0.10711927916E+03  0.11024909262E+03  0.12700000000E+01 0.  1.
<mgrwt>
<rscale>  1 0.12768621E+03</rscale>
<asrwt>0</asrwt>
<pdfrwt beam="2">  1       21 0.62055603E-01 0.12768621E+03</pdfrwt>
<pdfrwt beam="1">  1       -4 0.23687022E-02 0.12768621E+03</pdfrwt>
<totfact> 0.76146930E+04</totfact>
</mgrwt>
</event>
<event>
 6    4  0.3995738E-003  0.1407019E+03  0.7818608E-02  0.1212388E+00
         21   -1    0    0  501  502  0.00000000000E+00  0.00000000000E+00  0.16927932374E+02  0.16927932374E+02  0.00000000000E+00 0. -1.
         -4   -1    0    0    0  501 -0.00000000000E+00 -0.00000000000E+00 -0.81203678132E+03  0.81203777444E+03  0.12700000000E+01 0. -1.
         25    2    1    2    0    0 -0.38792830104E+02 -0.51640255607E+02 -0.69994437379E+03  0.71394618718E+03  0.12500172843E+03 0.  0.
    9000005    1    3    3    0    0 -0.74037346822E+02 -0.38874199374E+01 -0.49695130412E+03  0.50245222602E+03  0.10000000000E+01 0.  0.
    9000005    1    3    3    0    0  0.35244516718E+02 -0.47752835670E+02 -0.20299306967E+03  0.21149396116E+03  0.10000000000E+01 0.  0.
         -4    1    1    2    0  502  0.38792830104E+02  0.51640255607E+02 -0.95164475158E+02  0.11501951964E+03  0.12700000000E+01 0.  1.
<mgrwt>
<rscale>  1 0.14070193E+03</rscale>
<asrwt>0</asrwt>
<pdfrwt beam="1">  1       21 0.26042967E-02 0.14070193E+03</pdfrwt>
<pdfrwt beam="2">  1       -4 0.12493250E+00 0.14070193E+03</pdfrwt>
<totfact> 0.16420810E+04</totfact>
</mgrwt>
</event>
<event>
 6    4  0.3995738E-003  0.1381827E+03  0.7818608E-02  0.1215795E+00
         21   -1    0    0  501  502  0.00000000000E+00  0.00000000000E+00  0.14597394084E+03  0.14597394084E+03  0.00000000000E+00 0.  1.
         -4   -1    0    0    0  501 -0.00000000000E+00 -0.00000000000E+00 -0.32183189007E+03  0.32183439587E+03  0.12700000000E+01 0. -1.
         25    2    1    2    0    0 -0.14672603942E+02  0.57049810954E+02 -0.30005465309E+03  0.33034415815E+03  0.12499800695E+03 0.  0.
    9000005    1    3    3    0    0 -0.64158170075E+02  0.25787247107E+01 -0.12789447023E+03  0.14311155133E+03  0.10000000000E+01 0.  0.
    9000005    1    3    3    0    0  0.49485566133E+02  0.54471086244E+02 -0.17216018287E+03  0.18723260682E+03  0.10000000000E+01 0.  0.
         -4    1    1    2    0  502  0.14672603942E+02 -0.57049810954E+02  0.12419670386E+03  0.13746417856E+03  0.12700000000E+01 0.  1.
<mgrwt>
<rscale>  1 0.13818273E+03</rscale>
<asrwt>0</asrwt>
<pdfrwt beam="1">  1       21 0.22457529E-01 0.13818273E+03</pdfrwt>
<pdfrwt beam="2">  1       -4 0.49513216E-01 0.13818273E+03</pdfrwt>
<totfact> 0.30431101E+03</totfact>
</mgrwt>
</event>
<event>
 6    4  0.3995738E-003  0.1278385E+03  0.7818608E-02  0.1230699E+00
         -4   -1    0    0    0  501 -0.00000000000E+00  0.00000000000E+00  0.12426009872E+03  0.12426658857E+03  0.12700000000E+01 0. -1.
         21   -1    0    0  501  502  0.00000000000E+00 -0.00000000000E+00 -0.48551228100E+02  0.48551228100E+02  0.00000000000E+00 0.  1.
         25    2    1    2    0    0  0.38105164570E+01 -0.26515812089E+02  0.68562045085E+02  0.14506356759E+03  0.12500030516E+03 0.  0.
    9000005    1    3    3    0    0  0.22529789055E+02  0.30999259651E+02 -0.15624869706E+02  0.41396642945E+02  0.10000000000E+01 0.  0.
    9000005    1    3    3    0    0 -0.18719272598E+02 -0.57515071740E+02  0.84186914790E+02  0.10366692465E+03  0.10000000000E+01 0.  0.
         -4    1    1    2    0  502 -0.38105164570E+01  0.26515812089E+02  0.71468255342E+01  0.27754249073E+02  0.12700000000E+01 0.  1.
<mgrwt>
<rscale>  1 0.12783851E+03</rscale>
<asrwt>0</asrwt>
<pdfrwt beam="2">  1       21 0.74694198E-02 0.12783851E+03</pdfrwt>
<pdfrwt beam="1">  1       -4 0.19118715E-01 0.12783851E+03</pdfrwt>
<totfact> 0.13171988E+05</totfact>
</mgrwt>
</event>
<event>
 6    4  0.3995738E-003  0.1352425E+03  0.7818608E-02  0.1219878E+00
          4   -1    0    0  502    0 -0.00000000000E+00  0.00000000000E+00  0.15418030288E+02  0.15470247509E+02  0.12700000000E+01 0. -1.
         21   -1    0    0  501  502  0.00000000000E+00 -0.00000000000E+00 -0.58382543703E+03  0.58382543703E+03  0.00000000000E+00 0. -1.
         25    2    1    2    0    0 -0.98438942372E+01 -0.50683509633E+02 -0.45516171146E+03  0.47482913962E+03  0.12499923143E+03 0.  0.
    9000005    1    3    3    0    0  0.23896344520E+02 -0.38171818690E+02 -0.42634153508E+03  0.42871462252E+03  0.10000000000E+01 0.  0.
    9000005    1    3    3    0    0 -0.33740238757E+02 -0.12511690943E+02 -0.28820176371E+02  0.46114517103E+02  0.10000000000E+01 0.  0.
          4    1    1    2  501    0  0.98438942372E+01  0.50683509633E+02 -0.11324569528E+03  0.12446654491E+03  0.12700000000E+01 0.  1.
<mgrwt>
<rscale>  1 0.13524248E+03</rscale>
<asrwt>0</asrwt>
<pdfrwt beam="2">  1       21 0.89819288E-01 0.13524248E+03</pdfrwt>
<pdfrwt beam="1">  1        4 0.23761279E-02 0.13524248E+03</pdfrwt>
<totfact> 0.33684818E+04</totfact>
</mgrwt>
</event>
<event>
 6    4  0.3995738E-003  0.1337018E+03  0.7818608E-02  0.1222064E+00
         21   -1    0    0  501  502  0.00000000000E+00  0.00000000000E+00  0.12997251680E+03  0.12997251680E+03  0.00000000000E+00 0. -1.
         -4   -1    0    0    0  501 -0.00000000000E+00 -0.00000000000E+00 -0.73306675392E+02  0.73317675611E+02  0.12700000000E+01 0. -1.
         25    2    1    2    0    0  0.22344600111E+01 -0.47290439311E+02  0.58551233738E+01  0.13382998489E+03  0.12503920955E+03 0.  0.
    9000005    1    3    3    0    0 -0.43691908925E+01 -0.90172245483E+02  0.28851899128E+01  0.90329662931E+02  0.10000000000E+01 0.  0.
    9000005    1    3    3    0    0  0.66036509037E+01  0.42881806171E+02  0.29699334610E+01  0.43500321959E+02  0.10000000000E+01 0.  0.
         -4    1    1    2    0  502 -0.22344600111E+01  0.47290439311E+02  0.50810718038E+02  0.69460207524E+02  0.12700000000E+01 0.  1.
<mgrwt>
<rscale>  1 0.13370184E+03</rscale>
<asrwt>0</asrwt>
<pdfrwt beam="1">  1       21 0.19995772E-01 0.13370184E+03</pdfrwt>
<pdfrwt beam="2">  1       -4 0.11279274E-01 0.13370184E+03</pdfrwt>
<totfact> 0.57723149E+04</totfact>
</mgrwt>
</event>
<event>
 6    4  0.3995738E-003  0.1277469E+03  0.7818608E-02  0.1230838E+00
         -4   -1    0    0    0  501 -0.00000000000E+00  0.00000000000E+00  0.16396716162E+03  0.16397207991E+03  0.12700000000E+01 0. -1.
         21   -1    0    0  501  502  0.00000000000E+00 -0.00000000000E+00 -0.82220375524E+02  0.82220375524E+02  0.00000000000E+00 0. -1.
         25    2    1    2    0    0  0.10392110267E+02  0.24236983144E+02  0.13554992326E+03  0.18626067942E+03  0.12499532670E+03 0.  0.
    9000005    1    3    3    0    0 -0.46843669406E+02  0.34116976122E+02  0.10664156970E+03  0.12137430457E+03  0.10000000000E+01 0.  0.
    9000005    1    3    3    0    0  0.57235779673E+02 -0.98799929779E+01  0.28908353561E+02  0.64886374853E+02  0.10000000000E+01 0.  0.
         -4    1    1    2    0  502 -0.10392110267E+02 -0.24236983144E+02 -0.53803137158E+02  0.59931776011E+02  0.12700000000E+01 0.  1.
<mgrwt>
<rscale>  1 0.12774686E+03</rscale>
<asrwt>0</asrwt>
<pdfrwt beam="2">  1       21 0.12649289E-01 0.12774686E+03</pdfrwt>
<pdfrwt beam="1">  1       -4 0.25226850E-01 0.12774686E+03</pdfrwt>
<totfact> 0.31730619E+04</totfact>
</mgrwt>
</event>
<event>
 6    4  0.3995738E-003  0.1276566E+03  0.7818608E-02  0.1230975E+00
          4   -1    0    0  502    0 -0.00000000000E+00  0.00000000000E+00  0.53765498103E+03  0.53765648097E+03  0.12700000000E+01 0.  1.
         21   -1    0    0  501  502  0.00000000000E+00 -0.00000000000E+00 -0.11606944274E+02  0.11606944274E+02  0.00000000000E+00 0.  1.
         25    2    1    2    0    0 -0.48124911074E+01 -0.25474713369E+02  0.47680533758E+03  0.49359855828E+03  0.12499634274E+03 0.  0.
    9000005    1    3    3    0    0 -0.32858352107E+02  0.39352813145E+02  0.27618291982E+03  0.28090268850E+03  0.10000000000E+01 0.  0.
    9000005    1    3    3    0    0  0.28045860999E+02 -0.64827526514E+02  0.20062241776E+03  0.21269586978E+03  0.10000000000E+01 0.  0.
          4    1    1    2  501    0  0.48124911074E+01  0.25474713369E+02  0.49242699181E+02  0.55664866968E+02  0.12700000000E+01 0. -1.
<mgrwt>
<rscale>  1 0.12765660E+03</rscale>
<asrwt>0</asrwt>
<pdfrwt beam="2">  1       21 0.17856842E-02 0.12765660E+03</pdfrwt>
<pdfrwt beam="1">  1        4 0.82721591E-01 0.12765660E+03</pdfrwt>
<totfact> 0.77820140E+04</totfact>
</mgrwt>
</event>
<event>
 6    4  0.3995738E-003  0.1912161E+03  0.7818608E-02  0.1157369E+00
         21   -1    0    0  501  502  0.00000000000E+00  0.00000000000E+00  0.53660484655E+03  0.53660484655E+03  0.00000000000E+00 0. -1.
          4   -1    0    0  502    0 -0.00000000000E+00 -0.00000000000E+00 -0.17062996789E+03  0.17063469413E+03  0.12700000000E+01 0.  1.
         25    2    1    2    0    0  0.12968729965E+03  0.64196467134E+02 -0.10247701368E+03  0.21694496553E+03  0.12499439050E+03 0.  0.
    9000005    1    3    3    0    0  0.28887010819E+01  0.40347871353E+02 -0.74711874669E+02  0.84965637367E+02  0.10000000000E+01 0.  0.
    9000005    1    3    3    0    0  0.12679859857E+03  0.23848595781E+02 -0.27765139010E+02  0.13197932817E+03  0.10000000000E+01 0.  0.
          4    1    1    2  501    0 -0.12968729965E+03 -0.64196467134E+02  0.46845189234E+03  0.49029457515E+03  0.12700000000E+01 0. -1.
<mgrwt>
<rscale>  1 0.19121606E+03</rscale>
<asrwt>0</asrwt>
<pdfrwt beam="1">  1       21 0.82554591E-01 0.19121606E+03</pdfrwt>
<pdfrwt beam="2">  1        4 0.26251244E-01 0.19121606E+03</pdfrwt>
<totfact> 0.73666394E+02</totfact>
</mgrwt>
</event>
<event>
 6    4  0.3995738E-003  0.1283205E+03  0.7818608E-02  0.1229969E+00
         21   -1    0    0  501  502  0.00000000000E+00  0.00000000000E+00  0.28073989216E+03  0.28073989216E+03  0.00000000000E+00 0.  1.
          4   -1    0    0  502    0 -0.00000000000E+00 -0.00000000000E+00 -0.48121171184E+02  0.48137927003E+02  0.12700000000E+01 0. -1.
         25    2    1    2    0    0  0.27591808992E+02  0.88347808101E+01  0.40466916692E+02  0.13455002891E+03  0.12500711043E+03 0.  0.
    9000005    1    3    3    0    0  0.94733918488E+01  0.54881835341E+02  0.59516824743E+02  0.81516951801E+02  0.10000000000E+01 0.  0.
    9000005    1    3    3    0    0  0.18118417143E+02 -0.46047054531E+02 -0.19049908050E+02  0.53033077107E+02  0.10000000000E+01 0.  0.
          4    1    1    2  501    0 -0.27591808992E+02 -0.88347808101E+01  0.19215180428E+03  0.19432779025E+03  0.12700000000E+01 0.  1.
<mgrwt>
<rscale>  1 0.12832045E+03</rscale>
<asrwt>0</asrwt>
<pdfrwt beam="1">  1       21 0.43190752E-01 0.12832045E+03</pdfrwt>
<pdfrwt beam="2">  1        4 0.74047671E-02 0.12832045E+03</pdfrwt>
<totfact> 0.26310987E+04</totfact>
</mgrwt>
</event>
<event>
 6    4  0.3995738E-003  0.1345031E+03  0.7818608E-02  0.1220923E+00
         21   -1    0    0  501  502  0.00000000000E+00  0.00000000000E+00  0.24060328188E+02  0.24060328188E+02  0.00000000000E+00 0.  1.
         -4   -1    0    0    0  501 -0.00000000000E+00 -0.00000000000E+00 -0.35497302931E+03  0.35497530116E+03  0.12700000000E+01 0.  1.
         25    2    1    2    0    0 -0.41401453394E+02  0.27436554406E+02 -0.25522946774E+03  0.28850160495E+03  0.12499699992E+03 0.  0.
    9000005    1    3    3    0    0  0.14174559293E+02  0.63748533500E+02 -0.97354274137E+02  0.11723330733E+03  0.10000000000E+01 0.  0.
    9000005    1    3    3    0    0 -0.55576012687E+02 -0.36311979093E+02 -0.15787519361E+03  0.17126829762E+03  0.10000000000E+01 0.  0.
         -4    1    1    2    0  502  0.41401453394E+02 -0.27436554406E+02 -0.75683233374E+02  0.90534024404E+02  0.12700000000E+01 0. -1.
<mgrwt>
<rscale>  1 0.13450314E+03</rscale>
<asrwt>0</asrwt>
<pdfrwt beam="1">  1       21 0.37015893E-02 0.13450314E+03</pdfrwt>
<pdfrwt beam="2">  1       -4 0.54613983E-01 0.13450314E+03</pdfrwt>
<totfact> 0.58101392E+04</totfact>
</mgrwt>
</event>
<event>
 6    4  0.3995738E-003  0.1266830E+03  0.7818608E-02  0.1232462E+00
         -4   -1    0    0    0  501 -0.00000000000E+00  0.00000000000E+00  0.17040113513E+03  0.17040586772E+03  0.12700000000E+01 0.  1.
         21   -1    0    0  501  502  0.00000000000E+00 -0.00000000000E+00 -0.47216389795E+02  0.47216389795E+02  0.00000000000E+00 0.  1.
         25    2    1    2    0    0 -0.15954591648E+02  0.13016088994E+02  0.14157963031E+03  0.18998257117E+03  0.12499847224E+03 0.  0.
    9000005    1    3    3    0    0 -0.81298914589E+01  0.21206527216E+02  0.16361460672E+03  0.16518641428E+03  0.10000000000E+01 0.  0.
    9000005    1    3    3    0    0 -0.78247001888E+01 -0.81904382220E+01 -0.22034976406E+02  0.24796156890E+02  0.10000000000E+01 0.  0.
         -4    1    1    2    0  502  0.15954591648E+02 -0.13016088994E+02 -0.18394884983E+02  0.27639686338E+02  0.12700000000E+01 0. -1.
<mgrwt>
<rscale>  1 0.12668301E+03</rscale>
<asrwt>0</asrwt>
<pdfrwt beam="2">  1       21 0.72640601E-02 0.12668301E+03</pdfrwt>
<pdfrwt beam="1">  1       -4 0.26217237E-01 0.12668301E+03</pdfrwt>
<totfact> 0.77669851E+04</totfact>
</mgrwt>
</event>
<event>
 6    4  0.3995738E-003  0.1315769E+03  0.7818608E-02  0.1225134E+00
         21   -1    0    0  501  502  0.00000000000E+00  0.00000000000E+00  0.36410706282E+03  0.36410706282E+03  0.00000000000E+00 0. -1.
         -4   -1    0    0    0  501 -0.00000000000E+00 -0.00000000000E+00 -0.21566505516E+02  0.21603866788E+02  0.12700000000E+01 0.  1.
         25    2    1    2    0    0  0.37315439357E+02 -0.17321003289E+02  0.21891641818E+03  0.25541511293E+03  0.12498008880E+03 0.  0.
    9000005    1    3    3    0    0 -0.23961545512E+01  0.20372391453E+02 -0.79581401020E+01  0.22025164790E+02  0.10000000000E+01 0.  0.
    9000005    1    3    3    0    0  0.39711593908E+02 -0.37693394741E+02  0.22687455828E+03  0.23338994814E+03  0.10000000000E+01 0.  0.
         -4    1    1    2    0  502 -0.37315439357E+02  0.17321003289E+02  0.12362413912E+03  0.13029581668E+03  0.12700000000E+01 0. -1.
<mgrwt>
<rscale>  1 0.13157690E+03</rscale>
<asrwt>0</asrwt>
<pdfrwt beam="1">  1       21 0.56016467E-01 0.13157690E+03</pdfrwt>
<pdfrwt beam="2">  1       -4 0.33209685E-02 0.13157690E+03</pdfrwt>
<totfact> 0.56015552E+04</totfact>
</mgrwt>
</event>
<event>
 6    4  0.3995738E-003  0.1282145E+03  0.7818608E-02  0.1230129E+00
         21   -1    0    0  501  502  0.00000000000E+00  0.00000000000E+00  0.18483460589E+04  0.18483460589E+04  0.00000000000E+00 0.  1.
         -4   -1    0    0    0  501 -0.00000000000E+00 -0.00000000000E+00 -0.69452542720E+01  0.70604147826E+01  0.12700000000E+01 0. -1.
         25    2    1    2    0    0 -0.17576362039E+02  0.22393215137E+02  0.59398892544E+03  0.60766916406E+03  0.12501433844E+03 0.  0.
    9000005    1    3    3    0    0 -0.14974293730E+02 -0.51787442855E+02  0.25939083777E+03  0.26493541746E+03  0.10000000000E+01 0.  0.
    9000005    1    3    3    0    0 -0.26020683084E+01  0.74180657993E+02  0.33459808768E+03  0.34273374660E+03  0.10000000000E+01 0.  0.
         -4    1    1    2    0  502  0.17576362039E+02 -0.22393215137E+02  0.12474118792E+04  0.12477373096E+04  0.12700000000E+01 0.  1.
<mgrwt>
<rscale>  1 0.12821454E+03</rscale>
<asrwt>0</asrwt>
<pdfrwt beam="1">  1       21 0.28436054E+00 0.12821454E+03</pdfrwt>
<pdfrwt beam="2">  1       -4 0.10773942E-02 0.12821454E+03</pdfrwt>
<totfact> 0.47391374E+03</totfact>
</mgrwt>
</event>
<event>
 6    4  0.3995738E-003  0.1324475E+03  0.7818608E-02  0.1223869E+00
         -4   -1    0    0    0  501 -0.00000000000E+00  0.00000000000E+00  0.77461583485E+02  0.77471993753E+02  0.12700000000E+01 0. -1.
         21   -1    0    0  501  502  0.00000000000E+00 -0.00000000000E+00 -0.21128562539E+03  0.21128562539E+03  0.00000000000E+00 0.  1.
         25    2    1    2    0    0  0.43088421515E+02  0.77586618169E+01  0.15305607302E+02  0.13332894073E+03  0.12500214366E+03 0.  0.
    9000005    1    3    3    0    0  0.25479528232E+02  0.49879218583E+02 -0.34474326352E+02  0.65777062741E+02  0.10000000000E+01 0.  0.
    9000005    1    3    3    0    0  0.17608893283E+02 -0.42120556767E+02  0.49779933653E+02  0.67551877986E+02  0.10000000000E+01 0.  0.
         -4    1    1    2    0  502 -0.43088421515E+02 -0.77586618169E+01 -0.14912964921E+03  0.15542867842E+03  0.12700000000E+01 0.  1.
<mgrwt>
<rscale>  1 0.13244752E+03</rscale>
<asrwt>0</asrwt>
<pdfrwt beam="2">  1       21 0.32505481E-01 0.13244752E+03</pdfrwt>
<pdfrwt beam="1">  1       -4 0.11918261E-01 0.13244752E+03</pdfrwt>
<totfact> 0.20885216E+04</totfact>
</mgrwt>
</event>
<event>
 6    4  0.3995738E-003  0.1267634E+03  0.7818608E-02  0.1232339E+00
         -4   -1    0    0    0  501 -0.00000000000E+00  0.00000000000E+00  0.25636046080E+03  0.25636360654E+03  0.12700000000E+01 0.  1.
         21   -1    0    0  501  502  0.00000000000E+00 -0.00000000000E+00 -0.29607913592E+02  0.29607913592E+02  0.00000000000E+00 0.  1.
         25    2    1    2    0    0 -0.21066949038E+02 -0.24327153042E+00  0.23186525305E+03  0.26425451795E+03  0.12500031665E+03 0.  0.
    9000005    1    3    3    0    0 -0.51223926062E+02 -0.33371150040E+02  0.56487593508E+02  0.83242852404E+02  0.10000000000E+01 0.  0.
    9000005    1    3    3    0    0  0.30156977024E+02  0.33127878509E+02  0.17537765954E+03  0.18101166555E+03  0.10000000000E+01 0.  0.
         -4    1    1    2    0  502  0.21066949038E+02  0.24327153042E+00 -0.51127058443E+01  0.21717002184E+02  0.12700000000E+01 0. -1.
<mgrwt>
<rscale>  1 0.12676338E+03</rscale>
<asrwt>0</asrwt>
<pdfrwt beam="2">  1       21 0.45550638E-02 0.12676338E+03</pdfrwt>
<pdfrwt beam="1">  1       -4 0.39442406E-01 0.12676338E+03</pdfrwt>
<totfact> 0.78543280E+04</totfact>
</mgrwt>
</event>
<event>
 6    4  0.3995738E-003  0.1266832E+03  0.7818608E-02  0.1232462E+00
         21   -1    0    0  501  502  0.00000000000E+00  0.00000000000E+00  0.18005897566E+03  0.18005897566E+03  0.00000000000E+00 0.  1.
         -4   -1    0    0    0  501 -0.00000000000E+00 -0.00000000000E+00 -0.31701297379E+02  0.31726726202E+02  0.12700000000E+01 0.  1.
         25    2    1    2    0    0  0.19440904317E+02  0.67699931874E+01  0.10803303683E+03  0.16649253265E+03  0.12499937926E+03 0.  0.
    9000005    1    3    3    0    0  0.21432728987E+02  0.20534428763E+02 -0.21212821445E+02  0.36496690673E+02  0.10000000000E+01 0.  0.
    9000005    1    3    3    0    0 -0.19918246693E+01 -0.13764435576E+02  0.12924585827E+03  0.12999584198E+03  0.10000000000E+01 0.  0.
         -4    1    1    2    0  502 -0.19440904317E+02 -0.67699931874E+01  0.40324641456E+02  0.45293169209E+02  0.12700000000E+01 0. -1.
<mgrwt>
<rscale>  1 0.12668317E+03</rscale>
<asrwt>0</asrwt>
<pdfrwt beam="1">  1       21 0.27701380E-01 0.12668317E+03</pdfrwt>
<pdfrwt beam="2">  1       -4 0.48794234E-02 0.12668317E+03</pdfrwt>
<totfact> 0.12363198E+05</totfact>
</mgrwt>
</event>
<event>
 6    4  0.3995738E-003  0.1280577E+03  0.7818608E-02  0.1230367E+00
         21   -1    0    0  501  502  0.00000000000E+00  0.00000000000E+00  0.18460288293E+03  0.18460288293E+03  0.00000000000E+00 0.  1.
          4   -1    0    0  502    0 -0.00000000000E+00 -0.00000000000E+00 -0.10701688670E+03  0.10702442216E+03  0.12700000000E+01 0. -1.
         25    2    1    2    0    0 -0.27219336484E+02 -0.56551591158E+01 -0.66904070451E+02  0.14448157673E+03  0.12500359302E+03 0.  0.
    9000005    1    3    3    0    0 -0.69535157337E+02  0.26155585727E+02 -0.30991540904E+02  0.80502971239E+02  0.10000000000E+01 0.  0.
    9000005    1    3    3    0    0  0.42315820853E+02 -0.31810744843E+02 -0.35912529547E+02  0.63978605489E+02  0.10000000000E+01 0.  0.
          4    1    1    2  501    0  0.27219336484E+02  0.56551591158E+01  0.14449006669E+03  0.14714572836E+03  0.12700000000E+01 0.  1.
<mgrwt>
<rscale>  1 0.12805769E+03</rscale>
<asrwt>0</asrwt>
<pdfrwt beam="1">  1       21 0.28400444E-01 0.12805769E+03</pdfrwt>
<pdfrwt beam="2">  1        4 0.16465052E-01 0.12805769E+03</pdfrwt>
<totfact> 0.15432337E+04</totfact>
</mgrwt>
</event>
<event>
 6    4  0.3995738E-003  0.1281435E+03  0.7818608E-02  0.1230237E+00
         -4   -1    0    0    0  501 -0.00000000000E+00  0.00000000000E+00  0.65844416040E+03  0.65844538518E+03  0.12700000000E+01 0. -1.
         21   -1    0    0  501  502  0.00000000000E+00 -0.00000000000E+00 -0.29575174212E+02  0.29575174212E+02  0.00000000000E+00 0.  1.
         25    2    1    2    0    0 -0.26450717087E+02  0.98197659318E+01  0.64355389544E+03  0.65618775090E+03  0.12499871938E+03 0.  0.
    9000005    1    3    3    0    0 -0.23873440530E+02  0.20045494964E+02  0.64477129531E+03  0.64552520190E+03  0.10000000000E+01 0.  0.
    9000005    1    3    3    0    0 -0.25772765565E+01 -0.10225729032E+02 -0.12173998649E+01  0.10662548997E+02  0.10000000000E+01 0.  0.
         -4    1    1    2    0  502  0.26450717087E+02 -0.98197659318E+01 -0.14684909252E+02  0.31832808502E+02  0.12700000000E+01 0.  1.
<mgrwt>
<rscale>  1 0.12814347E+03</rscale>
<asrwt>0</asrwt>
<pdfrwt beam="2">  1       21 0.45500273E-02 0.12814347E+03</pdfrwt>
<pdfrwt beam="1">  1       -4 0.10130128E+00 0.12814347E+03</pdfrwt>
<totfact> 0.10640863E+04</totfact>
</mgrwt>
</event>
<event>
 6    4  0.3995738E-003  0.1276566E+03  0.7818608E-02  0.1230975E+00
          4   -1    0    0  502    0 -0.00000000000E+00  0.00000000000E+00  0.84213146192E+03  0.84213241955E+03  0.12700000000E+01 0.  1.
         21   -1    0    0  501  502  0.00000000000E+00 -0.00000000000E+00 -0.90295724297E+01  0.90295724297E+01  0.00000000000E+00 0.  1.
         25    2    1    2    0    0  0.15810702100E+02 -0.20517087871E+02  0.79429194941E+03  0.80448487184E+03  0.12500111569E+03 0.  0.
    9000005    1    3    3    0    0  0.10550660905E+02 -0.68449606018E+02  0.61249018087E+03  0.61639426236E+03  0.10000000000E+01 0.  0.
    9000005    1    3    3    0    0  0.52600411950E+01  0.47932518147E+02  0.18180176854E+03  0.18809060948E+03  0.10000000000E+01 0.  0.
          4    1    1    2  501    0 -0.15810702100E+02  0.20517087871E+02  0.38809940083E+02  0.46677120143E+02  0.12700000000E+01 0. -1.
<mgrwt>
<rscale>  1 0.12765660E+03</rscale>
<asrwt>0</asrwt>
<pdfrwt beam="2">  1       21 0.13891657E-02 0.12765660E+03</pdfrwt>
<pdfrwt beam="1">  1        4 0.12956557E+00 0.12765660E+03</pdfrwt>
<totfact> 0.40943595E+04</totfact>
</mgrwt>
</event>
<event>
 6    4  0.3995738E-003  0.1353141E+03  0.7818608E-02  0.1219777E+00
         21   -1    0    0  501  502  0.00000000000E+00  0.00000000000E+00  0.25465601913E+02  0.25465601913E+02  0.00000000000E+00 0.  1.
          4   -1    0    0  502    0 -0.00000000000E+00 -0.00000000000E+00 -0.12933183652E+04  0.12933189888E+04  0.12700000000E+01 0. -1.
         25    2    1    2    0    0  0.28905146929E+02 -0.42977428629E+02 -0.12589683672E+04  0.12662192762E+04  0.12500935554E+03 0.  0.
    9000005    1    3    3    0    0 -0.42537868782E+02 -0.24430407611E+02 -0.78551595645E+03  0.78704677939E+03  0.10000000000E+01 0.  0.
    9000005    1    3    3    0    0  0.71443015710E+02 -0.18547021018E+02 -0.47345241076E+03  0.47917249685E+03  0.10000000000E+01 0.  0.
          4    1    1    2  501    0 -0.28905146929E+02  0.42977428629E+02 -0.88843961072E+01  0.52565314465E+02  0.12700000000E+01 0.  1.
<mgrwt>
<rscale>  1 0.13531410E+03</rscale>
<asrwt>0</asrwt>
<pdfrwt beam="1">  1       21 0.39177848E-02 0.13531410E+03</pdfrwt>
<pdfrwt beam="2">  1        4 0.19897454E+00 0.13531410E+03</pdfrwt>
<totfact> 0.24836604E+03</totfact>
</mgrwt>
</event>
<event>
 6    4  0.3995738E-003  0.1282013E+03  0.7818608E-02  0.1230149E+00
         -4   -1    0    0    0  501 -0.00000000000E+00  0.00000000000E+00  0.66367909643E+02  0.66380059735E+02  0.12700000000E+01 0.  1.
         21   -1    0    0  501  502  0.00000000000E+00 -0.00000000000E+00 -0.93426037605E+02  0.93426037605E+02  0.00000000000E+00 0.  1.
         25    2    1    2    0    0 -0.24019459127E+02 -0.15257422258E+02 -0.15772712569E+02  0.12916793729E+03  0.12500341680E+03 0.  0.
    9000005    1    3    3    0    0  0.26913932302E+02 -0.35340639009E+02  0.33387672333E+02  0.55579287341E+02  0.10000000000E+01 0.  0.
    9000005    1    3    3    0    0 -0.50933391429E+02  0.20083216751E+02 -0.49160384902E+02  0.73588649948E+02  0.10000000000E+01 0.  0.
         -4    1    1    2    0  502  0.24019459127E+02  0.15257422258E+02 -0.11285415393E+02  0.30638160051E+02  0.12700000000E+01 0. -1.
<mgrwt>
<rscale>  1 0.12820132E+03</rscale>
<asrwt>0</asrwt>
<pdfrwt beam="2">  1       21 0.14373237E-01 0.12820132E+03</pdfrwt>
<pdfrwt beam="1">  1       -4 0.10212046E-01 0.12820132E+03</pdfrwt>
<totfact> 0.12396757E+05</totfact>
</mgrwt>
</event>
<event>
 6    4  0.3995738E-003  0.1267700E+03  0.7818608E-02  0.1232329E+00
          4   -1    0    0  502    0 -0.00000000000E+00  0.00000000000E+00  0.91640391476E+01  0.92516222091E+01  0.12700000000E+01 0. -1.
         21   -1    0    0  501  502  0.00000000000E+00 -0.00000000000E+00 -0.81287348950E+03  0.81287348950E+03  0.00000000000E+00 0. -1.
         25    2    1    2    0    0  0.20925145179E+02 -0.27884693653E+01 -0.44260208682E+03  0.46039900240E+03  0.12499998755E+03 0.  0.
    9000005    1    3    3    0    0  0.82828295440E+01 -0.23846455452E+02 -0.10114310174E+02  0.27213194836E+02  0.10000000000E+01 0.  0.
    9000005    1    3    3    0    0  0.12642315635E+02  0.21057986086E+02 -0.43248777665E+03  0.43318580756E+03  0.10000000000E+01 0.  0.
          4    1    1    2  501    0 -0.20925145179E+02  0.27884693653E+01 -0.36110736353E+03  0.36172610931E+03  0.12700000000E+01 0.  1.
<mgrwt>
<rscale>  1 0.12677000E+03</rscale>
<asrwt>0</asrwt>
<pdfrwt beam="2">  1       21 0.12505749E+00 0.12677000E+03</pdfrwt>
<pdfrwt beam="1">  1        4 0.14166653E-02 0.12677000E+03</pdfrwt>
<totfact> 0.33778790E+04</totfact>
</mgrwt>
</event>
<event>
 6    4  0.3995738E-003  0.1433728E+03  0.7818608E-02  0.1208861E+00
         21   -1    0    0  501  502  0.00000000000E+00  0.00000000000E+00  0.91011659138E+02  0.91011659138E+02  0.00000000000E+00 0.  1.
         -4   -1    0    0    0  501 -0.00000000000E+00 -0.00000000000E+00 -0.13849538807E+03  0.13850121089E+03  0.12700000000E+01 0. -1.
         25    2    1    2    0    0  0.24878625929E+02 -0.65673191545E+02 -0.64544392929E+02  0.15723152201E+03  0.12499543487E+03 0.  0.
    9000005    1    3    3    0    0  0.68881823055E+02 -0.52967104045E+02 -0.12328929680E+02  0.87768001945E+02  0.10000000000E+01 0.  0.
    9000005    1    3    3    0    0 -0.44003197126E+02 -0.12706087500E+02 -0.52215463250E+02  0.69463520061E+02  0.10000000000E+01 0.  0.
         -4    1    1    2    0  502 -0.24878625929E+02  0.65673191545E+02  0.17060663994E+02  0.72281348021E+02  0.12700000000E+01 0.  1.
<mgrwt>
<rscale>  1 0.14337285E+03</rscale>
<asrwt>0</asrwt>
<pdfrwt beam="1">  1       21 0.14001794E-01 0.14337285E+03</pdfrwt>
<pdfrwt beam="2">  1       -4 0.21308112E-01 0.14337285E+03</pdfrwt>
<totfact> 0.36503001E+04</totfact>
</mgrwt>
</event>
<event>
 6    4  0.3995738E-003  0.1270036E+03  0.7818608E-02  0.1231971E+00
          4   -1    0    0  502    0 -0.00000000000E+00  0.00000000000E+00  0.11755911175E+03  0.11756597151E+03  0.12700000000E+01 0. -1.
         21   -1    0    0  501  502  0.00000000000E+00 -0.00000000000E+00 -0.68852552194E+02  0.68852552194E+02  0.00000000000E+00 0. -1.
         25    2    1    2    0    0  0.17786300844E+02  0.13785620854E+02  0.78314193409E+02  0.14920803160E+03  0.12499411172E+03 0.  0.
    9000005    1    3    3    0    0 -0.34086073119E+02  0.40516447389E+02  0.73576266725E+02  0.90652688404E+02  0.10000000000E+01 0.  0.
    9000005    1    3    3    0    0  0.51872373962E+02 -0.26730826535E+02  0.47379266842E+01  0.58555343198E+02  0.10000000000E+01 0.  0.
          4    1    1    2  501    0 -0.17786300844E+02 -0.13785620854E+02 -0.29607633850E+02  0.37210492099E+02  0.12700000000E+01 0.  1.
<mgrwt>
<rscale>  1 0.12700364E+03</rscale>
<asrwt>0</asrwt>
<pdfrwt beam="2">  1       21 0.10592700E-01 0.12700364E+03</pdfrwt>
<pdfrwt beam="1">  1        4 0.18087446E-01 0.12700364E+03</pdfrwt>
<totfact> 0.79222517E+04</totfact>
</mgrwt>
</event>
<event>
 6    4  0.3995738E-003  0.1266245E+03  0.7818608E-02  0.1232552E+00
         21   -1    0    0  501  502  0.00000000000E+00  0.00000000000E+00  0.21031936462E+02  0.21031936462E+02  0.00000000000E+00 0. -1.
          4   -1    0    0  502    0 -0.00000000000E+00 -0.00000000000E+00 -0.85823103446E+03  0.85823197412E+03  0.12700000000E+01 0.  1.
         25    2    1    2    0    0  0.19393538836E+02 -0.54627204483E+01 -0.84728630796E+03  0.85669589410E+03  0.12501126608E+03 0.  0.
    9000005    1    3    3    0    0 -0.37919315584E+02 -0.33416625101E+02 -0.56683873731E+03  0.56908848121E+03  0.10000000000E+01 0.  0.
    9000005    1    3    3    0    0  0.57312854420E+02  0.27953904653E+02 -0.28044757065E+03  0.28760741289E+03  0.10000000000E+01 0.  0.
          4    1    1    2  501    0 -0.19393538836E+02  0.54627204483E+01  0.10087209964E+02  0.22568016487E+02  0.12700000000E+01 0. -1.
<mgrwt>
<rscale>  1 0.12662451E+03</rscale>
<asrwt>0</asrwt>
<pdfrwt beam="1">  1       21 0.32356827E-02 0.12662451E+03</pdfrwt>
<pdfrwt beam="2">  1        4 0.13203856E+00 0.12662451E+03</pdfrwt>
<totfact> 0.99505131E+03</totfact>
</mgrwt>
</event>
<event>
 6    4  0.3995738E-003  0.1267278E+03  0.7818608E-02  0.1232394E+00
         -4   -1    0    0    0  501 -0.00000000000E+00  0.00000000000E+00  0.11826819448E+03  0.11827501311E+03  0.12700000000E+01 0.  1.
         21   -1    0    0  501  502  0.00000000000E+00 -0.00000000000E+00 -0.20632360377E+03  0.20632360377E+03  0.00000000000E+00 0. -1.
         25    2    1    2    0    0 -0.16896632459E+01 -0.20780485115E+02  0.83508251399E+02  0.15176810425E+03  0.12500098357E+03 0.  0.
    9000005    1    3    3    0    0  0.39435806516E+02 -0.32813798054E+02 -0.68425059346E+01  0.51766283098E+02  0.10000000000E+01 0.  0.
    9000005    1    3    3    0    0 -0.41125469762E+02  0.12033312939E+02  0.90350757334E+02  0.10000182115E+03  0.10000000000E+01 0.  0.
         -4    1    1    2    0  502  0.16896632459E+01  0.20780485115E+02 -0.17156366069E+03  0.17283051262E+03  0.12700000000E+01 0. -1.
<mgrwt>
<rscale>  1 0.12672778E+03</rscale>
<asrwt>0</asrwt>
<pdfrwt beam="2">  1       21 0.31742093E-01 0.12672778E+03</pdfrwt>
<pdfrwt beam="1">  1       -4 0.18195932E-01 0.12672778E+03</pdfrwt>
<totfact> 0.10425169E+04</totfact>
</mgrwt>
</event>
<event>
 6    4  0.3995738E-003  0.1311672E+03  0.7818608E-02  0.1225734E+00
         -4   -1    0    0    0  501 -0.00000000000E+00  0.00000000000E+00  0.24539801484E+02  0.24572642448E+02  0.12700000000E+01 0.  1.
         21   -1    0    0  501  502  0.00000000000E+00 -0.00000000000E+00 -0.44018027394E+03  0.44018027394E+03  0.00000000000E+00 0. -1.
         25    2    1    2    0    0  0.39381412466E+02 -0.54010186700E+01 -0.16406245453E+03  0.21005077926E+03  0.12499909693E+03 0.  0.
    9000005    1    3    3    0    0  0.62004942038E+02 -0.49684301067E+02 -0.82688167478E+02  0.11467988337E+03  0.10000000000E+01 0.  0.
    9000005    1    3    3    0    0 -0.22623529571E+02  0.44283282397E+02 -0.81374287048E+02  0.95370895889E+02  0.10000000000E+01 0.  0.
         -4    1    1    2    0  502 -0.39381412466E+02  0.54010186700E+01 -0.25157801793E+03  0.25470213713E+03  0.12700000000E+01 0. -1.
<mgrwt>
<rscale>  1 0.13116722E+03</rscale>
<asrwt>0</asrwt>
<pdfrwt beam="2">  1       21 0.67720039E-01 0.13116722E+03</pdfrwt>
<pdfrwt beam="1">  1       -4 0.37780214E-02 0.13116722E+03</pdfrwt>
<totfact> 0.30475047E+04</totfact>
</mgrwt>
</event>
<event>
 6    4  0.3995738E-003  0.1289411E+03  0.7818608E-02  0.1229035E+00
         21   -1    0    0  501  502  0.00000000000E+00  0.00000000000E+00  0.95467632573E+03  0.95467632573E+03  0.00000000000E+00 0.  1.
          4   -1    0    0  502    0 -0.00000000000E+00 -0.00000000000E+00 -0.67033702949E+01  0.68226148441E+01  0.12700000000E+01 0.  1.
         25    2    1    2    0    0 -0.19363495697E+02 -0.25015851999E+02  0.74666342414E+03  0.75771504006E+03  0.12500030070E+03 0.  0.
    9000005    1    3    3    0    0 -0.63032084536E+02 -0.37365105761E+02  0.59229483290E+03  0.59681099511E+03  0.10000000000E+01 0.  0.
    9000005    1    3    3    0    0  0.43668588840E+02  0.12349253761E+02  0.15436859124E+03  0.16090404495E+03  0.10000000000E+01 0.  0.
          4    1    1    2  501    0  0.19363495697E+02  0.25015851999E+02  0.20130953129E+03  0.20378390051E+03  0.12700000000E+01 0. -1.
<mgrwt>
<rscale>  1 0.12894112E+03</rscale>
<asrwt>0</asrwt>
<pdfrwt beam="1">  1       21 0.14687317E+00 0.12894112E+03</pdfrwt>
<pdfrwt beam="2">  1        4 0.10405261E-02 0.12894112E+03</pdfrwt>
<totfact> 0.35990366E+04</totfact>
</mgrwt>
</event>
<event>
 6    4  0.3995738E-003  0.1276359E+03  0.7818608E-02  0.1231006E+00
         21   -1    0    0  501  502  0.00000000000E+00  0.00000000000E+00  0.85490462700E+01  0.85490462700E+01  0.00000000000E+00 0. -1.
          4   -1    0    0  502    0 -0.00000000000E+00 -0.00000000000E+00 -0.85299598646E+03  0.85299693189E+03  0.12700000000E+01 0.  1.
         25    2    1    2    0    0 -0.25632865686E+02 -0.34356850019E+01 -0.79991016684E+03  0.81002913805E+03  0.12498832641E+03 0.  0.
    9000005    1    3    3    0    0  0.32151196454E+02  0.42846756464E+02 -0.34246355062E+03  0.34662923632E+03  0.10000000000E+01 0.  0.
    9000005    1    3    3    0    0 -0.57784062140E+02 -0.46282441466E+02 -0.45744661622E+03  0.46339990173E+03  0.10000000000E+01 0.  0.
          4    1    1    2  501    0  0.25632865686E+02  0.34356850019E+01 -0.44536773346E+02  0.51516840109E+02  0.12700000000E+01 0. -1.
<mgrwt>
<rscale>  1 0.12763593E+03</rscale>
<asrwt>0</asrwt>
<pdfrwt beam="1">  1       21 0.13152373E-02 0.12763593E+03</pdfrwt>
<pdfrwt beam="2">  1        4 0.13123754E+00 0.12763593E+03</pdfrwt>
<totfact> 0.43285748E+04</totfact>
</mgrwt>
</event>
<event>
 6    4  0.3995738E-003  0.1411253E+03  0.7818608E-02  0.1211823E+00
         -4   -1    0    0    0  501 -0.00000000000E+00  0.00000000000E+00  0.15526267060E+03  0.15526786461E+03  0.12700000000E+01 0. -1.
         21   -1    0    0  501  502  0.00000000000E+00 -0.00000000000E+00 -0.33829275325E+03  0.33829275325E+03  0.00000000000E+00 0.  1.
         25    2    1    2    0    0 -0.86844977703E+01 -0.64913996296E+02  0.11894344853E+03  0.18456405825E+03  0.12500840065E+03 0.  0.
    9000005    1    3    3    0    0 -0.29473675240E+02 -0.83338663078E+02  0.33206318152E+02  0.94433520854E+02  0.10000000000E+01 0.  0.
    9000005    1    3    3    0    0  0.20789177470E+02  0.18424666781E+02  0.85737130381E+02  0.90130537399E+02  0.10000000000E+01 0.  0.
         -4    1    1    2    0  502  0.86844977703E+01  0.64913996296E+02 -0.30197353119E+03  0.30899655961E+03  0.12700000000E+01 0.  1.
<mgrwt>
<rscale>  1 0.14112529E+03</rscale>
<asrwt>0</asrwt>
<pdfrwt beam="2">  1       21 0.52045039E-01 0.14112529E+03</pdfrwt>
<pdfrwt beam="1">  1       -4 0.23887148E-01 0.14112529E+03</pdfrwt>
<totfact> 0.23788938E+03</totfact>
</mgrwt>
</event>
<event>
 6    4  0.3995738E-003  0.1278828E+03  0.7818608E-02  0.1230632E+00
         21   -1    0    0  501  502  0.00000000000E+00  0.00000000000E+00  0.42257226042E+02  0.42257226042E+02  0.00000000000E+00 0.  1.
          4   -1    0    0  502    0 -0.00000000000E+00 -0.00000000000E+00 -0.45101404162E+03  0.45101582970E+03  0.12700000000E+01 0. -1.
         25    2    1    2    0    0  0.12342160113E+02  0.24021649119E+02 -0.43631316454E+03  0.45466821393E+03  0.12499855467E+03 0.  0.
    9000005    1    3    3    0    0  0.64812720659E+02  0.32705464940E+02 -0.21031770051E+03  0.22249690187E+03  0.10000000000E+01 0.  0.
    9000005    1    3    3    0    0 -0.52470560546E+02 -0.86838158206E+01 -0.22599546403E+03  0.23217131206E+03  0.10000000000E+01 0.  0.
          4    1    1    2  501    0 -0.12342160113E+02 -0.24021649119E+02  0.27556348962E+02  0.38604841805E+02  0.12700000000E+01 0.  1.
<mgrwt>
<rscale>  1 0.12788279E+03</rscale>
<asrwt>0</asrwt>
<pdfrwt beam="1">  1       21 0.65011117E-02 0.12788279E+03</pdfrwt>
<pdfrwt beam="2">  1        4 0.69388382E-01 0.12788279E+03</pdfrwt>
<totfact> 0.13543326E+04</totfact>
</mgrwt>
</event>
<event>
 6    4  0.3995738E-003  0.1326651E+03  0.7818608E-02  0.1223554E+00
          4   -1    0    0  502    0 -0.00000000000E+00  0.00000000000E+00  0.30777430210E+04  0.30777432830E+04  0.12700000000E+01 0. -1.
         21   -1    0    0  501  502  0.00000000000E+00 -0.00000000000E+00 -0.28774797479E+01  0.28774797479E+01  0.00000000000E+00 0. -1.
         25    2    1    2    0    0  0.15017330976E+02  0.41820649717E+02  0.17551210533E+04  0.17601278194E+04  0.12500216844E+03 0.  0.
    9000005    1    3    3    0    0 -0.42230916856E+02  0.50165339352E+02  0.60324984566E+03  0.60680424183E+03  0.10000000000E+01 0.  0.
    9000005    1    3    3    0    0  0.57248247833E+02 -0.83446896351E+01  0.11518712076E+04  0.11533235776E+04  0.10000000000E+01 0.  0.
          4    1    1    2  501    0 -0.15017330976E+02 -0.41820649717E+02  0.13197444880E+04  0.13204929433E+04  0.12700000000E+01 0.  1.
<mgrwt>
<rscale>  1 0.13266510E+03</rscale>
<asrwt>0</asrwt>
<pdfrwt beam="2">  1       21 0.44269166E-03 0.13266510E+03</pdfrwt>
<pdfrwt beam="1">  1        4 0.47351787E+00 0.13266510E+03</pdfrwt>
<totfact> 0.15441446E+03</totfact>
</mgrwt>
</event>
<event>
 6    4  0.3995738E-003  0.1346275E+03  0.7818608E-02  0.1220746E+00
         -4   -1    0    0    0  501 -0.00000000000E+00  0.00000000000E+00  0.29567857764E+03  0.29568130508E+03  0.12700000000E+01 0. -1.
         21   -1    0    0  501  502  0.00000000000E+00 -0.00000000000E+00 -0.42692317303E+02  0.42692317303E+02  0.00000000000E+00 0.  1.
         25    2    1    2    0    0  0.49964381171E+02 -0.14061344042E+01  0.25497416897E+03  0.28833382542E+03  0.12500460566E+03 0.  0.
    9000005    1    3    3    0    0 -0.21257513320E+02  0.43003261335E+02  0.12184434890E+03  0.13095116539E+03  0.10000000000E+01 0.  0.
    9000005    1    3    3    0    0  0.71221894491E+02 -0.44409395739E+02  0.13312982007E+03  0.15738266003E+03  0.10000000000E+01 0.  0.
         -4    1    1    2    0  502 -0.49964381171E+02  0.14061344042E+01 -0.19879086368E+01  0.50039796967E+02  0.12700000000E+01 0.  1.
<mgrwt>
<rscale>  1 0.13462752E+03</rscale>
<asrwt>0</asrwt>
<pdfrwt beam="2">  1       21 0.65680490E-02 0.13462752E+03</pdfrwt>
<pdfrwt beam="1">  1       -4 0.45490673E-01 0.13462752E+03</pdfrwt>
<totfact> 0.32159982E+04</totfact>
</mgrwt>
</event>
<event>
 6    4  0.3995738E-003  0.1575413E+03  0.7818608E-02  0.1191501E+00
         21   -1    0    0  501  502  0.00000000000E+00  0.00000000000E+00  0.45132166198E+02  0.45132166198E+02  0.00000000000E+00 0. -1.
         -4   -1    0    0    0  501 -0.00000000000E+00 -0.00000000000E+00 -0.47930993344E+03  0.47931161596E+03  0.12700000000E+01 0.  1.
         25    2    1    2    0    0  0.92446276611E+02 -0.25442969498E+02 -0.38645513449E+03  0.41733299217E+03  0.12500238646E+03 0.  0.
    9000005    1    3    3    0    0 -0.22674778579E+02 -0.28905206923E+02 -0.52588133080E+02  0.64157371453E+02  0.10000000000E+01 0.  0.
    9000005    1    3    3    0    0  0.11512105519E+03  0.34622374248E+01 -0.33386700141E+03  0.35317562071E+03  0.10000000000E+01 0.  0.
         -4    1    1    2    0  502 -0.92446276611E+02  0.25442969498E+02 -0.47722632751E+02  0.10711078999E+03  0.12700000000E+01 0. -1.
<mgrwt>
<rscale>  1 0.15754128E+03</rscale>
<asrwt>0</asrwt>
<pdfrwt beam="1">  1       21 0.69434102E-02 0.15754128E+03</pdfrwt>
<pdfrwt beam="2">  1       -4 0.73741494E-01 0.15754128E+03</pdfrwt>
<totfact> 0.10812353E+04</totfact>
</mgrwt>
</event>
<event>
 6    4  0.3995738E-003  0.1268779E+03  0.7818608E-02  0.1232163E+00
          4   -1    0    0  502    0 -0.00000000000E+00  0.00000000000E+00  0.47809678843E+02  0.47826543792E+02  0.12700000000E+01 0.  1.
         21   -1    0    0  501  502  0.00000000000E+00 -0.00000000000E+00 -0.20960745658E+03  0.20960745658E+03  0.00000000000E+00 0. -1.
         25    2    1    2    0    0 -0.28387291967E+01 -0.21553166176E+02 -0.39023588904E+02  0.13274353683E+03  0.12500163488E+03 0.  0.
    9000005    1    3    3    0    0  0.62898980314E+01  0.18489889738E+02  0.39525981585E+02  0.44099229699E+02  0.10000000000E+01 0.  0.
    9000005    1    3    3    0    0 -0.91286272282E+01 -0.40043055914E+02 -0.78549570489E+02  0.88644307127E+02  0.10000000000E+01 0.  0.
          4    1    1    2  501    0  0.28387291967E+01  0.21553166176E+02 -0.12277418884E+03  0.12469046355E+03  0.12700000000E+01 0. -1.
<mgrwt>
<rscale>  1 0.12687792E+03</rscale>
<asrwt>0</asrwt>
<pdfrwt beam="2">  1       21 0.32247301E-01 0.12687792E+03</pdfrwt>
<pdfrwt beam="1">  1        4 0.73569284E-02 0.12687792E+03</pdfrwt>
<totfact> 0.47378085E+04</totfact>
</mgrwt>
</event>
<event>
 6    4  0.3995738E-003  0.1354589E+03  0.7818608E-02  0.1219573E+00
          4   -1    0    0  502    0 -0.00000000000E+00  0.00000000000E+00  0.58234730528E+03  0.58234869011E+03  0.12700000000E+01 0. -1.
         21   -1    0    0  501  502  0.00000000000E+00 -0.00000000000E+00 -0.55397802921E+02  0.55397802921E+02  0.00000000000E+00 0.  1.
         25    2    1    2    0    0 -0.49350411877E+02 -0.17003763874E+02  0.55986846224E+03  0.57602241379E+03  0.12499814014E+03 0.  0.
    9000005    1    3    3    0    0 -0.33890514343E+02 -0.27283162813E+02  0.55513336896E+03  0.55683659656E+03  0.10000000000E+01 0.  0.
    9000005    1    3    3    0    0 -0.15459897534E+02  0.10279398939E+02  0.47350932776E+01  0.19185817227E+02  0.10000000000E+01 0.  0.
          4    1    1    2  501    0  0.49350411877E+02  0.17003763874E+02 -0.32918959880E+02  0.61724079238E+02  0.12700000000E+01 0.  1.
<mgrwt>
<rscale>  1 0.13545895E+03</rscale>
<asrwt>0</asrwt>
<pdfrwt beam="2">  1       21 0.85227393E-02 0.13545895E+03</pdfrwt>
<pdfrwt beam="1">  1        4 0.89593115E-01 0.13545895E+03</pdfrwt>
<totfact> 0.48680338E+03</totfact>
</mgrwt>
</event>
<event>
 6    4  0.3995738E-003  0.1298152E+03  0.7818608E-02  0.1227730E+00
          4   -1    0    0  502    0 -0.00000000000E+00  0.00000000000E+00  0.72105952794E+02  0.72117136163E+02  0.12700000000E+01 0. -1.
         21   -1    0    0  501  502  0.00000000000E+00 -0.00000000000E+00 -0.94373777980E+02  0.94373777980E+02  0.00000000000E+00 0. -1.
         25    2    1    2    0    0 -0.27906917343E+02  0.21179936595E+02 -0.20152089051E+02  0.13137005155E+03  0.12499839200E+03 0.  0.
    9000005    1    3    3    0    0  0.34624883399E+02 -0.28589396377E+02  0.98804178060E+01  0.45987593888E+02  0.10000000000E+01 0.  0.
    9000005    1    3    3    0    0 -0.62531800742E+02  0.49769332972E+02 -0.30032506857E+02  0.85382457663E+02  0.10000000000E+01 0.  0.
          4    1    1    2  501    0  0.27906917343E+02 -0.21179936595E+02 -0.21157361345E+01  0.35120862591E+02  0.12700000000E+01 0.  1.
<mgrwt>
<rscale>  1 0.12981519E+03</rscale>
<asrwt>0</asrwt>
<pdfrwt beam="2">  1       21 0.14519043E-01 0.12981519E+03</pdfrwt>
<pdfrwt beam="1">  1        4 0.11094741E-01 0.12981519E+03</pdfrwt>
<totfact> 0.10599900E+05</totfact>
</mgrwt>
</event>
<event>
 6    4  0.3995738E-003  0.1272419E+03  0.7818608E-02  0.1231607E+00
         21   -1    0    0  501  502  0.00000000000E+00  0.00000000000E+00  0.54659197417E+03  0.54659197417E+03  0.00000000000E+00 0. -1.
          4   -1    0    0  502    0 -0.00000000000E+00 -0.00000000000E+00 -0.14705960879E+02  0.14760697320E+02  0.12700000000E+01 0. -1.
         25    2    1    2    0    0 -0.23741241672E+02  0.86846221762E+00  0.27101214795E+03  0.29939621080E+03  0.12500442359E+03 0.  0.
    9000005    1    3    3    0    0  0.41469465179E+02  0.28585078756E+02  0.69878203852E+02  0.86143987853E+02  0.10000000000E+01 0.  0.
    9000005    1    3    3    0    0 -0.65210706851E+02 -0.27716616538E+02  0.20113394410E+03  0.21325222294E+03  0.10000000000E+01 0.  0.
          4    1    1    2  501    0  0.23741241672E+02 -0.86846221762E+00  0.26087386534E+03  0.26195646069E+03  0.12700000000E+01 0.  1.
<mgrwt>
<rscale>  1 0.12724192E+03</rscale>
<asrwt>0</asrwt>
<pdfrwt beam="1">  1       21 0.84091057E-01 0.12724192E+03</pdfrwt>
<pdfrwt beam="2">  1        4 0.22667799E-02 0.12724192E+03</pdfrwt>
<totfact> 0.41846764E+04</totfact>
</mgrwt>
</event>
<event>
 6    4  0.3995738E-003  0.1267080E+03  0.7818608E-02  0.1232424E+00
         21   -1    0    0  501  502  0.00000000000E+00  0.00000000000E+00  0.12680706640E+03  0.12680706640E+03  0.00000000000E+00 0.  1.
          4   -1    0    0  502    0 -0.00000000000E+00 -0.00000000000E+00 -0.45559617305E+02  0.45577314851E+02  0.12700000000E+01 0.  1.
         25    2    1    2    0    0  0.19481242738E+02  0.70676550045E+01  0.53044684895E+02  0.13736325371E+03  0.12500181722E+03 0.  0.
    9000005    1    3    3    0    0  0.69745998589E+02 -0.71230826626E+01  0.12466408032E+02  0.71215545740E+02  0.10000000000E+01 0.  0.
    9000005    1    3    3    0    0 -0.50264755851E+02  0.14190737667E+02  0.40578276863E+02  0.66147707969E+02  0.10000000000E+01 0.  0.
          4    1    1    2  501    0 -0.19481242738E+02 -0.70676550045E+01  0.28202764202E+02  0.35021127545E+02  0.12700000000E+01 0. -1.
<mgrwt>
<rscale>  1 0.12670803E+03</rscale>
<asrwt>0</asrwt>
<pdfrwt beam="1">  1       21 0.19508779E-01 0.12670803E+03</pdfrwt>
<pdfrwt beam="2">  1        4 0.70110225E-02 0.12670803E+03</pdfrwt>
<totfact> 0.13262890E+05</totfact>
</mgrwt>
</event>
<event>
 6    4  0.3995738E-003  0.1297273E+03  0.7818608E-02  0.1227861E+00
          4   -1    0    0  502    0 -0.00000000000E+00  0.00000000000E+00  0.77215373693E+01  0.78252820617E+01  0.12700000000E+01 0.  1.
         21   -1    0    0  501  502  0.00000000000E+00 -0.00000000000E+00 -0.13034382911E+04  0.13034382911E+04  0.00000000000E+00 0. -1.
         25    2    1    2    0    0 -0.18010535358E+02 -0.29637669930E+02 -0.56411981112E+03  0.57884397334E+03  0.12500565313E+03 0.  0.
    9000005    1    3    3    0    0 -0.24719480777E+02 -0.15188679672E+02 -0.21837121823E+02  0.36326417516E+02  0.10000000000E+01 0.  0.
    9000005    1    3    3    0    0  0.67089454188E+01 -0.14448990258E+02 -0.54228268930E+03  0.54251755583E+03  0.10000000000E+01 0.  0.
          4    1    1    2  501    0  0.18010535358E+02  0.29637669930E+02 -0.73159694266E+03  0.73241959987E+03  0.12700000000E+01 0. -1.
<mgrwt>
<rscale>  1 0.12972735E+03</rscale>
<asrwt>0</asrwt>
<pdfrwt beam="2">  1       21 0.20052894E+00 0.12972735E+03</pdfrwt>
<pdfrwt beam="1">  1        4 0.11959569E-02 0.12972735E+03</pdfrwt>
<totfact> 0.12500379E+04</totfact>
</mgrwt>
</event>
<event>
 6    4  0.3995738E-003  0.1272779E+03  0.7818608E-02  0.1231552E+00
         21   -1    0    0  501  502  0.00000000000E+00  0.00000000000E+00  0.63005744969E+01  0.63005744969E+01  0.00000000000E+00 0.  1.
          4   -1    0    0  502    0 -0.00000000000E+00 -0.00000000000E+00 -0.11541858584E+04  0.11541865571E+04  0.12700000000E+01 0.  1.
         25    2    1    2    0    0  0.21340658393E+02  0.10856796242E+02 -0.10955753587E+04  0.11029438010E+04  0.12500547111E+03 0.  0.
    9000005    1    3    3    0    0  0.47959096182E+02  0.49985863936E+02 -0.41667126573E+03  0.42239153067E+03  0.10000000000E+01 0.  0.
    9000005    1    3    3    0    0 -0.26618437789E+02 -0.39129067694E+02 -0.67890409296E+03  0.68055227030E+03  0.10000000000E+01 0.  0.
          4    1    1    2  501    0 -0.21340658393E+02 -0.10856796242E+02 -0.52309925175E+02  0.57543330605E+02  0.12700000000E+01 0. -1.
<mgrwt>
<rscale>  1 0.12727789E+03</rscale>
<asrwt>0</asrwt>
<pdfrwt beam="1">  1       21 0.96931997E-03 0.12727789E+03</pdfrwt>
<pdfrwt beam="2">  1        4 0.17757681E+00 0.12727789E+03</pdfrwt>
<totfact> 0.32297206E+04</totfact>
</mgrwt>
</event>
<event>
 6    4  0.3995738E-003  0.1269449E+03  0.7818608E-02  0.1232061E+00
         -4   -1    0    0    0  501 -0.00000000000E+00  0.00000000000E+00  0.51586032447E+02  0.51601663186E+02  0.12700000000E+01 0. -1.
         21   -1    0    0  501  502  0.00000000000E+00 -0.00000000000E+00 -0.10775415108E+03  0.10775415108E+03  0.00000000000E+00 0. -1.
         25    2    1    2    0    0 -0.21243493845E+02 -0.61921940946E+01 -0.48741440982E+02  0.13598066209E+03  0.12500153237E+03 0.  0.
    9000005    1    3    3    0    0 -0.29623530787E+02 -0.40230856094E+02 -0.76417829141E+02  0.91305859445E+02  0.10000000000E+01 0.  0.
    9000005    1    3    3    0    0  0.83800369414E+01  0.34038661999E+02  0.27676388159E+02  0.44674802645E+02  0.10000000000E+01 0.  0.
         -4    1    1    2    0  502  0.21243493845E+02  0.61921940946E+01 -0.74266776547E+01  0.23375152180E+02  0.12700000000E+01 0.  1.
<mgrwt>
<rscale>  1 0.12694492E+03</rscale>
<asrwt>0</asrwt>
<pdfrwt beam="2">  1       21 0.16577562E-01 0.12694492E+03</pdfrwt>
<pdfrwt beam="1">  1       -4 0.79380908E-02 0.12694492E+03</pdfrwt>
<totfact> 0.14566265E+05</totfact>
</mgrwt>
</event>
<event>
 6    4  0.3995738E-003  0.1584834E+03  0.7818608E-02  0.1190420E+00
          4   -1    0    0  502    0 -0.00000000000E+00  0.00000000000E+00  0.42678737293E+03  0.42678926250E+03  0.12700000000E+01 0. -1.
         21   -1    0    0  501  502  0.00000000000E+00 -0.00000000000E+00 -0.46700820219E+02  0.46700820219E+02  0.00000000000E+00 0.  1.
         25    2    1    2    0    0  0.57517196959E+02 -0.78630020498E+02  0.32495861074E+03  0.36154540462E+03  0.12500429128E+03 0.  0.
    9000005    1    3    3    0    0 -0.20784174250E+02  0.22423152197E+02  0.66383948714E+02  0.73093148109E+02  0.10000000000E+01 0.  0.
    9000005    1    3    3    0    0  0.78301371209E+02 -0.10105317269E+03  0.25857466203E+03  0.28845225651E+03  0.10000000000E+01 0.  0.
          4    1    1    2  501    0 -0.57517196959E+02  0.78630020498E+02  0.55127941965E+02  0.11194467810E+03  0.12700000000E+01 0.  1.
<mgrwt>
<rscale>  1 0.15848338E+03</rscale>
<asrwt>0</asrwt>
<pdfrwt beam="2">  1       21 0.71847419E-02 0.15848338E+03</pdfrwt>
<pdfrwt beam="1">  1        4 0.65661067E-01 0.15848338E+03</pdfrwt>
<totfact> 0.13110781E+04</totfact>
</mgrwt>
</event>
<event>
 6    4  0.3995738E-003  0.1326135E+03  0.7818608E-02  0.1223628E+00
         -4   -1    0    0    0  501 -0.00000000000E+00  0.00000000000E+00  0.14683347877E+02  0.14738168302E+02  0.12700000000E+01 0.  1.
         21   -1    0    0  501  502  0.00000000000E+00 -0.00000000000E+00 -0.59839698697E+03  0.59839698697E+03  0.00000000000E+00 0.  1.
         25    2    1    2    0    0  0.38459112727E+02 -0.21928732279E+02 -0.33113145217E+03  0.35669930227E+03  0.12500552378E+03 0.  0.
    9000005    1    3    3    0    0 -0.44486281100E+02 -0.53898572221E+01 -0.79934855786E+02  0.91644208417E+02  0.10000000000E+01 0.  0.
    9000005    1    3    3    0    0  0.82945393827E+02 -0.16538875057E+02 -0.25119659638E+03  0.26505509386E+03  0.10000000000E+01 0.  0.
         -4    1    1    2    0  502 -0.38459112727E+02  0.21928732279E+02 -0.25258218693E+03  0.25643585300E+03  0.12700000000E+01 0. -1.
<mgrwt>
<rscale>  1 0.13261355E+03</rscale>
<asrwt>0</asrwt>
<pdfrwt beam="2">  1       21 0.92061069E-01 0.13261355E+03</pdfrwt>
<pdfrwt beam="1">  1       -4 0.22632974E-02 0.13261355E+03</pdfrwt>
<totfact> 0.34264885E+04</totfact>
</mgrwt>
</event>
<event>
 6    4  0.3995738E-003  0.1333184E+03  0.7818608E-02  0.1222613E+00
         21   -1    0    0  501  502  0.00000000000E+00  0.00000000000E+00  0.11259976538E+04  0.11259976538E+04  0.00000000000E+00 0. -1.
          4   -1    0    0  502    0 -0.00000000000E+00 -0.00000000000E+00 -0.34536755329E+02  0.34560097926E+02  0.12700000000E+01 0.  1.
         25    2    1    2    0    0 -0.16430195239E+02  0.43309795677E+02  0.96645688566E+02  0.16466387963E+03  0.12501245706E+03 0.  0.
    9000005    1    3    3    0    0 -0.26759385396E+02 -0.37720072717E+02  0.13701119983E+02  0.48245095930E+02  0.10000000000E+01 0.  0.
    9000005    1    3    3    0    0  0.10329190157E+02  0.81029868394E+02  0.82944568583E+02  0.11641878370E+03  0.10000000000E+01 0.  0.
          4    1    1    2  501    0  0.16430195239E+02 -0.43309795677E+02  0.99481520990E+03  0.99589387209E+03  0.12700000000E+01 0. -1.
<mgrwt>
<rscale>  1 0.13331843E+03</rscale>
<asrwt>0</asrwt>
<pdfrwt beam="1">  1       21 0.17323038E+00 0.13331843E+03</pdfrwt>
<pdfrwt beam="2">  1        4 0.53151985E-02 0.13331843E+03</pdfrwt>
<totfact> 0.18508330E+03</totfact>
</mgrwt>
</event>
<event>
 6    4  0.3995738E-003  0.1312408E+03  0.7818608E-02  0.1225626E+00
         -4   -1    0    0    0  501 -0.00000000000E+00  0.00000000000E+00  0.24379809984E+03  0.24380140768E+03  0.12700000000E+01 0.  1.
         21   -1    0    0  501  502  0.00000000000E+00 -0.00000000000E+00 -0.31702026846E+02  0.31702026846E+02  0.00000000000E+00 0.  1.
         25    2    1    2    0    0  0.18441911039E+02  0.35479643210E+02  0.18635708989E+03  0.22793225295E+03  0.12500095126E+03 0.  0.
    9000005    1    3    3    0    0  0.54678660364E+02  0.49720172708E+02  0.17059189905E+03  0.18591516209E+03  0.10000000000E+01 0.  0.
    9000005    1    3    3    0    0 -0.36236749325E+02 -0.14240529499E+02  0.15765190841E+02  0.42017090860E+02  0.10000000000E+01 0.  0.
         -4    1    1    2    0  502 -0.18441911039E+02 -0.35479643210E+02  0.25738983102E+02  0.47571181572E+02  0.12700000000E+01 0. -1.
<mgrwt>
<rscale>  1 0.13124080E+03</rscale>
<asrwt>0</asrwt>
<pdfrwt beam="2">  1       21 0.48772351E-02 0.13124080E+03</pdfrwt>
<pdfrwt beam="1">  1       -4 0.37509610E-01 0.13124080E+03</pdfrwt>
<totfact> 0.77660618E+04</totfact>
</mgrwt>
</event>
<event>
 6    4  0.3995738E-003  0.1275187E+03  0.7818608E-02  0.1231185E+00
          4   -1    0    0  502    0 -0.00000000000E+00  0.00000000000E+00  0.30111104155E+02  0.30137874733E+02  0.12700000000E+01 0. -1.
         21   -1    0    0  501  502  0.00000000000E+00 -0.00000000000E+00 -0.71132772870E+03  0.71132772870E+03  0.00000000000E+00 0.  1.
         25    2    1    2    0    0  0.19175790900E+02  0.16342196107E+02 -0.10635133713E+03  0.16604706889E+03  0.12500497528E+03 0.  0.
    9000005    1    3    3    0    0  0.18681985516E+02 -0.29200314855E+02  0.13971958080E+02  0.37388374972E+02  0.10000000000E+01 0.  0.
    9000005    1    3    3    0    0  0.49380538393E+00  0.45542510962E+02 -0.12032329521E+03  0.12865869391E+03  0.10000000000E+01 0.  0.
          4    1    1    2  501    0 -0.19175790900E+02 -0.16342196107E+02 -0.57486528742E+03  0.57541853455E+03  0.12700000000E+01 0.  1.
<mgrwt>
<rscale>  1 0.12751871E+03</rscale>
<asrwt>0</asrwt>
<pdfrwt beam="2">  1       21 0.10943503E+00 0.12751871E+03</pdfrwt>
<pdfrwt beam="1">  1        4 0.46346242E-02 0.12751871E+03</pdfrwt>
<totfact> 0.73871780E+03</totfact>
</mgrwt>
</event>
<event>
 6    4  0.3995738E-003  0.1277711E+03  0.7818608E-02  0.1230801E+00
         21   -1    0    0  501  502  0.00000000000E+00  0.00000000000E+00  0.66308302640E+01  0.66308302640E+01  0.00000000000E+00 0. -1.
         -4   -1    0    0    0  501 -0.00000000000E+00 -0.00000000000E+00 -0.91984251052E+03  0.91984338724E+03  0.12700000000E+01 0. -1.
         25    2    1    2    0    0  0.21031553020E+02  0.16102324481E+02 -0.69394271967E+03  0.70560751324E+03  0.12499541387E+03 0.  0.
    9000005    1    3    3    0    0  0.14855862191E+02  0.67541858259E+02 -0.50399151187E+03  0.50871509049E+03  0.10000000000E+01 0.  0.
    9000005    1    3    3    0    0  0.61756908294E+01 -0.51439533778E+02 -0.18995120780E+03  0.19689242275E+03  0.10000000000E+01 0.  0.
         -4    1    1    2    0  502 -0.21031553020E+02 -0.16102324481E+02 -0.21926896058E+03  0.22086670426E+03  0.12700000000E+01 0.  1.
<mgrwt>
<rscale>  1 0.12777114E+03</rscale>
<asrwt>0</asrwt>
<pdfrwt beam="1">  1       21 0.10201275E-02 0.12777114E+03</pdfrwt>
<pdfrwt beam="2">  1       -4 0.14152369E+00 0.12777114E+03</pdfrwt>
<totfact> 0.53702549E+04</totfact>
</mgrwt>
</event>
<event>
 6    4  0.3995738E-003  0.1302335E+03  0.7818608E-02  0.1227110E+00
         21   -1    0    0  501  502  0.00000000000E+00  0.00000000000E+00  0.15566656814E+04  0.15566656814E+04  0.00000000000E+00 0.  1.
         -4   -1    0    0    0  501 -0.00000000000E+00 -0.00000000000E+00 -0.46314627115E+01  0.48024313475E+01  0.12700000000E+01 0.  1.
         25    2    1    2    0    0  0.20731705980E+02  0.30081362405E+02  0.13391871161E+04  0.13455047039E+04  0.12500433669E+03 0.  0.
    9000005    1    3    3    0    0  0.14908687054E+02 -0.22501417635E+02  0.11084129446E+04  0.11087420071E+04  0.10000000000E+01 0.  0.
    9000005    1    3    3    0    0  0.58230189266E+01  0.52582780040E+02  0.23077417154E+03  0.23676269672E+03  0.10000000000E+01 0.  0.
         -4    1    1    2    0  502 -0.20731705980E+02 -0.30081362405E+02  0.21284710264E+03  0.21596340894E+03  0.12700000000E+01 0. -1.
<mgrwt>
<rscale>  1 0.13023354E+03</rscale>
<asrwt>0</asrwt>
<pdfrwt beam="1">  1       21 0.23948662E+00 0.13023354E+03</pdfrwt>
<pdfrwt beam="2">  1       -4 0.72572525E-03 0.13023354E+03</pdfrwt>
<totfact> 0.15425383E+04</totfact>
</mgrwt>
</event>
<event>
 6    4  0.3995738E-003  0.1313040E+03  0.7818608E-02  0.1225534E+00
         21   -1    0    0  501  502  0.00000000000E+00  0.00000000000E+00  0.18092226659E+03  0.18092226659E+03  0.00000000000E+00 0.  1.
          4   -1    0    0  502    0 -0.00000000000E+00 -0.00000000000E+00 -0.45921816170E+02  0.45939374183E+02  0.12700000000E+01 0.  1.
         25    2    1    2    0    0  0.22458107204E+02 -0.33338245693E+02  0.65908485347E+02  0.14691717416E+03  0.12499968966E+03 0.  0.
    9000005    1    3    3    0    0  0.33804858082E+02 -0.75219954693E+02  0.62310150704E+02  0.10336520157E+03  0.10000000000E+01 0.  0.
    9000005    1    3    3    0    0 -0.11346750878E+02  0.41881709000E+02  0.35983346426E+01  0.43551972590E+02  0.10000000000E+01 0.  0.
          4    1    1    2  501    0 -0.22458107204E+02  0.33338245693E+02  0.69091965076E+02  0.79944466620E+02  0.12700000000E+01 0. -1.
<mgrwt>
<rscale>  1 0.13130395E+03</rscale>
<asrwt>0</asrwt>
<pdfrwt beam="1">  1       21 0.27834194E-01 0.13130395E+03</pdfrwt>
<pdfrwt beam="2">  1        4 0.70665884E-02 0.13130395E+03</pdfrwt>
<totfact> 0.67511526E+04</totfact>
</mgrwt>
</event>
<event>
 6    4  0.3995738E-003  0.1296449E+03  0.7818608E-02  0.1227984E+00
         21   -1    0    0  501  502  0.00000000000E+00  0.00000000000E+00  0.66981026218E+01  0.66981026218E+01  0.00000000000E+00 0. -1.
         -4   -1    0    0    0  501 -0.00000000000E+00 -0.00000000000E+00 -0.10218425759E+04  0.10218433651E+04  0.12700000000E+01 0. -1.
         25    2    1    2    0    0 -0.27915039350E+02  0.20105590509E+02 -0.85172449213E+03  0.86153491896E+03  0.12499728763E+03 0.  0.
    9000005    1    3    3    0    0  0.77780788489E+01  0.60439394028E+02 -0.64621619970E+03  0.64908381248E+03  0.10000000000E+01 0.  0.
    9000005    1    3    3    0    0 -0.35693118199E+02 -0.40333803519E+02 -0.20550829242E+03  0.21245110649E+03  0.10000000000E+01 0.  0.
         -4    1    1    2    0  502  0.27915039350E+02 -0.20105590509E+02 -0.16341998110E+03  0.16700654872E+03  0.12700000000E+01 0.  1.
<mgrwt>
<rscale>  1 0.12964492E+03</rscale>
<asrwt>0</asrwt>
<pdfrwt beam="1">  1       21 0.10304768E-02 0.12964492E+03</pdfrwt>
<pdfrwt beam="2">  1       -4 0.15721595E+00 0.12964492E+03</pdfrwt>
<totfact> 0.40542062E+04</totfact>
</mgrwt>
</event>
<event>
 6    4  0.3995738E-003  0.1297381E+03  0.7818608E-02  0.1227845E+00
         -4   -1    0    0    0  501 -0.00000000000E+00  0.00000000000E+00  0.28813747604E+03  0.28814027487E+03  0.12700000000E+01 0.  1.
         21   -1    0    0  501  502  0.00000000000E+00 -0.00000000000E+00 -0.53478997136E+02  0.53478997136E+02  0.00000000000E+00 0. -1.
         25    2    1    2    0    0  0.13748106991E+02  0.31946657132E+02  0.26525269816E+03  0.29528118293E+03  0.12498953461E+03 0.  0.
    9000005    1    3    3    0    0 -0.36351824395E+02  0.19772031671E+02  0.22502692892E+02  0.47114324368E+02  0.10000000000E+01 0.  0.
    9000005    1    3    3    0    0  0.50099931386E+02  0.12174625461E+02  0.24275000527E+03  0.24816685856E+03  0.10000000000E+01 0.  0.
         -4    1    1    2    0  502 -0.13748106991E+02 -0.31946657132E+02 -0.30594219251E+02  0.46338089077E+02  0.12700000000E+01 0. -1.
<mgrwt>
<rscale>  1 0.12973813E+03</rscale>
<asrwt>0</asrwt>
<pdfrwt beam="2">  1       21 0.82275382E-02 0.12973813E+03</pdfrwt>
<pdfrwt beam="1">  1       -4 0.44330217E-01 0.12973813E+03</pdfrwt>
<totfact> 0.22909249E+04</totfact>
</mgrwt>
</event>
<event>
 6    4  0.3995738E-003  0.1292410E+03  0.7818608E-02  0.1228586E+00
         -4   -1    0    0    0  501 -0.00000000000E+00  0.00000000000E+00  0.40059370073E+02  0.40079496387E+02  0.12700000000E+01 0.  1.
         21   -1    0    0  501  502  0.00000000000E+00 -0.00000000000E+00 -0.29524745146E+03  0.29524745146E+03  0.00000000000E+00 0. -1.
         25    2    1    2    0    0 -0.78213632466E+01  0.31895374077E+02 -0.69480507710E+02  0.14673372307E+03  0.12499902369E+03 0.  0.
    9000005    1    3    3    0    0  0.52157830794E+02  0.40983241545E+02 -0.22685103762E+02  0.70111905789E+02  0.10000000000E+01 0.  0.
    9000005    1    3    3    0    0 -0.59979194041E+02 -0.90878674688E+01 -0.46795403948E+02  0.76621817282E+02  0.10000000000E+01 0.  0.
         -4    1    1    2    0  502  0.78213632466E+01 -0.31895374077E+02 -0.18570757367E+03  0.18859322477E+03  0.12700000000E+01 0. -1.
<mgrwt>
<rscale>  1 0.12924103E+03</rscale>
<asrwt>0</asrwt>
<pdfrwt beam="2">  1       21 0.45422685E-01 0.12924103E+03</pdfrwt>
<pdfrwt beam="1">  1       -4 0.61647383E-02 0.12924103E+03</pdfrwt>
<totfact> 0.32085532E+04</totfact>
</mgrwt>
</event>
<event>
 6    4  0.3995738E-003  0.1326706E+03  0.7818608E-02  0.1223546E+00
          4   -1    0    0  502    0 -0.00000000000E+00  0.00000000000E+00  0.47043092030E+03  0.47043263457E+03  0.12700000000E+01 0. -1.
         21   -1    0    0  501  502  0.00000000000E+00 -0.00000000000E+00 -0.30098195128E+02  0.30098195128E+02  0.00000000000E+00 0.  1.
         25    2    1    2    0    0 -0.39155626355E+02  0.21048177017E+02  0.43612703674E+03  0.45585992702E+03  0.12500116821E+03 0.  0.
    9000005    1    3    3    0    0 -0.20486153746E+02  0.33094966724E+02  0.30072420693E+02  0.49196644236E+02  0.10000000000E+01 0.  0.
    9000005    1    3    3    0    0 -0.18669472609E+02 -0.12046789707E+02  0.40605461605E+03  0.40666328278E+03  0.10000000000E+01 0.  0.
          4    1    1    2  501    0  0.39155626355E+02 -0.21048177017E+02  0.42056884243E+01  0.44670902679E+02  0.12700000000E+01 0.  1.
<mgrwt>
<rscale>  1 0.13267057E+03</rscale>
<asrwt>0</asrwt>
<pdfrwt beam="2">  1       21 0.46304919E-02 0.13267057E+03</pdfrwt>
<pdfrwt beam="1">  1        4 0.72376175E-01 0.13267057E+03</pdfrwt>
<totfact> 0.22013172E+04</totfact>
</mgrwt>
</event>
<event>
 6    4  0.3995738E-003  0.1334285E+03  0.7818608E-02  0.1222455E+00
          4   -1    0    0  502    0 -0.00000000000E+00  0.00000000000E+00  0.16176159020E+02  0.16225936664E+02  0.12700000000E+01 0.  1.
         21   -1    0    0  501  502  0.00000000000E+00 -0.00000000000E+00 -0.50133579621E+03  0.50133579621E+03  0.00000000000E+00 0.  1.
         25    2    1    2    0    0 -0.32513201744E+02  0.33462131533E+02 -0.36843834627E+03  0.39185455254E+03  0.12500541111E+03 0.  0.
    9000005    1    3    3    0    0  0.33979288458E+02 -0.17534053032E+01 -0.24452224469E+03  0.24688012197E+03  0.10000000000E+01 0.  0.
    9000005    1    3    3    0    0 -0.66492490202E+02  0.35215536836E+02 -0.12391610158E+03  0.14497443057E+03  0.10000000000E+01 0.  0.
          4    1    1    2  501    0  0.32513201744E+02 -0.33462131533E+02 -0.11672129092E+03  0.12570718034E+03  0.12700000000E+01 0. -1.
<mgrwt>
<rscale>  1 0.13342854E+03</rscale>
<asrwt>0</asrwt>
<pdfrwt beam="2">  1       21 0.77128578E-01 0.13342854E+03</pdfrwt>
<pdfrwt beam="1">  1        4 0.24925928E-02 0.13342854E+03</pdfrwt>
<totfact> 0.44032792E+04</totfact>
</mgrwt>
</event>
<event>
 6    4  0.3995738E-003  0.1293725E+03  0.7818608E-02  0.1228390E+00
          4   -1    0    0  502    0 -0.00000000000E+00  0.00000000000E+00  0.69626486355E+03  0.69626602180E+03  0.12700000000E+01 0.  1.
         21   -1    0    0  501  502  0.00000000000E+00 -0.00000000000E+00 -0.22694820887E+02  0.22694820887E+02  0.00000000000E+00 0. -1.
         25    2    1    2    0    0  0.24818031944E+02 -0.22269266254E+02  0.67327378024E+03  0.68559086215E+03  0.12500156871E+03 0.  0.
    9000005    1    3    3    0    0  0.50050590562E+02 -0.14003328729E+02  0.10971967260E+03  0.12141071364E+03  0.10000000000E+01 0.  0.
    9000005    1    3    3    0    0 -0.25232558619E+02 -0.82659375251E+01  0.56355410764E+03  0.56418014851E+03  0.10000000000E+01 0.  0.
          4    1    1    2  501    0 -0.24818031944E+02  0.22269266254E+02  0.29626241535E+00  0.33369980528E+02  0.12700000000E+01 0. -1.
<mgrwt>
<rscale>  1 0.12937251E+03</rscale>
<asrwt>0</asrwt>
<pdfrwt beam="2">  1       21 0.34915114E-02 0.12937251E+03</pdfrwt>
<pdfrwt beam="1">  1        4 0.10712048E+00 0.12937251E+03</pdfrwt>
<totfact> 0.14515138E+04</totfact>
</mgrwt>
</event>
<event>
 6    4  0.3995738E-003  0.1278553E+03  0.7818608E-02  0.1230673E+00
          4   -1    0    0  502    0 -0.00000000000E+00  0.00000000000E+00  0.11139917540E+03  0.11140641444E+03  0.12700000000E+01 0.  1.
         21   -1    0    0  501  502  0.00000000000E+00 -0.00000000000E+00 -0.61169283192E+02  0.61169283192E+02  0.00000000000E+00 0.  1.
         25    2    1    2    0    0 -0.73284769388E+01 -0.25870080418E+02  0.63283341206E+02  0.14265959719E+03  0.12499604698E+03 0.  0.
    9000005    1    3    3    0    0  0.57755159234E+02 -0.19650589960E+02  0.41287653804E+02  0.73671395131E+02  0.10000000000E+01 0.  0.
    9000005    1    3    3    0    0 -0.65083636173E+02 -0.62194904578E+01  0.21995687402E+02  0.68988202059E+02  0.10000000000E+01 0.  0.
          4    1    1    2  501    0  0.73284769388E+01  0.25870080418E+02 -0.13053449001E+02  0.29916100446E+02  0.12700000000E+01 0. -1.
<mgrwt>
<rscale>  1 0.12785531E+03</rscale>
<asrwt>0</asrwt>
<pdfrwt beam="2">  1       21 0.94106590E-02 0.12785531E+03</pdfrwt>
<pdfrwt beam="1">  1        4 0.17139906E-01 0.12785531E+03</pdfrwt>
<totfact> 0.10728078E+05</totfact>
</mgrwt>
</event>
<event>
 6    4  0.3995738E-003  0.1308253E+03  0.7818608E-02  0.1226236E+00
         21   -1    0    0  501  502  0.00000000000E+00  0.00000000000E+00  0.51875703949E+02  0.51875703949E+02  0.00000000000E+00 0.  1.
          4   -1    0    0  502    0 -0.00000000000E+00 -0.00000000000E+00 -0.17475778732E+03  0.17476240194E+03  0.12700000000E+01 0. -1.
         25    2    1    2    0    0 -0.38121178808E+02  0.61349023532E+01 -0.13314826818E+03  0.18666475537E+03  0.12499763309E+03 0.  0.
    9000005    1    3    3    0    0 -0.72347584068E+01  0.13118498245E+02  0.22927255845E+02  0.27406126796E+02  0.10000000000E+01 0.  0.
    9000005    1    3    3    0    0 -0.30886420402E+02 -0.69835958913E+01 -0.15607552403E+03  0.15925862858E+03  0.10000000000E+01 0.  0.
          4    1    1    2  501    0  0.38121178808E+02 -0.61349023532E+01  0.10266184804E+02  0.39973350511E+02  0.12700000000E+01 0.  1.
<mgrwt>
<rscale>  1 0.13082534E+03</rscale>
<asrwt>0</asrwt>
<pdfrwt beam="1">  1       21 0.79808774E-02 0.13082534E+03</pdfrwt>
<pdfrwt beam="2">  1        4 0.26887365E-01 0.13082534E+03</pdfrwt>
<totfact> 0.63322207E+04</totfact>
</mgrwt>
</event>
<event>
 6    4  0.3995738E-003  0.1288738E+03  0.7818608E-02  0.1229136E+00
         -4   -1    0    0    0  501 -0.00000000000E+00  0.00000000000E+00  0.15174354844E+03  0.15174886291E+03  0.12700000000E+01 0.  1.
         21   -1    0    0  501  502  0.00000000000E+00 -0.00000000000E+00 -0.51894991350E+02  0.51894991350E+02  0.00000000000E+00 0.  1.
         25    2    1    2    0    0 -0.31316311366E+02 -0.18128032869E+01  0.11124326116E+03  0.17024550408E+03  0.12499788355E+03 0.  0.
    9000005    1    3    3    0    0  0.21795283829E+02 -0.44881898163E+02  0.14867718579E+02  0.52071760443E+02  0.10000000000E+01 0.  0.
    9000005    1    3    3    0    0 -0.53111595196E+02  0.43069094876E+02  0.96375542583E+02  0.11817374364E+03  0.10000000000E+01 0.  0.
         -4    1    1    2    0  502  0.31316311366E+02  0.18128032869E+01 -0.11394704073E+02  0.33398350173E+02  0.12700000000E+01 0. -1.
<mgrwt>
<rscale>  1 0.12887385E+03</rscale>
<asrwt>0</asrwt>
<pdfrwt beam="2">  1       21 0.79838449E-02 0.12887385E+03</pdfrwt>
<pdfrwt beam="1">  1       -4 0.23346765E-01 0.12887385E+03</pdfrwt>
<totfact> 0.81943927E+04</totfact>
</mgrwt>
</event>
<event>
 6    4  0.3995738E-003  0.1267360E+03  0.7818608E-02  0.1232381E+00
         -4   -1    0    0    0  501 -0.00000000000E+00  0.00000000000E+00  0.98100054955E+03  0.98100137162E+03  0.12700000000E+01 0.  1.
         21   -1    0    0  501  502  0.00000000000E+00 -0.00000000000E+00 -0.56774063914E+01  0.56774063914E+01  0.00000000000E+00 0.  1.
         25    2    1    2    0    0  0.32243232247E+00  0.20898019997E+02  0.77898566591E+03  0.78922790039E+03  0.12500071940E+03 0.  0.
    9000005    1    3    3    0    0 -0.38364384626E+02 -0.16760209043E+02  0.10442124865E+03  0.11250567890E+03  0.10000000000E+01 0.  0.
    9000005    1    3    3    0    0  0.38686816949E+02  0.37658229040E+02  0.67456441726E+03  0.67672222149E+03  0.10000000000E+01 0.  0.
         -4    1    1    2    0  502 -0.32243232247E+00 -0.20898019997E+02  0.19633747725E+03  0.19745087763E+03  0.12700000000E+01 0. -1.
<mgrwt>
<rscale>  1 0.12673599E+03</rscale>
<asrwt>0</asrwt>
<pdfrwt beam="2">  1       21 0.87344792E-03 0.12673599E+03</pdfrwt>
<pdfrwt beam="1">  1       -4 0.15093402E+00 0.12673599E+03</pdfrwt>
<totfact> 0.58207487E+04</totfact>
</mgrwt>
</event>
<event>
 6    4  0.3995738E-003  0.1316293E+03  0.7818608E-02  0.1225058E+00
         21   -1    0    0  501  502  0.00000000000E+00  0.00000000000E+00  0.17549191573E+04  0.17549191573E+04  0.00000000000E+00 0. -1.
          4   -1    0    0  502    0 -0.00000000000E+00 -0.00000000000E+00 -0.41660327870E+01  0.43553104576E+01  0.12700000000E+01 0.  1.
         25    2    1    2    0    0 -0.13378825289E+02 -0.39042161914E+02  0.13196136008E+04  0.13261622592E+04  0.12499199575E+03 0.  0.
    9000005    1    3    3    0    0 -0.64796097877E+02 -0.14087614810E+02  0.47371526700E+03  0.47833476706E+03  0.10000000000E+01 0.  0.
    9000005    1    3    3    0    0  0.51417272588E+02 -0.24954547104E+02  0.84589833375E+03  0.84782749211E+03  0.10000000000E+01 0.  0.
          4    1    1    2  501    0  0.13378825289E+02  0.39042161914E+02  0.43113952379E+03  0.43311220861E+03  0.12700000000E+01 0. -1.
<mgrwt>
<rscale>  1 0.13162934E+03</rscale>
<asrwt>0</asrwt>
<pdfrwt beam="1">  1       21 0.26998699E+00 0.13162934E+03</pdfrwt>
<pdfrwt beam="2">  1        4 0.65552469E-03 0.13162934E+03</pdfrwt>
<totfact> 0.12006854E+04</totfact>
</mgrwt>
</event>
<event>
 6    4  0.3995738E-003  0.1329191E+03  0.7818608E-02  0.1223187E+00
         21   -1    0    0  501  502  0.00000000000E+00  0.00000000000E+00  0.25816411667E+02  0.25816411667E+02  0.00000000000E+00 0.  1.
         -4   -1    0    0    0  501 -0.00000000000E+00 -0.00000000000E+00 -0.31957423866E+03  0.31957676217E+03  0.12700000000E+01 0.  1.
         25    2    1    2    0    0 -0.42836670531E+02 -0.14419258717E+02 -0.24608379307E+03  0.27968684404E+03  0.12499840861E+03 0.  0.
    9000005    1    3    3    0    0  0.38617395872E+02  0.21106300270E+02 -0.84292906483E+02  0.95095074838E+02  0.10000000000E+01 0.  0.
    9000005    1    3    3    0    0 -0.81454066403E+02 -0.35525558987E+02 -0.16179088659E+03  0.18459176921E+03  0.10000000000E+01 0.  0.
         -4    1    1    2    0  502  0.42836670531E+02  0.14419258717E+02 -0.47674033924E+02  0.65706329792E+02  0.12700000000E+01 0. -1.
<mgrwt>
<rscale>  1 0.13291914E+03</rscale>
<asrwt>0</asrwt>
<pdfrwt beam="1">  1       21 0.39717556E-02 0.13291914E+03</pdfrwt>
<pdfrwt beam="2">  1       -4 0.49167864E-01 0.13291914E+03</pdfrwt>
<totfact> 0.64004376E+04</totfact>
</mgrwt>
</event>
<event>
 6    4  0.3995738E-003  0.1278470E+03  0.7818608E-02  0.1230686E+00
         21   -1    0    0  501  502  0.00000000000E+00  0.00000000000E+00  0.82896749717E+03  0.82896749717E+03  0.00000000000E+00 0.  1.
          4   -1    0    0  502    0 -0.00000000000E+00 -0.00000000000E+00 -0.85011448097E+01  0.85954850402E+01  0.12700000000E+01 0.  1.
         25    2    1    2    0    0  0.33076346023E+01  0.26631813009E+02  0.50415099729E+03  0.52010871674E+03  0.12499862100E+03 0.  0.
    9000005    1    3    3    0    0  0.63355719206E+02  0.19132695011E+02  0.29768998972E+03  0.30495956643E+03  0.10000000000E+01 0.  0.
    9000005    1    3    3    0    0 -0.60048084603E+02  0.74991179981E+01  0.20646100756E+03  0.21514915031E+03  0.10000000000E+01 0.  0.
          4    1    1    2  501    0 -0.33076346023E+01 -0.26631813009E+02  0.31631535508E+03  0.31745426547E+03  0.12700000000E+01 0. -1.
<mgrwt>
<rscale>  1 0.12784698E+03</rscale>
<asrwt>0</asrwt>
<pdfrwt beam="1">  1       21 0.12753340E+00 0.12784698E+03</pdfrwt>
<pdfrwt beam="2">  1        4 0.13152009E-02 0.12784698E+03</pdfrwt>
<totfact> 0.36049541E+04</totfact>
</mgrwt>
</event>
<event>
 6    4  0.3995738E-003  0.1673262E+03  0.7818608E-02  0.1180665E+00
         21   -1    0    0  501  502  0.00000000000E+00  0.00000000000E+00  0.32717778059E+03  0.32717778059E+03  0.00000000000E+00 0. -1.
         -4   -1    0    0    0  501 -0.00000000000E+00 -0.00000000000E+00 -0.70787258153E+02  0.70798649824E+02  0.12700000000E+01 0.  1.
         25    2    1    2    0    0  0.58409389950E+02 -0.94664553325E+02  0.70987842985E+02  0.18176172014E+03  0.12500005827E+03 0.  0.
    9000005    1    3    3    0    0 -0.19655879459E+02  0.24319829732E+01  0.52100749170E+02  0.55747252870E+02  0.10000000000E+01 0.  0.
    9000005    1    3    3    0    0  0.78065269409E+02 -0.97096536298E+02  0.18887093815E+02  0.12601446727E+03  0.10000000000E+01 0.  0.
         -4    1    1    2    0  502 -0.58409389950E+02  0.94664553325E+02  0.18540267946E+03  0.21621471028E+03  0.12700000000E+01 0. -1.
<mgrwt>
<rscale>  1 0.16732618E+03</rscale>
<asrwt>0</asrwt>
<pdfrwt beam="1">  1       21 0.50335042E-01 0.16732618E+03</pdfrwt>
<pdfrwt beam="2">  1       -4 0.10891413E-01 0.16732618E+03</pdfrwt>
<totfact> 0.10292821E+04</totfact>
</mgrwt>
</event>
<event>
 6    4  0.3995738E-003  0.1291426E+03  0.7818608E-02  0.1228734E+00
         21   -1    0    0  501  502  0.00000000000E+00  0.00000000000E+00  0.18217525025E+03  0.18217525025E+03  0.00000000000E+00 0. -1.
          4   -1    0    0  502    0 -0.00000000000E+00 -0.00000000000E+00 -0.76650852678E+02  0.76661373040E+02  0.12700000000E+01 0.  1.
         25    2    1    2    0    0  0.31952016991E+02 -0.58359162825E+01 -0.18646284666E+02  0.13048180049E+03  0.12499130777E+03 0.  0.
    9000005    1    3    3    0    0 -0.22986073229E+02  0.27450446529E+02  0.32500531397E+02  0.48364978220E+02  0.10000000000E+01 0.  0.
    9000005    1    3    3    0    0  0.54938090220E+02 -0.33286362812E+02 -0.51146816063E+02  0.82116822269E+02  0.10000000000E+01 0.  0.
          4    1    1    2  501    0 -0.31952016991E+02  0.58359162825E+01  0.12417068223E+03  0.12835482280E+03  0.12700000000E+01 0. -1.
<mgrwt>
<rscale>  1 0.12914262E+03</rscale>
<asrwt>0</asrwt>
<pdfrwt beam="1">  1       21 0.28026961E-01 0.12914262E+03</pdfrwt>
<pdfrwt beam="2">  1        4 0.11793589E-01 0.12914262E+03</pdfrwt>
<totfact> 0.28238543E+04</totfact>
</mgrwt>
</event>
<event>
 6    4  0.3995738E-003  0.1306340E+03  0.7818608E-02  0.1226518E+00
         21   -1    0    0  501  502  0.00000000000E+00  0.00000000000E+00  0.10469278894E+03  0.10469278894E+03  0.00000000000E+00 0.  1.
         -4   -1    0    0    0  501 -0.00000000000E+00 -0.00000000000E+00 -0.80925310064E+02  0.80935274812E+02  0.12700000000E+01 0.  1.
         25    2    1    2    0    0 -0.36971395306E+02  0.85701742724E+01  0.49565117491E+02  0.13972095084E+03  0.12499964510E+03 0.  0.
    9000005    1    3    3    0    0 -0.26486742380E+02  0.56187634048E+02 -0.97988375146E+01  0.62893679798E+02  0.10000000000E+01 0.  0.
    9000005    1    3    3    0    0 -0.10484652926E+02 -0.47617459776E+02  0.59363955006E+02  0.76827271046E+02  0.10000000000E+01 0.  0.
         -4    1    1    2    0  502  0.36971395306E+02 -0.85701742724E+01 -0.25797638611E+02  0.45907112912E+02  0.12700000000E+01 0. -1.
<mgrwt>
<rscale>  1 0.13063400E+03</rscale>
<asrwt>0</asrwt>
<pdfrwt beam="1">  1       21 0.16106583E-01 0.13063400E+03</pdfrwt>
<pdfrwt beam="2">  1       -4 0.12451407E-01 0.13063400E+03</pdfrwt>
<totfact> 0.72246391E+04</totfact>
</mgrwt>
</event>
<event>
 6    4  0.3995738E-003  0.1312491E+03  0.7818608E-02  0.1225614E+00
         -4   -1    0    0    0  501 -0.00000000000E+00  0.00000000000E+00  0.44189962158E+03  0.44190144653E+03  0.12700000000E+01 0.  1.
         21   -1    0    0  501  502  0.00000000000E+00 -0.00000000000E+00 -0.25657227366E+02  0.25657227366E+02  0.00000000000E+00 0. -1.
         25    2    1    2    0    0 -0.35084620631E+02 -0.19247641386E+02  0.40534506224E+03  0.42606449301E+03  0.12499972166E+03 0.  0.
    9000005    1    3    3    0    0  0.12893156616E+02  0.47036688825E+02  0.17214163110E+03  0.17892016304E+03  0.10000000000E+01 0.  0.
    9000005    1    3    3    0    0 -0.47977777247E+02 -0.66284330211E+02  0.23320343114E+03  0.24714432997E+03  0.10000000000E+01 0.  0.
         -4    1    1    2    0  502  0.35084620631E+02  0.19247641386E+02  0.10897331967E+02  0.41494180890E+02  0.12700000000E+01 0. -1.
<mgrwt>
<rscale>  1 0.13124912E+03</rscale>
<asrwt>0</asrwt>
<pdfrwt beam="2">  1       21 0.39472661E-02 0.13124912E+03</pdfrwt>
<pdfrwt beam="1">  1       -4 0.67987110E-01 0.13124912E+03</pdfrwt>
<totfact> 0.32835190E+04</totfact>
</mgrwt>
</event>
<event>
 6    4  0.3995738E-003  0.1352426E+03  0.7818608E-02  0.1219878E+00
          4   -1    0    0  502    0 -0.00000000000E+00  0.00000000000E+00  0.31645345341E+02  0.31670819089E+02  0.12700000000E+01 0.  1.
         21   -1    0    0  501  502  0.00000000000E+00 -0.00000000000E+00 -0.45164111614E+03  0.45164111614E+03  0.00000000000E+00 0. -1.
         25    2    1    2    0    0 -0.51232062291E+02  0.64554153720E+01 -0.12609513034E+03  0.18490684821E+03  0.12499665606E+03 0.  0.
    9000005    1    3    3    0    0 -0.71771277715E+02  0.36104612629E+02 -0.36364357725E+02  0.88193116912E+02  0.10000000000E+01 0.  0.
    9000005    1    3    3    0    0  0.20539215424E+02 -0.29649197257E+02 -0.89730772612E+02  0.96713731299E+02  0.10000000000E+01 0.  0.
          4    1    1    2  501    0  0.51232062291E+02 -0.64554153720E+01 -0.29390064046E+03  0.29840508702E+03  0.12700000000E+01 0. -1.
<mgrwt>
<rscale>  1 0.13524260E+03</rscale>
<asrwt>0</asrwt>
<pdfrwt beam="2">  1       21 0.69483246E-01 0.13524260E+03</pdfrwt>
<pdfrwt beam="1">  1        4 0.48706118E-02 0.13524260E+03</pdfrwt>
<totfact> 0.19276079E+04</totfact>
</mgrwt>
</event>
<event>
 6    4  0.3995738E-003  0.1271719E+03  0.7818608E-02  0.1231713E+00
         -4   -1    0    0    0  501 -0.00000000000E+00  0.00000000000E+00  0.60910750359E+01  0.62220651791E+01  0.12700000000E+01 0.  1.
         21   -1    0    0  501  502  0.00000000000E+00 -0.00000000000E+00 -0.23707202862E+04  0.23707202862E+04  0.00000000000E+00 0. -1.
         25    2    1    2    0    0 -0.23111711052E+02  0.37894419303E+01 -0.65936591629E+03  0.67151776236E+03  0.12499673017E+03 0.  0.
    9000005    1    3    3    0    0  0.64940574960E+01  0.42348852981E+02 -0.85927743929E+02  0.96021743935E+02  0.10000000000E+01 0.  0.
    9000005    1    3    3    0    0 -0.29605768548E+02 -0.38559411051E+02 -0.57343817236E+03  0.57549601843E+03  0.10000000000E+01 0.  0.
         -4    1    1    2    0  502  0.23111711052E+02 -0.37894419303E+01 -0.17052632949E+04  0.17054245890E+04  0.12700000000E+01 0. -1.
<mgrwt>
<rscale>  1 0.12717191E+03</rscale>
<asrwt>0</asrwt>
<pdfrwt beam="2">  1       21 0.36472675E+00 0.12717191E+03</pdfrwt>
<pdfrwt beam="1">  1       -4 0.94718936E-03 0.12717191E+03</pdfrwt>
<totfact> 0.20102840E+03</totfact>
</mgrwt>
</event>
<event>
 6    4  0.3995738E-003  0.1379342E+03  0.7818608E-02  0.1216136E+00
         21   -1    0    0  501  502  0.00000000000E+00  0.00000000000E+00  0.17127662385E+02  0.17127662385E+02  0.00000000000E+00 0.  1.
         -4   -1    0    0    0  501 -0.00000000000E+00 -0.00000000000E+00 -0.83904674403E+03  0.83904770518E+03  0.12700000000E+01 0.  1.
         25    2    1    2    0    0  0.23965205268E+02  0.53174891699E+02 -0.75456346265E+03  0.76706704875E+03  0.12499575173E+03 0.  0.
    9000005    1    3    3    0    0  0.42015815987E+02 -0.30315893525E+02 -0.24871954575E+03  0.25406061212E+03  0.10000000000E+01 0.  0.
    9000005    1    3    3    0    0 -0.18050610718E+02  0.83490785224E+02 -0.50584391690E+03  0.51300643663E+03  0.10000000000E+01 0.  0.
         -4    1    1    2    0  502 -0.23965205268E+02 -0.53174891699E+02 -0.67355618998E+02  0.89108318811E+02  0.12700000000E+01 0. -1.
<mgrwt>
<rscale>  1 0.13793418E+03</rscale>
<asrwt>0</asrwt>
<pdfrwt beam="1">  1       21 0.26350251E-02 0.13793418E+03</pdfrwt>
<pdfrwt beam="2">  1       -4 0.12908780E+00 0.13793418E+03</pdfrwt>
<totfact> 0.14845480E+04</totfact>
</mgrwt>
</event>
<event>
 6    4  0.3995738E-003  0.1279431E+03  0.7818608E-02  0.1230540E+00
          4   -1    0    0  502    0 -0.00000000000E+00  0.00000000000E+00  0.41094819961E+03  0.41095016202E+03  0.12700000000E+01 0. -1.
         21   -1    0    0  501  502  0.00000000000E+00 -0.00000000000E+00 -0.37691869353E+02  0.37691869353E+02  0.00000000000E+00 0.  1.
         25    2    1    2    0    0  0.56130336439E+01 -0.26739429085E+02  0.39403927475E+03  0.41429022071E+03  0.12499173460E+03 0.  0.
    9000005    1    3    3    0    0 -0.59143895513E+01 -0.74850517505E+02  0.28168649664E+03  0.29152334789E+03  0.10000000000E+01 0.  0.
    9000005    1    3    3    0    0  0.11527423195E+02  0.48111088420E+02  0.11235277811E+03  0.12276687282E+03  0.10000000000E+01 0.  0.
          4    1    1    2  501    0 -0.56130336439E+01  0.26739429085E+02 -0.20782944486E+02  0.34351810665E+02  0.12700000000E+01 0.  1.
<mgrwt>
<rscale>  1 0.12794310E+03</rscale>
<asrwt>0</asrwt>
<pdfrwt beam="2">  1       21 0.57987494E-02 0.12794310E+03</pdfrwt>
<pdfrwt beam="1">  1        4 0.63224594E-01 0.12794310E+03</pdfrwt>
<totfact> 0.20055780E+04</totfact>
</mgrwt>
</event>
<event>
 6    4  0.3995738E-003  0.1655263E+03  0.7818608E-02  0.1182595E+00
         21   -1    0    0  501  502  0.00000000000E+00  0.00000000000E+00  0.11404376325E+03  0.11404376325E+03  0.00000000000E+00 0.  1.
         -4   -1    0    0    0  501 -0.00000000000E+00 -0.00000000000E+00 -0.28770550756E+03  0.28770831059E+03  0.12700000000E+01 0. -1.
         25    2    1    2    0    0 -0.82314461025E+02  0.70627646246E+02 -0.22694950092E+03  0.28090037624E+03  0.12504003556E+03 0.  0.
    9000005    1    3    3    0    0 -0.40580672693E+02 -0.32882759920E+02 -0.54584904686E+02  0.75555136924E+02  0.10000000000E+01 0.  0.
    9000005    1    3    3    0    0 -0.41733788332E+02  0.10351040617E+03 -0.17236459624E+03  0.20534523932E+03  0.10000000000E+01 0.  0.
         -4    1    1    2    0  502  0.82314461025E+02 -0.70627646246E+02  0.53287756613E+02  0.12085169760E+03  0.12700000000E+01 0.  1.
<mgrwt>
<rscale>  1 0.16552627E+03</rscale>
<asrwt>0</asrwt>
<pdfrwt beam="1">  1       21 0.17545195E-01 0.16552627E+03</pdfrwt>
<pdfrwt beam="2">  1       -4 0.44263145E-01 0.16552627E+03</pdfrwt>
<totfact> 0.60979761E+03</totfact>
</mgrwt>
</event>
<event>
 6    4  0.3995738E-003  0.1658326E+03  0.7818608E-02  0.1182265E+00
         21   -1    0    0  501  502  0.00000000000E+00  0.00000000000E+00  0.68395378116E+03  0.68395378116E+03  0.00000000000E+00 0.  1.
         -4   -1    0    0    0  501 -0.00000000000E+00 -0.00000000000E+00 -0.31579794195E+02  0.31605320777E+02  0.12700000000E+01 0. -1.
         25    2    1    2    0    0 -0.64948339909E+02  0.87530058466E+02  0.26047901439E+03  0.30878756849E+03  0.12498258889E+03 0.  0.
    9000005    1    3    3    0    0 -0.10998208431E+02 -0.32288138229E+02  0.61494961955E+02  0.70328620097E+02  0.10000000000E+01 0.  0.
    9000005    1    3    3    0    0 -0.53950131478E+02  0.11981819669E+03  0.19898405244E+03  0.23845894840E+03  0.10000000000E+01 0.  0.
         -4    1    1    2    0  502  0.64948339909E+02 -0.87530058466E+02  0.39189497257E+03  0.40677153344E+03  0.12700000000E+01 0.  1.
<mgrwt>
<rscale>  1 0.16583258E+03</rscale>
<asrwt>0</asrwt>
<pdfrwt beam="1">  1       21 0.10522365E+00 0.16583258E+03</pdfrwt>
<pdfrwt beam="2">  1       -4 0.48604847E-02 0.16583258E+03</pdfrwt>
<totfact> 0.76126835E+03</totfact>
</mgrwt>
</event>
<event>
 6    4  0.3995738E-003  0.1415643E+03  0.7818608E-02  0.1211239E+00
         21   -1    0    0  501  502  0.00000000000E+00  0.00000000000E+00  0.60557748944E+03  0.60557748944E+03  0.00000000000E+00 0.  1.
         -4   -1    0    0    0  501 -0.00000000000E+00 -0.00000000000E+00 -0.18590928419E+02  0.18634256612E+02  0.12700000000E+01 0. -1.
         25    2    1    2    0    0 -0.34867652161E+02 -0.56540517975E+02  0.33653694831E+03  0.36509940604E+03  0.12501150096E+03 0.  0.
    9000005    1    3    3    0    0 -0.21408601339E+01  0.28948870580E+02  0.19189276901E+02  0.34811617859E+02  0.10000000000E+01 0.  0.
    9000005    1    3    3    0    0 -0.32726792028E+02 -0.85489388555E+02  0.31734767141E+03  0.33028778818E+03  0.10000000000E+01 0.  0.
         -4    1    1    2    0  502  0.34867652161E+02  0.56540517975E+02  0.25044961270E+03  0.25911234001E+03  0.12700000000E+01 0.  1.
<mgrwt>
<rscale>  1 0.14156433E+03</rscale>
<asrwt>0</asrwt>
<pdfrwt beam="1">  1       21 0.93165752E-01 0.14156433E+03</pdfrwt>
<pdfrwt beam="2">  1       -4 0.28635787E-02 0.14156433E+03</pdfrwt>
<totfact> 0.23244788E+04</totfact>
</mgrwt>
</event>
<event>
 6    4  0.3995738E-003  0.1329011E+03  0.7818608E-02  0.1223213E+00
         -4   -1    0    0    0  501 -0.00000000000E+00  0.00000000000E+00  0.50626429688E+02  0.50642356609E+02  0.12700000000E+01 0.  1.
         21   -1    0    0  501  502  0.00000000000E+00 -0.00000000000E+00 -0.21634168411E+03  0.21634168411E+03  0.00000000000E+00 0. -1.
         25    2    1    2    0    0 -0.45059295561E+02 -0.38007731350E-01 -0.48625860885E+02  0.14151738961E+03  0.12502941916E+03 0.  0.
    9000005    1    3    3    0    0 -0.82529182291E+02  0.19351649155E+01 -0.60270874529E+02  0.10221736207E+03  0.10000000000E+01 0.  0.
    9000005    1    3    3    0    0  0.37469886729E+02 -0.19731726469E+01  0.11645013644E+02  0.39300027539E+02  0.10000000000E+01 0.  0.
         -4    1    1    2    0  502  0.45059295561E+02  0.38007731350E-01 -0.11708939354E+03  0.12546665111E+03  0.12700000000E+01 0. -1.
<mgrwt>
<rscale>  1 0.13290108E+03</rscale>
<asrwt>0</asrwt>
<pdfrwt beam="2">  1       21 0.33283336E-01 0.13290108E+03</pdfrwt>
<pdfrwt beam="1">  1       -4 0.77901934E-02 0.13290108E+03</pdfrwt>
<totfact> 0.40749318E+04</totfact>
</mgrwt>
</event>
<event>
 6    4  0.3995738E-003  0.1438727E+03  0.7818608E-02  0.1208211E+00
         21   -1    0    0  501  502  0.00000000000E+00  0.00000000000E+00  0.19659163841E+04  0.19659163841E+04  0.00000000000E+00 0.  1.
         -4   -1    0    0    0  501 -0.00000000000E+00 -0.00000000000E+00 -0.65545434747E+01  0.66764466719E+01  0.12700000000E+01 0. -1.
         25    2    1    2    0    0  0.38666048766E+02  0.59828554657E+02  0.96313161087E+03  0.97381818008E+03  0.12499931490E+03 0.  0.
    9000005    1    3    3    0    0 -0.39621077771E+02  0.44235812489E+01  0.15637985921E+03  0.16138481416E+03  0.10000000000E+01 0.  0.
    9000005    1    3    3    0    0  0.78287126537E+02  0.55404973408E+02  0.80675175166E+03  0.81243336592E+03  0.10000000000E+01 0.  0.
         -4    1    1    2    0  502 -0.38666048766E+02 -0.59828554657E+02  0.99623022977E+03  0.99877465071E+03  0.12700000000E+01 0.  1.
<mgrwt>
<rscale>  1 0.14387268E+03</rscale>
<asrwt>0</asrwt>
<pdfrwt beam="1">  1       21 0.30244821E+00 0.14387268E+03</pdfrwt>
<pdfrwt beam="2">  1       -4 0.10178016E-02 0.14387268E+03</pdfrwt>
<totfact> 0.40629862E+03</totfact>
</mgrwt>
</event>
<event>
 6    4  0.3995738E-003  0.1307289E+03  0.7818608E-02  0.1226378E+00
          4   -1    0    0  502    0 -0.00000000000E+00  0.00000000000E+00  0.30478673787E+03  0.30478938381E+03  0.12700000000E+01 0.  1.
         21   -1    0    0  501  502  0.00000000000E+00 -0.00000000000E+00 -0.23436574073E+02  0.23436574073E+02  0.00000000000E+00 0.  1.
         25    2    1    2    0    0 -0.38213913275E+02  0.20694148556E+01  0.21968938537E+03  0.25564324547E+03  0.12500182903E+03 0.  0.
    9000005    1    3    3    0    0 -0.66700118884E+02 -0.47187474143E+00  0.49509741606E+02  0.83074322379E+02  0.10000000000E+01 0.  0.
    9000005    1    3    3    0    0  0.28486205609E+02  0.25412895970E+01  0.17017964377E+03  0.17256892309E+03  0.10000000000E+01 0.  0.
          4    1    1    2  501    0  0.38213913275E+02 -0.20694148556E+01  0.61660778429E+02  0.72582712419E+02  0.12700000000E+01 0. -1.
<mgrwt>
<rscale>  1 0.13072889E+03</rscale>
<asrwt>0</asrwt>
<pdfrwt beam="2">  1       21 0.36056270E-02 0.13072889E+03</pdfrwt>
<pdfrwt beam="1">  1        4 0.46893115E-01 0.13072889E+03</pdfrwt>
<totfact> 0.82495747E+04</totfact>
</mgrwt>
</event>
<event>
 6    4  0.3995738E-003  0.1414866E+03  0.7818608E-02  0.1211343E+00
         21   -1    0    0  501  502  0.00000000000E+00  0.00000000000E+00  0.82666346496E+02  0.82666346496E+02  0.00000000000E+00 0.  1.
         -4   -1    0    0    0  501 -0.00000000000E+00 -0.00000000000E+00 -0.22835808234E+03  0.22836161383E+03  0.12700000000E+01 0. -1.
         25    2    1    2    0    0  0.64890843902E+02 -0.13488176314E+02 -0.18580799162E+03  0.23354454661E+03  0.12500277190E+03 0.  0.
    9000005    1    3    3    0    0  0.14862598011E+02  0.19568782471E+02  0.11626183539E+02  0.27202981652E+02  0.10000000000E+01 0.  0.
    9000005    1    3    3    0    0  0.50028245890E+02 -0.33056958786E+02 -0.19743417516E+03  0.20634156496E+03  0.10000000000E+01 0.  0.
         -4    1    1    2    0  502 -0.64890843902E+02  0.13488176314E+02  0.40116255775E+02  0.77483413709E+02  0.12700000000E+01 0.  1.
<mgrwt>
<rscale>  1 0.14148656E+03</rscale>
<asrwt>0</asrwt>
<pdfrwt beam="1">  1       21 0.12717900E-01 0.14148656E+03</pdfrwt>
<pdfrwt beam="2">  1       -4 0.35133034E-01 0.14148656E+03</pdfrwt>
<totfact> 0.16994794E+04</totfact>
</mgrwt>
</event>
<event>
 6    4  0.3995738E-003  0.1328171E+03  0.7818608E-02  0.1223335E+00
          4   -1    0    0  502    0 -0.00000000000E+00  0.00000000000E+00  0.17181441762E+03  0.17181911128E+03  0.12700000000E+01 0.  1.
         21   -1    0    0  501  502  0.00000000000E+00 -0.00000000000E+00 -0.75171981956E+02  0.75171981956E+02  0.00000000000E+00 0.  1.
         25    2    1    2    0    0  0.44690005552E+02  0.43355875833E+01  0.13392479772E+03  0.18861660106E+03  0.12499750732E+03 0.  0.
    9000005    1    3    3    0    0  0.65877834909E+02  0.32277225223E+02  0.30588737156E+02  0.79488233351E+02  0.10000000000E+01 0.  0.
    9000005    1    3    3    0    0 -0.21187829357E+02 -0.27941637640E+02  0.10333606056E+03  0.10912836771E+03  0.10000000000E+01 0.  0.
          4    1    1    2  501    0 -0.44690005552E+02 -0.43355875833E+01 -0.37282362058E+02  0.58374492174E+02  0.12700000000E+01 0. -1.
<mgrwt>
<rscale>  1 0.13281706E+03</rscale>
<asrwt>0</asrwt>
<pdfrwt beam="2">  1       21 0.11564920E-01 0.13281706E+03</pdfrwt>
<pdfrwt beam="1">  1        4 0.26434174E-01 0.13281706E+03</pdfrwt>
<totfact> 0.34266883E+04</totfact>
</mgrwt>
</event>
<event>
 6    4  0.3995738E-003  0.1477876E+03  0.7818608E-02  0.1203218E+00
         -4   -1    0    0    0  501 -0.00000000000E+00  0.00000000000E+00  0.15492460473E+03  0.15492981008E+03  0.12700000000E+01 0. -1.
         21   -1    0    0  501  502  0.00000000000E+00 -0.00000000000E+00 -0.23892679192E+03  0.23892679192E+03  0.00000000000E+00 0.  1.
         25    2    1    2    0    0  0.71476888094E+02 -0.33397114942E+02  0.11012527377E+03  0.18430613835E+03  0.12496745133E+03 0.  0.
    9000005    1    3    3    0    0  0.97953389745E-01  0.13960775347E+02 -0.22453317247E+02  0.26458728211E+02  0.10000000000E+01 0.  0.
    9000005    1    3    3    0    0  0.71378934704E+02 -0.47357890289E+02  0.13257859101E+03  0.15784741014E+03  0.10000000000E+01 0.  0.
         -4    1    1    2    0  502 -0.71476888094E+02  0.33397114942E+02 -0.19412746095E+03  0.20955046365E+03  0.12700000000E+01 0.  1.
<mgrwt>
<rscale>  1 0.14778761E+03</rscale>
<asrwt>0</asrwt>
<pdfrwt beam="2">  1       21 0.36757968E-01 0.14778761E+03</pdfrwt>
<pdfrwt beam="1">  1       -4 0.23835215E-01 0.14778761E+03</pdfrwt>
<totfact> 0.48503779E+03</totfact>
</mgrwt>
</event>
<event>
 6    4  0.3995738E-003  0.1288267E+03  0.7818608E-02  0.1229207E+00
          4   -1    0    0  502    0 -0.00000000000E+00  0.00000000000E+00  0.15600381110E+03  0.15600898044E+03  0.12700000000E+01 0.  1.
         21   -1    0    0  501  502  0.00000000000E+00 -0.00000000000E+00 -0.42318995595E+02  0.42318995595E+02  0.00000000000E+00 0.  1.
         25    2    1    2    0    0  0.10856816930E+02 -0.29093020255E+02  0.10461261343E+03  0.16595218181E+03  0.12502821064E+03 0.  0.
    9000005    1    3    3    0    0  0.42165389877E+02  0.36599871150E+02  0.50073504163E+02  0.75005509736E+02  0.10000000000E+01 0.  0.
    9000005    1    3    3    0    0 -0.31308572947E+02 -0.65692891405E+02  0.54539109270E+02  0.90946672072E+02  0.10000000000E+01 0.  0.
          4    1    1    2  501    0 -0.10856816930E+02  0.29093020255E+02  0.90722020730E+01  0.32375794227E+02  0.12700000000E+01 0. -1.
<mgrwt>
<rscale>  1 0.12882674E+03</rscale>
<asrwt>0</asrwt>
<pdfrwt beam="2">  1       21 0.65106148E-02 0.12882674E+03</pdfrwt>
<pdfrwt beam="1">  1        4 0.24002449E-01 0.12882674E+03</pdfrwt>
<totfact> 0.11047475E+05</totfact>
</mgrwt>
</event>
<event>
 6    4  0.3995738E-003  0.1281040E+03  0.7818608E-02  0.1230296E+00
          4   -1    0    0  502    0 -0.00000000000E+00  0.00000000000E+00  0.13289636410E+03  0.13290243222E+03  0.12700000000E+01 0. -1.
         21   -1    0    0  501  502  0.00000000000E+00 -0.00000000000E+00 -0.56191162959E+02  0.56191162959E+02  0.00000000000E+00 0. -1.
         25    2    1    2    0    0  0.14222676108E+02  0.24133184398E+02  0.25359701863E+02  0.13059002007E+03  0.12500377498E+03 0.  0.
    9000005    1    3    3    0    0  0.32936877191E+02 -0.26579497737E+02 -0.31014710760E+02  0.52480661796E+02  0.10000000000E+01 0.  0.
    9000005    1    3    3    0    0 -0.18714201084E+02  0.50712682134E+02  0.56374412622E+02  0.78109358274E+02  0.10000000000E+01 0.  0.
          4    1    1    2  501    0 -0.14222676108E+02 -0.24133184398E+02  0.51345499278E+02  0.58503575112E+02  0.12700000000E+01 0.  1.
<mgrwt>
<rscale>  1 0.12810402E+03</rscale>
<asrwt>0</asrwt>
<pdfrwt beam="2">  1       21 0.86447944E-02 0.12810402E+03</pdfrwt>
<pdfrwt beam="1">  1        4 0.20447165E-01 0.12810402E+03</pdfrwt>
<totfact> 0.90781329E+04</totfact>
</mgrwt>
</event>
<event>
 6    4  0.3995738E-003  0.1392489E+03  0.7818608E-02  0.1214343E+00
         -4   -1    0    0    0  501 -0.00000000000E+00  0.00000000000E+00  0.10505951205E+02  0.10582434065E+02  0.12700000000E+01 0. -1.
         21   -1    0    0  501  502  0.00000000000E+00 -0.00000000000E+00 -0.97757120358E+03  0.97757120358E+03  0.00000000000E+00 0. -1.
         25    2    1    2    0    0  0.58943415754E+02  0.17022334975E+02 -0.59618822673E+03  0.61223414201E+03  0.12500462712E+03 0.  0.
    9000005    1    3    3    0    0  0.64088179582E+02  0.24154250808E+02 -0.13900131428E+03  0.15496156932E+03  0.10000000000E+01 0.  0.
    9000005    1    3    3    0    0 -0.51447638278E+01 -0.71319158335E+01 -0.45718691245E+03  0.45727257269E+03  0.10000000000E+01 0.  0.
         -4    1    1    2    0  502 -0.58943415754E+02 -0.17022334975E+02 -0.37087702564E+03  0.37591949564E+03  0.12700000000E+01 0.  1.
<mgrwt>
<rscale>  1 0.13924885E+03</rscale>
<asrwt>0</asrwt>
<pdfrwt beam="2">  1       21 0.15039556E+00 0.13924885E+03</pdfrwt>
<pdfrwt beam="1">  1       -4 0.16222470E-02 0.13924885E+03</pdfrwt>
<totfact> 0.17340480E+04</totfact>
</mgrwt>
</event>
<event>
 6    4  0.3995738E-003  0.1268480E+03  0.7818608E-02  0.1232209E+00
          4   -1    0    0  502    0 -0.00000000000E+00  0.00000000000E+00  0.99366432378E+02  0.99374547966E+02  0.12700000000E+01 0.  1.
         21   -1    0    0  501  502  0.00000000000E+00 -0.00000000000E+00 -0.55475865458E+02  0.55475865458E+02  0.00000000000E+00 0.  1.
         25    2    1    2    0    0 -0.18980522385E+02  0.10247479987E+02  0.38831091337E+02  0.13265847189E+03  0.12500058173E+03 0.  0.
    9000005    1    3    3    0    0 -0.56786296907E+02 -0.61261903249E+01 -0.20264338418E+02  0.60612351347E+02  0.10000000000E+01 0.  0.
    9000005    1    3    3    0    0  0.37805774522E+02  0.16373670312E+02  0.59095429755E+02  0.72046120538E+02  0.10000000000E+01 0.  0.
          4    1    1    2  501    0  0.18980522385E+02 -0.10247479987E+02  0.50594755824E+01  0.22191941539E+02  0.12700000000E+01 0. -1.
<mgrwt>
<rscale>  1 0.12684801E+03</rscale>
<asrwt>0</asrwt>
<pdfrwt beam="2">  1       21 0.85347486E-02 0.12684801E+03</pdfrwt>
<pdfrwt beam="1">  1        4 0.15288886E-01 0.12684801E+03</pdfrwt>
<totfact> 0.15518870E+05</totfact>
</mgrwt>
</event>
<event>
 6    4  0.3995738E-003  0.1310763E+03  0.7818608E-02  0.1225867E+00
          4   -1    0    0  502    0 -0.00000000000E+00  0.00000000000E+00  0.94699139315E+03  0.94699224474E+03  0.12700000000E+01 0.  1.
         21   -1    0    0  501  502  0.00000000000E+00 -0.00000000000E+00 -0.17402580602E+02  0.17402580602E+02  0.00000000000E+00 0.  1.
         25    2    1    2    0    0  0.16023130439E+02 -0.36045405227E+02  0.91168065132E+03  0.92105515431E+03  0.12499990137E+03 0.  0.
    9000005    1    3    3    0    0  0.69261266719E+02 -0.13017237477E+02  0.40780703835E+03  0.41385281450E+03  0.10000000000E+01 0.  0.
    9000005    1    3    3    0    0 -0.53238136281E+02 -0.23028167749E+02  0.50387361296E+03  0.50720233981E+03  0.10000000000E+01 0.  0.
          4    1    1    2  501    0 -0.16023130439E+02  0.36045405227E+02  0.17908161234E+02  0.43339671039E+02  0.12700000000E+01 0. -1.
<mgrwt>
<rscale>  1 0.13107627E+03</rscale>
<asrwt>0</asrwt>
<pdfrwt beam="2">  1       21 0.26773208E-02 0.13107627E+03</pdfrwt>
<pdfrwt beam="1">  1        4 0.14569457E+00 0.13107627E+03</pdfrwt>
<totfact> 0.10659667E+04</totfact>
</mgrwt>
</event>
<event>
 6    4  0.3995738E-003  0.1265985E+03  0.7818608E-02  0.1232592E+00
          4   -1    0    0  502    0 -0.00000000000E+00  0.00000000000E+00  0.49251719443E+03  0.49251883183E+03  0.12700000000E+01 0.  1.
         21   -1    0    0  501  502  0.00000000000E+00 -0.00000000000E+00 -0.11324794004E+02  0.11324794004E+02  0.00000000000E+00 0.  1.
         25    2    1    2    0    0  0.18857445881E+02 -0.68257116173E+01  0.44237172685E+03  0.46013034181E+03  0.12499997250E+03 0.  0.
    9000005    1    3    3    0    0 -0.81585050397E+01 -0.16277089452E+01 -0.63820915059E+01  0.10532888155E+02  0.10000000000E+01 0.  0.
    9000005    1    3    3    0    0  0.27015950921E+02 -0.51980026721E+01  0.44875381836E+03  0.44959745365E+03  0.10000000000E+01 0.  0.
          4    1    1    2  501    0 -0.18857445881E+02  0.68257116173E+01  0.38820673567E+02  0.43713284027E+02  0.12700000000E+01 0. -1.
<mgrwt>
<rscale>  1 0.12659853E+03</rscale>
<asrwt>0</asrwt>
<pdfrwt beam="2">  1       21 0.17422764E-02 0.12659853E+03</pdfrwt>
<pdfrwt beam="1">  1        4 0.75777463E-01 0.12659853E+03</pdfrwt>
<totfact> 0.98088870E+04</totfact>
</mgrwt>
</event>
<event>
 6    4  0.3995738E-003  0.1305250E+03  0.7818608E-02  0.1226679E+00
         -4   -1    0    0    0  501 -0.00000000000E+00  0.00000000000E+00  0.14339706182E+03  0.14340268560E+03  0.12700000000E+01 0.  1.
         21   -1    0    0  501  502  0.00000000000E+00 -0.00000000000E+00 -0.65947133013E+02  0.65947133013E+02  0.00000000000E+00 0. -1.
         25    2    1    2    0    0 -0.73111698087E+01  0.36917887667E+02  0.10090989232E+03  0.16498354289E+03  0.12498151633E+03 0.  0.
    9000005    1    3    3    0    0 -0.62021548611E+02  0.29430833825E+01  0.69893279779E+02  0.93495480052E+02  0.10000000000E+01 0.  0.
    9000005    1    3    3    0    0  0.54710378802E+02  0.33974804285E+02  0.31016612536E+02  0.71488062836E+02  0.10000000000E+01 0.  0.
         -4    1    1    2    0  502  0.73111698087E+01 -0.36917887667E+02 -0.23459963511E+02  0.44366275725E+02  0.12700000000E+01 0. -1.
<mgrwt>
<rscale>  1 0.13052495E+03</rscale>
<asrwt>0</asrwt>
<pdfrwt beam="2">  1       21 0.10145713E-01 0.13052495E+03</pdfrwt>
<pdfrwt beam="1">  1       -4 0.22062460E-01 0.13052495E+03</pdfrwt>
<totfact> 0.60014389E+04</totfact>
</mgrwt>
</event>
<event>
 6    4  0.3995738E-003  0.1277159E+03  0.7818608E-02  0.1230885E+00
          4   -1    0    0  502    0 -0.00000000000E+00  0.00000000000E+00  0.23622024213E+02  0.23656139328E+02  0.12700000000E+01 0. -1.
         21   -1    0    0  501  502  0.00000000000E+00 -0.00000000000E+00 -0.79202452237E+03  0.79202452237E+03  0.00000000000E+00 0.  1.
         25    2    1    2    0    0 -0.21195389280E+02 -0.15400251475E+02 -0.15120057889E+03  0.19792161942E+03  0.12499976042E+03 0.  0.
    9000005    1    3    3    0    0 -0.19904904887E+02 -0.63853926303E+02 -0.43445270523E+02  0.79762276006E+02  0.10000000000E+01 0.  0.
    9000005    1    3    3    0    0 -0.12904843934E+01  0.48453674828E+02 -0.10775530837E+03  0.11815934341E+03  0.10000000000E+01 0.  0.
          4    1    1    2  501    0  0.21195389280E+02  0.15400251475E+02 -0.61720191926E+03  0.61775904227E+03  0.12700000000E+01 0.  1.
<mgrwt>
<rscale>  1 0.12771590E+03</rscale>
<asrwt>0</asrwt>
<pdfrwt beam="2">  1       21 0.12184991E+00 0.12771590E+03</pdfrwt>
<pdfrwt beam="1">  1        4 0.36368606E-02 0.12771590E+03</pdfrwt>
<totfact> 0.83783004E+03</totfact>
</mgrwt>
</event>
<event>
 6    4  0.3995738E-003  0.1321475E+03  0.7818608E-02  0.1224304E+00
         -4   -1    0    0    0  501 -0.00000000000E+00  0.00000000000E+00  0.31708009228E+03  0.31708263563E+03  0.12700000000E+01 0. -1.
         21   -1    0    0  501  502  0.00000000000E+00 -0.00000000000E+00 -0.35252928225E+02  0.35252928225E+02  0.00000000000E+00 0.  1.
         25    2    1    2    0    0 -0.29089433561E+02 -0.31532527910E+02  0.27971980714E+03  0.30936406965E+03  0.12498984607E+03 0.  0.
    9000005    1    3    3    0    0  0.47951281207E+02 -0.26811659704E+02  0.11806049871E+03  0.13022085786E+03  0.10000000000E+01 0.  0.
    9000005    1    3    3    0    0 -0.77040714767E+02 -0.47208682062E+01  0.16165930843E+03  0.17914321179E+03  0.10000000000E+01 0.  0.
         -4    1    1    2    0  502  0.29089433561E+02  0.31532527910E+02  0.21073569107E+01  0.42971494208E+02  0.12700000000E+01 0.  1.
<mgrwt>
<rscale>  1 0.13214748E+03</rscale>
<asrwt>0</asrwt>
<pdfrwt beam="2">  1       21 0.54235276E-02 0.13214748E+03</pdfrwt>
<pdfrwt beam="1">  1       -4 0.48783506E-01 0.13214748E+03</pdfrwt>
<totfact> 0.38569275E+04</totfact>
</mgrwt>
</event>
<event>
 6    4  0.3995738E-003  0.1280252E+03  0.7818608E-02  0.1230416E+00
         21   -1    0    0  501  502  0.00000000000E+00  0.00000000000E+00  0.19364487768E+02  0.19364487768E+02  0.00000000000E+00 0.  1.
          4   -1    0    0  502    0 -0.00000000000E+00 -0.00000000000E+00 -0.59602109211E+03  0.59602244517E+03  0.12700000000E+01 0. -1.
         25    2    1    2    0    0  0.27620098830E+02 -0.14417712974E+01 -0.57338916888E+03  0.58750795163E+03  0.12500202270E+03 0.  0.
    9000005    1    3    3    0    0  0.44141561611E+02  0.15524489835E+02 -0.74012229517E+02  0.87568815021E+02  0.10000000000E+01 0.  0.
    9000005    1    3    3    0    0 -0.16521462780E+02 -0.16966261132E+02 -0.49937693936E+03  0.49993913661E+03  0.10000000000E+01 0.  0.
          4    1    1    2  501    0 -0.27620098830E+02  0.14417712974E+01 -0.32674354630E+01  0.27878981301E+02  0.12700000000E+01 0.  1.
<mgrwt>
<rscale>  1 0.12802521E+03</rscale>
<asrwt>0</asrwt>
<pdfrwt beam="1">  1       21 0.29791518E-02 0.12802521E+03</pdfrwt>
<pdfrwt beam="2">  1        4 0.91698865E-01 0.12802521E+03</pdfrwt>
<totfact> 0.26934506E+04</totfact>
</mgrwt>
</event>
<event>
 6    4  0.3995738E-003  0.1329025E+03  0.7818608E-02  0.1223211E+00
         -4   -1    0    0    0  501 -0.00000000000E+00  0.00000000000E+00  0.20212378677E+03  0.20212777661E+03  0.12700000000E+01 0. -1.
         21   -1    0    0  501  502  0.00000000000E+00 -0.00000000000E+00 -0.10981048390E+03  0.10981048390E+03  0.00000000000E+00 0.  1.
         25    2    1    2    0    0  0.40109131427E+02  0.20714420235E+02  0.17378999021E+03  0.21878305073E+03  0.12500093182E+03 0.  0.
    9000005    1    3    3    0    0  0.38041665066E+02  0.70975528055E+02  0.87687230678E+02  0.11905773510E+03  0.10000000000E+01 0.  0.
    9000005    1    3    3    0    0  0.20674663609E+01 -0.50261107820E+02  0.86102759536E+02  0.99725315623E+02  0.10000000000E+01 0.  0.
         -4    1    1    2    0  502 -0.40109131427E+02 -0.20714420235E+02 -0.81476687344E+02  0.93155209785E+02  0.12700000000E+01 0.  1.
<mgrwt>
<rscale>  1 0.13290246E+03</rscale>
<asrwt>0</asrwt>
<pdfrwt beam="2">  1       21 0.16893921E-01 0.13290246E+03</pdfrwt>
<pdfrwt beam="1">  1       -4 0.31096839E-01 0.13290246E+03</pdfrwt>
<totfact> 0.12796513E+04</totfact>
</mgrwt>
</event>
<event>
 6    4  0.3995738E-003  0.1299947E+03  0.7818608E-02  0.1227464E+00
         -4   -1    0    0    0  501 -0.00000000000E+00  0.00000000000E+00  0.46877526566E+03  0.46877698599E+03  0.12700000000E+01 0.  1.
         21   -1    0    0  501  502  0.00000000000E+00 -0.00000000000E+00 -0.15622463536E+02  0.15622463536E+02  0.00000000000E+00 0.  1.
         25    2    1    2    0    0 -0.31156452053E+02 -0.17372079044E+02  0.29673178947E+03  0.32395737358E+03  0.12500444544E+03 0.  0.
    9000005    1    3    3    0    0 -0.10434335751E+02  0.54329865574E+02  0.12913266711E+03  0.14048791895E+03  0.10000000000E+01 0.  0.
    9000005    1    3    3    0    0 -0.20722116303E+02 -0.71701944619E+02  0.16759912236E+03  0.18346945463E+03  0.10000000000E+01 0.  0.
         -4    1    1    2    0  502  0.31156452053E+02  0.17372079044E+02  0.15642101265E+03  0.16044207594E+03  0.12700000000E+01 0. -1.
<mgrwt>
<rscale>  1 0.12999471E+03</rscale>
<asrwt>0</asrwt>
<pdfrwt beam="2">  1       21 0.24034563E-02 0.12999471E+03</pdfrwt>
<pdfrwt beam="1">  1       -4 0.72123364E-01 0.12999471E+03</pdfrwt>
<totfact> 0.65221558E+04</totfact>
</mgrwt>
</event>
<event>
 6    4  0.3995738E-003  0.1315586E+03  0.7818608E-02  0.1225161E+00
         21   -1    0    0  501  502  0.00000000000E+00  0.00000000000E+00  0.39752176950E+02  0.39752176950E+02  0.00000000000E+00 0. -1.
          4   -1    0    0  502    0 -0.00000000000E+00 -0.00000000000E+00 -0.33529184220E+03  0.33529424741E+03  0.12700000000E+01 0.  1.
         25    2    1    2    0    0  0.92096489675E+01  0.39980403871E+02 -0.30566032730E+03  0.33277005947E+03  0.12499770585E+03 0.  0.
    9000005    1    3    3    0    0  0.84988393921E+01  0.27509490974E+02 -0.31551537019E+03  0.31682795204E+03  0.10000000000E+01 0.  0.
    9000005    1    3    3    0    0  0.71080957538E+00  0.12470912898E+02  0.98550428969E+01  0.15942107428E+02  0.10000000000E+01 0.  0.
          4    1    1    2  501    0 -0.92096489675E+01 -0.39980403871E+02  0.10120662051E+02  0.42276364888E+02  0.12700000000E+01 0. -1.
<mgrwt>
<rscale>  1 0.13155864E+03</rscale>
<asrwt>0</asrwt>
<pdfrwt beam="1">  1       21 0.61157195E-02 0.13155864E+03</pdfrwt>
<pdfrwt beam="2">  1        4 0.51585106E-01 0.13155864E+03</pdfrwt>
<totfact> 0.28074112E+04</totfact>
</mgrwt>
</event>
<event>
 6    4  0.3995738E-003  0.1390623E+03  0.7818608E-02  0.1214596E+00
         21   -1    0    0  501  502  0.00000000000E+00  0.00000000000E+00  0.33849574665E+03  0.33849574665E+03  0.00000000000E+00 0. -1.
          4   -1    0    0  502    0 -0.00000000000E+00 -0.00000000000E+00 -0.32041670515E+03  0.32041922202E+03  0.12700000000E+01 0.  1.
         25    2    1    2    0    0 -0.26955702243E+02  0.54682094319E+02 -0.30231740381E+03  0.33276740024E+03  0.12498635402E+03 0.  0.
    9000005    1    3    3    0    0  0.23604176830E+02  0.41093090352E+02 -0.31450029059E+02  0.56885003000E+02  0.10000000000E+01 0.  0.
    9000005    1    3    3    0    0 -0.50559879073E+02  0.13589003967E+02 -0.27086737476E+03  0.27588239724E+03  0.10000000000E+01 0.  0.
          4    1    1    2  501    0  0.26955702243E+02 -0.54682094319E+02  0.32039644531E+03  0.32614756843E+03  0.12700000000E+01 0. -1.
<mgrwt>
<rscale>  1 0.13906232E+03</rscale>
<asrwt>0</asrwt>
<pdfrwt beam="1">  1       21 0.52076269E-01 0.13906232E+03</pdfrwt>
<pdfrwt beam="2">  1        4 0.49295255E-01 0.13906232E+03</pdfrwt>
<totfact> 0.58706331E+02</totfact>
</mgrwt>
</event>
<event>
 6    4  0.3995738E-003  0.1304237E+03  0.7818608E-02  0.1226828E+00
         -4   -1    0    0    0  501 -0.00000000000E+00  0.00000000000E+00  0.12276025445E+03  0.12276682358E+03  0.12700000000E+01 0. -1.
         21   -1    0    0  501  502  0.00000000000E+00 -0.00000000000E+00 -0.93750185677E+02  0.93750185677E+02  0.00000000000E+00 0.  1.
         25    2    1    2    0    0  0.37196729179E+02  0.13931753148E+01  0.80277050333E+02  0.15314940004E+03  0.12499918530E+03 0.  0.
    9000005    1    3    3    0    0  0.43483726673E+02 -0.56695821358E+02  0.37275173987E+02  0.80595838854E+02  0.10000000000E+01 0.  0.
    9000005    1    3    3    0    0 -0.62869974940E+01  0.58088996673E+02  0.43001876346E+02  0.72553561189E+02  0.10000000000E+01 0.  0.
         -4    1    1    2    0  502 -0.37196729179E+02 -0.13931753148E+01 -0.51266981562E+02  0.63367609215E+02  0.12700000000E+01 0.  1.
<mgrwt>
<rscale>  1 0.13042367E+03</rscale>
<asrwt>0</asrwt>
<pdfrwt beam="2">  1       21 0.14423105E-01 0.13042367E+03</pdfrwt>
<pdfrwt beam="1">  1       -4 0.18887360E-01 0.13042367E+03</pdfrwt>
<totfact> 0.42541980E+04</totfact>
</mgrwt>
</event>
<event>
 6    4  0.3995738E-003  0.1326604E+03  0.7818608E-02  0.1223561E+00
         21   -1    0    0  501  502  0.00000000000E+00  0.00000000000E+00  0.29973594103E+02  0.29973594103E+02  0.00000000000E+00 0.  1.
          4   -1    0    0  502    0 -0.00000000000E+00 -0.00000000000E+00 -0.33337257634E+03  0.33337499539E+03  0.12700000000E+01 0. -1.
         25    2    1    2    0    0  0.44411078223E+02  0.66144595379E+00 -0.28665613129E+03  0.31586472553E+03  0.12500402333E+03 0.  0.
    9000005    1    3    3    0    0  0.76278565818E+02  0.62392029928E+01 -0.26754131559E+03  0.27827450980E+03  0.10000000000E+01 0.  0.
    9000005    1    3    3    0    0 -0.31867487595E+02 -0.55777570390E+01 -0.19114815696E+02  0.37590215725E+02  0.10000000000E+01 0.  0.
          4    1    1    2  501    0 -0.44411078223E+02 -0.66144595379E+00 -0.16742850950E+02  0.47483863971E+02  0.12700000000E+01 0.  1.
<mgrwt>
<rscale>  1 0.13266042E+03</rscale>
<asrwt>0</asrwt>
<pdfrwt beam="1">  1       21 0.46113224E-02 0.13266042E+03</pdfrwt>
<pdfrwt beam="2">  1        4 0.51290342E-01 0.13266042E+03</pdfrwt>
<totfact> 0.45767731E+04</totfact>
</mgrwt>
</event>
<event>
 6    4  0.3995738E-003  0.1285825E+03  0.7818608E-02  0.1229574E+00
         -4   -1    0    0    0  501 -0.00000000000E+00  0.00000000000E+00  0.24562454402E+02  0.24595265118E+02  0.12700000000E+01 0. -1.
         21   -1    0    0  501  502  0.00000000000E+00 -0.00000000000E+00 -0.32961857313E+03  0.32961857313E+03  0.00000000000E+00 0.  1.
         25    2    1    2    0    0  0.29908897493E+01 -0.29987967712E+02 -0.15612301397E+03  0.20225691599E+03  0.12500096378E+03 0.  0.
    9000005    1    3    3    0    0  0.59245530752E+02  0.86578637227E+01 -0.64635983877E+02  0.88112439134E+02  0.10000000000E+01 0.  0.
    9000005    1    3    3    0    0 -0.56254641003E+02 -0.38645831434E+02 -0.91487030088E+02  0.11414447685E+03  0.10000000000E+01 0.  0.
         -4    1    1    2    0  502 -0.29908897493E+01  0.29987967712E+02 -0.14893310477E+03  0.15195692227E+03  0.12700000000E+01 0.  1.
<mgrwt>
<rscale>  1 0.12858252E+03</rscale>
<asrwt>0</asrwt>
<pdfrwt beam="2">  1       21 0.50710544E-01 0.12858252E+03</pdfrwt>
<pdfrwt beam="1">  1       -4 0.37815517E-02 0.12858252E+03</pdfrwt>
<totfact> 0.56009195E+04</totfact>
</mgrwt>
</event>
<event>
 6    4  0.3995738E-003  0.1427620E+03  0.7818608E-02  0.1209660E+00
         21   -1    0    0  501  502  0.00000000000E+00  0.00000000000E+00  0.11772521402E+02  0.11772521402E+02  0.00000000000E+00 0. -1.
          4   -1    0    0  502    0 -0.00000000000E+00 -0.00000000000E+00 -0.32835577354E+04  0.32835579810E+04  0.12700000000E+01 0.  1.
         25    2    1    2    0    0 -0.63322664906E+02  0.27321191868E+02 -0.31649172884E+04  0.31681354796E+04  0.12499906802E+03 0.  0.
    9000005    1    3    3    0    0 -0.93311269799E+02  0.32177138871E+02 -0.16735392630E+04  0.16764477404E+04  0.10000000000E+01 0.  0.
    9000005    1    3    3    0    0  0.29988604893E+02 -0.48559470032E+01 -0.14913780254E+04  0.14916877392E+04  0.10000000000E+01 0.  0.
          4    1    1    2  501    0  0.63322664906E+02 -0.27321191868E+02 -0.10686792561E+03  0.12719502286E+03  0.12700000000E+01 0. -1.
<mgrwt>
<rscale>  1 0.14276195E+03</rscale>
<asrwt>0</asrwt>
<pdfrwt beam="1">  1       21 0.18111567E-02 0.14276195E+03</pdfrwt>
<pdfrwt beam="2">  1        4 0.50516814E+00 0.14276195E+03</pdfrwt>
<totfact> 0.96170085E+01</totfact>
</mgrwt>
</event>
<event>
 6    4  0.3995738E-003  0.1282227E+03  0.7818608E-02  0.1230117E+00
          4   -1    0    0  502    0 -0.00000000000E+00  0.00000000000E+00  0.79382904311E+02  0.79393062650E+02  0.12700000000E+01 0.  1.
         21   -1    0    0  501  502  0.00000000000E+00 -0.00000000000E+00 -0.77852412610E+02  0.77852412610E+02  0.00000000000E+00 0. -1.
         25    2    1    2    0    0  0.17963416083E+02  0.22216622474E+02  0.56750710006E+01  0.12834819045E+03  0.12499915572E+03 0.  0.
    9000005    1    3    3    0    0 -0.46603982213E+02 -0.96004591783E+01  0.25071395931E+02  0.53792888642E+02  0.10000000000E+01 0.  0.
    9000005    1    3    3    0    0  0.64567398295E+02  0.31817081653E+02 -0.19396324930E+02  0.74555301812E+02  0.10000000000E+01 0.  0.
          4    1    1    2  501    0 -0.17963416083E+02 -0.22216622474E+02 -0.41445792990E+01  0.28897284805E+02  0.12700000000E+01 0. -1.
<mgrwt>
<rscale>  1 0.12822266E+03</rscale>
<asrwt>0</asrwt>
<pdfrwt beam="2">  1       21 0.11977294E-01 0.12822266E+03</pdfrwt>
<pdfrwt beam="1">  1        4 0.12214333E-01 0.12822266E+03</pdfrwt>
<totfact> 0.12662688E+05</totfact>
</mgrwt>
</event>
<event>
 6    4  0.3995738E-003  0.1267366E+03  0.7818608E-02  0.1232380E+00
          4   -1    0    0  502    0 -0.00000000000E+00  0.00000000000E+00  0.97226350332E+01  0.98052298284E+01  0.12700000000E+01 0. -1.
         21   -1    0    0  501  502  0.00000000000E+00 -0.00000000000E+00 -0.65641782573E+03  0.65641782573E+03  0.00000000000E+00 0.  1.
         25    2    1    2    0    0  0.17080260297E+02  0.12141115840E+02 -0.42388290189E+03  0.44242388011E+03  0.12499213254E+03 0.  0.
    9000005    1    3    3    0    0  0.66350465895E+02 -0.12666134324E+02 -0.17706437246E+03  0.18951413477E+03  0.10000000000E+01 0.  0.
    9000005    1    3    3    0    0 -0.49270205599E+02  0.24807250164E+02 -0.24681852942E+03  0.25290974534E+03  0.10000000000E+01 0.  0.
          4    1    1    2  501    0 -0.17080260297E+02 -0.12141115840E+02 -0.22281228881E+03  0.22379917545E+03  0.12700000000E+01 0.  1.
<mgrwt>
<rscale>  1 0.12673664E+03</rscale>
<asrwt>0</asrwt>
<pdfrwt beam="2">  1       21 0.10098734E+00 0.12673664E+03</pdfrwt>
<pdfrwt beam="1">  1        4 0.15022383E-02 0.12673664E+03</pdfrwt>
<totfact> 0.51625197E+04</totfact>
</mgrwt>
</event>
<event>
 6    4  0.3995738E-003  0.1309835E+03  0.7818608E-02  0.1226004E+00
         21   -1    0    0  501  502  0.00000000000E+00  0.00000000000E+00  0.24386922631E+03  0.24386922631E+03  0.00000000000E+00 0.  1.
         -4   -1    0    0    0  501 -0.00000000000E+00 -0.00000000000E+00 -0.29649317558E+02  0.29676504708E+02  0.12700000000E+01 0.  1.
         25    2    1    2    0    0 -0.32468696044E+02  0.21756478903E+02  0.16314936836E+03  0.20922331196E+03  0.12501646802E+03 0.  0.
    9000005    1    3    3    0    0  0.20646544616E+02  0.11602634647E+01 -0.12757872681E+02  0.24318497717E+02  0.10000000000E+01 0.  0.
    9000005    1    3    3    0    0 -0.53115240660E+02  0.20596215439E+02  0.17590724104E+03  0.18490481425E+03  0.10000000000E+01 0.  0.
         -4    1    1    2    0  502  0.32468696044E+02 -0.21756478903E+02  0.51070540393E+02  0.64322419056E+02  0.12700000000E+01 0. -1.
<mgrwt>
<rscale>  1 0.13098350E+03</rscale>
<asrwt>0</asrwt>
<pdfrwt beam="1">  1       21 0.37518341E-01 0.13098350E+03</pdfrwt>
<pdfrwt beam="2">  1       -4 0.45637793E-02 0.13098350E+03</pdfrwt>
<totfact> 0.76597899E+04</totfact>
</mgrwt>
</event>
<event>
 6    4  0.3995738E-003  0.1523988E+03  0.7818608E-02  0.1197556E+00
         21   -1    0    0  501  502  0.00000000000E+00  0.00000000000E+00  0.15527291667E+03  0.15527291667E+03  0.00000000000E+00 0. -1.
         -4   -1    0    0    0  501 -0.00000000000E+00 -0.00000000000E+00 -0.11677928938E+03  0.11678619494E+03  0.12700000000E+01 0.  1.
         25    2    1    2    0    0 -0.84429123423E+02 -0.21689479293E+02 -0.36897936612E+02  0.15680195912E+03  0.12500674487E+03 0.  0.
    9000005    1    3    3    0    0 -0.89582884620E+02  0.65832640458E+01  0.20914621226E+02  0.92232607918E+02  0.10000000000E+01 0.  0.
    9000005    1    3    3    0    0  0.51537611974E+01 -0.28272743338E+02 -0.57812557838E+02  0.64569351198E+02  0.10000000000E+01 0.  0.
         -4    1    1    2    0  502  0.84429123423E+02  0.21689479293E+02  0.75391563897E+02  0.11525715249E+03  0.12700000000E+01 0. -1.
<mgrwt>
<rscale>  1 0.15239881E+03</rscale>
<asrwt>0</asrwt>
<pdfrwt beam="1">  1       21 0.23888141E-01 0.15239881E+03</pdfrwt>
<pdfrwt beam="2">  1       -4 0.17966975E-01 0.15239881E+03</pdfrwt>
<totfact> 0.18664062E+04</totfact>
</mgrwt>
</event>
<event>
 6    4  0.3995738E-003  0.1273464E+03  0.7818608E-02  0.1231447E+00
         -4   -1    0    0    0  501 -0.00000000000E+00  0.00000000000E+00  0.99834816300E+01  0.10063935883E+02  0.12700000000E+01 0.  1.
         21   -1    0    0  501  502  0.00000000000E+00 -0.00000000000E+00 -0.62405453729E+03  0.62405453729E+03  0.00000000000E+00 0.  1.
         25    2    1    2    0    0  0.23189550192E+02 -0.73718791475E+01 -0.56688394690E+03  0.58101163770E+03  0.12500005622E+03 0.  0.
    9000005    1    3    3    0    0 -0.44557735699E+02 -0.27785125314E+02 -0.17208928840E+03  0.17992534057E+03  0.10000000000E+01 0.  0.
    9000005    1    3    3    0    0  0.67747285891E+02  0.20413246167E+02 -0.39479465850E+03  0.40108629713E+03  0.10000000000E+01 0.  0.
         -4    1    1    2    0  502 -0.23189550192E+02  0.73718791475E+01 -0.47187108761E+02  0.53106835469E+02  0.12700000000E+01 0. -1.
<mgrwt>
<rscale>  1 0.12734643E+03</rscale>
<asrwt>0</asrwt>
<pdfrwt beam="2">  1       21 0.96008457E-01 0.12734643E+03</pdfrwt>
<pdfrwt beam="1">  1       -4 0.15422074E-02 0.12734643E+03</pdfrwt>
<totfact> 0.55830998E+04</totfact>
</mgrwt>
</event>
<event>
 6    4  0.3995738E-003  0.1309983E+03  0.7818608E-02  0.1225982E+00
         21   -1    0    0  501  502  0.00000000000E+00  0.00000000000E+00  0.97364767242E+03  0.97364767242E+03  0.00000000000E+00 0.  1.
          4   -1    0    0  502    0 -0.00000000000E+00 -0.00000000000E+00 -0.56780904287E+02  0.56795105349E+02  0.12700000000E+01 0. -1.
         25    2    1    2    0    0  0.33683680418E+02 -0.20003835883E+02  0.19760081653E+02  0.13248021530E+03  0.12500321132E+03 0.  0.
    9000005    1    3    3    0    0  0.57704424041E+02  0.27881112956E+02  0.39602653066E+02  0.75342731191E+02  0.10000000000E+01 0.  0.
    9000005    1    3    3    0    0 -0.24020743623E+02 -0.47884948838E+02 -0.19842571413E+02  0.57137484104E+02  0.10000000000E+01 0.  0.
          4    1    1    2  501    0 -0.33683680418E+02  0.20003835883E+02  0.89710668648E+03  0.89796256247E+03  0.12700000000E+01 0.  1.
<mgrwt>
<rscale>  1 0.13099827E+03</rscale>
<asrwt>0</asrwt>
<pdfrwt beam="1">  1       21 0.14979194E+00 0.13099827E+03</pdfrwt>
<pdfrwt beam="2">  1        4 0.87366806E-02 0.13099827E+03</pdfrwt>
<totfact> 0.12065826E+03</totfact>
</mgrwt>
</event>
<event>
 6    4  0.3995738E-003  0.1272147E+03  0.7818608E-02  0.1231648E+00
         -4   -1    0    0    0  501 -0.00000000000E+00  0.00000000000E+00  0.12234540831E+04  0.12234547423E+04  0.12700000000E+01 0.  1.
         21   -1    0    0  501  502  0.00000000000E+00 -0.00000000000E+00 -0.72038875953E+01  0.72038875953E+01  0.00000000000E+00 0. -1.
         25    2    1    2    0    0  0.23265370968E+02 -0.48539701687E+01  0.11827099080E+04  0.11895319682E+04  0.12497495105E+03 0.  0.
    9000005    1    3    3    0    0  0.60139075640E+02  0.18971672868E+02  0.34807172501E+03  0.35373939354E+03  0.10000000000E+01 0.  0.
    9000005    1    3    3    0    0 -0.36873704673E+02 -0.23825643036E+02  0.83463818301E+03  0.83579257469E+03  0.10000000000E+01 0.  0.
         -4    1    1    2    0  502 -0.23265370968E+02  0.48539701687E+01  0.33540287524E+02  0.41126661667E+02  0.12700000000E+01 0. -1.
<mgrwt>
<rscale>  1 0.12721469E+03</rscale>
<asrwt>0</asrwt>
<pdfrwt beam="2">  1       21 0.11082914E-02 0.12721469E+03</pdfrwt>
<pdfrwt beam="1">  1       -4 0.18823220E+00 0.12721469E+03</pdfrwt>
<totfact> 0.22292260E+04</totfact>
</mgrwt>
</event>
<event>
 6    4  0.3995738E-003  0.1266328E+03  0.7818608E-02  0.1232539E+00
          4   -1    0    0  502    0 -0.00000000000E+00  0.00000000000E+00  0.28319921704E+02  0.28348383822E+02  0.12700000000E+01 0. -1.
         21   -1    0    0  501  502  0.00000000000E+00 -0.00000000000E+00 -0.25253269658E+03  0.25253269658E+03  0.00000000000E+00 0.  1.
         25    2    1    2    0    0 -0.18941745270E+02 -0.72584223618E+01 -0.11916592788E+03  0.17388609279E+03  0.12499752194E+03 0.  0.
    9000005    1    3    3    0    0 -0.18388135073E+01  0.49129990820E+01  0.26337178381E+02  0.26873141985E+02  0.10000000000E+01 0.  0.
    9000005    1    3    3    0    0 -0.17102931762E+02 -0.12171421444E+02 -0.14550310626E+03  0.14701295081E+03  0.10000000000E+01 0.  0.
          4    1    1    2  501    0  0.18941745270E+02  0.72584223618E+01 -0.10504684700E+03  0.10699498761E+03  0.12700000000E+01 0.  1.
<mgrwt>
<rscale>  1 0.12663276E+03</rscale>
<asrwt>0</asrwt>
<pdfrwt beam="2">  1       21 0.38851186E-01 0.12663276E+03</pdfrwt>
<pdfrwt beam="1">  1        4 0.43593459E-02 0.12663276E+03</pdfrwt>
<totfact> 0.76569770E+04</totfact>
</mgrwt>
</event>
<event>
 6    4  0.3995738E-003  0.1296472E+03  0.7818608E-02  0.1227980E+00
         21   -1    0    0  501  502  0.00000000000E+00  0.00000000000E+00  0.43750792268E+02  0.43750792268E+02  0.00000000000E+00 0.  1.
         -4   -1    0    0    0  501 -0.00000000000E+00 -0.00000000000E+00 -0.15862586972E+03  0.15863095362E+03  0.12700000000E+01 0.  1.
         25    2    1    2    0    0 -0.33503157907E+02 -0.77567982906E+01 -0.10426083470E+03  0.16636918476E+03  0.12500301787E+03 0.  0.
    9000005    1    3    3    0    0 -0.47207029568E+02  0.43902975366E+02 -0.21728461664E+02  0.68037496521E+02  0.10000000000E+01 0.  0.
    9000005    1    3    3    0    0  0.13703871661E+02 -0.51659773657E+02 -0.82532373041E+02  0.98331688242E+02  0.10000000000E+01 0.  0.
         -4    1    1    2    0  502  0.33503157907E+02  0.77567982906E+01 -0.10614242751E+02  0.36012561123E+02  0.12700000000E+01 0. -1.
<mgrwt>
<rscale>  1 0.12964715E+03</rscale>
<asrwt>0</asrwt>
<pdfrwt beam="1">  1       21 0.67308912E-02 0.12964715E+03</pdfrwt>
<pdfrwt beam="2">  1       -4 0.24405789E-01 0.12964715E+03</pdfrwt>
<totfact> 0.10132819E+05</totfact>
</mgrwt>
</event>
<event>
 6    4  0.3995738E-003  0.1274463E+03  0.7818608E-02  0.1231295E+00
         21   -1    0    0  501  502  0.00000000000E+00  0.00000000000E+00  0.92375407511E+02  0.92375407511E+02  0.00000000000E+00 0. -1.
          4   -1    0    0  502    0 -0.00000000000E+00 -0.00000000000E+00 -0.12725953476E+03  0.12726587165E+03  0.12700000000E+01 0.  1.
         25    2    1    2    0    0  0.14704625106E+02  0.19992650875E+02 -0.92113340649E+02  0.15724955010E+03  0.12500648540E+03 0.  0.
    9000005    1    3    3    0    0  0.16824897242E+02 -0.33661989018E+02  0.12490932791E+02  0.39663964424E+02  0.10000000000E+01 0.  0.
    9000005    1    3    3    0    0 -0.21202721365E+01  0.53654639893E+02 -0.10460427344E+03  0.11758558567E+03  0.10000000000E+01 0.  0.
          4    1    1    2  501    0 -0.14704625106E+02 -0.19992650875E+02  0.57229213404E+02  0.62391729062E+02  0.12700000000E+01 0. -1.
<mgrwt>
<rscale>  1 0.12744628E+03</rscale>
<asrwt>0</asrwt>
<pdfrwt beam="1">  1       21 0.14211601E-01 0.12744628E+03</pdfrwt>
<pdfrwt beam="2">  1        4 0.19579549E-01 0.12744628E+03</pdfrwt>
<totfact> 0.40846241E+04</totfact>
</mgrwt>
</event>
<event>
 6    4  0.3995738E-003  0.1266000E+03  0.7818608E-02  0.1232590E+00
         21   -1    0    0  501  502  0.00000000000E+00  0.00000000000E+00  0.66179824436E+01  0.66179824436E+01  0.00000000000E+00 0. -1.
         -4   -1    0    0    0  501 -0.00000000000E+00 -0.00000000000E+00 -0.11861387394E+04  0.11861394193E+04  0.12700000000E+01 0.  1.
         25    2    1    2    0    0 -0.34982586995E+01 -0.19727842768E+02 -0.11506444568E+04  0.11575881082E+04  0.12500454706E+03 0.  0.
    9000005    1    3    3    0    0  0.50831944437E+02 -0.28216782736E+02 -0.32853321935E+03  0.33363925072E+03  0.10000000000E+01 0.  0.
    9000005    1    3    3    0    0 -0.54330203137E+02  0.84889399685E+01 -0.82211123744E+03  0.82394885751E+03  0.10000000000E+01 0.  0.
         -4    1    1    2    0  502  0.34982586995E+01  0.19727842768E+02 -0.28876300151E+02  0.35169293490E+02  0.12700000000E+01 0. -1.
<mgrwt>
<rscale>  1 0.12660001E+03</rscale>
<asrwt>0</asrwt>
<pdfrwt beam="1">  1       21 0.10181520E-02 0.12660001E+03</pdfrwt>
<pdfrwt beam="2">  1       -4 0.18249216E+00 0.12660001E+03</pdfrwt>
<totfact> 0.27736729E+04</totfact>
</mgrwt>
</event>
<event>
 6    4  0.3995738E-003  0.1277169E+03  0.7818608E-02  0.1230883E+00
          4   -1    0    0  502    0 -0.00000000000E+00  0.00000000000E+00  0.33792722745E+03  0.33792961390E+03  0.12700000000E+01 0.  1.
         21   -1    0    0  501  502  0.00000000000E+00 -0.00000000000E+00 -0.34387587923E+02  0.34387587923E+02  0.00000000000E+00 0. -1.
         25    2    1    2    0    0 -0.12643553110E+01  0.26200026625E+02  0.31775066182E+03  0.34245742881E+03  0.12499426975E+03 0.  0.
    9000005    1    3    3    0    0  0.60441477962E+02  0.14160515076E+02  0.12255010542E+03  0.13737984126E+03  0.10000000000E+01 0.  0.
    9000005    1    3    3    0    0 -0.61705833273E+02  0.12039511549E+02  0.19520055640E+03  0.20507758755E+03  0.10000000000E+01 0.  0.
          4    1    1    2  501    0  0.12643553110E+01 -0.26200026625E+02 -0.14211022297E+02  0.29859773011E+02  0.12700000000E+01 0. -1.
<mgrwt>
<rscale>  1 0.12771690E+03</rscale>
<asrwt>0</asrwt>
<pdfrwt beam="2">  1       21 0.52903984E-02 0.12771690E+03</pdfrwt>
<pdfrwt beam="1">  1        4 0.51990790E-01 0.12771690E+03</pdfrwt>
<totfact> 0.35174374E+04</totfact>
</mgrwt>
</event>
<event>
 6    4  0.3995738E-003  0.1292752E+03  0.7818608E-02  0.1228535E+00
         -4   -1    0    0    0  501 -0.00000000000E+00  0.00000000000E+00  0.72489415748E+03  0.72489526999E+03  0.12700000000E+01 0. -1.
         21   -1    0    0  501  502  0.00000000000E+00 -0.00000000000E+00 -0.12552411951E+02  0.12552411951E+02  0.00000000000E+00 0.  1.
         25    2    1    2    0    0  0.12084418078E+02  0.30678289486E+02  0.67645392565E+03  0.68869587047E+03  0.12499959145E+03 0.  0.
    9000005    1    3    3    0    0 -0.30316276436E+02 -0.37861601380E+02  0.27099523516E+03  0.27530345976E+03  0.10000000000E+01 0.  0.
    9000005    1    3    3    0    0  0.42400694514E+02  0.68539890866E+02  0.40545869049E+03  0.41339241071E+03  0.10000000000E+01 0.  0.
         -4    1    1    2    0  502 -0.12084418078E+02 -0.30678289486E+02  0.35887819878E+02  0.48751811471E+02  0.12700000000E+01 0.  1.
<mgrwt>
<rscale>  1 0.12927524E+03</rscale>
<asrwt>0</asrwt>
<pdfrwt beam="2">  1       21 0.19311409E-02 0.12927524E+03</pdfrwt>
<pdfrwt beam="1">  1       -4 0.11152717E+00 0.12927524E+03</pdfrwt>
<totfact> 0.34674259E+04</totfact>
</mgrwt>
</event>
<event>
 6    4  0.3995738E-003  0.1270044E+03  0.7818608E-02  0.1231970E+00
          4   -1    0    0  502    0 -0.00000000000E+00  0.00000000000E+00  0.38821792822E+03  0.38822000553E+03  0.12700000000E+01 0.  1.
         21   -1    0    0  501  502  0.00000000000E+00 -0.00000000000E+00 -0.17341505272E+02  0.17341505272E+02  0.00000000000E+00 0.  1.
         25    2    1    2    0    0 -0.20605301771E+02 -0.91880254885E+01  0.35729761497E+03  0.37919874920E+03  0.12498442884E+03 0.  0.
    9000005    1    3    3    0    0 -0.46623742833E+02 -0.27070696222E+02  0.61798396228E+02  0.82016082363E+02  0.10000000000E+01 0.  0.
    9000005    1    3    3    0    0  0.26018441062E+02  0.17882670734E+02  0.29549921874E+03  0.29718266683E+03  0.10000000000E+01 0.  0.
          4    1    1    2  501    0  0.20605301771E+02  0.91880254885E+01  0.13578807980E+02  0.26362761608E+02  0.12700000000E+01 0. -1.
<mgrwt>
<rscale>  1 0.12700435E+03</rscale>
<asrwt>0</asrwt>
<pdfrwt beam="2">  1       21 0.26679242E-02 0.12700435E+03</pdfrwt>
<pdfrwt beam="1">  1        4 0.59729566E-01 0.12700435E+03</pdfrwt>
<totfact> 0.81957888E+04</totfact>
</mgrwt>
</event>
<event>
 6    4  0.3995738E-003  0.1269728E+03  0.7818608E-02  0.1232018E+00
         21   -1    0    0  501  502  0.00000000000E+00  0.00000000000E+00  0.13172351755E+03  0.13172351755E+03  0.00000000000E+00 0.  1.
         -4   -1    0    0    0  501 -0.00000000000E+00 -0.00000000000E+00 -0.48317853011E+02  0.48334540648E+02  0.12700000000E+01 0.  1.
         25    2    1    2    0    0  0.19867622380E+02  0.10159453508E+02  0.43314259067E+02  0.13415739799E+03  0.12499658189E+03 0.  0.
    9000005    1    3    3    0    0 -0.19557225867E+02  0.56465857176E+02  0.48546779056E+00  0.59767163135E+02  0.10000000000E+01 0.  0.
    9000005    1    3    3    0    0  0.39424848247E+02 -0.46306403668E+02  0.42828791277E+02  0.74390234858E+02  0.10000000000E+01 0.  0.
         -4    1    1    2    0  502 -0.19867622380E+02 -0.10159453508E+02  0.40091405475E+02  0.45900660209E+02  0.12700000000E+01 0. -1.
<mgrwt>
<rscale>  1 0.12697276E+03</rscale>
<asrwt>0</asrwt>
<pdfrwt beam="1">  1       21 0.20265156E-01 0.12697276E+03</pdfrwt>
<pdfrwt beam="2">  1       -4 0.74352705E-02 0.12697276E+03</pdfrwt>
<totfact> 0.11228956E+05</totfact>
</mgrwt>
</event>
<event>
 6    4  0.3995738E-003  0.1279973E+03  0.7818608E-02  0.1230458E+00
          4   -1    0    0  502    0 -0.00000000000E+00  0.00000000000E+00  0.18801568362E+03  0.18801997284E+03  0.12700000000E+01 0. -1.
         21   -1    0    0  501  502  0.00000000000E+00 -0.00000000000E+00 -0.36014915177E+02  0.36014915177E+02  0.00000000000E+00 0. -1.
         25    2    1    2    0    0 -0.24187226244E+02 -0.13079720319E+02  0.14887076263E+03  0.19633090214E+03  0.12500887238E+03 0.  0.
    9000005    1    3    3    0    0  0.23730345095E+02  0.33829713926E+02  0.11290042306E+03  0.12022929905E+03  0.10000000000E+01 0.  0.
    9000005    1    3    3    0    0 -0.47917571339E+02 -0.46909434246E+02  0.35970339569E+02  0.76101603090E+02  0.10000000000E+01 0.  0.
          4    1    1    2  501    0  0.24187226244E+02  0.13079720319E+02  0.31300058105E+01  0.27703985875E+02  0.12700000000E+01 0.  1.
<mgrwt>
<rscale>  1 0.12799734E+03</rscale>
<asrwt>0</asrwt>
<pdfrwt beam="2">  1       21 0.55407563E-02 0.12799734E+03</pdfrwt>
<pdfrwt beam="1">  1        4 0.28927541E-01 0.12799734E+03</pdfrwt>
<totfact> 0.10260425E+05</totfact>
</mgrwt>
</event>
<event>
 6    4  0.3995738E-003  0.1271591E+03  0.7818608E-02  0.1231733E+00
         21   -1    0    0  501  502  0.00000000000E+00  0.00000000000E+00  0.49021132392E+02  0.49021132392E+02  0.00000000000E+00 0.  1.
          4   -1    0    0  502    0 -0.00000000000E+00 -0.00000000000E+00 -0.11648265533E+03  0.11648957847E+03  0.12700000000E+01 0.  1.
         25    2    1    2    0    0 -0.10059685712E+02 -0.21056841156E+02 -0.62192032926E+02  0.14155307615E+03  0.12499934629E+03 0.  0.
    9000005    1    3    3    0    0 -0.27903871640E+02 -0.38692795126E+02 -0.91357955830E+02  0.10306810632E+03  0.10000000000E+01 0.  0.
    9000005    1    3    3    0    0  0.17844185928E+02  0.17635953970E+02  0.29165922904E+02  0.38484969828E+02  0.10000000000E+01 0.  0.
          4    1    1    2  501    0  0.10059685712E+02  0.21056841156E+02 -0.52694900101E+01  0.23957634713E+02  0.12700000000E+01 0. -1.
<mgrwt>
<rscale>  1 0.12715905E+03</rscale>
<asrwt>0</asrwt>
<pdfrwt beam="1">  1       21 0.75417128E-02 0.12715905E+03</pdfrwt>
<pdfrwt beam="2">  1        4 0.17922206E-01 0.12715905E+03</pdfrwt>
<totfact> 0.14524857E+05</totfact>
</mgrwt>
</event>
<event>
 6    4  0.3995738E-003  0.1268177E+03  0.7818608E-02  0.1232256E+00
         -4   -1    0    0    0  501 -0.00000000000E+00  0.00000000000E+00  0.93834081245E+02  0.93842675277E+02  0.12700000000E+01 0.  1.
         21   -1    0    0  501  502  0.00000000000E+00 -0.00000000000E+00 -0.60203083150E+02  0.60203083150E+02  0.00000000000E+00 0.  1.
         25    2    1    2    0    0  0.15473932942E+02 -0.14777204849E+02  0.37541940873E+02  0.13225776271E+03  0.12499964036E+03 0.  0.
    9000005    1    3    3    0    0 -0.18865852916E+02 -0.52848509484E+01  0.76781301674E+02  0.79247828630E+02  0.10000000000E+01 0.  0.
    9000005    1    3    3    0    0  0.34339785858E+02 -0.94923539007E+01 -0.39239360801E+02  0.53009934082E+02  0.10000000000E+01 0.  0.
         -4    1    1    2    0  502 -0.15473932942E+02  0.14777204849E+02 -0.39109427784E+01  0.21787995714E+02  0.12700000000E+01 0. -1.
<mgrwt>
<rscale>  1 0.12681766E+03</rscale>
<asrwt>0</asrwt>
<pdfrwt beam="2">  1       21 0.92620128E-02 0.12681766E+03</pdfrwt>
<pdfrwt beam="1">  1       -4 0.14437704E-01 0.12681766E+03</pdfrwt>
<totfact> 0.14878674E+05</totfact>
</mgrwt>
</event>
<event>
 6    4  0.3995738E-003  0.1279422E+03  0.7818608E-02  0.1230541E+00
         -4   -1    0    0    0  501 -0.00000000000E+00  0.00000000000E+00  0.64239103081E+02  0.64251655735E+02  0.12700000000E+01 0.  1.
         21   -1    0    0  501  502  0.00000000000E+00 -0.00000000000E+00 -0.11386376379E+03  0.11386376379E+03  0.00000000000E+00 0.  1.
         25    2    1    2    0    0  0.22117430939E+02  0.15956467012E+02 -0.78146045692E+01  0.12818062920E+03  0.12500166425E+03 0.  0.
    9000005    1    3    3    0    0 -0.20095875101E+02 -0.42978077929E+02  0.18668953098E+02  0.50994991796E+02  0.10000000000E+01 0.  0.
    9000005    1    3    3    0    0  0.42213306040E+02  0.58934544941E+02 -0.26483557667E+02  0.77185637400E+02  0.10000000000E+01 0.  0.
         -4    1    1    2    0  502 -0.22117430939E+02 -0.15956467012E+02 -0.41810056144E+02  0.49934790334E+02  0.12700000000E+01 0. -1.
<mgrwt>
<rscale>  1 0.12794220E+03</rscale>
<asrwt>0</asrwt>
<pdfrwt beam="2">  1       21 0.17517502E-01 0.12794220E+03</pdfrwt>
<pdfrwt beam="1">  1       -4 0.98844494E-02 0.12794220E+03</pdfrwt>
<totfact> 0.91505651E+04</totfact>
</mgrwt>
</event>
<event>
 6    4  0.3995738E-003  0.1308697E+03  0.7818608E-02  0.1226171E+00
          4   -1    0    0  502    0 -0.00000000000E+00  0.00000000000E+00  0.15675643541E+02  0.15727005450E+02  0.12700000000E+01 0.  1.
         21   -1    0    0  501  502  0.00000000000E+00 -0.00000000000E+00 -0.46886656613E+03  0.46886656613E+03  0.00000000000E+00 0. -1.
         25    2    1    2    0    0 -0.35220511324E+02  0.16145228839E+02 -0.31591437495E+03  0.34194850064E+03  0.12500292779E+03 0.  0.
    9000005    1    3    3    0    0  0.14231349849E+02  0.34305896861E+01 -0.27789085532E+03  0.27827796846E+03  0.10000000000E+01 0.  0.
    9000005    1    3    3    0    0 -0.49451861173E+02  0.12714639153E+02 -0.38023519638E+02  0.63670532179E+02  0.10000000000E+01 0.  0.
          4    1    1    2  501    0  0.35220511324E+02 -0.16145228839E+02 -0.13727654764E+03  0.14264507094E+03  0.12700000000E+01 0. -1.
<mgrwt>
<rscale>  1 0.13086972E+03</rscale>
<asrwt>0</asrwt>
<pdfrwt beam="2">  1       21 0.72133310E-01 0.13086972E+03</pdfrwt>
<pdfrwt beam="1">  1        4 0.24157210E-02 0.13086972E+03</pdfrwt>
<totfact> 0.53482690E+04</totfact>
</mgrwt>
</event>
<event>
 6    4  0.3995738E-003  0.1266179E+03  0.7818608E-02  0.1232562E+00
         -4   -1    0    0    0  501 -0.00000000000E+00  0.00000000000E+00  0.13465602670E+03  0.13466201553E+03  0.12700000000E+01 0.  1.
         21   -1    0    0  501  502  0.00000000000E+00 -0.00000000000E+00 -0.40393064215E+02  0.40393064215E+02  0.00000000000E+00 0.  1.
         25    2    1    2    0    0  0.14446917404E+02 -0.14075876520E+02  0.86788978308E+02  0.15350706216E+03  0.12500099062E+03 0.  0.
    9000005    1    3    3    0    0  0.38524646183E+02  0.35403336342E+02  0.83283298550E+02  0.98359810925E+02  0.10000000000E+01 0.  0.
    9000005    1    3    3    0    0 -0.24077728779E+02 -0.49479212863E+02  0.35056797581E+01  0.55147251239E+02  0.10000000000E+01 0.  0.
         -4    1    1    2    0  502 -0.14446917404E+02  0.14075876520E+02  0.74739841782E+01  0.21548017584E+02  0.12700000000E+01 0. -1.
<mgrwt>
<rscale>  1 0.12661790E+03</rscale>
<asrwt>0</asrwt>
<pdfrwt beam="2">  1       21 0.62143177E-02 0.12661790E+03</pdfrwt>
<pdfrwt beam="1">  1       -4 0.20718308E-01 0.12661790E+03</pdfrwt>
<totfact> 0.15587238E+05</totfact>
</mgrwt>
</event>
<event>
 6    4  0.3995738E-003  0.1298382E+03  0.7818608E-02  0.1227696E+00
         -4   -1    0    0    0  501 -0.00000000000E+00  0.00000000000E+00  0.33012217128E+02  0.33036636931E+02  0.12700000000E+01 0. -1.
         21   -1    0    0  501  502  0.00000000000E+00 -0.00000000000E+00 -0.21542199981E+03  0.21542199981E+03  0.00000000000E+00 0. -1.
         25    2    1    2    0    0  0.53188521028E+01  0.34670904908E+02 -0.16286017052E+03  0.20828200086E+03  0.12501037919E+03 0.  0.
    9000005    1    3    3    0    0 -0.49051953643E+02  0.91272515971E+01 -0.13119937791E+03  0.14036978892E+03  0.10000000000E+01 0.  0.
    9000005    1    3    3    0    0  0.54370805746E+02  0.25543653311E+02 -0.31660792614E+02  0.67912211942E+02  0.10000000000E+01 0.  0.
         -4    1    1    2    0  502 -0.53188521028E+01 -0.34670904908E+02 -0.19549612159E+02  0.40176635877E+02  0.12700000000E+01 0.  1.
<mgrwt>
<rscale>  1 0.12983819E+03</rscale>
<asrwt>0</asrwt>
<pdfrwt beam="2">  1       21 0.33141846E-01 0.12983819E+03</pdfrwt>
<pdfrwt beam="1">  1       -4 0.50809690E-02 0.12983819E+03</pdfrwt>
<totfact> 0.82215277E+04</totfact>
</mgrwt>
</event>
<event>
 6    4  0.3995738E-003  0.1274205E+03  0.7818608E-02  0.1231334E+00
         21   -1    0    0  501  502  0.00000000000E+00  0.00000000000E+00  0.22213989937E+02  0.22213989937E+02  0.00000000000E+00 0. -1.
          4   -1    0    0  502    0 -0.00000000000E+00 -0.00000000000E+00 -0.26215358160E+03  0.26215665783E+03  0.12700000000E+01 0. -1.
         25    2    1    2    0    0 -0.18857540403E+02 -0.15973597612E+02 -0.20861246194E+03  0.24444866626E+03  0.12500091404E+03 0.  0.
    9000005    1    3    3    0    0 -0.34020327957E+02  0.43067043006E+02 -0.15060469821E+03  0.16029637560E+03  0.10000000000E+01 0.  0.
    9000005    1    3    3    0    0  0.15162787554E+02 -0.59040640618E+02 -0.58007763734E+02  0.84152290666E+02  0.10000000000E+01 0.  0.
          4    1    1    2  501    0  0.18857540403E+02  0.15973597612E+02 -0.31327129726E+02  0.39921981509E+02  0.12700000000E+01 0.  1.
<mgrwt>
<rscale>  1 0.12742053E+03</rscale>
<asrwt>0</asrwt>
<pdfrwt beam="1">  1       21 0.34175367E-02 0.12742053E+03</pdfrwt>
<pdfrwt beam="2">  1        4 0.40334352E-01 0.12742053E+03</pdfrwt>
<totfact> 0.12118776E+05</totfact>
</mgrwt>
</event>
<event>
 6    4  0.3995738E-003  0.1332844E+03  0.7818608E-02  0.1222662E+00
         -4   -1    0    0    0  501 -0.00000000000E+00  0.00000000000E+00  0.75531774507E+02  0.75542450716E+02  0.12700000000E+01 0. -1.
         21   -1    0    0  501  502  0.00000000000E+00 -0.00000000000E+00 -0.20627049894E+03  0.20627049894E+03  0.00000000000E+00 0.  1.
         25    2    1    2    0    0  0.39094935862E+02  0.24701447993E+02  0.10006614702E+02  0.13365951928E+03  0.12500463677E+03 0.  0.
    9000005    1    3    3    0    0 -0.11808103532E+02  0.25500815564E+02 -0.48522117910E+02  0.56081359023E+02  0.10000000000E+01 0.  0.
    9000005    1    3    3    0    0  0.50903039394E+02 -0.79936757079E+00  0.58528732612E+02  0.77578160260E+02  0.10000000000E+01 0.  0.
         -4    1    1    2    0  502 -0.39094935862E+02 -0.24701447993E+02 -0.14074533914E+03  0.14815343038E+03  0.12700000000E+01 0.  1.
<mgrwt>
<rscale>  1 0.13328441E+03</rscale>
<asrwt>0</asrwt>
<pdfrwt beam="2">  1       21 0.31733923E-01 0.13328441E+03</pdfrwt>
<pdfrwt beam="1">  1       -4 0.11621395E-01 0.13328441E+03</pdfrwt>
<totfact> 0.22860806E+04</totfact>
</mgrwt>
</event>
<event>
 6    4  0.3995738E-003  0.1337259E+03  0.7818608E-02  0.1222030E+00
         21   -1    0    0  501  502  0.00000000000E+00  0.00000000000E+00  0.21051616622E+04  0.21051616622E+04  0.00000000000E+00 0.  1.
          4   -1    0    0  502    0 -0.00000000000E+00 -0.00000000000E+00 -0.14651506606E+02  0.14706445724E+02  0.12700000000E+01 0. -1.
         25    2    1    2    0    0  0.35094847057E+02 -0.32032801949E+02  0.29687341061E+03  0.32560164651E+03  0.12499944637E+03 0.  0.
    9000005    1    3    3    0    0  0.30817938553E+02  0.34657322942E+02  0.43612493612E+02  0.63670440310E+02  0.10000000000E+01 0.  0.
    9000005    1    3    3    0    0  0.42769085036E+01 -0.66690124891E+02  0.25326091700E+03  0.26193120620E+03  0.10000000000E+01 0.  0.
          4    1    1    2  501    0 -0.35094847057E+02  0.32032801949E+02  0.17936367450E+04  0.17942664614E+04  0.12700000000E+01 0.  1.
<mgrwt>
<rscale>  1 0.13372588E+03</rscale>
<asrwt>0</asrwt>
<pdfrwt beam="1">  1       21 0.32387079E+00 0.13372588E+03</pdfrwt>
<pdfrwt beam="2">  1        4 0.22583352E-02 0.13372588E+03</pdfrwt>
<totfact> 0.91488800E+02</totfact>
</mgrwt>
</event>
<event>
 6    4  0.3995738E-003  0.1292699E+03  0.7818608E-02  0.1228543E+00
         -4   -1    0    0    0  501 -0.00000000000E+00  0.00000000000E+00  0.35459876862E+02  0.35482612179E+02  0.12700000000E+01 0. -1.
         21   -1    0    0  501  502  0.00000000000E+00 -0.00000000000E+00 -0.79784303481E+03  0.79784303481E+03  0.00000000000E+00 0.  1.
         25    2    1    2    0    0 -0.22223903057E+02 -0.24330697102E+02 -0.84050976916E+02  0.15419234239E+03  0.12499930817E+03 0.  0.
    9000005    1    3    3    0    0 -0.39983176211E+02  0.43098897247E+02 -0.46675318001E+02  0.75071663324E+02  0.10000000000E+01 0.  0.
    9000005    1    3    3    0    0  0.17759273153E+02 -0.67429594349E+02 -0.37375658915E+02  0.79120679069E+02  0.10000000000E+01 0.  0.
         -4    1    1    2    0  502  0.22223903057E+02  0.24330697102E+02 -0.67833218103E+03  0.67913330459E+03  0.12700000000E+01 0.  1.
<mgrwt>
<rscale>  1 0.12926992E+03</rscale>
<asrwt>0</asrwt>
<pdfrwt beam="2">  1       21 0.12274508E+00 0.12926992E+03</pdfrwt>
<pdfrwt beam="1">  1       -4 0.54571923E-02 0.12926992E+03</pdfrwt>
<totfact> 0.43085672E+03</totfact>
</mgrwt>
</event>
<event>
 6    4  0.3995738E-003  0.1310026E+03  0.7818608E-02  0.1225976E+00
          4   -1    0    0  502    0 -0.00000000000E+00  0.00000000000E+00  0.15319754715E+03  0.15320281118E+03  0.12700000000E+01 0.  1.
         21   -1    0    0  501  502  0.00000000000E+00 -0.00000000000E+00 -0.75611786823E+02  0.75611786823E+02  0.00000000000E+00 0. -1.
         25    2    1    2    0    0  0.32593694331E+02 -0.21786724604E+02  0.11521413157E+03  0.17445912448E+03  0.12499871889E+03 0.  0.
    9000005    1    3    3    0    0 -0.35818979521E+02  0.28486598628E+02  0.46277454679E+02  0.65092921327E+02  0.10000000000E+01 0.  0.
    9000005    1    3    3    0    0  0.68412673852E+02 -0.50273323233E+02  0.68936676887E+02  0.10936620316E+03  0.10000000000E+01 0.  0.
          4    1    1    2  501    0 -0.32593694331E+02  0.21786724604E+02 -0.37628371240E+02  0.54355473517E+02  0.12700000000E+01 0. -1.
<mgrwt>
<rscale>  1 0.13100263E+03</rscale>
<asrwt>0</asrwt>
<pdfrwt beam="2">  1       21 0.11632583E-01 0.13100263E+03</pdfrwt>
<pdfrwt beam="1">  1        4 0.23570079E-01 0.13100263E+03</pdfrwt>
<totfact> 0.41836526E+04</totfact>
</mgrwt>
</event>
<event>
 6    4  0.3995738E-003  0.1528763E+03  0.7818608E-02  0.1196983E+00
         21   -1    0    0  501  502  0.00000000000E+00  0.00000000000E+00  0.54203490163E+03  0.54203490163E+03  0.00000000000E+00 0. -1.
          4   -1    0    0  502    0 -0.00000000000E+00 -0.00000000000E+00 -0.72532279416E+02  0.72543397062E+02  0.12700000000E+01 0.  1.
         25    2    1    2    0    0  0.28672056295E+02  0.83212472401E+02  0.17258240023E+02  0.15384736149E+03  0.12499904565E+03 0.  0.
    9000005    1    3    3    0    0  0.22236052605E+02  0.11073171075E+03 -0.11479772136E+02  0.11352858217E+03  0.10000000000E+01 0.  0.
    9000005    1    3    3    0    0  0.64360036895E+01 -0.27519238349E+02  0.28738012160E+02  0.40318779318E+02  0.10000000000E+01 0.  0.
          4    1    1    2  501    0 -0.28672056295E+02 -0.83212472401E+02  0.45224438219E+03  0.46073093720E+03  0.12700000000E+01 0. -1.
<mgrwt>
<rscale>  1 0.15287630E+03</rscale>
<asrwt>0</asrwt>
<pdfrwt beam="1">  1       21 0.83389982E-01 0.15287630E+03</pdfrwt>
<pdfrwt beam="2">  1        4 0.11159782E-01 0.15287630E+03</pdfrwt>
<totfact> 0.32935818E+03</totfact>
</mgrwt>
</event>
<event>
 6    4  0.3995738E-003  0.1275071E+03  0.7818608E-02  0.1231202E+00
          4   -1    0    0  502    0 -0.00000000000E+00  0.00000000000E+00  0.45531490316E+03  0.45531667435E+03  0.12700000000E+01 0.  1.
         21   -1    0    0  501  502  0.00000000000E+00 -0.00000000000E+00 -0.12996329785E+02  0.12996329785E+02  0.00000000000E+00 0.  1.
         25    2    1    2    0    0  0.68215101001E+01  0.24221911260E+02  0.38848324479E+03  0.40887320695E+03  0.12499933558E+03 0.  0.
    9000005    1    3    3    0    0 -0.53672430726E+02 -0.46921859620E+00  0.10466702745E+03  0.11763135901E+03  0.10000000000E+01 0.  0.
    9000005    1    3    3    0    0  0.60493940826E+02  0.24691129856E+02  0.28381621733E+03  0.29124184794E+03  0.10000000000E+01 0.  0.
          4    1    1    2  501    0 -0.68215101001E+01 -0.24221911260E+02  0.53835328587E+02  0.59439797184E+02  0.12700000000E+01 0. -1.
<mgrwt>
<rscale>  1 0.12750713E+03</rscale>
<asrwt>0</asrwt>
<pdfrwt beam="2">  1       21 0.19994357E-02 0.12750713E+03</pdfrwt>
<pdfrwt beam="1">  1        4 0.70053343E-01 0.12750713E+03</pdfrwt>
<totfact> 0.93309929E+04</totfact>
</mgrwt>
</event>
<event>
 6    4  0.3995738E-003  0.1285180E+03  0.7818608E-02  0.1229672E+00
          4   -1    0    0  502    0 -0.00000000000E+00  0.00000000000E+00  0.59535631573E+03  0.59535767030E+03  0.12700000000E+01 0.  1.
         21   -1    0    0  501  502  0.00000000000E+00 -0.00000000000E+00 -0.13241840778E+02  0.13241840778E+02  0.00000000000E+00 0. -1.
         25    2    1    2    0    0  0.18366541242E+01  0.29861931193E+02  0.54947431884E+03  0.56430390267E+03  0.12498703640E+03 0.  0.
    9000005    1    3    3    0    0 -0.86082895515E+00  0.41273862062E+02  0.55090299771E+03  0.55244853661E+03  0.10000000000E+01 0.  0.
    9000005    1    3    3    0    0  0.26974830794E+01 -0.11411930869E+02 -0.14286788682E+01  0.11855366061E+02  0.10000000000E+01 0.  0.
          4    1    1    2  501    0 -0.18366541242E+01 -0.29861931193E+02  0.32640156114E+02  0.44295608407E+02  0.12700000000E+01 0. -1.
<mgrwt>
<rscale>  1 0.12851797E+03</rscale>
<asrwt>0</asrwt>
<pdfrwt beam="2">  1       21 0.20372067E-02 0.12851797E+03</pdfrwt>
<pdfrwt beam="1">  1        4 0.91598048E-01 0.12851797E+03</pdfrwt>
<totfact> 0.50128490E+04</totfact>
</mgrwt>
</event>
<event>
 6    4  0.3995738E-003  0.1301318E+03  0.7818608E-02  0.1227260E+00
          4   -1    0    0  502    0 -0.00000000000E+00  0.00000000000E+00  0.29506815526E+02  0.29534133853E+02  0.12700000000E+01 0.  1.
         21   -1    0    0  501  502  0.00000000000E+00 -0.00000000000E+00 -0.68228592895E+03  0.68228592895E+03  0.00000000000E+00 0. -1.
         25    2    1    2    0    0 -0.19480936579E+02  0.30532871481E+02 -0.11754350602E+03  0.17535894449E+03  0.12499008150E+03 0.  0.
    9000005    1    3    3    0    0  0.74113568828E+01  0.63227520053E+02 -0.11677802437E+03  0.13300659562E+03  0.10000000000E+01 0.  0.
    9000005    1    3    3    0    0 -0.26892293462E+02 -0.32694648572E+02 -0.76548165578E+00  0.42352348873E+02  0.10000000000E+01 0.  0.
          4    1    1    2  501    0  0.19480936579E+02 -0.30532871481E+02 -0.53523560741E+03  0.53646111832E+03  0.12700000000E+01 0. -1.
<mgrwt>
<rscale>  1 0.13013179E+03</rscale>
<asrwt>0</asrwt>
<pdfrwt beam="2">  1       21 0.10496707E+00 0.13013179E+03</pdfrwt>
<pdfrwt beam="1">  1        4 0.45417024E-02 0.13013179E+03</pdfrwt>
<totfact> 0.84350025E+03</totfact>
</mgrwt>
</event>
<event>
 6    4  0.3995738E-003  0.1273112E+03  0.7818608E-02  0.1231501E+00
         21   -1    0    0  501  502  0.00000000000E+00  0.00000000000E+00  0.64302107349E+02  0.64302107349E+02  0.00000000000E+00 0. -1.
          4   -1    0    0  502    0 -0.00000000000E+00 -0.00000000000E+00 -0.11610114676E+03  0.11610809265E+03  0.12700000000E+01 0. -1.
         25    2    1    2    0    0  0.46649826132E+01  0.23641778765E+02 -0.74308318218E+02  0.14741055912E+03  0.12500980369E+03 0.  0.
    9000005    1    3    3    0    0  0.46249487971E+02 -0.19795272825E+01  0.12357637040E+02  0.47923322705E+02  0.10000000000E+01 0.  0.
    9000005    1    3    3    0    0 -0.41584505358E+02  0.25621306047E+02 -0.86665955258E+02  0.99487236419E+02  0.10000000000E+01 0.  0.
          4    1    1    2  501    0 -0.46649826132E+01 -0.23641778765E+02  0.22509278804E+02  0.32999640880E+02  0.12700000000E+01 0.  1.
<mgrwt>
<rscale>  1 0.12731122E+03</rscale>
<asrwt>0</asrwt>
<pdfrwt beam="1">  1       21 0.98926320E-02 0.12731122E+03</pdfrwt>
<pdfrwt beam="2">  1        4 0.17863214E-01 0.12731122E+03</pdfrwt>
<totfact> 0.91332187E+04</totfact>
</mgrwt>
</event>
<event>
 6    4  0.3995738E-003  0.1270019E+03  0.7818608E-02  0.1231973E+00
         -4   -1    0    0    0  501 -0.00000000000E+00  0.00000000000E+00  0.60347169722E+02  0.60360531753E+02  0.12700000000E+01 0.  1.
         21   -1    0    0  501  502  0.00000000000E+00 -0.00000000000E+00 -0.10052091362E+03  0.10052091362E+03  0.00000000000E+00 0.  1.
         25    2    1    2    0    0  0.42503351959E-01 -0.22472724917E+02 -0.16256256414E+02  0.12803811608E+03  0.12499787248E+03 0.  0.
    9000005    1    3    3    0    0  0.20138924121E+02 -0.68582439283E+02 -0.27318823019E+02  0.76527415571E+02  0.10000000000E+01 0.  0.
    9000005    1    3    3    0    0 -0.20096420769E+02  0.46109714367E+02  0.11062566605E+02  0.51510700506E+02  0.10000000000E+01 0.  0.
         -4    1    1    2    0  502 -0.42503351959E-01  0.22472724917E+02 -0.23917487485E+02  0.32843329297E+02  0.12700000000E+01 0. -1.
<mgrwt>
<rscale>  1 0.12700194E+03</rscale>
<asrwt>0</asrwt>
<pdfrwt beam="2">  1       21 0.15464756E-01 0.12700194E+03</pdfrwt>
<pdfrwt beam="1">  1       -4 0.92858249E-02 0.12700194E+03</pdfrwt>
<totfact> 0.12729021E+05</totfact>
</mgrwt>
</event>
<event>
 6    4  0.3995738E-003  0.1283228E+03  0.7818608E-02  0.1229966E+00
          4   -1    0    0  502    0 -0.00000000000E+00  0.00000000000E+00  0.40169517422E+02  0.40189588576E+02  0.12700000000E+01 0. -1.
         21   -1    0    0  501  502  0.00000000000E+00 -0.00000000000E+00 -0.16102811620E+03  0.16102811620E+03  0.00000000000E+00 0. -1.
         25    2    1    2    0    0 -0.26740821166E+02  0.11175009065E+02 -0.80385832639E+02  0.15142202180E+03  0.12500717680E+03 0.  0.
    9000005    1    3    3    0    0 -0.68507417123E+02  0.29134030201E+01 -0.84282229844E+02  0.10865656163E+03  0.10000000000E+01 0.  0.
    9000005    1    3    3    0    0  0.41766595957E+02  0.82616060449E+01  0.38963972053E+01  0.42765460169E+02  0.10000000000E+01 0.  0.
          4    1    1    2  501    0  0.26740821166E+02 -0.11175009065E+02 -0.40472766141E+02  0.49795682979E+02  0.12700000000E+01 0.  1.
<mgrwt>
<rscale>  1 0.12832282E+03</rscale>
<asrwt>0</asrwt>
<pdfrwt beam="2">  1       21 0.24773556E-01 0.12832282E+03</pdfrwt>
<pdfrwt beam="1">  1        4 0.61818550E-02 0.12832282E+03</pdfrwt>
<totfact> 0.10450176E+05</totfact>
</mgrwt>
</event>
<event>
 6    4  0.3995738E-003  0.1287533E+03  0.7818608E-02  0.1229317E+00
         -4   -1    0    0    0  501 -0.00000000000E+00  0.00000000000E+00  0.25915284371E+03  0.25915595556E+03  0.12700000000E+01 0. -1.
         21   -1    0    0  501  502  0.00000000000E+00 -0.00000000000E+00 -0.25102069760E+02  0.25102069760E+02  0.00000000000E+00 0. -1.
         25    2    1    2    0    0 -0.30608808492E+02  0.39567360169E+01  0.17105270760E+03  0.21409447224E+03  0.12499943739E+03 0.  0.
    9000005    1    3    3    0    0 -0.10878534448E+02  0.62651423328E+02  0.62793686405E+02  0.89373320455E+02  0.10000000000E+01 0.  0.
    9000005    1    3    3    0    0 -0.19730274044E+02 -0.58694687311E+02  0.10825902119E+03  0.12472115178E+03  0.10000000000E+01 0.  0.
         -4    1    1    2    0  502  0.30608808492E+02 -0.39567360169E+01  0.62998066354E+02  0.70163553085E+02  0.12700000000E+01 0.  1.
<mgrwt>
<rscale>  1 0.12875331E+03</rscale>
<asrwt>0</asrwt>
<pdfrwt beam="2">  1       21 0.38618571E-02 0.12875331E+03</pdfrwt>
<pdfrwt beam="1">  1       -4 0.39872377E-01 0.12875331E+03</pdfrwt>
<totfact> 0.10143925E+05</totfact>
</mgrwt>
</event>
<event>
 6    4  0.3995738E-003  0.1289677E+03  0.7818608E-02  0.1228995E+00
         21   -1    0    0  501  502  0.00000000000E+00  0.00000000000E+00  0.85860812473E+02  0.85860812473E+02  0.00000000000E+00 0. -1.
         -4   -1    0    0    0  501 -0.00000000000E+00 -0.00000000000E+00 -0.80844914695E+02  0.80854889351E+02  0.12700000000E+01 0.  1.
         25    2    1    2    0    0 -0.26977902630E+02  0.16725397185E+02 -0.13946000291E+02  0.12971958555E+03  0.12500053523E+03 0.  0.
    9000005    1    3    3    0    0 -0.20306778589E+01 -0.26332682959E+02 -0.57689791777E+02  0.63455858040E+02  0.10000000000E+01 0.  0.
    9000005    1    3    3    0    0 -0.24947224771E+02  0.43058080144E+02  0.43743791486E+02  0.66263727506E+02  0.10000000000E+01 0.  0.
         -4    1    1    2    0  502  0.26977902630E+02 -0.16725397185E+02  0.18961898069E+02  0.36996116278E+02  0.12700000000E+01 0. -1.
<mgrwt>
<rscale>  1 0.12896775E+03</rscale>
<asrwt>0</asrwt>
<pdfrwt beam="1">  1       21 0.13209356E-01 0.12896775E+03</pdfrwt>
<pdfrwt beam="2">  1       -4 0.12439169E-01 0.12896775E+03</pdfrwt>
<totfact> 0.10321258E+05</totfact>
</mgrwt>
</event>
<event>
 6    4  0.3995738E-003  0.1311237E+03  0.7818608E-02  0.1225798E+00
         21   -1    0    0  501  502  0.00000000000E+00  0.00000000000E+00  0.55247942424E+02  0.55247942424E+02  0.00000000000E+00 0. -1.
          4   -1    0    0  502    0 -0.00000000000E+00 -0.00000000000E+00 -0.18832193739E+03  0.18832621964E+03  0.12700000000E+01 0. -1.
         25    2    1    2    0    0  0.22573826924E+02  0.32524630026E+02 -0.15109375741E+03  0.20005687862E+03  0.12500400767E+03 0.  0.
    9000005    1    3    3    0    0 -0.39577445494E+02  0.28024209260E+02 -0.12197956096E+03  0.13126973676E+03  0.10000000000E+01 0.  0.
    9000005    1    3    3    0    0  0.62151272418E+02  0.45004207658E+01 -0.29114196452E+02  0.68787141860E+02  0.10000000000E+01 0.  0.
          4    1    1    2  501    0 -0.22573826924E+02 -0.32524630026E+02  0.18019762440E+02  0.43517283448E+02  0.12700000000E+01 0.  1.
<mgrwt>
<rscale>  1 0.13112372E+03</rscale>
<asrwt>0</asrwt>
<pdfrwt beam="1">  1       21 0.84996837E-02 0.13112372E+03</pdfrwt>
<pdfrwt beam="2">  1        4 0.28974057E-01 0.13112372E+03</pdfrwt>
<totfact> 0.49397065E+04</totfact>
</mgrwt>
</event>
<event>
 6    4  0.3995738E-003  0.1266990E+03  0.7818608E-02  0.1232438E+00
         21   -1    0    0  501  502  0.00000000000E+00  0.00000000000E+00  0.11118684856E+03  0.11118684856E+03  0.00000000000E+00 0.  1.
         -4   -1    0    0    0  501 -0.00000000000E+00 -0.00000000000E+00 -0.49424655132E+02  0.49440969195E+02  0.12700000000E+01 0.  1.
         25    2    1    2    0    0  0.19990751428E+02 -0.53480775789E+01  0.58821787521E+02  0.13968764194E+03  0.12499761016E+03 0.  0.
    9000005    1    3    3    0    0 -0.36265221394E+02  0.23816627153E+02  0.62632689725E+02  0.76198765304E+02  0.10000000000E+01 0.  0.
    9000005    1    3    3    0    0  0.56255972822E+02 -0.29164704732E+02 -0.38109022033E+01  0.63488876631E+02  0.10000000000E+01 0.  0.
         -4    1    1    2    0  502 -0.19990751428E+02  0.53480775789E+01  0.29404059065E+01  0.20940175820E+02  0.12700000000E+01 0. -1.
<mgrwt>
<rscale>  1 0.12669899E+03</rscale>
<asrwt>0</asrwt>
<pdfrwt beam="1">  1       21 0.17105669E-01 0.12669899E+03</pdfrwt>
<pdfrwt beam="2">  1       -4 0.76056060E-02 0.12669899E+03</pdfrwt>
<totfact> 0.14761341E+05</totfact>
</mgrwt>
</event>
<event>
 6    4  0.3995738E-003  0.1267058E+03  0.7818608E-02  0.1232427E+00
         21   -1    0    0  501  502  0.00000000000E+00  0.00000000000E+00  0.10524620257E+02  0.10524620257E+02  0.00000000000E+00 0.  1.
          4   -1    0    0  502    0 -0.00000000000E+00 -0.00000000000E+00 -0.60634913501E+03  0.60635046502E+03  0.12700000000E+01 0.  1.
         25    2    1    2    0    0 -0.10966683411E+02 -0.17581483381E+02 -0.56909994445E+03  0.58303439585E+03  0.12499993307E+03 0.  0.
    9000005    1    3    3    0    0 -0.22207008253E+02  0.42144099324E+02 -0.10929636249E+03  0.11923074762E+03  0.10000000000E+01 0.  0.
    9000005    1    3    3    0    0  0.11240324843E+02 -0.59725582705E+02 -0.45980358195E+03  0.46380364823E+03  0.10000000000E+01 0.  0.
          4    1    1    2  501    0  0.10966683411E+02  0.17581483381E+02 -0.26724570303E+02  0.33840689425E+02  0.12700000000E+01 0. -1.
<mgrwt>
<rscale>  1 0.12670580E+03</rscale>
<asrwt>0</asrwt>
<pdfrwt beam="1">  1       21 0.16191729E-02 0.12670580E+03</pdfrwt>
<pdfrwt beam="2">  1        4 0.93290449E-01 0.12670580E+03</pdfrwt>
<totfact> 0.69423971E+04</totfact>
</mgrwt>
</event>
<event>
 6    4  0.3995738E-003  0.1292923E+03  0.7818608E-02  0.1228510E+00
         21   -1    0    0  501  502  0.00000000000E+00  0.00000000000E+00  0.11492617364E+03  0.11492617364E+03  0.00000000000E+00 0.  1.
         -4   -1    0    0    0  501 -0.00000000000E+00 -0.00000000000E+00 -0.13338538751E+03  0.13339143339E+03  0.12700000000E+01 0. -1.
         25    2    1    2    0    0 -0.31040412199E+02 -0.11661614710E+02 -0.97932352409E+02  0.16219506006E+03  0.12496796154E+03 0.  0.
    9000005    1    3    3    0    0  0.46259547620E+02  0.81411899484E+01 -0.52154334200E+02  0.70194724129E+02  0.10000000000E+01 0.  0.
    9000005    1    3    3    0    0 -0.77299959819E+02 -0.19802804658E+02 -0.45778018209E+02  0.92000335931E+02  0.10000000000E+01 0.  0.
         -4    1    1    2    0  502  0.31040412199E+02  0.11661614710E+02  0.79473138539E+02  0.86122546969E+02  0.12700000000E+01 0.  1.
<mgrwt>
<rscale>  1 0.12929227E+03</rscale>
<asrwt>0</asrwt>
<pdfrwt beam="1">  1       21 0.17680950E-01 0.12929227E+03</pdfrwt>
<pdfrwt beam="2">  1       -4 0.20521834E-01 0.12929227E+03</pdfrwt>
<totfact> 0.25316759E+04</totfact>
</mgrwt>
</event>
<event>
 6    4  0.3995738E-003  0.1330175E+03  0.7818608E-02  0.1223046E+00
          4   -1    0    0  502    0 -0.00000000000E+00  0.00000000000E+00  0.98767057975E+02  0.98775222810E+02  0.12700000000E+01 0.  1.
         21   -1    0    0  501  502  0.00000000000E+00 -0.00000000000E+00 -0.39533492060E+03  0.39533492060E+03  0.00000000000E+00 0. -1.
         25    2    1    2    0    0  0.10648751799E+02 -0.44220913157E+02  0.51826178136E+02  0.14275717898E+03  0.12499909734E+03 0.  0.
    9000005    1    3    3    0    0 -0.34466096230E+02 -0.66655623577E+01 -0.27121710583E+02  0.44372612002E+02  0.10000000000E+01 0.  0.
    9000005    1    3    3    0    0  0.45114848030E+02 -0.37555350800E+02  0.78947888719E+02  0.98384566979E+02  0.10000000000E+01 0.  0.
          4    1    1    2  501    0 -0.10648751799E+02  0.44220913157E+02 -0.34839404076E+03  0.35135296443E+03  0.12700000000E+01 0. -1.
<mgrwt>
<rscale>  1 0.13301752E+03</rscale>
<asrwt>0</asrwt>
<pdfrwt beam="2">  1       21 0.60820757E-01 0.13301752E+03</pdfrwt>
<pdfrwt beam="1">  1        4 0.15195717E-01 0.13301752E+03</pdfrwt>
<totfact> 0.38420082E+03</totfact>
</mgrwt>
</event>
<event>
 6    4  0.3995738E-003  0.1287149E+03  0.7818608E-02  0.1229375E+00
         21   -1    0    0  501  502  0.00000000000E+00  0.00000000000E+00  0.78777991795E+02  0.78777991795E+02  0.00000000000E+00 0.  1.
         -4   -1    0    0    0  501 -0.00000000000E+00 -0.00000000000E+00 -0.81714098899E+02  0.81723967469E+02  0.12700000000E+01 0.  1.
         25    2    1    2    0    0  0.26079690227E+02  0.16200140448E+02  0.48382033033E+01  0.12880578291E+03  0.12499970683E+03 0.  0.
    9000005    1    3    3    0    0  0.75806040815E+02 -0.16260520152E+01  0.10793375951E+01  0.75837753388E+02  0.10000000000E+01 0.  0.
    9000005    1    3    3    0    0 -0.49726350589E+02  0.17826192463E+02  0.37588657082E+01  0.52968029527E+02  0.10000000000E+01 0.  0.
         -4    1    1    2    0  502 -0.26079690227E+02 -0.16200140448E+02 -0.77743104076E+01  0.31696176349E+02  0.12700000000E+01 0. -1.
<mgrwt>
<rscale>  1 0.12871488E+03</rscale>
<asrwt>0</asrwt>
<pdfrwt beam="1">  1       21 0.12119691E-01 0.12871488E+03</pdfrwt>
<pdfrwt beam="2">  1       -4 0.12572946E-01 0.12871488E+03</pdfrwt>
<totfact> 0.11807127E+05</totfact>
</mgrwt>
</event>
<event>
 6    4  0.3995738E-003  0.1276780E+03  0.7818608E-02  0.1230942E+00
         21   -1    0    0  501  502  0.00000000000E+00  0.00000000000E+00  0.22930696956E+04  0.22930696956E+04  0.00000000000E+00 0.  1.
         -4   -1    0    0    0  501 -0.00000000000E+00 -0.00000000000E+00 -0.33609373199E+01  0.35928818055E+01  0.12700000000E+01 0.  1.
         25    2    1    2    0    0 -0.25075627900E+02 -0.68733404009E+01  0.12250252033E+04  0.12316608332E+04  0.12500251799E+03 0.  0.
    9000005    1    3    3    0    0  0.39779719337E+02 -0.27519820448E+02  0.27687510532E+03  0.28107043696E+03  0.10000000000E+01 0.  0.
    9000005    1    3    3    0    0 -0.64855347237E+02  0.20646480047E+02  0.94815009798E+03  0.95059039628E+03  0.10000000000E+01 0.  0.
         -4    1    1    2    0  502  0.25075627900E+02  0.68733404009E+01  0.10646835550E+04  0.10650017442E+04  0.12700000000E+01 0. -1.
<mgrwt>
<rscale>  1 0.12767795E+03</rscale>
<asrwt>0</asrwt>
<pdfrwt beam="1">  1       21 0.35277874E+00 0.12767795E+03</pdfrwt>
<pdfrwt beam="2">  1       -4 0.53493805E-03 0.12767795E+03</pdfrwt>
<totfact> 0.55246672E+03</totfact>
</mgrwt>
</event>
<event>
 6    4  0.3995738E-003  0.1287579E+03  0.7818608E-02  0.1229311E+00
          4   -1    0    0  502    0 -0.00000000000E+00  0.00000000000E+00  0.94846340511E+02  0.94854842830E+02  0.12700000000E+01 0. -1.
         21   -1    0    0  501  502  0.00000000000E+00 -0.00000000000E+00 -0.35277713123E+03  0.35277713123E+03  0.00000000000E+00 0.  1.
         25    2    1    2    0    0 -0.19227798554E+02 -0.24156959937E+02  0.50021614890E+02  0.13813308235E+03  0.12500127812E+03 0.  0.
    9000005    1    3    3    0    0 -0.33430681926E+02  0.30965809007E+02  0.64883916973E+02  0.79293218520E+02  0.10000000000E+01 0.  0.
    9000005    1    3    3    0    0  0.14202883371E+02 -0.55122768944E+02 -0.14862302083E+02  0.58839863828E+02  0.10000000000E+01 0.  0.
          4    1    1    2  501    0  0.19227798554E+02  0.24156959937E+02 -0.30795240561E+03  0.30949889171E+03  0.12700000000E+01 0.  1.
<mgrwt>
<rscale>  1 0.12875786E+03</rscale>
<asrwt>0</asrwt>
<pdfrwt beam="2">  1       21 0.54273404E-01 0.12875786E+03</pdfrwt>
<pdfrwt beam="1">  1        4 0.14592575E-01 0.12875786E+03</pdfrwt>
<totfact> 0.52330783E+03</totfact>
</mgrwt>
</event>
<event>
 6    4  0.3995738E-003  0.1297184E+03  0.7818608E-02  0.1227874E+00
         -4   -1    0    0    0  501 -0.00000000000E+00  0.00000000000E+00  0.76759222222E+01  0.77802751854E+01  0.12700000000E+01 0. -1.
         21   -1    0    0  501  502  0.00000000000E+00 -0.00000000000E+00 -0.90880954837E+03  0.90880954837E+03  0.00000000000E+00 0. -1.
         25    2    1    2    0    0 -0.16385179649E+02 -0.30544194917E+02 -0.62757062783E+03  0.64083676572E+03  0.12500178172E+03 0.  0.
    9000005    1    3    3    0    0 -0.28185715536E+02  0.44466820739E+02 -0.29931080765E+03  0.30390737451E+03  0.10000000000E+01 0.  0.
    9000005    1    3    3    0    0  0.11800535887E+02 -0.75011015656E+02 -0.32825982018E+03  0.33692939121E+03  0.10000000000E+01 0.  0.
         -4    1    1    2    0  502  0.16385179649E+02  0.30544194917E+02 -0.27356299832E+03  0.27575305783E+03  0.12700000000E+01 0.  1.
<mgrwt>
<rscale>  1 0.12971842E+03</rscale>
<asrwt>0</asrwt>
<pdfrwt beam="2">  1       21 0.13981686E+00 0.12971842E+03</pdfrwt>
<pdfrwt beam="1">  1       -4 0.11890065E-02 0.12971842E+03</pdfrwt>
<totfact> 0.33396269E+04</totfact>
</mgrwt>
</event>
<event>
 6    4  0.3995738E-003  0.1308775E+03  0.7818608E-02  0.1226160E+00
         21   -1    0    0  501  502  0.00000000000E+00  0.00000000000E+00  0.16080022536E+02  0.16080022536E+02  0.00000000000E+00 0.  1.
          4   -1    0    0  502    0 -0.00000000000E+00 -0.00000000000E+00 -0.58281380458E+03  0.58281518830E+03  0.12700000000E+01 0.  1.
         25    2    1    2    0    0 -0.38430457826E+02  0.51104081100E+01 -0.52837305218E+03  0.54434088144E+03  0.12500358626E+03 0.  0.
    9000005    1    3    3    0    0  0.45308884419E+02  0.43759851763E+01 -0.14742630819E+03  0.15429698831E+03  0.10000000000E+01 0.  0.
    9000005    1    3    3    0    0 -0.83739342245E+02  0.73442293368E+00 -0.38094674398E+03  0.39004389313E+03  0.10000000000E+01 0.  0.
          4    1    1    2  501    0  0.38430457826E+02 -0.51104081100E+01 -0.38360729871E+02  0.54554329398E+02  0.12700000000E+01 0. -1.
<mgrwt>
<rscale>  1 0.13087747E+03</rscale>
<asrwt>0</asrwt>
<pdfrwt beam="1">  1       21 0.24738494E-02 0.13087747E+03</pdfrwt>
<pdfrwt beam="2">  1        4 0.89667635E-01 0.13087747E+03</pdfrwt>
<totfact> 0.38487931E+04</totfact>
</mgrwt>
</event>
<event>
 6    4  0.3995738E-003  0.1340553E+03  0.7818608E-02  0.1221559E+00
         21   -1    0    0  501  502  0.00000000000E+00  0.00000000000E+00  0.20713164882E+03  0.20713164882E+03  0.00000000000E+00 0.  1.
         -4   -1    0    0    0  501 -0.00000000000E+00 -0.00000000000E+00 -0.79655230829E+02  0.79665354442E+02  0.12700000000E+01 0. -1.
         25    2    1    2    0    0  0.90240087490E+01  0.47588828059E+02 -0.16330791913E+02  0.13504636633E+03  0.12499878801E+03 0.  0.
    9000005    1    3    3    0    0 -0.10392615275E+02 -0.39728099742E+02  0.90457533872E+01  0.42061312578E+02  0.10000000000E+01 0.  0.
    9000005    1    3    3    0    0  0.19416624024E+02  0.87316927802E+02 -0.25376545300E+02  0.92985053748E+02  0.10000000000E+01 0.  0.
         -4    1    1    2    0  502 -0.90240087490E+01 -0.47588828059E+02  0.14380720990E+03  0.15175063694E+03  0.12700000000E+01 0.  1.
<mgrwt>
<rscale>  1 0.13405531E+03</rscale>
<asrwt>0</asrwt>
<pdfrwt beam="1">  1       21 0.31866407E-01 0.13405531E+03</pdfrwt>
<pdfrwt beam="2">  1       -4 0.12255729E-01 0.13405531E+03</pdfrwt>
<totfact> 0.20718532E+04</totfact>
</mgrwt>
</event>
<event>
 6    4  0.3995738E-003  0.1294637E+03  0.7818608E-02  0.1228254E+00
         -4   -1    0    0    0  501 -0.00000000000E+00  0.00000000000E+00  0.24452495571E+03  0.24452825371E+03  0.12700000000E+01 0.  1.
         21   -1    0    0  501  502  0.00000000000E+00 -0.00000000000E+00 -0.28670188847E+02  0.28670188847E+02  0.00000000000E+00 0.  1.
         25    2    1    2    0    0  0.33631048440E+02 -0.21548928257E+01  0.19321916779E+03  0.23258226071E+03  0.12500068086E+03 0.  0.
    9000005    1    3    3    0    0  0.36777956853E+02 -0.57262048427E+02  0.70378224436E+02  0.97906357174E+02  0.10000000000E+01 0.  0.
    9000005    1    3    3    0    0 -0.31469084129E+01  0.55107155602E+02  0.12284094335E+03  0.13467590354E+03  0.10000000000E+01 0.  0.
         -4    1    1    2    0  502 -0.33631048440E+02  0.21548928257E+01  0.22635599078E+02  0.40616181848E+02  0.12700000000E+01 0. -1.
<mgrwt>
<rscale>  1 0.12946374E+03</rscale>
<asrwt>0</asrwt>
<pdfrwt beam="2">  1       21 0.44107985E-02 0.12946374E+03</pdfrwt>
<pdfrwt beam="1">  1       -4 0.37621640E-01 0.12946374E+03</pdfrwt>
<totfact> 0.91179052E+04</totfact>
</mgrwt>
</event>
<event>
 6    4  0.3995738E-003  0.1267725E+03  0.7818608E-02  0.1232325E+00
         21   -1    0    0  501  502  0.00000000000E+00  0.00000000000E+00  0.29655912499E+01  0.29655912499E+01  0.00000000000E+00 0.  1.
         -4   -1    0    0    0  501 -0.00000000000E+00 -0.00000000000E+00 -0.18445387993E+04  0.18445392366E+04  0.12700000000E+01 0.  1.
         25    2    1    2    0    0 -0.18492285264E+01 -0.21029874243E+02 -0.15730705875E+04  0.15781705644E+04  0.12500232775E+03 0.  0.
    9000005    1    3    3    0    0  0.37198850746E+02  0.18858247357E+02 -0.21831954531E+03  0.22226968272E+03  0.10000000000E+01 0.  0.
    9000005    1    3    3    0    0 -0.39048079272E+02 -0.39888121600E+02 -0.13547510421E+04  0.13559008817E+04  0.10000000000E+01 0.  0.
         -4    1    1    2    0  502  0.18492285264E+01  0.21029874243E+02 -0.26850262064E+03  0.26933426341E+03  0.12700000000E+01 0. -1.
<mgrwt>
<rscale>  1 0.12677246E+03</rscale>
<asrwt>0</asrwt>
<pdfrwt beam="1">  1       21 0.45624386E-03 0.12677246E+03</pdfrwt>
<pdfrwt beam="2">  1       -4 0.28379674E+00 0.12677246E+03</pdfrwt>
<totfact> 0.24283692E+04</totfact>
</mgrwt>
</event>
<event>
 6    4  0.3995738E-003  0.1354899E+03  0.7818608E-02  0.1219530E+00
         -4   -1    0    0    0  501 -0.00000000000E+00  0.00000000000E+00  0.19116095199E+02  0.19158235713E+02  0.12700000000E+01 0. -1.
         21   -1    0    0  501  502  0.00000000000E+00 -0.00000000000E+00 -0.48452555483E+03  0.48452555483E+03  0.00000000000E+00 0. -1.
         25    2    1    2    0    0  0.16209362127E+02  0.49657708241E+02 -0.28010364274E+03  0.31115200075E+03  0.12501554097E+03 0.  0.
    9000005    1    3    3    0    0  0.30304803902E+02  0.14187629739E+02 -0.26943712441E+03  0.27150881015E+03  0.10000000000E+01 0.  0.
    9000005    1    3    3    0    0 -0.14095441775E+02  0.35470078501E+02 -0.10666518331E+02  0.39643190601E+02  0.10000000000E+01 0.  0.
         -4    1    1    2    0  502 -0.16209362127E+02 -0.49657708241E+02 -0.18530581689E+03  0.19253178979E+03  0.12700000000E+01 0.  1.
<mgrwt>
<rscale>  1 0.13548991E+03</rscale>
<asrwt>0</asrwt>
<pdfrwt beam="2">  1       21 0.74542395E-01 0.13548991E+03</pdfrwt>
<pdfrwt beam="1">  1       -4 0.29443073E-02 0.13548991E+03</pdfrwt>
<totfact> 0.36680991E+04</totfact>
</mgrwt>
</event>
<event>
 6    4  0.3995738E-003  0.1284202E+03  0.7818608E-02  0.1229819E+00
         -4   -1    0    0    0  501 -0.00000000000E+00  0.00000000000E+00  0.36942165338E+02  0.36963988960E+02  0.12700000000E+01 0. -1.
         21   -1    0    0  501  502  0.00000000000E+00 -0.00000000000E+00 -0.40942870636E+03  0.40942870636E+03  0.00000000000E+00 0.  1.
         25    2    1    2    0    0 -0.28790904111E+02  0.61549378635E+01 -0.77616020730E+02  0.15005330196E+03  0.12499978934E+03 0.  0.
    9000005    1    3    3    0    0 -0.74739436198E+02  0.22493161770E+01 -0.71612229131E+02  0.10353914288E+03  0.10000000000E+01 0.  0.
    9000005    1    3    3    0    0  0.45948532087E+02  0.39056216865E+01 -0.60037915991E+01  0.46514159084E+02  0.10000000000E+01 0.  0.
         -4    1    1    2    0  502  0.28790904111E+02 -0.61549378635E+01 -0.29487052029E+03  0.29633939336E+03  0.12700000000E+01 0.  1.
<mgrwt>
<rscale>  1 0.12842020E+03</rscale>
<asrwt>0</asrwt>
<pdfrwt beam="2">  1       21 0.62989028E-01 0.12842020E+03</pdfrwt>
<pdfrwt beam="1">  1       -4 0.56852407E-02 0.12842020E+03</pdfrwt>
<totfact> 0.18491309E+04</totfact>
</mgrwt>
</event>
<event>
 6    4  0.3995738E-003  0.1315751E+03  0.7818608E-02  0.1225137E+00
         -4   -1    0    0    0  501 -0.00000000000E+00  0.00000000000E+00  0.16501980861E+03  0.16502469553E+03  0.12700000000E+01 0. -1.
         21   -1    0    0  501  502  0.00000000000E+00 -0.00000000000E+00 -0.78169638852E+02  0.78169638852E+02  0.00000000000E+00 0.  1.
         25    2    1    2    0    0 -0.13725802991E+02 -0.38717883385E+02 -0.15897406349E+02  0.13253201262E+03  0.12499813870E+03 0.  0.
    9000005    1    3    3    0    0 -0.39444263024E+02 -0.63928771194E+02 -0.43801516446E+02  0.86961546185E+02  0.10000000000E+01 0.  0.
    9000005    1    3    3    0    0  0.25718460034E+02  0.25210887809E+02  0.27904110097E+02  0.45570466433E+02  0.10000000000E+01 0.  0.
         -4    1    1    2    0  502  0.13725802991E+02  0.38717883385E+02  0.10274757611E+03  0.11066232176E+03  0.12700000000E+01 0.  1.
<mgrwt>
<rscale>  1 0.13157510E+03</rscale>
<asrwt>0</asrwt>
<pdfrwt beam="2">  1       21 0.12026098E-01 0.13157510E+03</pdfrwt>
<pdfrwt beam="1">  1       -4 0.25388832E-01 0.13157510E+03</pdfrwt>
<totfact> 0.34419545E+04</totfact>
</mgrwt>
</event>
<event>
 6    4  0.3995738E-003  0.1334955E+03  0.7818608E-02  0.1222359E+00
         21   -1    0    0  501  502  0.00000000000E+00  0.00000000000E+00  0.21585686552E+03  0.21585686552E+03  0.00000000000E+00 0.  1.
          4   -1    0    0  502    0 -0.00000000000E+00 -0.00000000000E+00 -0.10288635181E+03  0.10289418977E+03  0.12700000000E+01 0. -1.
         25    2    1    2    0    0 -0.44398561814E+02 -0.14994702427E+02 -0.54984898594E+02  0.14437586550E+03  0.12499991229E+03 0.  0.
    9000005    1    3    3    0    0 -0.86258161318E+02  0.57404270285E+01 -0.30913593345E+02  0.91815429803E+02  0.10000000000E+01 0.  0.
    9000005    1    3    3    0    0  0.41859599504E+02 -0.20735129455E+02 -0.24071305248E+02  0.52560435696E+02  0.10000000000E+01 0.  0.
          4    1    1    2  501    0  0.44398561814E+02  0.14994702427E+02  0.16795541230E+03  0.17437518979E+03  0.12700000000E+01 0.  1.
<mgrwt>
<rscale>  1 0.13349551E+03</rscale>
<asrwt>0</asrwt>
<pdfrwt beam="1">  1       21 0.33208748E-01 0.13349551E+03</pdfrwt>
<pdfrwt beam="2">  1        4 0.15829560E-01 0.13349551E+03</pdfrwt>
<totfact> 0.12264089E+04</totfact>
</mgrwt>
</event>
<event>
 6    4  0.3995738E-003  0.1282102E+03  0.7818608E-02  0.1230136E+00
         -4   -1    0    0    0  501 -0.00000000000E+00  0.00000000000E+00  0.50457050802E+03  0.50457210631E+03  0.12700000000E+01 0. -1.
         21   -1    0    0  501  502  0.00000000000E+00 -0.00000000000E+00 -0.24749287203E+02  0.24749287203E+02  0.00000000000E+00 0.  1.
         25    2    1    2    0    0 -0.10643469538E+02  0.26446321334E+02  0.48380841057E+03  0.50050816846E+03  0.12500062879E+03 0.  0.
    9000005    1    3    3    0    0  0.90316885667E+01  0.85854699253E+01 -0.30953748267E+01  0.12878782455E+02  0.10000000000E+01 0.  0.
    9000005    1    3    3    0    0 -0.19675158105E+02  0.17860851409E+02  0.48690378540E+03  0.48762938600E+03  0.10000000000E+01 0.  0.
         -4    1    1    2    0  502  0.10643469538E+02 -0.26446321334E+02 -0.39871897518E+01  0.28813225055E+02  0.12700000000E+01 0.  1.
<mgrwt>
<rscale>  1 0.12821017E+03</rscale>
<asrwt>0</asrwt>
<pdfrwt beam="2">  1       21 0.38075830E-02 0.12821017E+03</pdfrwt>
<pdfrwt beam="1">  1       -4 0.77628854E-01 0.12821017E+03</pdfrwt>
<totfact> 0.26065244E+04</totfact>
</mgrwt>
</event>
<event>
 6    4  0.3995738E-003  0.1272129E+03  0.7818608E-02  0.1231651E+00
          4   -1    0    0  502    0 -0.00000000000E+00  0.00000000000E+00  0.59352351424E+02  0.59365937368E+02  0.12700000000E+01 0. -1.
         21   -1    0    0  501  502  0.00000000000E+00 -0.00000000000E+00 -0.97936889320E+02  0.97936889320E+02  0.00000000000E+00 0. -1.
         25    2    1    2    0    0 -0.21367668142E+02  0.99644528417E+01 -0.23728716462E+02  0.12940702247E+03  0.12500903135E+03 0.  0.
    9000005    1    3    3    0    0 -0.80375657553E+01  0.52512085385E+02 -0.53802592244E+02  0.75616403690E+02  0.10000000000E+01 0.  0.
    9000005    1    3    3    0    0 -0.13330102386E+02 -0.42547632543E+02  0.30073875783E+02  0.53790618785E+02  0.10000000000E+01 0.  0.
          4    1    1    2  501    0  0.21367668142E+02 -0.99644528417E+01 -0.14855821434E+02  0.27895804213E+02  0.12700000000E+01 0.  1.
<mgrwt>
<rscale>  1 0.12721291E+03</rscale>
<asrwt>0</asrwt>
<pdfrwt beam="2">  1       21 0.15067214E-01 0.12721291E+03</pdfrwt>
<pdfrwt beam="1">  1        4 0.91328094E-02 0.12721291E+03</pdfrwt>
<totfact> 0.13720652E+05</totfact>
</mgrwt>
</event>
<event>
 6    4  0.3995738E-003  0.1304807E+03  0.7818608E-02  0.1226744E+00
         21   -1    0    0  501  502  0.00000000000E+00  0.00000000000E+00  0.11542432065E+03  0.11542432065E+03  0.00000000000E+00 0. -1.
          4   -1    0    0  502    0 -0.00000000000E+00 -0.00000000000E+00 -0.85219013920E+02  0.85228476658E+02  0.12700000000E+01 0. -1.
         25    2    1    2    0    0  0.37020982855E+02  0.54554543851E+01 -0.26069993054E+02  0.13305962147E+03  0.12499961269E+03 0.  0.
    9000005    1    3    3    0    0  0.53369169894E+02  0.83727828797E+01  0.38523330682E+02  0.66358260941E+02  0.10000000000E+01 0.  0.
    9000005    1    3    3    0    0 -0.16348187039E+02 -0.29173284947E+01 -0.64593323736E+02  0.66701360528E+02  0.10000000000E+01 0.  0.
          4    1    1    2  501    0 -0.37020982855E+02 -0.54554543851E+01  0.56275299786E+02  0.67593175840E+02  0.12700000000E+01 0.  1.
<mgrwt>
<rscale>  1 0.13048072E+03</rscale>
<asrwt>0</asrwt>
<pdfrwt beam="1">  1       21 0.17757588E-01 0.13048072E+03</pdfrwt>
<pdfrwt beam="2">  1        4 0.13111883E-01 0.13048072E+03</pdfrwt>
<totfact> 0.55333841E+04</totfact>
</mgrwt>
</event>
<event>
 6    4  0.3995738E-003  0.1281996E+03  0.7818608E-02  0.1230152E+00
         21   -1    0    0  501  502  0.00000000000E+00  0.00000000000E+00  0.96760629077E+02  0.96760629077E+02  0.00000000000E+00 0. -1.
         -4   -1    0    0    0  501 -0.00000000000E+00 -0.00000000000E+00 -0.70892083138E+02  0.70903457967E+02  0.12700000000E+01 0. -1.
         25    2    1    2    0    0 -0.21004432035E+02 -0.19199603313E+02 -0.14332575198E+01  0.12820762617E+03  0.12500132099E+03 0.  0.
    9000005    1    3    3    0    0 -0.16867803334E+02 -0.52900991485E+02  0.44440160590E+02  0.71126405523E+02  0.10000000000E+01 0.  0.
    9000005    1    3    3    0    0 -0.41366287014E+01  0.33701388172E+02 -0.45873418110E+02  0.57081220649E+02  0.10000000000E+01 0.  0.
         -4    1    1    2    0  502  0.21004432035E+02  0.19199603313E+02  0.27301803458E+02  0.39456460872E+02  0.12700000000E+01 0.  1.
<mgrwt>
<rscale>  1 0.12819961E+03</rscale>
<asrwt>0</asrwt>
<pdfrwt beam="1">  1       21 0.14886251E-01 0.12819961E+03</pdfrwt>
<pdfrwt beam="2">  1       -4 0.10907990E-01 0.12819961E+03</pdfrwt>
<totfact> 0.10411565E+05</totfact>
</mgrwt>
</event>
<event>
 6    4  0.3995738E-003  0.1268372E+03  0.7818608E-02  0.1232226E+00
         -4   -1    0    0    0  501 -0.00000000000E+00  0.00000000000E+00  0.13617338866E+02  0.13676432934E+02  0.12700000000E+01 0.  1.
         21   -1    0    0  501  502  0.00000000000E+00 -0.00000000000E+00 -0.41413867343E+03  0.41413867343E+03  0.00000000000E+00 0.  1.
         25    2    1    2    0    0  0.21162955246E+02 -0.38353047654E+01 -0.36334218019E+03  0.38484438775E+03  0.12500033059E+03 0.  0.
    9000005    1    3    3    0    0  0.40595413066E+02 -0.56219577038E+02 -0.23105539567E+03  0.24123893606E+03  0.10000000000E+01 0.  0.
    9000005    1    3    3    0    0 -0.19432457820E+02  0.52384272272E+02 -0.13228678452E+03  0.14360545169E+03  0.10000000000E+01 0.  0.
         -4    1    1    2    0  502 -0.21162955246E+02  0.38353047654E+01 -0.37179154378E+02  0.42970718608E+02  0.12700000000E+01 0. -1.
<mgrwt>
<rscale>  1 0.12683715E+03</rscale>
<asrwt>0</asrwt>
<pdfrwt beam="2">  1       21 0.63713636E-01 0.12683715E+03</pdfrwt>
<pdfrwt beam="1">  1       -4 0.20996709E-02 0.12683715E+03</pdfrwt>
<totfact> 0.86636865E+04</totfact>
</mgrwt>
</event>
<event>
 6    4  0.3995738E-003  0.1747561E+03  0.7818608E-02  0.1172977E+00
         -4   -1    0    0    0  501 -0.00000000000E+00  0.00000000000E+00  0.38126610334E+03  0.38126821853E+03  0.12700000000E+01 0. -1.
         21   -1    0    0  501  502  0.00000000000E+00 -0.00000000000E+00 -0.68801713565E+02  0.68801713565E+02  0.00000000000E+00 0.  1.
         25    2    1    2    0    0 -0.24393103283E+02 -0.11963008839E+03  0.26837041916E+03  0.32025362849E+03  0.12503328814E+03 0.  0.
    9000005    1    3    3    0    0 -0.25055884183E+02 -0.92800918731E+02  0.67176644420E+02  0.11727535719E+03  0.10000000000E+01 0.  0.
    9000005    1    3    3    0    0  0.66278090002E+00 -0.26829169662E+02  0.20119377474E+03  0.20297827129E+03  0.10000000000E+01 0.  0.
         -4    1    1    2    0  502  0.24393103283E+02  0.11963008839E+03  0.44093970618E+02  0.12981630360E+03  0.12700000000E+01 0.  1.
<mgrwt>
<rscale>  1 0.17475613E+03</rscale>
<asrwt>0</asrwt>
<pdfrwt beam="2">  1       21 0.10584879E-01 0.17475613E+03</pdfrwt>
<pdfrwt beam="1">  1       -4 0.58657387E-01 0.17475613E+03</pdfrwt>
<totfact> 0.85318406E+03</totfact>
</mgrwt>
</event>
<event>
 6    4  0.3995738E-003  0.1266848E+03  0.7818608E-02  0.1232459E+00
         21   -1    0    0  501  502  0.00000000000E+00  0.00000000000E+00  0.32262871808E+02  0.32262871808E+02  0.00000000000E+00 0. -1.
          4   -1    0    0  502    0 -0.00000000000E+00 -0.00000000000E+00 -0.17877029480E+03  0.17877480584E+03  0.12700000000E+01 0. -1.
         25    2    1    2    0    0  0.16041989938E+02 -0.12857843161E+02 -0.14133206933E+03  0.18979934538E+03  0.12500547233E+03 0.  0.
    9000005    1    3    3    0    0 -0.32013399440E+02 -0.44248689421E+02 -0.11358525934E+03  0.12603735716E+03  0.10000000000E+01 0.  0.
    9000005    1    3    3    0    0  0.48055389379E+02  0.31390846260E+02 -0.27746809983E+02  0.63761988218E+02  0.10000000000E+01 0.  0.
          4    1    1    2  501    0 -0.16041989938E+02  0.12857843161E+02 -0.51753536618E+01  0.21238332267E+02  0.12700000000E+01 0.  1.
<mgrwt>
<rscale>  1 0.12668480E+03</rscale>
<asrwt>0</asrwt>
<pdfrwt beam="1">  1       21 0.49635187E-02 0.12668480E+03</pdfrwt>
<pdfrwt beam="2">  1        4 0.27505392E-01 0.12668480E+03</pdfrwt>
<totfact> 0.13548617E+05</totfact>
</mgrwt>
</event>
<event>
 6    4  0.3995738E-003  0.1274984E+03  0.7818608E-02  0.1231216E+00
          4   -1    0    0  502    0 -0.00000000000E+00  0.00000000000E+00  0.87555723123E+03  0.87555815230E+03  0.12700000000E+01 0. -1.
         21   -1    0    0  501  502  0.00000000000E+00 -0.00000000000E+00 -0.13492325266E+02  0.13492325266E+02  0.00000000000E+00 0. -1.
         25    2    1    2    0    0 -0.19274222393E+02 -0.16103288214E+02  0.85275620249E+03  0.86223487762E+03  0.12500012706E+03 0.  0.
    9000005    1    3    3    0    0 -0.42935453098E+01  0.27463041770E+02  0.43273980229E+02  0.51442108816E+02  0.10000000000E+01 0.  0.
    9000005    1    3    3    0    0 -0.14980677083E+02 -0.43566329984E+02  0.80948222226E+03  0.81079276880E+03  0.10000000000E+01 0.  0.
          4    1    1    2  501    0  0.19274222393E+02  0.16103288214E+02  0.93087034804E+01  0.26815599949E+02  0.12700000000E+01 0.  1.
<mgrwt>
<rscale>  1 0.12749841E+03</rscale>
<asrwt>0</asrwt>
<pdfrwt beam="2">  1       21 0.20757430E-02 0.12749841E+03</pdfrwt>
<pdfrwt beam="1">  1        4 0.13470574E+00 0.12749841E+03</pdfrwt>
<totfact> 0.19543988E+04</totfact>
</mgrwt>
</event>
<event>
 6    4  0.3995738E-003  0.1306289E+03  0.7818608E-02  0.1226526E+00
         21   -1    0    0  501  502  0.00000000000E+00  0.00000000000E+00  0.95247320222E+02  0.95247320222E+02  0.00000000000E+00 0. -1.
          4   -1    0    0  502    0 -0.00000000000E+00 -0.00000000000E+00 -0.74590308126E+02  0.74601119069E+02  0.12700000000E+01 0. -1.
         25    2    1    2    0    0  0.37935852786E+02  0.33311602891E+00  0.16109744081E+02  0.13161847147E+03  0.12499863314E+03 0.  0.
    9000005    1    3    3    0    0 -0.23207745771E+02  0.46097717765E+02  0.19456923723E+02  0.55164942923E+02  0.10000000000E+01 0.  0.
    9000005    1    3    3    0    0  0.61143598556E+02 -0.45764601736E+02 -0.33471796416E+01  0.76453528552E+02  0.10000000000E+01 0.  0.
          4    1    1    2  501    0 -0.37935852786E+02 -0.33311602891E+00  0.45472680144E+01  0.38229967817E+02  0.12700000000E+01 0.  1.
<mgrwt>
<rscale>  1 0.13062886E+03</rscale>
<asrwt>0</asrwt>
<pdfrwt beam="1">  1       21 0.14653434E-01 0.13062886E+03</pdfrwt>
<pdfrwt beam="2">  1        4 0.11476915E-01 0.13062886E+03</pdfrwt>
<totfact> 0.98509648E+04</totfact>
</mgrwt>
</event>
<event>
 6    4  0.3995738E-003  0.1288484E+03  0.7818608E-02  0.1229175E+00
         21   -1    0    0  501  502  0.00000000000E+00  0.00000000000E+00  0.78186667659E+02  0.78186667659E+02  0.00000000000E+00 0.  1.
          4   -1    0    0  502    0 -0.00000000000E+00 -0.00000000000E+00 -0.17002939977E+03  0.17003414271E+03  0.12700000000E+01 0. -1.
         25    2    1    2    0    0  0.22366650276E+02 -0.21803749535E+02 -0.14034169775E+03  0.19051957029E+03  0.12500497589E+03 0.  0.
    9000005    1    3    3    0    0 -0.34365191832E+02  0.34102909942E+02 -0.43190767090E+02  0.64887727946E+02  0.10000000000E+01 0.  0.
    9000005    1    3    3    0    0  0.56731842109E+02 -0.55906659477E+02 -0.97150930659E+02  0.12563184234E+03  0.10000000000E+01 0.  0.
          4    1    1    2  501    0 -0.22366650276E+02  0.21803749535E+02  0.48498965637E+02  0.57701240075E+02  0.12700000000E+01 0.  1.
<mgrwt>
<rscale>  1 0.12884842E+03</rscale>
<asrwt>0</asrwt>
<pdfrwt beam="1">  1       21 0.12028718E-01 0.12884842E+03</pdfrwt>
<pdfrwt beam="2">  1        4 0.26159527E-01 0.12884842E+03</pdfrwt>
<totfact> 0.32472726E+04</totfact>
</mgrwt>
</event>
<event>
 6    4  0.3995738E-003  0.1323023E+03  0.7818608E-02  0.1224079E+00
         -4   -1    0    0    0  501 -0.00000000000E+00  0.00000000000E+00  0.75225265268E+02  0.75235984971E+02  0.12700000000E+01 0.  1.
         21   -1    0    0  501  502  0.00000000000E+00 -0.00000000000E+00 -0.10325153423E+03  0.10325153423E+03  0.00000000000E+00 0.  1.
         25    2    1    2    0    0 -0.27298864129E+02 -0.33659712556E+02 -0.14632326764E+02  0.13310894695E+03  0.12500273012E+03 0.  0.
    9000005    1    3    3    0    0 -0.45095257339E+02 -0.74810234980E+02 -0.12124323724E+02  0.88193836055E+02  0.10000000000E+01 0.  0.
    9000005    1    3    3    0    0  0.17796393210E+02  0.41150522425E+02 -0.25080030403E+01  0.44915110891E+02  0.10000000000E+01 0.  0.
         -4    1    1    2    0  502  0.27298864129E+02  0.33659712556E+02 -0.13393942193E+02  0.45378572251E+02  0.12700000000E+01 0. -1.
<mgrwt>
<rscale>  1 0.13230226E+03</rscale>
<asrwt>0</asrwt>
<pdfrwt beam="2">  1       21 0.15884851E-01 0.13230226E+03</pdfrwt>
<pdfrwt beam="1">  1       -4 0.11574543E-01 0.13230226E+03</pdfrwt>
<totfact> 0.84077007E+04</totfact>
</mgrwt>
</event>
<event>
 6    4  0.3995738E-003  0.1307042E+03  0.7818608E-02  0.1226415E+00
         -4   -1    0    0    0  501 -0.00000000000E+00  0.00000000000E+00  0.42230411238E+03  0.42230602202E+03  0.12700000000E+01 0. -1.
         21   -1    0    0  501  502  0.00000000000E+00 -0.00000000000E+00 -0.35776057393E+02  0.35776057393E+02  0.00000000000E+00 0.  1.
         25    2    1    2    0    0 -0.36795869968E+02  0.10264191068E+02  0.39740146457E+03  0.41834376540E+03  0.12499716932E+03 0.  0.
    9000005    1    3    3    0    0 -0.76440958833E+02  0.67219893206E+01  0.15797026315E+03  0.17562462631E+03  0.10000000000E+01 0.  0.
    9000005    1    3    3    0    0  0.39645088865E+02  0.35422017475E+01  0.23943120142E+03  0.24271913909E+03  0.10000000000E+01 0.  0.
         -4    1    1    2    0  502  0.36795869968E+02 -0.10264191068E+02 -0.10873409581E+02  0.39738314016E+02  0.12700000000E+01 0.  1.
<mgrwt>
<rscale>  1 0.13070418E+03</rscale>
<asrwt>0</asrwt>
<pdfrwt beam="2">  1       21 0.55040091E-02 0.13070418E+03</pdfrwt>
<pdfrwt beam="1">  1       -4 0.64971741E-01 0.13070418E+03</pdfrwt>
<totfact> 0.20723231E+04</totfact>
</mgrwt>
</event>
<event>
 6    4  0.3995738E-003  0.1269455E+03  0.7818608E-02  0.1232060E+00
          4   -1    0    0  502    0 -0.00000000000E+00  0.00000000000E+00  0.30909343356E+02  0.30935423170E+02  0.12700000000E+01 0. -1.
         21   -1    0    0  501  502  0.00000000000E+00 -0.00000000000E+00 -0.29374813543E+03  0.29374813543E+03  0.00000000000E+00 0.  1.
         25    2    1    2    0    0  0.21656441265E+02 -0.45635561215E+01 -0.10344613858E+03  0.16375668582E+03  0.12500128428E+03 0.  0.
    9000005    1    3    3    0    0  0.24002486299E+02 -0.11159872107E+02  0.24221391798E+02  0.35893424393E+02  0.10000000000E+01 0.  0.
    9000005    1    3    3    0    0 -0.23460450345E+01  0.65963159851E+01 -0.12766753037E+03  0.12786326143E+03  0.10000000000E+01 0.  0.
          4    1    1    2  501    0 -0.21656441265E+02  0.45635561215E+01 -0.15939265350E+03  0.16092687278E+03  0.12700000000E+01 0.  1.
<mgrwt>
<rscale>  1 0.12694546E+03</rscale>
<asrwt>0</asrwt>
<pdfrwt beam="2">  1       21 0.45192023E-01 0.12694546E+03</pdfrwt>
<pdfrwt beam="1">  1        4 0.47575007E-02 0.12694546E+03</pdfrwt>
<totfact> 0.49149219E+04</totfact>
</mgrwt>
</event>
<event>
 6    4  0.3995738E-003  0.1268898E+03  0.7818608E-02  0.1232145E+00
          4   -1    0    0  502    0 -0.00000000000E+00  0.00000000000E+00  0.11515515431E+03  0.11516215726E+03  0.12700000000E+01 0. -1.
         21   -1    0    0  501  502  0.00000000000E+00 -0.00000000000E+00 -0.60127112262E+02  0.60127112262E+02  0.00000000000E+00 0. -1.
         25    2    1    2    0    0 -0.18654786221E+02 -0.11303014247E+02  0.73533467200E+02  0.14665672091E+03  0.12500105523E+03 0.  0.
    9000005    1    3    3    0    0  0.27263819989E+02 -0.40624427206E+02  0.77895848631E+02  0.91991430036E+02  0.10000000000E+01 0.  0.
    9000005    1    3    3    0    0 -0.45918606210E+02  0.29321412959E+02 -0.43623814309E+01  0.54665290870E+02  0.10000000000E+01 0.  0.
          4    1    1    2  501    0  0.18654786221E+02  0.11303014247E+02 -0.18505425151E+02  0.28632548612E+02  0.12700000000E+01 0.  1.
<mgrwt>
<rscale>  1 0.12688981E+03</rscale>
<asrwt>0</asrwt>
<pdfrwt beam="2">  1       21 0.92503250E-02 0.12688981E+03</pdfrwt>
<pdfrwt beam="1">  1        4 0.17717748E-01 0.12688981E+03</pdfrwt>
<totfact> 0.10412399E+05</totfact>
</mgrwt>
</event>
<event>
 6    4  0.3995738E-003  0.1300354E+03  0.7818608E-02  0.1227403E+00
         21   -1    0    0  501  502  0.00000000000E+00  0.00000000000E+00  0.37466304397E+02  0.37466304397E+02  0.00000000000E+00 0. -1.
         -4   -1    0    0    0  501 -0.00000000000E+00 -0.00000000000E+00 -0.22840221513E+03  0.22840574594E+03  0.12700000000E+01 0. -1.
         25    2    1    2    0    0  0.18036046410E+02 -0.30950362134E+02 -0.18972066620E+03  0.23000683591E+03  0.12500395792E+03 0.  0.
    9000005    1    3    3    0    0 -0.10207578274E+02 -0.60193641223E+01 -0.19188999551E+03  0.19225815399E+03  0.10000000000E+01 0.  0.
    9000005    1    3    3    0    0  0.28243624685E+02 -0.24930998011E+02  0.21693293117E+01  0.37748681922E+02  0.10000000000E+01 0.  0.
         -4    1    1    2    0  502 -0.18036046410E+02  0.30950362134E+02 -0.12152445365E+01  0.35865214423E+02  0.12700000000E+01 0.  1.
<mgrwt>
<rscale>  1 0.13003543E+03</rscale>
<asrwt>0</asrwt>
<pdfrwt beam="1">  1       21 0.57640469E-02 0.13003543E+03</pdfrwt>
<pdfrwt beam="2">  1       -4 0.35140729E-01 0.13003543E+03</pdfrwt>
<totfact> 0.66420276E+04</totfact>
</mgrwt>
</event>
<event>
 6    4  0.3995738E-003  0.1695714E+03  0.7818608E-02  0.1178296E+00
          4   -1    0    0  502    0 -0.00000000000E+00  0.00000000000E+00  0.20342282350E+02  0.20381887823E+02  0.12700000000E+01 0.  1.
         21   -1    0    0  501  502  0.00000000000E+00 -0.00000000000E+00 -0.13729619509E+04  0.13729619509E+04  0.00000000000E+00 0. -1.
         25    2    1    2    0    0  0.74502388806E+02  0.87061326085E+02 -0.40852951403E+03  0.44232432620E+03  0.12499666106E+03 0.  0.
    9000005    1    3    3    0    0 -0.21828555563E+02  0.66151849069E+02 -0.14252322870E+03  0.15863928798E+03  0.10000000000E+01 0.  0.
    9000005    1    3    3    0    0  0.96330944369E+02  0.20909477016E+02 -0.26600628533E+03  0.28368503821E+03  0.10000000000E+01 0.  0.
          4    1    1    2  501    0 -0.74502388806E+02 -0.87061326085E+02 -0.94409015448E+03  0.95101951249E+03  0.12700000000E+01 0. -1.
<mgrwt>
<rscale>  1 0.16957136E+03</rscale>
<asrwt>0</asrwt>
<pdfrwt beam="2">  1       21 0.21122496E+00 0.16957136E+03</pdfrwt>
<pdfrwt beam="1">  1        4 0.31326729E-02 0.16957136E+03</pdfrwt>
<totfact> 0.24302666E+03</totfact>
</mgrwt>
</event>
<event>
 6    4  0.3995738E-003  0.1283459E+03  0.7818608E-02  0.1229931E+00
         -4   -1    0    0    0  501 -0.00000000000E+00  0.00000000000E+00  0.25160857759E+02  0.25192889139E+02  0.12700000000E+01 0.  1.
         21   -1    0    0  501  502  0.00000000000E+00 -0.00000000000E+00 -0.25022208519E+03  0.25022208519E+03  0.00000000000E+00 0.  1.
         25    2    1    2    0    0 -0.18403671357E+02 -0.22567125759E+02 -0.16880539796E+03  0.21205645845E+03  0.12499883562E+03 0.  0.
    9000005    1    3    3    0    0 -0.72072335374E+00 -0.13790697331E+02  0.18835738227E+02  0.23377078722E+02  0.10000000000E+01 0.  0.
    9000005    1    3    3    0    0 -0.17682948003E+02 -0.87764284281E+01 -0.18764113619E+03  0.18867937973E+03  0.10000000000E+01 0.  0.
         -4    1    1    2    0  502  0.18403671357E+02  0.22567125759E+02 -0.56255829476E+02  0.63358515879E+02  0.12700000000E+01 0. -1.
<mgrwt>
<rscale>  1 0.12834594E+03</rscale>
<asrwt>0</asrwt>
<pdfrwt beam="2">  1       21 0.38495705E-01 0.12834594E+03</pdfrwt>
<pdfrwt beam="1">  1       -4 0.38736131E-02 0.12834594E+03</pdfrwt>
<totfact> 0.94237905E+04</totfact>
</mgrwt>
</event>
<event>
 6    4  0.3995738E-003  0.1647198E+03  0.7818608E-02  0.1183469E+00
          4   -1    0    0  502    0 -0.00000000000E+00  0.00000000000E+00  0.77857158841E+02  0.77867516224E+02  0.12700000000E+01 0. -1.
         21   -1    0    0  501  502  0.00000000000E+00 -0.00000000000E+00 -0.51061662810E+03  0.51061662810E+03  0.00000000000E+00 0.  1.
         25    2    1    2    0    0  0.99734085864E+02 -0.39503082220E+02 -0.24703903141E+02  0.16656194850E+03  0.12500087388E+03 0.  0.
    9000005    1    3    3    0    0  0.89525368376E+02  0.25201800425E+02 -0.36646462137E+02  0.99969422898E+02  0.10000000000E+01 0.  0.
    9000005    1    3    3    0    0  0.10208717488E+02 -0.64704882645E+02  0.11942558996E+02  0.66592525603E+02  0.10000000000E+01 0.  0.
          4    1    1    2  501    0 -0.99734085864E+02  0.39503082220E+02 -0.40805556612E+03  0.42192219582E+03  0.12700000000E+01 0.  1.
<mgrwt>
<rscale>  1 0.16471976E+03</rscale>
<asrwt>0</asrwt>
<pdfrwt beam="2">  1       21 0.78556403E-01 0.16471976E+03</pdfrwt>
<pdfrwt beam="1">  1        4 0.11978943E-01 0.16471976E+03</pdfrwt>
<totfact> 0.33462262E+03</totfact>
</mgrwt>
</event>
<event>
 6    4  0.3995738E-003  0.1265964E+03  0.7818608E-02  0.1232595E+00
         -4   -1    0    0    0  501 -0.00000000000E+00  0.00000000000E+00  0.50600103197E+02  0.50616038402E+02  0.12700000000E+01 0. -1.
         21   -1    0    0  501  502  0.00000000000E+00 -0.00000000000E+00 -0.12871176005E+03  0.12871176005E+03  0.00000000000E+00 0. -1.
         25    2    1    2    0    0 -0.20041967185E+02  0.85398101340E+00 -0.34354826031E+02  0.13117509473E+03  0.12499696666E+03 0.  0.
    9000005    1    3    3    0    0 -0.70376928547E+02  0.11238969726E+02 -0.35776178243E+02  0.79750620323E+02  0.10000000000E+01 0.  0.
    9000005    1    3    3    0    0  0.50334961362E+02 -0.10384988713E+02  0.14213522127E+01  0.51424474406E+02  0.10000000000E+01 0.  0.
         -4    1    1    2    0  502  0.20041967185E+02 -0.85398101340E+00 -0.43756830823E+02  0.48152703724E+02  0.12700000000E+01 0.  1.
<mgrwt>
<rscale>  1 0.12659641E+03</rscale>
<asrwt>0</asrwt>
<pdfrwt beam="2">  1       21 0.19801809E-01 0.12659641E+03</pdfrwt>
<pdfrwt beam="1">  1       -4 0.77863391E-02 0.12659641E+03</pdfrwt>
<totfact> 0.10856700E+05</totfact>
</mgrwt>
</event>
<event>
 6    4  0.3995738E-003  0.1268514E+03  0.7818608E-02  0.1232204E+00
         -4   -1    0    0    0  501 -0.00000000000E+00  0.00000000000E+00  0.24407846764E+03  0.24408177168E+03  0.12700000000E+01 0. -1.
         21   -1    0    0  501  502  0.00000000000E+00 -0.00000000000E+00 -0.26028731186E+02  0.26028731186E+02  0.00000000000E+00 0. -1.
         25    2    1    2    0    0  0.21210115353E+02  0.40518110755E+01  0.21297794653E+03  0.24789289454E+03  0.12499998117E+03 0.  0.
    9000005    1    3    3    0    0  0.17850950146E+02  0.52383126637E+02  0.18235352291E+03  0.19056876894E+03  0.10000000000E+01 0.  0.
    9000005    1    3    3    0    0  0.33591652075E+01 -0.48331315561E+02  0.30624423617E+02  0.57324125608E+02  0.10000000000E+01 0.  0.
         -4    1    1    2    0  502 -0.21210115353E+02 -0.40518110755E+01  0.50717899278E+01  0.22217608318E+02  0.12700000000E+01 0.  1.
<mgrwt>
<rscale>  1 0.12685141E+03</rscale>
<asrwt>0</asrwt>
<pdfrwt beam="2">  1       21 0.40044204E-02 0.12685141E+03</pdfrwt>
<pdfrwt beam="1">  1       -4 0.37553169E-01 0.12685141E+03</pdfrwt>
<totfact> 0.10715368E+05</totfact>
</mgrwt>
</event>
<event>
 6    4  0.3995738E-003  0.1307489E+03  0.7818608E-02  0.1226349E+00
         21   -1    0    0  501  502  0.00000000000E+00  0.00000000000E+00  0.43569284073E+02  0.43569284073E+02  0.00000000000E+00 0. -1.
         -4   -1    0    0    0  501 -0.00000000000E+00 -0.00000000000E+00 -0.20837856763E+03  0.20838243771E+03  0.12700000000E+01 0. -1.
         25    2    1    2    0    0 -0.23873665866E+02  0.29999406946E+02 -0.16865319142E+03  0.21339909714E+03  0.12500143737E+03 0.  0.
    9000005    1    3    3    0    0 -0.34002970893E+02  0.50908521467E+02 -0.17807562013E+03  0.18830774299E+03  0.10000000000E+01 0.  0.
    9000005    1    3    3    0    0  0.10129305027E+02 -0.20909114521E+02  0.94224287049E+01  0.25091354150E+02  0.10000000000E+01 0.  0.
         -4    1    1    2    0  502  0.23873665866E+02 -0.29999406946E+02  0.38439078687E+01  0.38552624641E+02  0.12700000000E+01 0.  1.
<mgrwt>
<rscale>  1 0.13074890E+03</rscale>
<asrwt>0</asrwt>
<pdfrwt beam="1">  1       21 0.67029668E-02 0.13074890E+03</pdfrwt>
<pdfrwt beam="2">  1       -4 0.32059962E-01 0.13074890E+03</pdfrwt>
<totfact> 0.61324342E+04</totfact>
</mgrwt>
</event>
<event>
 6    4  0.3995738E-003  0.1357430E+03  0.7818608E-02  0.1219175E+00
          4   -1    0    0  502    0 -0.00000000000E+00  0.00000000000E+00  0.19990085078E+03  0.19990488499E+03  0.12700000000E+01 0. -1.
         21   -1    0    0  501  502  0.00000000000E+00 -0.00000000000E+00 -0.19278590583E+03  0.19278590583E+03  0.00000000000E+00 0.  1.
         25    2    1    2    0    0 -0.11437597505E+02  0.51640473782E+02  0.17223781179E+03  0.21929894781E+03  0.12501442930E+03 0.  0.
    9000005    1    3    3    0    0  0.54605439174E+02  0.23328377680E+02  0.50610799921E+02  0.78028329863E+02  0.10000000000E+01 0.  0.
    9000005    1    3    3    0    0 -0.66043036679E+02  0.28312096102E+02  0.12162701187E+03  0.14127061795E+03  0.10000000000E+01 0.  0.
          4    1    1    2  501    0  0.11437597505E+02 -0.51640473782E+02 -0.16512286684E+03  0.17339184301E+03  0.12700000000E+01 0.  1.
<mgrwt>
<rscale>  1 0.13574301E+03</rscale>
<asrwt>0</asrwt>
<pdfrwt beam="2">  1       21 0.29659370E-01 0.13574301E+03</pdfrwt>
<pdfrwt beam="1">  1        4 0.30754609E-01 0.13574301E+03</pdfrwt>
<totfact> 0.45626969E+03</totfact>
</mgrwt>
</event>
<event>
 6    4  0.3995738E-003  0.1282202E+03  0.7818608E-02  0.1230121E+00
          4   -1    0    0  502    0 -0.00000000000E+00  0.00000000000E+00  0.16674758161E+04  0.16674762997E+04  0.12700000000E+01 0. -1.
         21   -1    0    0  501  502  0.00000000000E+00 -0.00000000000E+00 -0.37351918231E+01  0.37351918231E+01  0.00000000000E+00 0. -1.
         25    2    1    2    0    0  0.27519463333E+02  0.76717470464E+01  0.14273210173E+04  0.14330686352E+04  0.12499700093E+03 0.  0.
    9000005    1    3    3    0    0 -0.22047112153E+02 -0.11258633698E+02  0.11733960748E+04  0.11736576078E+04  0.10000000000E+01 0.  0.
    9000005    1    3    3    0    0  0.49566575486E+02  0.18930380744E+02  0.25392494247E+03  0.25941102739E+03  0.10000000000E+01 0.  0.
          4    1    1    2  501    0 -0.27519463333E+02 -0.76717470464E+01  0.23641960696E+03  0.23814285633E+03  0.12700000000E+01 0.  1.
<mgrwt>
<rscale>  1 0.12822023E+03</rscale>
<asrwt>0</asrwt>
<pdfrwt beam="2">  1       21 0.57464623E-03 0.12822023E+03</pdfrwt>
<pdfrwt beam="1">  1        4 0.25655079E+00 0.12822023E+03</pdfrwt>
<totfact> 0.24370300E+04</totfact>
</mgrwt>
</event>
<event>
 6    4  0.3995738E-003  0.1300237E+03  0.7818608E-02  0.1227421E+00
         -4   -1    0    0    0  501 -0.00000000000E+00  0.00000000000E+00  0.62470311901E+03  0.62470440994E+03  0.12700000000E+01 0. -1.
         21   -1    0    0  501  502  0.00000000000E+00 -0.00000000000E+00 -0.35083622073E+02  0.35083622073E+02  0.00000000000E+00 0.  1.
         25    2    1    2    0    0  0.33420102808E+02  0.12751862829E+02  0.60645256771E+03  0.62023454356E+03  0.12500663528E+03 0.  0.
    9000005    1    3    3    0    0 -0.27824101962E+02  0.27834811469E+02  0.44740410725E+03  0.44913293418E+03  0.10000000000E+01 0.  0.
    9000005    1    3    3    0    0  0.61244204771E+02 -0.15082948640E+02  0.15904846046E+03  0.17110160938E+03  0.10000000000E+01 0.  0.
         -4    1    1    2    0  502 -0.33420102808E+02 -0.12751862829E+02 -0.16833070775E+02  0.39553488456E+02  0.12700000000E+01 0.  1.
<mgrwt>
<rscale>  1 0.13002374E+03</rscale>
<asrwt>0</asrwt>
<pdfrwt beam="2">  1       21 0.53974808E-02 0.13002374E+03</pdfrwt>
<pdfrwt beam="1">  1       -4 0.96110032E-01 0.13002374E+03</pdfrwt>
<totfact> 0.90290640E+03</totfact>
</mgrwt>
</event>
<event>
 6    4  0.3995738E-003  0.1284155E+03  0.7818608E-02  0.1229826E+00
          4   -1    0    0  502    0 -0.00000000000E+00  0.00000000000E+00  0.33800565429E+03  0.33800804019E+03  0.12700000000E+01 0. -1.
         21   -1    0    0  501  502  0.00000000000E+00 -0.00000000000E+00 -0.22214802909E+02  0.22214802909E+02  0.00000000000E+00 0. -1.
         25    2    1    2    0    0  0.21398571925E+01 -0.29367274664E+02  0.30099724903E+03  0.32724589083E+03  0.12499405320E+03 0.  0.
    9000005    1    3    3    0    0  0.17964422615E+02 -0.72099778287E+02  0.12479795090E+03  0.14524677986E+03  0.10000000000E+01 0.  0.
    9000005    1    3    3    0    0 -0.15824565422E+02  0.42732503624E+02  0.17619929812E+03  0.18199911097E+03  0.10000000000E+01 0.  0.
          4    1    1    2  501    0 -0.21398571925E+01  0.29367274664E+02  0.14793602351E+02  0.32976952262E+02  0.12700000000E+01 0.  1.
<mgrwt>
<rscale>  1 0.12841546E+03</rscale>
<asrwt>0</asrwt>
<pdfrwt beam="2">  1       21 0.34176622E-02 0.12841546E+03</pdfrwt>
<pdfrwt beam="1">  1        4 0.52003842E-01 0.12841546E+03</pdfrwt>
<totfact> 0.72856527E+04</totfact>
</mgrwt>
</event>
<event>
 6    4  0.3995738E-003  0.1728518E+03  0.7818608E-02  0.1174906E+00
         21   -1    0    0  501  502  0.00000000000E+00  0.00000000000E+00  0.41330008468E+02  0.41330008468E+02  0.00000000000E+00 0. -1.
         -4   -1    0    0    0  501 -0.00000000000E+00 -0.00000000000E+00 -0.67682966897E+03  0.67683086048E+03  0.12700000000E+01 0.  1.
         25    2    1    2    0    0  0.29907343355E+02 -0.11557994409E+03 -0.53457600443E+03  0.56182670787E+03  0.12499829001E+03 0.  0.
    9000005    1    3    3    0    0  0.22754542071E+02 -0.12110090042E+03 -0.26663889657E+03  0.29373542250E+03  0.10000000000E+01 0.  0.
    9000005    1    3    3    0    0  0.71528012832E+01  0.55209563286E+01 -0.26793710786E+03  0.26809128537E+03  0.10000000000E+01 0.  0.
         -4    1    1    2    0  502 -0.29907343355E+02  0.11557994409E+03 -0.10092365607E+03  0.15633416107E+03  0.12700000000E+01 0. -1.
<mgrwt>
<rscale>  1 0.17285180E+03</rscale>
<asrwt>0</asrwt>
<pdfrwt beam="1">  1       21 0.63584631E-02 0.17285180E+03</pdfrwt>
<pdfrwt beam="2">  1       -4 0.10412923E+00 0.17285180E+03</pdfrwt>
<totfact> 0.57995089E+03</totfact>
</mgrwt>
</event>
<event>
 6    4  0.3995738E-003  0.1280664E+03  0.7818608E-02  0.1230353E+00
         -4   -1    0    0    0  501 -0.00000000000E+00  0.00000000000E+00  0.13631776543E+03  0.13632368125E+03  0.12700000000E+01 0.  1.
         21   -1    0    0  501  502  0.00000000000E+00 -0.00000000000E+00 -0.56345444303E+02  0.56345444303E+02  0.00000000000E+00 0. -1.
         25    2    1    2    0    0  0.19675074344E+02 -0.19710737171E+02  0.96415118480E+02  0.16030247304E+03  0.12500154431E+03 0.  0.
    9000005    1    3    3    0    0  0.43837775015E+02  0.26819508790E+02  0.94799908313E+02  0.10783811565E+03  0.10000000000E+01 0.  0.
    9000005    1    3    3    0    0 -0.24162700670E+02 -0.46530245961E+02  0.16152101673E+01  0.52464357394E+02  0.10000000000E+01 0.  0.
         -4    1    1    2    0  502 -0.19675074344E+02  0.19710737171E+02 -0.16442797357E+02  0.32366652518E+02  0.12700000000E+01 0. -1.
<mgrwt>
<rscale>  1 0.12806642E+03</rscale>
<asrwt>0</asrwt>
<pdfrwt beam="2">  1       21 0.86685299E-02 0.12806642E+03</pdfrwt>
<pdfrwt beam="1">  1       -4 0.20973520E-01 0.12806642E+03</pdfrwt>
<totfact> 0.86298877E+04</totfact>
</mgrwt>
</event>
<event>
 6    4  0.3995738E-003  0.1269569E+03  0.7818608E-02  0.1232042E+00
         21   -1    0    0  501  502  0.00000000000E+00  0.00000000000E+00  0.66831127720E+02  0.66831127720E+02  0.00000000000E+00 0. -1.
         -4   -1    0    0    0  501 -0.00000000000E+00 -0.00000000000E+00 -0.90321254349E+02  0.90330182593E+02  0.12700000000E+01 0.  1.
         25    2    1    2    0    0 -0.18123116421E+02  0.12843770583E+02 -0.35568271687E+02  0.13184522294E+03  0.12499860428E+03 0.  0.
    9000005    1    3    3    0    0  0.45828793378E+02 -0.18460524330E+02 -0.35134751231E+02  0.60634313760E+02  0.10000000000E+01 0.  0.
    9000005    1    3    3    0    0 -0.63951909799E+02  0.31304294913E+02 -0.43352045611E+00  0.71210909185E+02  0.10000000000E+01 0.  0.
         -4    1    1    2    0  502  0.18123116421E+02 -0.12843770583E+02  0.12078145058E+02  0.25316087368E+02  0.12700000000E+01 0. -1.
<mgrwt>
<rscale>  1 0.12695693E+03</rscale>
<asrwt>0</asrwt>
<pdfrwt beam="1">  1       21 0.10281712E-01 0.12695693E+03</pdfrwt>
<pdfrwt beam="2">  1       -4 0.13897193E-01 0.12695693E+03</pdfrwt>
<totfact> 0.13248940E+05</totfact>
</mgrwt>
</event>
<event>
 6    4  0.3995738E-003  0.1280099E+03  0.7818608E-02  0.1230439E+00
         21   -1    0    0  501  502  0.00000000000E+00  0.00000000000E+00  0.16345535425E+02  0.16345535425E+02  0.00000000000E+00 0. -1.
          4   -1    0    0  502    0 -0.00000000000E+00 -0.00000000000E+00 -0.58827465020E+03  0.58827602107E+03  0.12700000000E+01 0.  1.
         25    2    1    2    0    0 -0.15140042292E+02 -0.23069177749E+02 -0.56015229068E+03  0.57459299795E+03  0.12500046678E+03 0.  0.
    9000005    1    3    3    0    0  0.46293338951E+02  0.92134873490E+01 -0.35252057602E+03  0.35566798857E+03  0.10000000000E+01 0.  0.
    9000005    1    3    3    0    0 -0.61433381243E+02 -0.32282665098E+02 -0.20763171466E+03  0.21892500938E+03  0.10000000000E+01 0.  0.
          4    1    1    2  501    0  0.15140042292E+02  0.23069177749E+02 -0.11776824093E+02  0.30028558545E+02  0.12700000000E+01 0. -1.
<mgrwt>
<rscale>  1 0.12800986E+03</rscale>
<asrwt>0</asrwt>
<pdfrwt beam="1">  1       21 0.25146978E-02 0.12800986E+03</pdfrwt>
<pdfrwt beam="2">  1        4 0.90507692E-01 0.12800986E+03</pdfrwt>
<totfact> 0.36590414E+04</totfact>
</mgrwt>
</event>
<event>
 6    4  0.3995738E-003  0.1269267E+03  0.7818608E-02  0.1232089E+00
         21   -1    0    0  501  502  0.00000000000E+00  0.00000000000E+00  0.47631347160E+01  0.47631347160E+01  0.00000000000E+00 0. -1.
         -4   -1    0    0    0  501 -0.00000000000E+00 -0.00000000000E+00 -0.14598249414E+04  0.14598254939E+04  0.12700000000E+01 0. -1.
         25    2    1    2    0    0  0.64843732631E+01 -0.21093110999E+02 -0.13918154688E+04  0.13975910272E+04  0.12499365480E+03 0.  0.
    9000005    1    3    3    0    0  0.49282134304E+00 -0.72714348528E+02 -0.67909831072E+03  0.68298106487E+03  0.10000000000E+01 0.  0.
    9000005    1    3    3    0    0  0.59915519201E+01  0.51621237529E+02 -0.71271715806E+03  0.71460996232E+03  0.10000000000E+01 0.  0.
         -4    1    1    2    0  502 -0.64843732631E+01  0.21093110999E+02 -0.63246337932E+02  0.66997601375E+02  0.12700000000E+01 0.  1.
<mgrwt>
<rscale>  1 0.12692667E+03</rscale>
<asrwt>0</asrwt>
<pdfrwt beam="1">  1       21 0.73278903E-03 0.12692667E+03</pdfrwt>
<pdfrwt beam="2">  1       -4 0.22460180E+00 0.12692667E+03</pdfrwt>
<totfact> 0.25569556E+04</totfact>
</mgrwt>
</event>
<event>
 6    4  0.3995738E-003  0.1286556E+03  0.7818608E-02  0.1229464E+00
         21   -1    0    0  501  502  0.00000000000E+00  0.00000000000E+00  0.18072665324E+03  0.18072665324E+03  0.00000000000E+00 0.  1.
          4   -1    0    0  502    0 -0.00000000000E+00 -0.00000000000E+00 -0.35132976624E+02  0.35155923348E+02  0.12700000000E+01 0.  1.
         25    2    1    2    0    0 -0.21642229843E+02 -0.21569799685E+02  0.12136042366E+03  0.17686327598E+03  0.12497449175E+03 0.  0.
    9000005    1    3    3    0    0  0.46324845496E+02 -0.33216172513E+02  0.37284291530E+02  0.68120656350E+02  0.10000000000E+01 0.  0.
    9000005    1    3    3    0    0 -0.67967075339E+02  0.11646372828E+02  0.84076132128E+02  0.10874261963E+03  0.10000000000E+01 0.  0.
          4    1    1    2  501    0  0.21642229843E+02  0.21569799685E+02  0.24233252958E+02  0.39019300608E+02  0.12700000000E+01 0. -1.
<mgrwt>
<rscale>  1 0.12865561E+03</rscale>
<asrwt>0</asrwt>
<pdfrwt beam="1">  1       21 0.27804100E-01 0.12865561E+03</pdfrwt>
<pdfrwt beam="2">  1        4 0.54071818E-02 0.12865561E+03</pdfrwt>
<totfact> 0.10429110E+05</totfact>
</mgrwt>
</event>
<event>
 6    4  0.3995738E-003  0.1970589E+03  0.7818608E-02  0.1152244E+00
         -4   -1    0    0    0  501 -0.00000000000E+00  0.00000000000E+00  0.86413373185E+02  0.86422705148E+02  0.12700000000E+01 0. -1.
         21   -1    0    0  501  502  0.00000000000E+00 -0.00000000000E+00 -0.37079982686E+03  0.37079982686E+03  0.00000000000E+00 0.  1.
         25    2    1    2    0    0  0.15107477603E+03  0.19357845341E+02 -0.10999486457E+03  0.22567911625E+03  0.12503551157E+03 0.  0.
    9000005    1    3    3    0    0  0.17170056324E+03  0.21548299959E+02 -0.83860922585E+02  0.19229942013E+03  0.10000000000E+01 0.  0.
    9000005    1    3    3    0    0 -0.20625787208E+02 -0.21904546189E+01 -0.26133941985E+02  0.33379696120E+02  0.10000000000E+01 0.  0.
         -4    1    1    2    0  502 -0.15107477603E+03 -0.19357845341E+02 -0.17439158910E+03  0.23154341575E+03  0.12700000000E+01 0.  1.
<mgrwt>
<rscale>  1 0.19705886E+03</rscale>
<asrwt>0</asrwt>
<pdfrwt beam="2">  1       21 0.57046128E-01 0.19705886E+03</pdfrwt>
<pdfrwt beam="1">  1       -4 0.13295250E-01 0.19705886E+03</pdfrwt>
<totfact> 0.56548961E+03</totfact>
</mgrwt>
</event>
<event>
 6    4  0.3995738E-003  0.1294524E+03  0.7818608E-02  0.1228271E+00
         -4   -1    0    0    0  501 -0.00000000000E+00  0.00000000000E+00  0.12135561359E+03  0.12136225875E+03  0.12700000000E+01 0.  1.
         21   -1    0    0  501  502  0.00000000000E+00 -0.00000000000E+00 -0.38925893576E+03  0.38925893576E+03  0.00000000000E+00 0. -1.
         25    2    1    2    0    0 -0.13945465068E+02 -0.30629349431E+02  0.85808643681E+02  0.15530949934E+03  0.12500113684E+03 0.  0.
    9000005    1    3    3    0    0  0.30540496799E+02 -0.27169886661E+02 -0.16186750368E+02  0.43976534349E+02  0.10000000000E+01 0.  0.
    9000005    1    3    3    0    0 -0.44485961867E+02 -0.34594627705E+01  0.10199539405E+03  0.11133296499E+03  0.10000000000E+01 0.  0.
         -4    1    1    2    0  502  0.13945465068E+02  0.30629349431E+02 -0.35371196585E+03  0.35531169517E+03  0.12700000000E+01 0. -1.
<mgrwt>
<rscale>  1 0.12945237E+03</rscale>
<asrwt>0</asrwt>
<pdfrwt beam="2">  1       21 0.59885989E-01 0.12945237E+03</pdfrwt>
<pdfrwt beam="1">  1       -4 0.18670765E-01 0.12945237E+03</pdfrwt>
<totfact> 0.27568977E+03</totfact>
</mgrwt>
</event>
<event>
 6    4  0.3995738E-003  0.1307911E+03  0.7818608E-02  0.1226287E+00
          4   -1    0    0  502    0 -0.00000000000E+00  0.00000000000E+00  0.31407641266E+03  0.31407898033E+03  0.12700000000E+01 0. -1.
         21   -1    0    0  501  502  0.00000000000E+00 -0.00000000000E+00 -0.33644975191E+02  0.33644975191E+02  0.00000000000E+00 0.  1.
         25    2    1    2    0    0 -0.29319669410E+02 -0.24938504744E+02  0.28018770250E+03  0.30921104418E+03  0.12499899672E+03 0.  0.
    9000005    1    3    3    0    0 -0.47262221584E+02 -0.57222488509E+02  0.25209781090E+03  0.26279733073E+03  0.10000000000E+01 0.  0.
    9000005    1    3    3    0    0  0.17942552174E+02  0.32283983765E+02  0.28089891595E+02  0.46413713449E+02  0.10000000000E+01 0.  0.
          4    1    1    2  501    0  0.29319669410E+02  0.24938504744E+02  0.24373496908E+00  0.38512911340E+02  0.12700000000E+01 0.  1.
<mgrwt>
<rscale>  1 0.13079114E+03</rscale>
<asrwt>0</asrwt>
<pdfrwt beam="2">  1       21 0.51761503E-02 0.13079114E+03</pdfrwt>
<pdfrwt beam="1">  1        4 0.48321487E-01 0.13079114E+03</pdfrwt>
<totfact> 0.42482499E+04</totfact>
</mgrwt>
</event>
<event>
 6    4  0.3995738E-003  0.1331770E+03  0.7818608E-02  0.1222816E+00
          4   -1    0    0  502    0 -0.00000000000E+00  0.00000000000E+00  0.16887374949E+03  0.16887852488E+03  0.12700000000E+01 0.  1.
         21   -1    0    0  501  502  0.00000000000E+00 -0.00000000000E+00 -0.46156393040E+03  0.46156393040E+03  0.00000000000E+00 0. -1.
         25    2    1    2    0    0  0.35398357966E+02 -0.29298506652E+02  0.14121583272E+03  0.19410830832E+03  0.12499871083E+03 0.  0.
    9000005    1    3    3    0    0  0.71997637542E+02  0.12749444709E+02  0.55270895190E+02  0.91662860565E+02  0.10000000000E+01 0.  0.
    9000005    1    3    3    0    0 -0.36599279575E+02 -0.42047951360E+02  0.85944937526E+02  0.10244544775E+03  0.10000000000E+01 0.  0.
          4    1    1    2  501    0 -0.35398357966E+02  0.29298506652E+02 -0.43390601363E+03  0.43633414696E+03  0.12700000000E+01 0. -1.
<mgrwt>
<rscale>  1 0.13317704E+03</rscale>
<asrwt>0</asrwt>
<pdfrwt beam="2">  1       21 0.71009835E-01 0.13317704E+03</pdfrwt>
<pdfrwt beam="1">  1        4 0.25981079E-01 0.13317704E+03</pdfrwt>
<totfact> 0.10483673E+03</totfact>
</mgrwt>
</event>
<event>
 6    4  0.3995738E-003  0.1653182E+03  0.7818608E-02  0.1182820E+00
         21   -1    0    0  501  502  0.00000000000E+00  0.00000000000E+00  0.80633735578E+03  0.80633735578E+03  0.00000000000E+00 0.  1.
          4   -1    0    0  502    0 -0.00000000000E+00 -0.00000000000E+00 -0.10240659563E+03  0.10241447031E+03  0.12700000000E+01 0. -1.
         25    2    1    2    0    0 -0.34460286928E+01 -0.10814179247E+03 -0.29029625543E+02  0.16784760672E+03  0.12499430999E+03 0.  0.
    9000005    1    3    3    0    0  0.57814006268E+02 -0.76126302858E+02 -0.23840794048E+02  0.98524396819E+02  0.10000000000E+01 0.  0.
    9000005    1    3    3    0    0 -0.61260034961E+02 -0.32015489614E+02 -0.51888314945E+01  0.69323209901E+02  0.10000000000E+01 0.  0.
          4    1    1    2  501    0  0.34460286928E+01  0.10814179247E+03  0.73296038569E+03  0.74090421937E+03  0.12700000000E+01 0.  1.
<mgrwt>
<rscale>  1 0.16531818E+03</rscale>
<asrwt>0</asrwt>
<pdfrwt beam="1">  1       21 0.12405190E+00 0.16531818E+03</pdfrwt>
<pdfrwt beam="2">  1        4 0.15755544E-01 0.16531818E+03</pdfrwt>
<totfact> 0.70862477E+02</totfact>
</mgrwt>
</event>
<event>
 6    4  0.3995738E-003  0.1714504E+03  0.7818608E-02  0.1176344E+00
         21   -1    0    0  501  502  0.00000000000E+00  0.00000000000E+00  0.86777993978E+02  0.86777993978E+02  0.00000000000E+00 0.  1.
         -4   -1    0    0    0  501 -0.00000000000E+00 -0.00000000000E+00 -0.26457932487E+03  0.26458237290E+03  0.12700000000E+01 0. -1.
         25    2    1    2    0    0  0.95156483368E+01 -0.11696442786E+03 -0.15639558728E+03  0.23206642860E+03  0.12499609040E+03 0.  0.
    9000005    1    3    3    0    0  0.51603884269E+01 -0.60944650230E+02 -0.16429779581E+03  0.17531584557E+03  0.10000000000E+01 0.  0.
    9000005    1    3    3    0    0  0.43552599099E+01 -0.56019777634E+02  0.79022085298E+01  0.56750583034E+02  0.10000000000E+01 0.  0.
         -4    1    1    2    0  502 -0.95156483368E+01  0.11696442786E+03 -0.21405743612E+02  0.11929393827E+03  0.12700000000E+01 0.  1.
<mgrwt>
<rscale>  1 0.17145042E+03</rscale>
<asrwt>0</asrwt>
<pdfrwt beam="1">  1       21 0.13350461E-01 0.17145042E+03</pdfrwt>
<pdfrwt beam="2">  1       -4 0.40705461E-01 0.17145042E+03</pdfrwt>
<totfact> 0.11870618E+04</totfact>
</mgrwt>
</event>
<event>
 6    4  0.3995738E-003  0.1277240E+03  0.7818608E-02  0.1230872E+00
          4   -1    0    0  502    0 -0.00000000000E+00  0.00000000000E+00  0.37674025874E+03  0.37674239934E+03  0.12700000000E+01 0.  1.
         21   -1    0    0  501  502  0.00000000000E+00 -0.00000000000E+00 -0.18515833068E+02  0.18515833068E+02  0.00000000000E+00 0.  1.
         25    2    1    2    0    0 -0.22957156540E+02  0.12714008715E+02  0.34022800833E+03  0.36341233798E+03  0.12499901078E+03 0.  0.
    9000005    1    3    3    0    0  0.15122281037E+02  0.29646657724E+01 -0.47842416127E+01  0.16166681623E+02  0.10000000000E+01 0.  0.
    9000005    1    3    3    0    0 -0.38079437576E+02  0.97493429430E+01  0.34501224994E+03  0.34724565636E+03  0.10000000000E+01 0.  0.
          4    1    1    2  501    0  0.22957156540E+02 -0.12714008715E+02  0.17996417349E+02  0.31845894420E+02  0.12700000000E+01 0. -1.
<mgrwt>
<rscale>  1 0.12772404E+03</rscale>
<asrwt>0</asrwt>
<pdfrwt beam="2">  1       21 0.28485900E-02 0.12772404E+03</pdfrwt>
<pdfrwt beam="1">  1        4 0.57963549E-01 0.12772404E+03</pdfrwt>
<totfact> 0.78470908E+04</totfact>
</mgrwt>
</event>
<event>
 6    4  0.3995738E-003  0.1283881E+03  0.7818608E-02  0.1229867E+00
          4   -1    0    0  502    0 -0.00000000000E+00  0.00000000000E+00  0.92140727278E+02  0.92149479235E+02  0.12700000000E+01 0. -1.
         21   -1    0    0  501  502  0.00000000000E+00 -0.00000000000E+00 -0.13009382330E+03  0.13009382330E+03  0.00000000000E+00 0.  1.
         25    2    1    2    0    0  0.26596393081E+02 -0.12298980757E+02  0.43589794472E+02  0.13558599504E+03  0.12499943526E+03 0.  0.
    9000005    1    3    3    0    0  0.58138393996E+02 -0.49917883130E+02  0.39757808503E+02  0.86333951893E+02  0.10000000000E+01 0.  0.
    9000005    1    3    3    0    0 -0.31542000914E+02  0.37618902373E+02  0.38319859697E+01  0.49252043144E+02  0.10000000000E+01 0.  0.
          4    1    1    2  501    0 -0.26596393081E+02  0.12298980757E+02 -0.81542890497E+02  0.86657307500E+02  0.12700000000E+01 0.  1.
<mgrwt>
<rscale>  1 0.12838805E+03</rscale>
<asrwt>0</asrwt>
<pdfrwt beam="2">  1       21 0.20014434E-01 0.12838805E+03</pdfrwt>
<pdfrwt beam="1">  1        4 0.14176647E-01 0.12838805E+03</pdfrwt>
<totfact> 0.38724102E+04</totfact>
</mgrwt>
</event>
<event>
 6    4  0.3995738E-003  0.1268120E+03  0.7818608E-02  0.1232264E+00
         21   -1    0    0  501  502  0.00000000000E+00  0.00000000000E+00  0.17421244295E+03  0.17421244295E+03  0.00000000000E+00 0. -1.
         -4   -1    0    0    0  501 -0.00000000000E+00 -0.00000000000E+00 -0.41550956161E+02  0.41570360329E+02  0.12700000000E+01 0. -1.
         25    2    1    2    0    0 -0.14837438929E+02  0.15327502274E+02  0.60464255909E+02  0.14048914507E+03  0.12500476679E+03 0.  0.
    9000005    1    3    3    0    0  0.20940070835E+02  0.14159311272E+01 -0.33182256035E+02  0.39275355416E+02  0.10000000000E+01 0.  0.
    9000005    1    3    3    0    0 -0.35777509764E+02  0.13911571147E+02  0.93646511944E+02  0.10121378965E+03  0.10000000000E+01 0.  0.
         -4    1    1    2    0  502  0.14837438929E+02 -0.15327502274E+02  0.72197230881E+02  0.75293658212E+02  0.12700000000E+01 0.  1.
<mgrwt>
<rscale>  1 0.12681196E+03</rscale>
<asrwt>0</asrwt>
<pdfrwt beam="1">  1       21 0.26801914E-01 0.12681196E+03</pdfrwt>
<pdfrwt beam="2">  1       -4 0.63943036E-02 0.12681196E+03</pdfrwt>
<totfact> 0.85070075E+04</totfact>
</mgrwt>
</event>
<event>
 6    4  0.3995738E-003  0.1275605E+03  0.7818608E-02  0.1231121E+00
          4   -1    0    0  502    0 -0.00000000000E+00  0.00000000000E+00  0.59385743022E+02  0.59399321329E+02  0.12700000000E+01 0. -1.
         21   -1    0    0  501  502  0.00000000000E+00 -0.00000000000E+00 -0.15787127761E+03  0.15787127761E+03  0.00000000000E+00 0.  1.
         25    2    1    2    0    0 -0.25397557921E+02  0.10080783497E+01 -0.13168020216E+02  0.12823833889E+03  0.12500249052E+03 0.  0.
    9000005    1    3    3    0    0  0.50361843055E+02  0.35180212351E+01  0.35153216827E+01  0.50616688907E+02  0.10000000000E+01 0.  0.
    9000005    1    3    3    0    0 -0.75759400977E+02 -0.25099428854E+01 -0.16683341899E+02  0.77621649986E+02  0.10000000000E+01 0.  0.
          4    1    1    2  501    0  0.25397557921E+02 -0.10080783497E+01 -0.85317514368E+02  0.89032260043E+02  0.12700000000E+01 0.  1.
<mgrwt>
<rscale>  1 0.12756048E+03</rscale>
<asrwt>0</asrwt>
<pdfrwt beam="2">  1       21 0.24287889E-01 0.12756048E+03</pdfrwt>
<pdfrwt beam="1">  1        4 0.91377055E-02 0.12756048E+03</pdfrwt>
<totfact> 0.56929707E+04</totfact>
</mgrwt>
</event>
<event>
 6    4  0.3995738E-003  0.1286160E+03  0.7818608E-02  0.1229524E+00
          4   -1    0    0  502    0 -0.00000000000E+00  0.00000000000E+00  0.36416469509E+03  0.36416690961E+03  0.12700000000E+01 0. -1.
         21   -1    0    0  501  502  0.00000000000E+00 -0.00000000000E+00 -0.17397843272E+02  0.17397843272E+02  0.00000000000E+00 0. -1.
         25    2    1    2    0    0  0.23993201355E+02  0.18464169715E+02  0.28918317559E+03  0.31649485244E+03  0.12500193320E+03 0.  0.
    9000005    1    3    3    0    0  0.49448270044E+02  0.60970630717E+02  0.16272938138E+03  0.18067761562E+03  0.10000000000E+01 0.  0.
    9000005    1    3    3    0    0 -0.25455068689E+02 -0.42506461002E+02  0.12645379420E+03  0.13581723682E+03  0.10000000000E+01 0.  0.
          4    1    1    2  501    0 -0.23993201355E+02 -0.18464169715E+02  0.57583676234E+02  0.65069900439E+02  0.12700000000E+01 0.  1.
<mgrwt>
<rscale>  1 0.12861603E+03</rscale>
<asrwt>0</asrwt>
<pdfrwt beam="2">  1       21 0.26765916E-02 0.12861603E+03</pdfrwt>
<pdfrwt beam="1">  1        4 0.56029068E-01 0.12861603E+03</pdfrwt>
<totfact> 0.93323529E+04</totfact>
</mgrwt>
</event>
<event>
 6    4  0.3995738E-003  0.1283180E+03  0.7818608E-02  0.1229973E+00
         -4   -1    0    0    0  501 -0.00000000000E+00  0.00000000000E+00  0.17973754798E+02  0.18018567134E+02  0.12700000000E+01 0.  1.
         21   -1    0    0  501  502  0.00000000000E+00 -0.00000000000E+00 -0.35297029668E+03  0.35297029668E+03  0.00000000000E+00 0.  1.
         25    2    1    2    0    0 -0.19582709860E+02 -0.21381480248E+02 -0.24719894406E+03  0.27851896976E+03  0.12499939339E+03 0.  0.
    9000005    1    3    3    0    0 -0.39004482061E+02 -0.59998140899E+02 -0.20868323250E+03  0.22061463700E+03  0.10000000000E+01 0.  0.
    9000005    1    3    3    0    0  0.19421772200E+02  0.38616660650E+02 -0.38515711556E+02  0.57904332755E+02  0.10000000000E+01 0.  0.
         -4    1    1    2    0  502  0.19582709860E+02  0.21381480248E+02 -0.87797597819E+02  0.92469894052E+02  0.12700000000E+01 0. -1.
<mgrwt>
<rscale>  1 0.12831796E+03</rscale>
<asrwt>0</asrwt>
<pdfrwt beam="2">  1       21 0.54303122E-01 0.12831796E+03</pdfrwt>
<pdfrwt beam="1">  1       -4 0.27688159E-02 0.12831796E+03</pdfrwt>
<totfact> 0.79244142E+04</totfact>
</mgrwt>
</event>
<event>
 6    4  0.3995738E-003  0.1322062E+03  0.7818608E-02  0.1224218E+00
         21   -1    0    0  501  502  0.00000000000E+00  0.00000000000E+00  0.85949869400E+02  0.85949869400E+02  0.00000000000E+00 0.  1.
         -4   -1    0    0    0  501 -0.00000000000E+00 -0.00000000000E+00 -0.90137701886E+02  0.90146648309E+02  0.12700000000E+01 0.  1.
         25    2    1    2    0    0 -0.40467601315E+02 -0.14679169418E+02 -0.10262013119E+02  0.13260383624E+03  0.12500145480E+03 0.  0.
    9000005    1    3    3    0    0 -0.72230026621E+02 -0.46383689098E+02 -0.16079369559E+02  0.87339392518E+02  0.10000000000E+01 0.  0.
    9000005    1    3    3    0    0  0.31762425305E+02  0.31704519681E+02  0.58173564401E+01  0.45264443721E+02  0.10000000000E+01 0.  0.
         -4    1    1    2    0  502  0.40467601315E+02  0.14679169418E+02  0.60741806320E+01  0.43492681469E+02  0.12700000000E+01 0. -1.
<mgrwt>
<rscale>  1 0.13220616E+03</rscale>
<asrwt>0</asrwt>
<pdfrwt beam="1">  1       21 0.13223057E-01 0.13220616E+03</pdfrwt>
<pdfrwt beam="2">  1       -4 0.13868749E-01 0.13220616E+03</pdfrwt>
<totfact> 0.85708120E+04</totfact>
</mgrwt>
</event>
<event>
 6    4  0.3995738E-003  0.1307471E+03  0.7818608E-02  0.1226351E+00
         -4   -1    0    0    0  501 -0.00000000000E+00  0.00000000000E+00  0.12069885575E+03  0.12070553707E+03  0.12700000000E+01 0. -1.
         21   -1    0    0  501  502  0.00000000000E+00 -0.00000000000E+00 -0.65464736601E+02  0.65464736601E+02  0.00000000000E+00 0. -1.
         25    2    1    2    0    0 -0.30297794761E+02  0.23487556391E+02  0.65819663574E+02  0.14637971796E+03  0.12500068818E+03 0.  0.
    9000005    1    3    3    0    0  0.25568928015E+02  0.28205784033E+02 -0.20648620100E+02  0.43320916943E+02  0.10000000000E+01 0.  0.
    9000005    1    3    3    0    0 -0.55866722776E+02 -0.47182276415E+01  0.86468283675E+02  0.10305880102E+03  0.10000000000E+01 0.  0.
         -4    1    1    2    0  502  0.30297794761E+02 -0.23487556391E+02 -0.10585544429E+02  0.39790555707E+02  0.12700000000E+01 0.  1.
<mgrwt>
<rscale>  1 0.13074706E+03</rscale>
<asrwt>0</asrwt>
<pdfrwt beam="2">  1       21 0.10071498E-01 0.13074706E+03</pdfrwt>
<pdfrwt beam="1">  1       -4 0.18570516E-01 0.13074706E+03</pdfrwt>
<totfact> 0.82916149E+04</totfact>
</mgrwt>
</event>
<event>
 6    4  0.3995738E-003  0.1270752E+03  0.7818608E-02  0.1231861E+00
         21   -1    0    0  501  502  0.00000000000E+00  0.00000000000E+00  0.23450728401E+02  0.23450728401E+02  0.00000000000E+00 0.  1.
          4   -1    0    0  502    0 -0.00000000000E+00 -0.00000000000E+00 -0.24865607178E+03  0.24865931499E+03  0.12700000000E+01 0.  1.
         25    2    1    2    0    0 -0.22604813457E+02  0.35892525938E+01 -0.20675322703E+03  0.24268295004E+03  0.12499702807E+03 0.  0.
    9000005    1    3    3    0    0  0.19034938124E+02  0.47155647819E+02 -0.38003650307E+02  0.63492215486E+02  0.10000000000E+01 0.  0.
    9000005    1    3    3    0    0 -0.41639751581E+02 -0.43566395226E+02 -0.16874957673E+03  0.17919073455E+03  0.10000000000E+01 0.  0.
          4    1    1    2  501    0  0.22604813457E+02 -0.35892525938E+01 -0.18452116342E+02  0.29427093351E+02  0.12700000000E+01 0. -1.
<mgrwt>
<rscale>  1 0.12707524E+03</rscale>
<asrwt>0</asrwt>
<pdfrwt beam="1">  1       21 0.36078043E-02 0.12707524E+03</pdfrwt>
<pdfrwt beam="2">  1        4 0.38257675E-01 0.12707524E+03</pdfrwt>
<totfact> 0.12286380E+05</totfact>
</mgrwt>
</event>
<event>
 6    4  0.3995738E-003  0.1271251E+03  0.7818608E-02  0.1231785E+00
          4   -1    0    0  502    0 -0.00000000000E+00  0.00000000000E+00  0.56175996655E+02  0.56190350597E+02  0.12700000000E+01 0.  1.
         21   -1    0    0  501  502  0.00000000000E+00 -0.00000000000E+00 -0.10128918658E+03  0.10128918658E+03  0.00000000000E+00 0.  1.
         25    2    1    2    0    0  0.21901097196E+02 -0.75025819401E+01 -0.42989196861E+02  0.13419711804E+03  0.12499939460E+03 0.  0.
    9000005    1    3    3    0    0  0.48043174447E+02 -0.51692849995E+02 -0.58482967042E+01  0.70820194337E+02  0.10000000000E+01 0.  0.
    9000005    1    3    3    0    0 -0.26142077251E+02  0.44190268055E+02 -0.37140900157E+02  0.63376923704E+02  0.10000000000E+01 0.  0.
          4    1    1    2  501    0 -0.21901097196E+02  0.75025819401E+01 -0.21239930606E+01  0.23282419133E+02  0.12700000000E+01 0. -1.
<mgrwt>
<rscale>  1 0.12712512E+03</rscale>
<asrwt>0</asrwt>
<pdfrwt beam="2">  1       21 0.15582952E-01 0.12712512E+03</pdfrwt>
<pdfrwt beam="1">  1        4 0.86441777E-02 0.12712512E+03</pdfrwt>
<totfact> 0.14150076E+05</totfact>
</mgrwt>
</event>
<event>
 6    4  0.3995738E-003  0.1268048E+03  0.7818608E-02  0.1232275E+00
         21   -1    0    0  501  502  0.00000000000E+00  0.00000000000E+00  0.19347941893E+02  0.19347941893E+02  0.00000000000E+00 0.  1.
          4   -1    0    0  502    0 -0.00000000000E+00 -0.00000000000E+00 -0.30448829019E+03  0.30449093872E+03  0.12700000000E+01 0.  1.
         25    2    1    2    0    0 -0.78159562524E+01 -0.19829879436E+02 -0.20627314664E+03  0.24213232220E+03  0.12500054855E+03 0.  0.
    9000005    1    3    3    0    0 -0.39563926917E+02  0.23825737207E+01 -0.19872849810E+03  0.20264500223E+03  0.10000000000E+01 0.  0.
    9000005    1    3    3    0    0  0.31747970665E+02 -0.22212453157E+02 -0.75446485334E+01  0.39487319966E+02  0.10000000000E+01 0.  0.
          4    1    1    2  501    0  0.78159562524E+01  0.19829879436E+02 -0.78867201664E+02  0.81706558420E+02  0.12700000000E+01 0. -1.
<mgrwt>
<rscale>  1 0.12680477E+03</rscale>
<asrwt>0</asrwt>
<pdfrwt beam="1">  1       21 0.29766065E-02 0.12680477E+03</pdfrwt>
<pdfrwt beam="2">  1        4 0.46847762E-01 0.12680477E+03</pdfrwt>
<totfact> 0.11281728E+05</totfact>
</mgrwt>
</event>
<event>
 6    4  0.3995738E-003  0.1286947E+03  0.7818608E-02  0.1229405E+00
         21   -1    0    0  501  502  0.00000000000E+00  0.00000000000E+00  0.29639010935E+02  0.29639010935E+02  0.00000000000E+00 0.  1.
          4   -1    0    0  502    0 -0.00000000000E+00 -0.00000000000E+00 -0.25746708519E+03  0.25747021742E+03  0.12700000000E+01 0.  1.
         25    2    1    2    0    0  0.27482897315E+02  0.13457181605E+02 -0.22098374445E+03  0.25572669926E+03  0.12500369604E+03 0.  0.
    9000005    1    3    3    0    0  0.59885661792E+02 -0.29637404106E+02 -0.76882373775E+02  0.10186543873E+03  0.10000000000E+01 0.  0.
    9000005    1    3    3    0    0 -0.32402764477E+02  0.43094585711E+02 -0.14410137067E+03  0.15386126053E+03  0.10000000000E+01 0.  0.
          4    1    1    2  501    0 -0.27482897315E+02 -0.13457181605E+02 -0.68443298105E+01  0.31382529090E+02  0.12700000000E+01 0. -1.
<mgrwt>
<rscale>  1 0.12869471E+03</rscale>
<asrwt>0</asrwt>
<pdfrwt beam="1">  1       21 0.45598481E-02 0.12869471E+03</pdfrwt>
<pdfrwt beam="2">  1        4 0.39612653E-01 0.12869471E+03</pdfrwt>
<totfact> 0.77914343E+04</totfact>
</mgrwt>
</event>
<event>
 6    4  0.3995738E-003  0.1289852E+03  0.7818608E-02  0.1228969E+00
          4   -1    0    0  502    0 -0.00000000000E+00  0.00000000000E+00  0.12224661526E+04  0.12224668123E+04  0.12700000000E+01 0.  1.
         21   -1    0    0  501  502  0.00000000000E+00 -0.00000000000E+00 -0.54529161321E+01  0.54529161321E+01  0.00000000000E+00 0.  1.
         25    2    1    2    0    0 -0.13024281589E+02  0.29028790765E+02  0.87953547101E+03  0.88894309548E+03  0.12499951852E+03 0.  0.
    9000005    1    3    3    0    0 -0.41008565655E+02 -0.16817167525E+01  0.97333200297E+02  0.10563750522E+03  0.10000000000E+01 0.  0.
    9000005    1    3    3    0    0  0.27984284066E+02  0.30710507518E+02  0.78220227071E+03  0.78330559026E+03  0.10000000000E+01 0.  0.
          4    1    1    2  501    0  0.13024281589E+02 -0.29028790765E+02  0.33747776551E+03  0.33897663299E+03  0.12700000000E+01 0. -1.
<mgrwt>
<rscale>  1 0.12898520E+03</rscale>
<asrwt>0</asrwt>
<pdfrwt beam="2">  1       21 0.83891115E-03 0.12898520E+03</pdfrwt>
<pdfrwt beam="1">  1        4 0.18808292E+00 0.12898520E+03</pdfrwt>
<totfact> 0.34681325E+04</totfact>
</mgrwt>
</event>
<event>
 6    4  0.3995738E-003  0.1522542E+03  0.7818608E-02  0.1197730E+00
         21   -1    0    0  501  502  0.00000000000E+00  0.00000000000E+00  0.89519419473E+01  0.89519419473E+01  0.00000000000E+00 0.  1.
         -4   -1    0    0    0  501 -0.00000000000E+00 -0.00000000000E+00 -0.16406016000E+04  0.16406020916E+04  0.12700000000E+01 0. -1.
         25    2    1    2    0    0 -0.62337638810E+02 -0.60584958724E+02 -0.11611803088E+04  0.11711195658E+04  0.12499923734E+03 0.  0.
    9000005    1    3    3    0    0  0.16556292820E+02  0.18980271256E+02 -0.73900450691E+02  0.78080971698E+02  0.10000000000E+01 0.  0.
    9000005    1    3    3    0    0 -0.78893931630E+02 -0.79565229979E+02 -0.10872798581E+04  0.10930385941E+04  0.10000000000E+01 0.  0.
         -4    1    1    2    0  502  0.62337638810E+02  0.60584958724E+02 -0.47046934923E+03  0.47843446772E+03  0.12700000000E+01 0.  1.
<mgrwt>
<rscale>  1 0.15225416E+03</rscale>
<asrwt>0</asrwt>
<pdfrwt beam="1">  1       21 0.13772204E-02 0.15225416E+03</pdfrwt>
<pdfrwt beam="2">  1       -4 0.25240748E+00 0.15225416E+03</pdfrwt>
<totfact> 0.65851500E+03</totfact>
</mgrwt>
</event>
<event>
 6    4  0.3995738E-003  0.1267395E+03  0.7818608E-02  0.1232375E+00
         21   -1    0    0  501  502  0.00000000000E+00  0.00000000000E+00  0.26173555237E+03  0.26173555237E+03  0.00000000000E+00 0.  1.
          4   -1    0    0  502    0 -0.00000000000E+00 -0.00000000000E+00 -0.21484364029E+02  0.21521867896E+02  0.12700000000E+01 0. -1.
         25    2    1    2    0    0  0.20772780062E+02 -0.24374800313E+01  0.18576677400E+03  0.22488264826E+03  0.12500184585E+03 0.  0.
    9000005    1    3    3    0    0  0.22680821570E+01 -0.36236199021E+02  0.18263308720E+03  0.18620969592E+03  0.10000000000E+01 0.  0.
    9000005    1    3    3    0    0  0.18504697905E+02  0.33798718990E+02  0.31336868045E+01  0.38672952343E+02  0.10000000000E+01 0.  0.
          4    1    1    2  501    0 -0.20772780062E+02  0.24374800313E+01  0.54484414342E+02  0.58374772005E+02  0.12700000000E+01 0.  1.
<mgrwt>
<rscale>  1 0.12673954E+03</rscale>
<asrwt>0</asrwt>
<pdfrwt beam="1">  1       21 0.40267006E-01 0.12673954E+03</pdfrwt>
<pdfrwt beam="2">  1        4 0.33084089E-02 0.12673954E+03</pdfrwt>
<totfact> 0.11030966E+05</totfact>
</mgrwt>
</event>
<event>
 6    4  0.3995738E-003  0.1322153E+03  0.7818608E-02  0.1224205E+00
         21   -1    0    0  501  502  0.00000000000E+00  0.00000000000E+00  0.10930654046E+03  0.10930654046E+03  0.00000000000E+00 0. -1.
          4   -1    0    0  502    0 -0.00000000000E+00 -0.00000000000E+00 -0.76328173326E+02  0.76338738156E+02  0.12700000000E+01 0. -1.
         25    2    1    2    0    0 -0.40141278285E+02 -0.15621642449E+02  0.14030699810E+01  0.13222271573E+03  0.12500208004E+03 0.  0.
    9000005    1    3    3    0    0 -0.24872760512E+02  0.11732504990E+02 -0.58480943990E+02  0.64632241945E+02  0.10000000000E+01 0.  0.
    9000005    1    3    3    0    0 -0.15268517773E+02 -0.27354147439E+02  0.59884013971E+02  0.67590473784E+02  0.10000000000E+01 0.  0.
          4    1    1    2  501    0  0.40141278285E+02  0.15621642449E+02  0.31575297156E+02  0.53422562889E+02  0.12700000000E+01 0.  1.
<mgrwt>
<rscale>  1 0.13221527E+03</rscale>
<asrwt>0</asrwt>
<pdfrwt beam="1">  1       21 0.16816391E-01 0.13221527E+03</pdfrwt>
<pdfrwt beam="2">  1        4 0.11744176E-01 0.13221527E+03</pdfrwt>
<totfact> 0.73944166E+04</totfact>
</mgrwt>
</event>
<event>
 6    4  0.3995738E-003  0.1292093E+03  0.7818608E-02  0.1228634E+00
         21   -1    0    0  501  502  0.00000000000E+00  0.00000000000E+00  0.72331640087E+03  0.72331640087E+03  0.00000000000E+00 0.  1.
          4   -1    0    0  502    0 -0.00000000000E+00 -0.00000000000E+00 -0.11641643159E+02  0.11710711142E+02  0.12700000000E+01 0.  1.
         25    2    1    2    0    0  0.18451869999E+02 -0.27005093845E+02  0.37243010470E+03  0.39420708018E+03  0.12500117031E+03 0.  0.
    9000005    1    3    3    0    0  0.71940458475E+02 -0.20860442111E+02  0.23266193262E+03  0.24442414467E+03  0.10000000000E+01 0.  0.
    9000005    1    3    3    0    0 -0.53488588475E+02 -0.61446517338E+01  0.13976817209E+03  0.14978293551E+03  0.10000000000E+01 0.  0.
          4    1    1    2  501    0 -0.18451869999E+02  0.27005093845E+02  0.33924465301E+03  0.34082003183E+03  0.12700000000E+01 0. -1.
<mgrwt>
<rscale>  1 0.12920928E+03</rscale>
<asrwt>0</asrwt>
<pdfrwt beam="1">  1       21 0.11127941E+00 0.12920928E+03</pdfrwt>
<pdfrwt beam="2">  1        4 0.17964213E-02 0.12920928E+03</pdfrwt>
<totfact> 0.31257380E+04</totfact>
</mgrwt>
</event>
<event>
 6    4  0.3995738E-003  0.1358655E+03  0.7818608E-02  0.1219003E+00
         21   -1    0    0  501  502  0.00000000000E+00  0.00000000000E+00  0.13164986754E+03  0.13164986754E+03  0.00000000000E+00 0. -1.
         -4   -1    0    0    0  501 -0.00000000000E+00 -0.00000000000E+00 -0.67906367964E+02  0.67918242837E+02  0.12700000000E+01 0. -1.
         25    2    1    2    0    0  0.10486876379E+02  0.52187642426E+02  0.45315285282E+02  0.14322330955E+03  0.12500366682E+03 0.  0.
    9000005    1    3    3    0    0  0.17335220450E+02  0.15663325208E+02 -0.42140824087E+02  0.48194384314E+02  0.10000000000E+01 0.  0.
    9000005    1    3    3    0    0 -0.68483440715E+01  0.36524317219E+02  0.87456109370E+02  0.95028925233E+02  0.10000000000E+01 0.  0.
         -4    1    1    2    0  502 -0.10486876379E+02 -0.52187642426E+02  0.18428214289E+02  0.56344800826E+02  0.12700000000E+01 0.  1.
<mgrwt>
<rscale>  1 0.13586553E+03</rscale>
<asrwt>0</asrwt>
<pdfrwt beam="1">  1       21 0.20253826E-01 0.13586553E+03</pdfrwt>
<pdfrwt beam="2">  1       -4 0.10448518E-01 0.13586553E+03</pdfrwt>
<totfact> 0.64299277E+04</totfact>
</mgrwt>
</event>
<event>
 6    4  0.3995738E-003  0.1348045E+03  0.7818608E-02  0.1220496E+00
         -4   -1    0    0    0  501 -0.00000000000E+00  0.00000000000E+00  0.93701693301E+02  0.93710299474E+02  0.12700000000E+01 0.  1.
         21   -1    0    0  501  502  0.00000000000E+00 -0.00000000000E+00 -0.91607330599E+02  0.91607330599E+02  0.00000000000E+00 0. -1.
         25    2    1    2    0    0 -0.44879982316E+02 -0.23077455506E+02  0.27270096892E+01  0.13483203898E+03  0.12500184155E+03 0.  0.
    9000005    1    3    3    0    0 -0.84229419315E+02 -0.81532117123E+01 -0.20045724636E+02  0.86970690554E+02  0.10000000000E+01 0.  0.
    9000005    1    3    3    0    0  0.39349436999E+02 -0.14924243794E+02  0.22772734325E+02  0.47861348431E+02  0.10000000000E+01 0.  0.
         -4    1    1    2    0  502  0.44879982316E+02  0.23077455506E+02 -0.63264698672E+00  0.50485591088E+02  0.12700000000E+01 0. -1.
<mgrwt>
<rscale>  1 0.13480446E+03</rscale>
<asrwt>0</asrwt>
<pdfrwt beam="2">  1       21 0.14093436E-01 0.13480446E+03</pdfrwt>
<pdfrwt beam="1">  1       -4 0.14416984E-01 0.13480446E+03</pdfrwt>
<totfact> 0.71662289E+04</totfact>
</mgrwt>
</event>
<event>
 6    4  0.3995738E-003  0.1389607E+03  0.7818608E-02  0.1214734E+00
         21   -1    0    0  501  502  0.00000000000E+00  0.00000000000E+00  0.30711982460E+02  0.30711982460E+02  0.00000000000E+00 0. -1.
         -4   -1    0    0    0  501 -0.00000000000E+00 -0.00000000000E+00 -0.32648005288E+03  0.32648252300E+03  0.12700000000E+01 0. -1.
         25    2    1    2    0    0  0.56490161964E+02 -0.22242248882E+02 -0.19290154216E+03  0.23774162115E+03  0.12499686967E+03 0.  0.
    9000005    1    3    3    0    0  0.40269024942E+02 -0.11049619821E+02  0.20252501221E+01  0.41818537827E+02  0.10000000000E+01 0.  0.
    9000005    1    3    3    0    0  0.16221137022E+02 -0.11192629061E+02 -0.19492679228E+03  0.19592308332E+03  0.10000000000E+01 0.  0.
         -4    1    1    2    0  502 -0.56490161964E+02  0.22242248882E+02 -0.10286652826E+03  0.11945288431E+03  0.12700000000E+01 0.  1.
<mgrwt>
<rscale>  1 0.13896069E+03</rscale>
<asrwt>0</asrwt>
<pdfrwt beam="1">  1       21 0.47249205E-02 0.13896069E+03</pdfrwt>
<pdfrwt beam="2">  1       -4 0.50229910E-01 0.13896069E+03</pdfrwt>
<totfact> 0.46113234E+04</totfact>
</mgrwt>
</event>
<event>
 6    4  0.3995738E-003  0.1271159E+03  0.7818608E-02  0.1231799E+00
         -4   -1    0    0    0  501 -0.00000000000E+00  0.00000000000E+00  0.24619807648E+04  0.24619810924E+04  0.12700000000E+01 0.  1.
         21   -1    0    0  501  502  0.00000000000E+00 -0.00000000000E+00 -0.10095951476E+02  0.10095951476E+02  0.00000000000E+00 0.  1.
         25    2    1    2    0    0  0.22929533354E+02 -0.33255458124E+01  0.24443892478E+04  0.24476922298E+04  0.12498653619E+03 0.  0.
    9000005    1    3    3    0    0  0.31857977989E+02 -0.29747189598E+02  0.23111747008E+04  0.23115858893E+04  0.10000000000E+01 0.  0.
    9000005    1    3    3    0    0 -0.89284446352E+01  0.26421643786E+02  0.13321454699E+03  0.13610634046E+03  0.10000000000E+01 0.  0.
         -4    1    1    2    0  502 -0.22929533354E+02  0.33255458124E+01  0.74955655478E+01  0.24384814079E+02  0.12700000000E+01 0.  1.
<mgrwt>
<rscale>  1 0.12711592E+03</rscale>
<asrwt>0</asrwt>
<pdfrwt beam="2">  1       21 0.15532253E-02 0.12711592E+03</pdfrwt>
<pdfrwt beam="1">  1       -4 0.37877196E+00 0.12711592E+03</pdfrwt>
<totfact> 0.96557926E+02</totfact>
</mgrwt>
</event>
<event>
 6    4  0.3995738E-003  0.1346286E+03  0.7818608E-02  0.1220745E+00
         21   -1    0    0  501  502  0.00000000000E+00  0.00000000000E+00  0.39013026017E+02  0.39013026017E+02  0.00000000000E+00 0.  1.
         -4   -1    0    0    0  501 -0.00000000000E+00 -0.00000000000E+00 -0.87150298142E+03  0.87150390678E+03  0.12700000000E+01 0. -1.
         25    2    1    2    0    0  0.46978345797E+02  0.17161829875E+02 -0.84762245037E+03  0.85824745143E+03  0.12499350433E+03 0.  0.
    9000005    1    3    3    0    0  0.88849741052E+02  0.24048414263E+01 -0.61931987427E+03  0.62566617810E+03  0.10000000000E+01 0.  0.
    9000005    1    3    3    0    0 -0.41871395255E+02  0.14756988449E+02 -0.22830257610E+03  0.23258127333E+03  0.10000000000E+01 0.  0.
         -4    1    1    2    0  502 -0.46978345797E+02 -0.17161829875E+02  0.15132494969E+02  0.52269481368E+02  0.12700000000E+01 0.  1.
<mgrwt>
<rscale>  1 0.13462864E+03</rscale>
<asrwt>0</asrwt>
<pdfrwt beam="1">  1       21 0.60020041E-02 0.13462864E+03</pdfrwt>
<pdfrwt beam="2">  1       -4 0.13407904E+00 0.13462864E+03</pdfrwt>
<totfact> 0.34317601E+03</totfact>
</mgrwt>
</event>
<event>
 6    4  0.3995738E-003  0.1355021E+03  0.7818608E-02  0.1219513E+00
         21   -1    0    0  501  502  0.00000000000E+00  0.00000000000E+00  0.42089367146E+03  0.42089367146E+03  0.00000000000E+00 0. -1.
         -4   -1    0    0    0  501 -0.00000000000E+00 -0.00000000000E+00 -0.11904479177E+03  0.11905156592E+03  0.12700000000E+01 0.  1.
         25    2    1    2    0    0 -0.33726133322E+02 -0.39975256424E+02 -0.78108765604E+02  0.15640267350E+03  0.12500137527E+03 0.  0.
    9000005    1    3    3    0    0  0.91023117421E+01 -0.84820277842E+01  0.31879932935E+02  0.34236340317E+02  0.10000000000E+01 0.  0.
    9000005    1    3    3    0    0 -0.42828445064E+02 -0.31493228640E+02 -0.10998869854E+03  0.12216633318E+03  0.10000000000E+01 0.  0.
         -4    1    1    2    0  502  0.33726133322E+02  0.39975256424E+02  0.37995764529E+03  0.38354256388E+03  0.12700000000E+01 0. -1.
<mgrwt>
<rscale>  1 0.13550209E+03</rscale>
<asrwt>0</asrwt>
<pdfrwt beam="1">  1       21 0.64752872E-01 0.13550209E+03</pdfrwt>
<pdfrwt beam="2">  1       -4 0.18315252E-01 0.13550209E+03</pdfrwt>
<totfact> 0.24185900E+03</totfact>
</mgrwt>
</event>
<event>
 6    4  0.3995738E-003  0.1314316E+03  0.7818608E-02  0.1225347E+00
         21   -1    0    0  501  502  0.00000000000E+00  0.00000000000E+00  0.11821696087E+03  0.11821696087E+03  0.00000000000E+00 0.  1.
         -4   -1    0    0    0  501 -0.00000000000E+00 -0.00000000000E+00 -0.76843063570E+02  0.76853557620E+02  0.12700000000E+01 0. -1.
         25    2    1    2    0    0 -0.12255467156E+02  0.38730256757E+02 -0.73304109163E+01  0.13163589228E+03  0.12499617574E+03 0.  0.
    9000005    1    3    3    0    0 -0.53196953583E+02 -0.13364468551E+02 -0.28826051806E+02  0.61971494680E+02  0.10000000000E+01 0.  0.
    9000005    1    3    3    0    0  0.40941486427E+02  0.52094725308E+02  0.21495640889E+02  0.69664397600E+02  0.10000000000E+01 0.  0.
         -4    1    1    2    0  502  0.12255467156E+02 -0.38730256757E+02  0.48704308217E+02  0.63434626211E+02  0.12700000000E+01 0.  1.
<mgrwt>
<rscale>  1 0.13143163E+03</rscale>
<asrwt>0</asrwt>
<pdfrwt beam="1">  1       21 0.18187225E-01 0.13143163E+03</pdfrwt>
<pdfrwt beam="2">  1       -4 0.11823342E-01 0.13143163E+03</pdfrwt>
<totfact> 0.63301515E+04</totfact>
</mgrwt>
</event>
<event>
 6    4  0.3995738E-003  0.1398800E+03  0.7818608E-02  0.1213491E+00
         -4   -1    0    0    0  501 -0.00000000000E+00  0.00000000000E+00  0.12985635634E+03  0.12986256652E+03  0.12700000000E+01 0.  1.
         21   -1    0    0  501  502  0.00000000000E+00 -0.00000000000E+00 -0.94078161645E+02  0.94078161645E+02  0.00000000000E+00 0. -1.
         25    2    1    2    0    0 -0.58418250571E+02  0.22978121150E+02  0.65520649219E+02  0.15446474272E+03  0.12500286084E+03 0.  0.
    9000005    1    3    3    0    0 -0.30837283104E+02  0.60803072605E+02 -0.65737716027E+01  0.68499387884E+02  0.10000000000E+01 0.  0.
    9000005    1    3    3    0    0 -0.27580967467E+02 -0.37824951455E+02  0.72094420822E+02  0.85965354839E+02  0.10000000000E+01 0.  0.
         -4    1    1    2    0  502  0.58418250571E+02 -0.22978121150E+02 -0.29742454523E+02  0.69475985437E+02  0.12700000000E+01 0. -1.
<mgrwt>
<rscale>  1 0.13987995E+03</rscale>
<asrwt>0</asrwt>
<pdfrwt beam="2">  1       21 0.14473563E-01 0.13987995E+03</pdfrwt>
<pdfrwt beam="1">  1       -4 0.19979038E-01 0.13987995E+03</pdfrwt>
<totfact> 0.38529362E+04</totfact>
</mgrwt>
</event>
<event>
 6    4  0.3995738E-003  0.1274320E+03  0.7818608E-02  0.1231317E+00
          4   -1    0    0  502    0 -0.00000000000E+00  0.00000000000E+00  0.30441186702E+02  0.30467667253E+02  0.12700000000E+01 0. -1.
         21   -1    0    0  501  502  0.00000000000E+00 -0.00000000000E+00 -0.19080943046E+03  0.19080943046E+03  0.00000000000E+00 0. -1.
         25    2    1    2    0    0 -0.10973206391E+02  0.22216887073E+02 -0.12966674457E+03  0.18180310271E+03  0.12499960870E+03 0.  0.
    9000005    1    3    3    0    0  0.13867590595E+02 -0.37777064129E+02 -0.41324955372E+01  0.40465963012E+02  0.10000000000E+01 0.  0.
    9000005    1    3    3    0    0 -0.24840796986E+02  0.59993951202E+02 -0.12553424904E+03  0.14133713969E+03  0.10000000000E+01 0.  0.
          4    1    1    2  501    0  0.10973206391E+02 -0.22216887073E+02 -0.30701499187E+02  0.39473995010E+02  0.12700000000E+01 0.  1.
<mgrwt>
<rscale>  1 0.12743196E+03</rscale>
<asrwt>0</asrwt>
<pdfrwt beam="2">  1       21 0.29355297E-01 0.12743196E+03</pdfrwt>
<pdfrwt beam="1">  1        4 0.46856216E-02 0.12743196E+03</pdfrwt>
<totfact> 0.11813734E+05</totfact>
</mgrwt>
</event>
<event>
 6    4  0.3995738E-003  0.1270048E+03  0.7818608E-02  0.1231969E+00
         -4   -1    0    0    0  501 -0.00000000000E+00  0.00000000000E+00  0.71410809535E+02  0.71422101750E+02  0.12700000000E+01 0. -1.
         21   -1    0    0  501  502  0.00000000000E+00 -0.00000000000E+00 -0.31983021525E+03  0.31983021525E+03  0.00000000000E+00 0.  1.
         25    2    1    2    0    0  0.22256713037E+02  0.31347998920E+01  0.14085825082E+02  0.12778353832E+03  0.12500013580E+03 0.  0.
    9000005    1    3    3    0    0  0.51536096440E+02  0.37928562390E+02 -0.24110772634E+02  0.68387677532E+02  0.10000000000E+01 0.  0.
    9000005    1    3    3    0    0 -0.29279383403E+02 -0.34793762498E+02  0.38196597716E+02  0.59395860784E+02  0.10000000000E+01 0.  0.
         -4    1    1    2    0  502 -0.22256713037E+02 -0.31347998920E+01 -0.26250523079E+03  0.26346877868E+03  0.12700000000E+01 0.  1.
<mgrwt>
<rscale>  1 0.12700481E+03</rscale>
<asrwt>0</asrwt>
<pdfrwt beam="2">  1       21 0.49204649E-01 0.12700481E+03</pdfrwt>
<pdfrwt beam="1">  1       -4 0.10987341E-01 0.12700481E+03</pdfrwt>
<totfact> 0.10427427E+04</totfact>
</mgrwt>
</event>
<event>
 6    4  0.3995738E-003  0.1288080E+03  0.7818608E-02  0.1229235E+00
          4   -1    0    0  502    0 -0.00000000000E+00  0.00000000000E+00  0.63353388946E+03  0.63353516240E+03  0.12700000000E+01 0.  1.
         21   -1    0    0  501  502  0.00000000000E+00 -0.00000000000E+00 -0.10656325948E+02  0.10656325948E+02  0.00000000000E+00 0.  1.
         25    2    1    2    0    0 -0.25682548799E+02 -0.17457911289E+02  0.43179767614E+03  0.45060040323E+03  0.12500847287E+03 0.  0.
    9000005    1    3    3    0    0 -0.23525963626E+01 -0.64561614385E+01 -0.76866607135E+01  0.10358642917E+02  0.10000000000E+01 0.  0.
    9000005    1    3    3    0    0 -0.23329952437E+02 -0.11001749851E+02  0.43948433686E+03  0.44024176031E+03  0.10000000000E+01 0.  0.
          4    1    1    2  501    0  0.25682548799E+02  0.17457911289E+02  0.19107988737E+03  0.19359108512E+03  0.12700000000E+01 0. -1.
<mgrwt>
<rscale>  1 0.12880796E+03</rscale>
<asrwt>0</asrwt>
<pdfrwt beam="2">  1       21 0.16394353E-02 0.12880796E+03</pdfrwt>
<pdfrwt beam="1">  1        4 0.97472642E-01 0.12880796E+03</pdfrwt>
<totfact> 0.61715421E+04</totfact>
</mgrwt>
</event>
<event>
 6    4  0.3995738E-003  0.1343683E+03  0.7818608E-02  0.1221114E+00
          4   -1    0    0  502    0 -0.00000000000E+00  0.00000000000E+00  0.67460540530E+02  0.67472493866E+02  0.12700000000E+01 0. -1.
         21   -1    0    0  501  502  0.00000000000E+00 -0.00000000000E+00 -0.16247870273E+03  0.16247870273E+03  0.00000000000E+00 0.  1.
         25    2    1    2    0    0  0.79425447387E-01  0.49290571345E+02 -0.13982752590E+02  0.13509384452E+03  0.12500105090E+03 0.  0.
    9000005    1    3    3    0    0 -0.48215605340E+02 -0.16512105564E+02  0.52046234203E+01  0.51239460705E+02  0.10000000000E+01 0.  0.
    9000005    1    3    3    0    0  0.48295030787E+02  0.65802676909E+02 -0.19187376010E+02  0.83854383817E+02  0.10000000000E+01 0.  0.
          4    1    1    2  501    0 -0.79425447387E-01 -0.49290571345E+02 -0.81035409615E+02  0.94857352078E+02  0.12700000000E+01 0.  1.
<mgrwt>
<rscale>  1 0.13436826E+03</rscale>
<asrwt>0</asrwt>
<pdfrwt beam="2">  1       21 0.24996724E-01 0.13436826E+03</pdfrwt>
<pdfrwt beam="1">  1        4 0.10379846E-01 0.13436826E+03</pdfrwt>
<totfact> 0.43793508E+04</totfact>
</mgrwt>
</event>
<event>
 6    4  0.3995738E-003  0.1286908E+03  0.7818608E-02  0.1229411E+00
          4   -1    0    0  502    0 -0.00000000000E+00  0.00000000000E+00  0.30501796897E+03  0.30502061290E+03  0.12700000000E+01 0.  1.
         21   -1    0    0  501  502  0.00000000000E+00 -0.00000000000E+00 -0.25124979401E+02  0.25124979401E+02  0.00000000000E+00 0.  1.
         25    2    1    2    0    0 -0.30174755915E+02  0.51120183323E+01  0.26798152027E+03  0.29728003849E+03  0.12499870982E+03 0.  0.
    9000005    1    3    3    0    0 -0.13526552621E+02  0.45220466429E+02  0.24221892039E+03  0.24677695112E+03  0.10000000000E+01 0.  0.
    9000005    1    3    3    0    0 -0.16648203294E+02 -0.40108448097E+02  0.25762599874E+02  0.50503087370E+02  0.10000000000E+01 0.  0.
          4    1    1    2  501    0  0.30174755915E+02 -0.51120183323E+01  0.11911469298E+02  0.32865553803E+02  0.12700000000E+01 0. -1.
<mgrwt>
<rscale>  1 0.12869082E+03</rscale>
<asrwt>0</asrwt>
<pdfrwt beam="2">  1       21 0.38653817E-02 0.12869082E+03</pdfrwt>
<pdfrwt beam="1">  1        4 0.46928511E-01 0.12869082E+03</pdfrwt>
<totfact> 0.73241757E+04</totfact>
</mgrwt>
</event>
<event>
 6    4  0.3995738E-003  0.1345952E+03  0.7818608E-02  0.1220792E+00
         -4   -1    0    0    0  501 -0.00000000000E+00  0.00000000000E+00  0.93122935146E+01  0.93984951191E+01  0.12700000000E+01 0.  1.
         21   -1    0    0  501  502  0.00000000000E+00 -0.00000000000E+00 -0.13750518906E+04  0.13750518906E+04  0.00000000000E+00 0. -1.
         25    2    1    2    0    0  0.29180179436E+02 -0.40473435535E+02 -0.51662392801E+03  0.53386904673E+03  0.12500517675E+03 0.  0.
    9000005    1    3    3    0    0  0.26073509338E+02  0.70672828723E+01 -0.16905478507E+02  0.31883688305E+02  0.10000000000E+01 0.  0.
    9000005    1    3    3    0    0  0.31066700979E+01 -0.47540718408E+02 -0.49971844950E+03  0.50198535843E+03  0.10000000000E+01 0.  0.
         -4    1    1    2    0  502 -0.29180179436E+02  0.40473435535E+02 -0.84911566911E+03  0.85058133902E+03  0.12700000000E+01 0. -1.
<mgrwt>
<rscale>  1 0.13459523E+03</rscale>
<asrwt>0</asrwt>
<pdfrwt beam="2">  1       21 0.21154649E+00 0.13459523E+03</pdfrwt>
<pdfrwt beam="1">  1       -4 0.14393362E-02 0.13459523E+03</pdfrwt>
<totfact> 0.80709124E+03</totfact>
</mgrwt>
</event>
<event>
 6    4  0.3995738E-003  0.1636120E+03  0.7818608E-02  0.1184678E+00
          4   -1    0    0  502    0 -0.00000000000E+00  0.00000000000E+00  0.99935171315E+03  0.99935252012E+03  0.12700000000E+01 0. -1.
         21   -1    0    0  501  502  0.00000000000E+00 -0.00000000000E+00 -0.21437906069E+02  0.21437906069E+02  0.00000000000E+00 0.  1.
         25    2    1    2    0    0 -0.86964949138E+01 -0.10520835245E+03  0.77470010124E+03  0.79178857120E+03  0.12499787265E+03 0.  0.
    9000005    1    3    3    0    0  0.12101606868E+02 -0.12625795633E+03  0.51428684648E+03  0.52969753717E+03  0.10000000000E+01 0.  0.
    9000005    1    3    3    0    0 -0.20798101781E+02  0.21049603874E+02  0.26041325476E+03  0.26209103403E+03  0.10000000000E+01 0.  0.
          4    1    1    2  501    0  0.86964949138E+01  0.10520835245E+03  0.20321370584E+03  0.22900185499E+03  0.12700000000E+01 0.  1.
<mgrwt>
<rscale>  1 0.16361202E+03</rscale>
<asrwt>0</asrwt>
<pdfrwt beam="2">  1       21 0.32981402E-02 0.16361202E+03</pdfrwt>
<pdfrwt beam="1">  1        4 0.15374934E+00 0.16361202E+03</pdfrwt>
<totfact> 0.67112691E+03</totfact>
</mgrwt>
</event>
<event>
 6    4  0.3995738E-003  0.1267457E+03  0.7818608E-02  0.1232366E+00
         -4   -1    0    0    0  501 -0.00000000000E+00  0.00000000000E+00  0.49364662118E+03  0.49364825483E+03  0.12700000000E+01 0. -1.
         21   -1    0    0  501  502  0.00000000000E+00 -0.00000000000E+00 -0.13639915869E+02  0.13639915869E+02  0.00000000000E+00 0. -1.
         25    2    1    2    0    0 -0.18723371401E+02  0.94288008052E+01  0.46366823355E+03  0.48067942251E+03  0.12500003797E+03 0.  0.
    9000005    1    3    3    0    0 -0.66123043309E+01  0.26916005012E+02  0.45773333840E+03  0.45857278918E+03  0.10000000000E+01 0.  0.
    9000005    1    3    3    0    0 -0.12111067071E+02 -0.17487204206E+02  0.59348951550E+01  0.22106633327E+02  0.10000000000E+01 0.  0.
         -4    1    1    2    0  502  0.18723371401E+02 -0.94288008052E+01  0.16338471754E+02  0.26608748195E+02  0.12700000000E+01 0.  1.
<mgrwt>
<rscale>  1 0.12674572E+03</rscale>
<asrwt>0</asrwt>
<pdfrwt beam="2">  1       21 0.20984490E-02 0.12674572E+03</pdfrwt>
<pdfrwt beam="1">  1       -4 0.75950294E-01 0.12674572E+03</pdfrwt>
<totfact> 0.72354055E+04</totfact>
</mgrwt>
</event>
<event>
 6    4  0.3995738E-003  0.1267638E+03  0.7818608E-02  0.1232338E+00
         -4   -1    0    0    0  501 -0.00000000000E+00  0.00000000000E+00  0.64541135437E+02  0.64553629360E+02  0.12700000000E+01 0.  1.
         21   -1    0    0  501  502  0.00000000000E+00 -0.00000000000E+00 -0.12601861782E+03  0.12601861782E+03  0.00000000000E+00 0.  1.
         25    2    1    2    0    0 -0.19126450721E+02  0.88301249366E+01 -0.12669243976E+01  0.12677008094E+03  0.12500102440E+03 0.  0.
    9000005    1    3    3    0    0  0.64072642032E+01  0.43455590573E+02 -0.46749496344E+02  0.64155723011E+02  0.10000000000E+01 0.  0.
    9000005    1    3    3    0    0 -0.25533714924E+02 -0.34625465637E+02  0.45482571947E+02  0.62614357932E+02  0.10000000000E+01 0.  0.
         -4    1    1    2    0  502  0.19126450721E+02 -0.88301249366E+01 -0.60210557985E+02  0.63802166236E+02  0.12700000000E+01 0. -1.
<mgrwt>
<rscale>  1 0.12676375E+03</rscale>
<asrwt>0</asrwt>
<pdfrwt beam="2">  1       21 0.19387480E-01 0.12676375E+03</pdfrwt>
<pdfrwt beam="1">  1       -4 0.99308588E-02 0.12676375E+03</pdfrwt>
<totfact> 0.75284199E+04</totfact>
</mgrwt>
</event>
<event>
 6    4  0.3995738E-003  0.1282609E+03  0.7818608E-02  0.1230059E+00
          4   -1    0    0  502    0 -0.00000000000E+00  0.00000000000E+00  0.11099469255E+03  0.11100195797E+03  0.12700000000E+01 0.  1.
         21   -1    0    0  501  502  0.00000000000E+00 -0.00000000000E+00 -0.19480898190E+03  0.19480898190E+03  0.00000000000E+00 0. -1.
         25    2    1    2    0    0 -0.16243775679E+02  0.23695629910E+02  0.72188206795E+02  0.14718012688E+03  0.12500203768E+03 0.  0.
    9000005    1    3    3    0    0  0.20275262321E+02  0.19553215287E+02 -0.28442961162E+02  0.40042683850E+02  0.10000000000E+01 0.  0.
    9000005    1    3    3    0    0 -0.36519038000E+02  0.41424146233E+01  0.10063116796E+03  0.10713744303E+03  0.10000000000E+01 0.  0.
          4    1    1    2  501    0  0.16243775679E+02 -0.23695629910E+02 -0.15600249615E+03  0.15863081299E+03  0.12700000000E+01 0. -1.
<mgrwt>
<rscale>  1 0.12826088E+03</rscale>
<asrwt>0</asrwt>
<pdfrwt beam="2">  1       21 0.29970613E-01 0.12826088E+03</pdfrwt>
<pdfrwt beam="1">  1        4 0.17076984E-01 0.12826088E+03</pdfrwt>
<totfact> 0.13050349E+04</totfact>
</mgrwt>
</event>
<event>
 6    4  0.3995738E-003  0.2029102E+03  0.7818608E-02  0.1147307E+00
         -4   -1    0    0    0  501 -0.00000000000E+00  0.00000000000E+00  0.97845633248E+02  0.97853874965E+02  0.12700000000E+01 0. -1.
         21   -1    0    0  501  502  0.00000000000E+00 -0.00000000000E+00 -0.10794999220E+04  0.10794999220E+04  0.00000000000E+00 0.  1.
         25    2    1    2    0    0 -0.13540512936E+03  0.84924713746E+02 -0.21568108497E+02  0.20405330766E+03  0.12500325196E+03 0.  0.
    9000005    1    3    3    0    0 -0.13079716972E+03  0.13840402442E+02 -0.17585223476E+02  0.13270153138E+03  0.10000000000E+01 0.  0.
    9000005    1    3    3    0    0 -0.46079596483E+01  0.71084311304E+02 -0.39828850214E+01  0.71351776284E+02  0.10000000000E+01 0.  0.
         -4    1    1    2    0  502  0.13540512936E+03 -0.84924713746E+02 -0.96008618023E+03  0.97330048928E+03  0.12700000000E+01 0.  1.
<mgrwt>
<rscale>  1 0.20291025E+03</rscale>
<asrwt>0</asrwt>
<pdfrwt beam="2">  1       21 0.16607691E+00 0.20291025E+03</pdfrwt>
<pdfrwt beam="1">  1       -4 0.15053866E-01 0.20291025E+03</pdfrwt>
<totfact> 0.35738911E+02</totfact>
</mgrwt>
</event>
<event>
 6    4  0.3995738E-003  0.1302637E+03  0.7818608E-02  0.1227065E+00
         21   -1    0    0  501  502  0.00000000000E+00  0.00000000000E+00  0.19143218953E+03  0.19143218953E+03  0.00000000000E+00 0. -1.
          4   -1    0    0  502    0 -0.00000000000E+00 -0.00000000000E+00 -0.49712095676E+02  0.49728315440E+02  0.12700000000E+01 0.  1.
         25    2    1    2    0    0 -0.14762522018E+02 -0.33531930687E+02  0.45150488575E+02  0.13786663296E+03  0.12500527762E+03 0.  0.
    9000005    1    3    3    0    0 -0.56447647682E+02  0.13195587577E+02  0.47861823764E+02  0.75181211977E+02  0.10000000000E+01 0.  0.
    9000005    1    3    3    0    0  0.41685125664E+02 -0.46727518264E+02 -0.27113351897E+01  0.62685420978E+02  0.10000000000E+01 0.  0.
          4    1    1    2  501    0  0.14762522018E+02  0.33531930687E+02  0.96569605283E+02  0.10329387202E+03  0.12700000000E+01 0. -1.
<mgrwt>
<rscale>  1 0.13026374E+03</rscale>
<asrwt>0</asrwt>
<pdfrwt beam="1">  1       21 0.29451106E-01 0.13026374E+03</pdfrwt>
<pdfrwt beam="2">  1        4 0.76495866E-02 0.13026374E+03</pdfrwt>
<totfact> 0.53116122E+04</totfact>
</mgrwt>
</event>
<event>
 6    4  0.3995738E-003  0.1266728E+03  0.7818608E-02  0.1232478E+00
         -4   -1    0    0    0  501 -0.00000000000E+00  0.00000000000E+00  0.54402160257E+01  0.55864881998E+01  0.12700000000E+01 0. -1.
         21   -1    0    0  501  502  0.00000000000E+00 -0.00000000000E+00 -0.10195852127E+04  0.10195852127E+04  0.00000000000E+00 0. -1.
         25    2    1    2    0    0 -0.19397577223E+02 -0.62308549438E+01 -0.92993529058E+03  0.93852311721E+03  0.12502362700E+03 0.  0.
    9000005    1    3    3    0    0 -0.43580205792E+02  0.23025957112E+02 -0.15484986923E+03  0.16250818760E+03  0.10000000000E+01 0.  0.
    9000005    1    3    3    0    0  0.24182628569E+02 -0.29256812056E+02 -0.77508542135E+03  0.77601492961E+03  0.10000000000E+01 0.  0.
         -4    1    1    2    0  502  0.19397577223E+02  0.62308549438E+01 -0.84209706071E+02  0.86648583670E+02  0.12700000000E+01 0.  1.
<mgrwt>
<rscale>  1 0.12667279E+03</rscale>
<asrwt>0</asrwt>
<pdfrwt beam="2">  1       21 0.15685917E+00 0.12667279E+03</pdfrwt>
<pdfrwt beam="1">  1       -4 0.84826939E-03 0.12667279E+03</pdfrwt>
<totfact> 0.41168128E+04</totfact>
</mgrwt>
</event>
<event>
 6    4  0.3995738E-003  0.1266826E+03  0.7818608E-02  0.1232463E+00
         21   -1    0    0  501  502  0.00000000000E+00  0.00000000000E+00  0.34958450593E+02  0.34958450593E+02  0.00000000000E+00 0. -1.
         -4   -1    0    0    0  501 -0.00000000000E+00 -0.00000000000E+00 -0.15845110484E+03  0.15845619434E+03  0.12700000000E+01 0. -1.
         25    2    1    2    0    0  0.20574627410E+02  0.18570403585E+01 -0.11481911696E+03  0.17097345421E+03  0.12498691345E+03 0.  0.
    9000005    1    3    3    0    0 -0.10266544582E+01 -0.42538182274E+02 -0.11388977181E+03  0.12158302140E+03  0.10000000000E+01 0.  0.
    9000005    1    3    3    0    0  0.21601281868E+02  0.44395222632E+02 -0.92934515729E+00  0.49390432812E+02  0.10000000000E+01 0.  0.
         -4    1    1    2    0  502 -0.20574627410E+02 -0.18570403585E+01 -0.86735372804E+01  0.22441190720E+02  0.12700000000E+01 0.  1.
<mgrwt>
<rscale>  1 0.12668264E+03</rscale>
<asrwt>0</asrwt>
<pdfrwt beam="1">  1       21 0.53782231E-02 0.12668264E+03</pdfrwt>
<pdfrwt beam="2">  1       -4 0.24379259E-01 0.12668264E+03</pdfrwt>
<totfact> 0.14801570E+05</totfact>
</mgrwt>
</event>
<event>
 6    4  0.3995738E-003  0.1277331E+03  0.7818608E-02  0.1230859E+00
         -4   -1    0    0    0  501 -0.00000000000E+00  0.00000000000E+00  0.61109813658E+03  0.61109945626E+03  0.12700000000E+01 0. -1.
         21   -1    0    0  501  502  0.00000000000E+00 -0.00000000000E+00 -0.11647389093E+02  0.11647389093E+02  0.00000000000E+00 0.  1.
         25    2    1    2    0    0 -0.26118796167E+02 -0.31292229306E+01  0.56567386804E+03  0.57991608497E+03  0.12499502819E+03 0.  0.
    9000005    1    3    3    0    0  0.40641489246E+02 -0.21723228044E+02  0.35861969917E+03  0.36156979674E+03  0.10000000000E+01 0.  0.
    9000005    1    3    3    0    0 -0.66760285413E+02  0.18594005113E+02  0.20705416887E+03  0.21834628823E+03  0.10000000000E+01 0.  0.
         -4    1    1    2    0  502  0.26118796167E+02  0.31292229306E+01  0.33776879450E+02  0.42830760380E+02  0.12700000000E+01 0.  1.
<mgrwt>
<rscale>  1 0.12773308E+03</rscale>
<asrwt>0</asrwt>
<pdfrwt beam="2">  1       21 0.17919065E-02 0.12773308E+03</pdfrwt>
<pdfrwt beam="1">  1       -4 0.94020500E-01 0.12773308E+03</pdfrwt>
<totfact> 0.58038062E+04</totfact>
</mgrwt>
</event>
<event>
 6    4  0.3995738E-003  0.1362982E+03  0.7818608E-02  0.1218399E+00
         21   -1    0    0  501  502  0.00000000000E+00  0.00000000000E+00  0.80170972763E+02  0.80170972763E+02  0.00000000000E+00 0.  1.
          4   -1    0    0  502    0 -0.00000000000E+00 -0.00000000000E+00 -0.21097751135E+03  0.21098133376E+03  0.12700000000E+01 0. -1.
         25    2    1    2    0    0 -0.45345810389E+02 -0.29928293369E+02 -0.17449858766E+03  0.22142029581E+03  0.12500098015E+03 0.  0.
    9000005    1    3    3    0    0 -0.56896054308E+02 -0.51361796414E+02 -0.18068993125E+03  0.19627798242E+03  0.10000000000E+01 0.  0.
    9000005    1    3    3    0    0  0.11550243918E+02  0.21433503046E+02  0.61913435887E+01  0.25142313394E+02  0.10000000000E+01 0.  0.
          4    1    1    2  501    0  0.45345810389E+02  0.29928293369E+02  0.43692049082E+02  0.69732010704E+02  0.12700000000E+01 0.  1.
<mgrwt>
<rscale>  1 0.13629817E+03</rscale>
<asrwt>0</asrwt>
<pdfrwt beam="1">  1       21 0.12333996E-01 0.13629817E+03</pdfrwt>
<pdfrwt beam="2">  1        4 0.32459147E-01 0.13629817E+03</pdfrwt>
<totfact> 0.20820925E+04</totfact>
</mgrwt>
</event>
<event>
 6    4  0.3995738E-003  0.1282517E+03  0.7818608E-02  0.1230073E+00
         -4   -1    0    0    0  501 -0.00000000000E+00  0.00000000000E+00  0.29818220470E+03  0.29818490925E+03  0.12700000000E+01 0.  1.
         21   -1    0    0  501  502  0.00000000000E+00 -0.00000000000E+00 -0.26628024251E+02  0.26628024251E+02  0.00000000000E+00 0.  1.
         25    2    1    2    0    0  0.16646233183E+00  0.28654749368E+02  0.26640794150E+03  0.29567157034E+03  0.12500945503E+03 0.  0.
    9000005    1    3    3    0    0  0.10137787279E+02  0.77612700123E+02  0.16235467127E+03  0.18024024310E+03  0.10000000000E+01 0.  0.
    9000005    1    3    3    0    0 -0.99713249467E+01 -0.48957950755E+02  0.10405327023E+03  0.11543132724E+03  0.10000000000E+01 0.  0.
         -4    1    1    2    0  502 -0.16646233183E+00 -0.28654749368E+02  0.51462389553E+01  0.29141363153E+02  0.12700000000E+01 0. -1.
<mgrwt>
<rscale>  1 0.12825165E+03</rscale>
<asrwt>0</asrwt>
<pdfrwt beam="2">  1       21 0.40966193E-02 0.12825165E+03</pdfrwt>
<pdfrwt beam="1">  1       -4 0.45876721E-01 0.12825165E+03</pdfrwt>
<totfact> 0.69573320E+04</totfact>
</mgrwt>
</event>
<event>
 6    4  0.3995738E-003  0.1330291E+03  0.7818608E-02  0.1223029E+00
         21   -1    0    0  501  502  0.00000000000E+00  0.00000000000E+00  0.11218791892E+03  0.11218791892E+03  0.00000000000E+00 0. -1.
          4   -1    0    0  502    0 -0.00000000000E+00 -0.00000000000E+00 -0.10139848560E+03  0.10140643856E+03  0.12700000000E+01 0.  1.
         25    2    1    2    0    0 -0.34065226781E+02  0.30184169191E+02 -0.46043351243E+02  0.14077195676E+03  0.12500091948E+03 0.  0.
    9000005    1    3    3    0    0 -0.46916074012E+01 -0.43098274582E+02 -0.44016654400E+02  0.61789467683E+02  0.10000000000E+01 0.  0.
    9000005    1    3    3    0    0 -0.29373619380E+02  0.73282443774E+02 -0.20266968426E+01  0.78982489078E+02  0.10000000000E+01 0.  0.
          4    1    1    2  501    0  0.34065226781E+02 -0.30184169191E+02  0.56832784559E+02  0.72822400717E+02  0.12700000000E+01 0. -1.
<mgrwt>
<rscale>  1 0.13302915E+03</rscale>
<asrwt>0</asrwt>
<pdfrwt beam="1">  1       21 0.17259680E-01 0.13302915E+03</pdfrwt>
<pdfrwt beam="2">  1        4 0.15600932E-01 0.13302915E+03</pdfrwt>
<totfact> 0.43195849E+04</totfact>
</mgrwt>
</event>
<event>
 6    4  0.3995738E-003  0.1492004E+03  0.7818608E-02  0.1201459E+00
         21   -1    0    0  501  502  0.00000000000E+00  0.00000000000E+00  0.56684277487E+02  0.56684277487E+02  0.00000000000E+00 0. -1.
          4   -1    0    0  502    0 -0.00000000000E+00 -0.00000000000E+00 -0.24213459509E+03  0.24213792565E+03  0.12700000000E+01 0.  1.
         25    2    1    2    0    0  0.57288192802E+02 -0.57906982301E+02 -0.14424938757E+03  0.20752989695E+03  0.12500246670E+03 0.  0.
    9000005    1    3    3    0    0 -0.12409380639E+02 -0.24663205894E+02  0.14347129157E+02  0.31130476512E+02  0.10000000000E+01 0.  0.
    9000005    1    3    3    0    0  0.69697573441E+02 -0.33243776407E+02 -0.15859651673E+03  0.17639942044E+03  0.10000000000E+01 0.  0.
          4    1    1    2  501    0 -0.57288192802E+02  0.57906982301E+02 -0.41200930032E+02  0.91292306189E+02  0.12700000000E+01 0. -1.
<mgrwt>
<rscale>  1 0.14920044E+03</rscale>
<asrwt>0</asrwt>
<pdfrwt beam="1">  1       21 0.87206582E-02 0.14920044E+03</pdfrwt>
<pdfrwt beam="2">  1        4 0.37252826E-01 0.14920044E+03</pdfrwt>
<totfact> 0.29635423E+04</totfact>
</mgrwt>
</event>
<event>
 6    4  0.3995738E-003  0.1297284E+03  0.7818608E-02  0.1227859E+00
         -4   -1    0    0    0  501 -0.00000000000E+00  0.00000000000E+00  0.19806053689E+03  0.19806460858E+03  0.12700000000E+01 0.  1.
         21   -1    0    0  501  502  0.00000000000E+00 -0.00000000000E+00 -0.49293294811E+02  0.49293294811E+02  0.00000000000E+00 0.  1.
         25    2    1    2    0    0 -0.23009117984E+02 -0.25975515934E+02  0.44001569400E+02  0.13698759031E+03  0.12500125940E+03 0.  0.
    9000005    1    3    3    0    0 -0.81085598476E+01 -0.18554787449E+02 -0.43456914129E+02  0.47953438518E+02  0.10000000000E+01 0.  0.
    9000005    1    3    3    0    0 -0.14900558137E+02 -0.74207284843E+01  0.87458483529E+02  0.89034151791E+02  0.10000000000E+01 0.  0.
         -4    1    1    2    0  502  0.23009117984E+02  0.25975515934E+02  0.10476567268E+03  0.11037031308E+03  0.12700000000E+01 0. -1.
<mgrwt>
<rscale>  1 0.12972842E+03</rscale>
<asrwt>0</asrwt>
<pdfrwt beam="2">  1       21 0.75835839E-02 0.12972842E+03</pdfrwt>
<pdfrwt beam="1">  1       -4 0.30472423E-01 0.12972842E+03</pdfrwt>
<totfact> 0.54604592E+04</totfact>
</mgrwt>
</event>
<event>
 6    4  0.3995738E-003  0.1349988E+03  0.7818608E-02  0.1220221E+00
         21   -1    0    0  501  502  0.00000000000E+00  0.00000000000E+00  0.78012353008E+02  0.78012353008E+02  0.00000000000E+00 0. -1.
          4   -1    0    0  502    0 -0.00000000000E+00 -0.00000000000E+00 -0.28974713491E+03  0.28974991818E+03  0.12700000000E+01 0.  1.
         25    2    1    2    0    0 -0.45763893680E+02  0.22447108350E+02 -0.26289584337E+03  0.29553157308E+03  0.12500591821E+03 0.  0.
    9000005    1    3    3    0    0  0.10539236254E+02 -0.40972606217E+02 -0.45299889057E+02  0.61991208325E+02  0.10000000000E+01 0.  0.
    9000005    1    3    3    0    0 -0.56303129934E+02  0.63419714567E+02 -0.21759595432E+03  0.23354036476E+03  0.10000000000E+01 0.  0.
          4    1    1    2  501    0  0.45763893680E+02 -0.22447108350E+02  0.51161061475E+02  0.72230698108E+02  0.12700000000E+01 0. -1.
<mgrwt>
<rscale>  1 0.13499884E+03</rscale>
<asrwt>0</asrwt>
<pdfrwt beam="1">  1       21 0.12001901E-01 0.13499884E+03</pdfrwt>
<pdfrwt beam="2">  1        4 0.44577490E-01 0.13499884E+03</pdfrwt>
<totfact> 0.11747951E+04</totfact>
</mgrwt>
</event>
<event>
 6    4  0.3995738E-003  0.1275616E+03  0.7818608E-02  0.1231119E+00
         21   -1    0    0  501  502  0.00000000000E+00  0.00000000000E+00  0.57177322905E+02  0.57177322905E+02  0.00000000000E+00 0.  1.
         -4   -1    0    0    0  501 -0.00000000000E+00 -0.00000000000E+00 -0.10471578541E+03  0.10472348645E+03  0.12700000000E+01 0.  1.
         25    2    1    2    0    0  0.92906975464E+01 -0.23664992310E+02 -0.48389897242E+02  0.13643147950E+03  0.12500247006E+03 0.  0.
    9000005    1    3    3    0    0 -0.32894265841E+02  0.12078104125E+02 -0.69016689859E+02  0.77409410303E+02  0.10000000000E+01 0.  0.
    9000005    1    3    3    0    0  0.42184963387E+02 -0.35743096435E+02  0.20626792617E+02  0.59022069198E+02  0.10000000000E+01 0.  0.
         -4    1    1    2    0  502 -0.92906975464E+01  0.23664992310E+02  0.85143473821E+00  0.25469329851E+02  0.12700000000E+01 0. -1.
<mgrwt>
<rscale>  1 0.12756162E+03</rscale>
<asrwt>0</asrwt>
<pdfrwt beam="1">  1       21 0.87965114E-02 0.12756162E+03</pdfrwt>
<pdfrwt beam="2">  1       -4 0.16111798E-01 0.12756162E+03</pdfrwt>
<totfact> 0.13447305E+05</totfact>
</mgrwt>
</event>
<event>
 6    4  0.3995738E-003  0.1428659E+03  0.7818608E-02  0.1209524E+00
         21   -1    0    0  501  502  0.00000000000E+00  0.00000000000E+00  0.11304718917E+04  0.11304718917E+04  0.00000000000E+00 0.  1.
          4   -1    0    0  502    0 -0.00000000000E+00 -0.00000000000E+00 -0.11868193286E+02  0.11935950397E+02  0.12700000000E+01 0. -1.
         25    2    1    2    0    0 -0.20925427906E+02  0.65941867238E+02  0.50199049142E+03  0.52192443110E+03  0.12499781963E+03 0.  0.
    9000005    1    3    3    0    0 -0.43138534543E+02  0.22029239025E+02  0.44051794819E+03  0.44317410034E+03  0.10000000000E+01 0.  0.
    9000005    1    3    3    0    0  0.22213106638E+02  0.43912628213E+02  0.61472543230E+02  0.78750330756E+02  0.10000000000E+01 0.  0.
          4    1    1    2  501    0  0.20925427906E+02 -0.65941867238E+02  0.61661320696E+03  0.62048341096E+03  0.12700000000E+01 0.  1.
<mgrwt>
<rscale>  1 0.14286588E+03</rscale>
<asrwt>0</asrwt>
<pdfrwt beam="1">  1       21 0.17391867E+00 0.14286588E+03</pdfrwt>
<pdfrwt beam="2">  1        4 0.18311437E-02 0.14286588E+03</pdfrwt>
<totfact> 0.97828878E+03</totfact>
</mgrwt>
</event>
<event>
 6    4  0.3995738E-003  0.1283094E+03  0.7818608E-02  0.1229986E+00
         21   -1    0    0  501  502  0.00000000000E+00  0.00000000000E+00  0.70458039300E+03  0.70458039300E+03  0.00000000000E+00 0.  1.
          4   -1    0    0  502    0 -0.00000000000E+00 -0.00000000000E+00 -0.87434219544E+01  0.88351755768E+01  0.12700000000E+01 0.  1.
         25    2    1    2    0    0 -0.11900294005E+02  0.26416839696E+02  0.55835728348E+03  0.57291025263E+03  0.12499534045E+03 0.  0.
    9000005    1    3    3    0    0  0.10523322337E+02  0.71179161079E+02  0.23728003298E+03  0.24795166331E+03  0.10000000000E+01 0.  0.
    9000005    1    3    3    0    0 -0.22423616342E+02 -0.44762321384E+02  0.32107725050E+03  0.32495858932E+03  0.10000000000E+01 0.  0.
          4    1    1    2  501    0  0.11900294005E+02 -0.26416839696E+02  0.13747968756E+03  0.14050531595E+03  0.12700000000E+01 0. -1.
<mgrwt>
<rscale>  1 0.12830940E+03</rscale>
<asrwt>0</asrwt>
<pdfrwt beam="1">  1       21 0.10839694E+00 0.12830940E+03</pdfrwt>
<pdfrwt beam="2">  1        4 0.13522884E-02 0.12830940E+03</pdfrwt>
<totfact> 0.51287466E+04</totfact>
</mgrwt>
</event>
<event>
 6    4  0.3995738E-003  0.1345896E+03  0.7818608E-02  0.1220800E+00
          4   -1    0    0  502    0 -0.00000000000E+00  0.00000000000E+00  0.13184234354E+02  0.13245260869E+02  0.12700000000E+01 0. -1.
         21   -1    0    0  501  502  0.00000000000E+00 -0.00000000000E+00 -0.72225602286E+03  0.72225602286E+03  0.00000000000E+00 0. -1.
         25    2    1    2    0    0  0.48685766039E+02 -0.10900782287E+02 -0.60875562861E+03  0.62345631193E+03  0.12500090661E+03 0.  0.
    9000005    1    3    3    0    0  0.87628581761E+01 -0.62296708292E+02 -0.20341680423E+03  0.21292501918E+03  0.10000000000E+01 0.  0.
    9000005    1    3    3    0    0  0.39922907862E+02  0.51395926005E+02 -0.40533882437E+03  0.41053129275E+03  0.10000000000E+01 0.  0.
          4    1    1    2  501    0 -0.48685766039E+02  0.10900782287E+02 -0.10031615990E+03  0.11204497181E+03  0.12700000000E+01 0.  1.
<mgrwt>
<rscale>  1 0.13458959E+03</rscale>
<asrwt>0</asrwt>
<pdfrwt beam="2">  1       21 0.11111630E+00 0.13458959E+03</pdfrwt>
<pdfrwt beam="1">  1        4 0.20331242E-02 0.13458959E+03</pdfrwt>
<totfact> 0.26018794E+04</totfact>
</mgrwt>
</event>
<event>
 6    4  0.3995738E-003  0.1294239E+03  0.7818608E-02  0.1228313E+00
         21   -1    0    0  501  502  0.00000000000E+00  0.00000000000E+00  0.67012706229E+03  0.67012706229E+03  0.00000000000E+00 0. -1.
          4   -1    0    0  502    0 -0.00000000000E+00 -0.00000000000E+00 -0.10435718000E+02  0.10512711837E+02  0.12700000000E+01 0. -1.
         25    2    1    2    0    0 -0.33202191416E+02  0.44141062164E+01  0.44833208486E+03  0.46663926175E+03  0.12501468893E+03 0.  0.
    9000005    1    3    3    0    0  0.14528406528E+02  0.44530003838E+01 -0.53760736281E+00  0.15237874862E+02  0.10000000000E+01 0.  0.
    9000005    1    3    3    0    0 -0.47730597943E+02 -0.38894167361E-01  0.44886969222E+03  0.45140138689E+03  0.10000000000E+01 0.  0.
          4    1    1    2  501    0  0.33202191416E+02 -0.44141062164E+01  0.21135925944E+03  0.21400051238E+03  0.12700000000E+01 0.  1.
<mgrwt>
<rscale>  1 0.12942389E+03</rscale>
<asrwt>0</asrwt>
<pdfrwt beam="1">  1       21 0.10309644E+00 0.12942389E+03</pdfrwt>
<pdfrwt beam="2">  1        4 0.16115108E-02 0.12942389E+03</pdfrwt>
<totfact> 0.44266183E+04</totfact>
</mgrwt>
</event>
<event>
 6    4  0.3995738E-003  0.1487529E+03  0.7818608E-02  0.1202014E+00
         21   -1    0    0  501  502  0.00000000000E+00  0.00000000000E+00  0.49716712314E+03  0.49716712314E+03  0.00000000000E+00 0.  1.
         -4   -1    0    0    0  501 -0.00000000000E+00 -0.00000000000E+00 -0.27492921426E+02  0.27522238799E+02  0.12700000000E+01 0. -1.
         25    2    1    2    0    0 -0.92725672774E+01  0.80108560672E+02  0.25298791979E+03  0.29347967427E+03  0.12499627856E+03 0.  0.
    9000005    1    3    3    0    0 -0.98521467432E+01  0.10941979113E+03  0.23407663622E+03  0.25857808707E+03  0.10000000000E+01 0.  0.
    9000005    1    3    3    0    0  0.57957946582E+00 -0.29311230458E+02  0.18911283570E+02  0.34901587207E+02  0.10000000000E+01 0.  0.
         -4    1    1    2    0  502  0.92725672774E+01 -0.80108560672E+02  0.21668628192E+03  0.23120968767E+03  0.12700000000E+01 0.  1.
<mgrwt>
<rscale>  1 0.14875292E+03</rscale>
<asrwt>0</asrwt>
<pdfrwt beam="1">  1       21 0.76487243E-01 0.14875292E+03</pdfrwt>
<pdfrwt beam="2">  1       -4 0.42320605E-02 0.14875292E+03</pdfrwt>
<totfact> 0.19683530E+04</totfact>
</mgrwt>
</event>
<event>
 6    4  0.3995738E-003  0.1794049E+03  0.7818608E-02  0.1168380E+00
          4   -1    0    0  502    0 -0.00000000000E+00  0.00000000000E+00  0.57364992096E+03  0.57365132678E+03  0.12700000000E+01 0.  1.
         21   -1    0    0  501  502  0.00000000000E+00 -0.00000000000E+00 -0.49693350664E+02  0.49693350664E+02  0.00000000000E+00 0. -1.
         25    2    1    2    0    0 -0.14731080514E+02 -0.12784468754E+03  0.42398913712E+03  0.46038342604E+03  0.12499936684E+03 0.  0.
    9000005    1    3    3    0    0 -0.49118488807E+02 -0.44832184085E+01  0.89169364374E+02  0.10190633313E+03  0.10000000000E+01 0.  0.
    9000005    1    3    3    0    0  0.34387408294E+02 -0.12336146913E+03  0.33481977275E+03  0.35847709290E+03  0.10000000000E+01 0.  0.
          4    1    1    2  501    0  0.14731080514E+02  0.12784468754E+03  0.99967433173E+02  0.16296125141E+03  0.12700000000E+01 0. -1.
<mgrwt>
<rscale>  1 0.17940488E+03</rscale>
<asrwt>0</asrwt>
<pdfrwt beam="2">  1       21 0.76451313E-02 0.17940488E+03</pdfrwt>
<pdfrwt beam="1">  1        4 0.88255186E-01 0.17940488E+03</pdfrwt>
<totfact> 0.61950311E+03</totfact>
</mgrwt>
</event>
<event>
 6    4  0.3995738E-003  0.1280101E+03  0.7818608E-02  0.1230439E+00
         21   -1    0    0  501  502  0.00000000000E+00  0.00000000000E+00  0.22834662697E+03  0.22834662697E+03  0.00000000000E+00 0.  1.
         -4   -1    0    0    0  501 -0.00000000000E+00 -0.00000000000E+00 -0.65943297058E+02  0.65955525371E+02  0.12700000000E+01 0. -1.
         25    2    1    2    0    0  0.75797311385E+01 -0.26514743141E+02 -0.15715399751E+01  0.12801969752E+03  0.12500435707E+03 0.  0.
    9000005    1    3    3    0    0  0.69492287597E+01 -0.75660872608E+02 -0.14111603268E+02  0.77285165271E+02  0.10000000000E+01 0.  0.
    9000005    1    3    3    0    0  0.63050237882E+00  0.49146129467E+02  0.12540063293E+02  0.50734532246E+02  0.10000000000E+01 0.  0.
         -4    1    1    2    0  502 -0.75797311385E+01  0.26514743141E+02  0.16397486989E+03  0.16628245482E+03  0.12700000000E+01 0.  1.
<mgrwt>
<rscale>  1 0.12801005E+03</rscale>
<asrwt>0</asrwt>
<pdfrwt beam="1">  1       21 0.35130250E-01 0.12801005E+03</pdfrwt>
<pdfrwt beam="2">  1       -4 0.10146335E-01 0.12801005E+03</pdfrwt>
<totfact> 0.23495465E+04</totfact>
</mgrwt>
</event>
<event>
 6    4  0.3995738E-003  0.1286322E+03  0.7818608E-02  0.1229499E+00
         21   -1    0    0  501  502  0.00000000000E+00  0.00000000000E+00  0.25580155709E+03  0.25580155709E+03  0.00000000000E+00 0. -1.
         -4   -1    0    0    0  501 -0.00000000000E+00 -0.00000000000E+00 -0.94657435634E+02  0.94665954919E+02  0.12700000000E+01 0.  1.
         25    2    1    2    0    0 -0.47662104201E+01 -0.29978915550E+02 -0.49363408366E+02  0.13777880721E+03  0.12499920596E+03 0.  0.
    9000005    1    3    3    0    0  0.36136908593E+01  0.48000940318E+02 -0.70575844585E+01  0.48661674154E+02  0.10000000000E+01 0.  0.
    9000005    1    3    3    0    0 -0.83799012793E+01 -0.77979855869E+02 -0.42305823908E+02  0.89117133051E+02  0.10000000000E+01 0.  0.
         -4    1    1    2    0  502  0.47662104201E+01  0.29978915550E+02  0.21050752982E+03  0.21268870480E+03  0.12700000000E+01 0. -1.
<mgrwt>
<rscale>  1 0.12863224E+03</rscale>
<asrwt>0</asrwt>
<pdfrwt beam="1">  1       21 0.39354085E-01 0.12863224E+03</pdfrwt>
<pdfrwt beam="2">  1       -4 0.14563580E-01 0.12863224E+03</pdfrwt>
<totfact> 0.10116827E+04</totfact>
</mgrwt>
</event>
<event>
 6    4  0.3995738E-003  0.1748407E+03  0.7818608E-02  0.1172892E+00
         21   -1    0    0  501  502  0.00000000000E+00  0.00000000000E+00  0.20497129870E+03  0.20497129870E+03  0.00000000000E+00 0.  1.
          4   -1    0    0  502    0 -0.00000000000E+00 -0.00000000000E+00 -0.11003534402E+03  0.11004267279E+03  0.12700000000E+01 0. -1.
         25    2    1    2    0    0  0.10853634551E+03 -0.56251170201E+02  0.78520796447E+02  0.19166324079E+03  0.12499979980E+03 0.  0.
    9000005    1    3    3    0    0  0.10109470266E+03  0.12536351680E+02  0.65886270662E+02  0.12132312096E+03  0.10000000000E+01 0.  0.
    9000005    1    3    3    0    0  0.74416428494E+01 -0.68787521882E+02  0.12634525785E+02  0.70340119823E+02  0.10000000000E+01 0.  0.
          4    1    1    2  501    0 -0.10853634551E+03  0.56251170201E+02  0.16415158233E+02  0.12335073070E+03  0.12700000000E+01 0.  1.
<mgrwt>
<rscale>  1 0.17484073E+03</rscale>
<asrwt>0</asrwt>
<pdfrwt beam="1">  1       21 0.31534046E-01 0.17484073E+03</pdfrwt>
<pdfrwt beam="2">  1        4 0.16929381E-01 0.17484073E+03</pdfrwt>
<totfact> 0.12295178E+04</totfact>
</mgrwt>
</event>
<event>
 6    4  0.3995738E-003  0.1328106E+03  0.7818608E-02  0.1223344E+00
         21   -1    0    0  501  502  0.00000000000E+00  0.00000000000E+00  0.41298054193E+03  0.41298054193E+03  0.00000000000E+00 0. -1.
         -4   -1    0    0    0  501 -0.00000000000E+00 -0.00000000000E+00 -0.27510927477E+02  0.27540225682E+02  0.12700000000E+01 0. -1.
         25    2    1    2    0    0 -0.29725809471E+02 -0.33616576611E+02  0.14803468546E+03  0.19887918101E+03  0.12499985027E+03 0.  0.
    9000005    1    3    3    0    0 -0.53944218604E+02  0.29556498256E+02  0.47626843847E+02  0.77800267126E+02  0.10000000000E+01 0.  0.
    9000005    1    3    3    0    0  0.24218409133E+02 -0.63173074867E+02  0.10040784162E+03  0.12107891388E+03  0.10000000000E+01 0.  0.
         -4    1    1    2    0  502  0.29725809471E+02  0.33616576611E+02  0.23743492899E+03  0.24164158661E+03  0.12700000000E+01 0.  1.
<mgrwt>
<rscale>  1 0.13281062E+03</rscale>
<asrwt>0</asrwt>
<pdfrwt beam="1">  1       21 0.63535463E-01 0.13281062E+03</pdfrwt>
<pdfrwt beam="2">  1       -4 0.42348546E-02 0.13281062E+03</pdfrwt>
<totfact> 0.29209695E+04</totfact>
</mgrwt>
</event>
<event>
 6    4  0.3995738E-003  0.1330225E+03  0.7818608E-02  0.1223039E+00
          4   -1    0    0  502    0 -0.00000000000E+00  0.00000000000E+00  0.11133322991E+03  0.11134047324E+03  0.12700000000E+01 0.  1.
         21   -1    0    0  501  502  0.00000000000E+00 -0.00000000000E+00 -0.18358133588E+03  0.18358133588E+03  0.00000000000E+00 0. -1.
         25    2    1    2    0    0  0.41596655331E+02 -0.18424904970E+02  0.66629672688E+02  0.14877664442E+03  0.12500087114E+03 0.  0.
    9000005    1    3    3    0    0 -0.23165009983E+02 -0.41546318105E+02  0.64268563246E+02  0.79963507035E+02  0.10000000000E+01 0.  0.
    9000005    1    3    3    0    0  0.64761665314E+02  0.23121413135E+02  0.23611094415E+01  0.68813137390E+02  0.10000000000E+01 0.  0.
          4    1    1    2  501    0 -0.41596655331E+02  0.18424904970E+02 -0.13887777866E+03  0.14614516470E+03  0.12700000000E+01 0. -1.
<mgrwt>
<rscale>  1 0.13302247E+03</rscale>
<asrwt>0</asrwt>
<pdfrwt beam="2">  1       21 0.28243282E-01 0.13302247E+03</pdfrwt>
<pdfrwt beam="1">  1        4 0.17129084E-01 0.13302247E+03</pdfrwt>
<totfact> 0.14597528E+04</totfact>
</mgrwt>
</event>
<event>
 6    4  0.3995738E-003  0.1293472E+03  0.7818608E-02  0.1228428E+00
         21   -1    0    0  501  502  0.00000000000E+00  0.00000000000E+00  0.43113205877E+03  0.43113205877E+03  0.00000000000E+00 0.  1.
         -4   -1    0    0    0  501 -0.00000000000E+00 -0.00000000000E+00 -0.58972929287E+02  0.58986602620E+02  0.12700000000E+01 0. -1.
         25    2    1    2    0    0 -0.32631148225E+02 -0.64765826287E+01  0.13648122850E+02  0.13006520323E+03  0.12499579143E+03 0.  0.
    9000005    1    3    3    0    0  0.20971887341E+02 -0.11809963628E+02  0.56372640902E+02  0.61303914572E+02  0.10000000000E+01 0.  0.
    9000005    1    3    3    0    0 -0.53603035567E+02  0.53333809989E+01 -0.42724518052E+02  0.68761288656E+02  0.10000000000E+01 0.  0.
         -4    1    1    2    0  502  0.32631148225E+02  0.64765826287E+01  0.35851100663E+03  0.36005345816E+03  0.12700000000E+01 0.  1.
<mgrwt>
<rscale>  1 0.12934715E+03</rscale>
<asrwt>0</asrwt>
<pdfrwt beam="1">  1       21 0.66328007E-01 0.12934715E+03</pdfrwt>
<pdfrwt beam="2">  1       -4 0.90739543E-02 0.12934715E+03</pdfrwt>
<totfact> 0.76797223E+03</totfact>
</mgrwt>
</event>
<event>
 6    4  0.3995738E-003  0.1502051E+03  0.7818608E-02  0.1200221E+00
         21   -1    0    0  501  502  0.00000000000E+00  0.00000000000E+00  0.11868080479E+03  0.11868080479E+03  0.00000000000E+00 0.  1.
         -4   -1    0    0    0  501 -0.00000000000E+00 -0.00000000000E+00 -0.11496057773E+03  0.11496759253E+03  0.12700000000E+01 0. -1.
         25    2    1    2    0    0 -0.72072768451E+02 -0.41801138362E+02 -0.65245702616E+00  0.15020648706E+03  0.12497897397E+03 0.  0.
    9000005    1    3    3    0    0  0.42193344575E+01  0.29852802374E+02  0.28555275684E+02  0.41537890681E+02  0.10000000000E+01 0.  0.
    9000005    1    3    3    0    0 -0.76292102909E+02 -0.71653940736E+02 -0.29207732710E+02  0.10866859638E+03  0.10000000000E+01 0.  0.
         -4    1    1    2    0  502  0.72072768451E+02  0.41801138362E+02  0.43726840877E+01  0.83441910253E+02  0.12700000000E+01 0.  1.
<mgrwt>
<rscale>  1 0.15020507E+03</rscale>
<asrwt>0</asrwt>
<pdfrwt beam="1">  1       21 0.18258585E-01 0.15020507E+03</pdfrwt>
<pdfrwt beam="2">  1       -4 0.17687305E-01 0.15020507E+03</pdfrwt>
<totfact> 0.31632281E+04</totfact>
</mgrwt>
</event>
<event>
 6    4  0.3995738E-003  0.1270841E+03  0.7818608E-02  0.1231848E+00
         21   -1    0    0  501  502  0.00000000000E+00  0.00000000000E+00  0.78842660994E+01  0.78842660994E+01  0.00000000000E+00 0.  1.
          4   -1    0    0  502    0 -0.00000000000E+00 -0.00000000000E+00 -0.76809655564E+03  0.76809760558E+03  0.12700000000E+01 0.  1.
         25    2    1    2    0    0  0.22256753401E+02 -0.55210457181E+01 -0.70186052971E+03  0.71327313390E+03  0.12499806142E+03 0.  0.
    9000005    1    3    3    0    0 -0.48125138562E+02  0.13435946290E+02 -0.37929022809E+03  0.38256846543E+03  0.10000000000E+01 0.  0.
    9000005    1    3    3    0    0  0.70381891962E+02 -0.18956992009E+02 -0.32257030162E+03  0.33070466847E+03  0.10000000000E+01 0.  0.
          4    1    1    2  501    0 -0.22256753401E+02  0.55210457181E+01 -0.58351759833E+02  0.62708737775E+02  0.12700000000E+01 0. -1.
<mgrwt>
<rscale>  1 0.12708407E+03</rscale>
<asrwt>0</asrwt>
<pdfrwt beam="1">  1       21 0.12129642E-02 0.12708407E+03</pdfrwt>
<pdfrwt beam="2">  1        4 0.11817663E+00 0.12708407E+03</pdfrwt>
<totfact> 0.63413052E+04</totfact>
</mgrwt>
</event>
<event>
 6    4  0.3995738E-003  0.1336696E+03  0.7818608E-02  0.1222110E+00
         -4   -1    0    0    0  501 -0.00000000000E+00  0.00000000000E+00  0.25060256143E+02  0.25092415945E+02  0.12700000000E+01 0.  1.
         21   -1    0    0  501  502  0.00000000000E+00 -0.00000000000E+00 -0.36539086875E+03  0.36539086875E+03  0.00000000000E+00 0.  1.
         25    2    1    2    0    0  0.12856188855E+02 -0.45579690868E+02 -0.18602995963E+03  0.22907357551E+03  0.12499906921E+03 0.  0.
    9000005    1    3    3    0    0 -0.42341144489E+01 -0.38497918435E+02 -0.20134371184E+03  0.20503733257E+03  0.10000000000E+01 0.  0.
    9000005    1    3    3    0    0  0.17090303304E+02 -0.70817724325E+01  0.15313752210E+02  0.24036242937E+02  0.10000000000E+01 0.  0.
         -4    1    1    2    0  502 -0.12856188855E+02  0.45579690868E+02 -0.15430065297E+03  0.16140970918E+03  0.12700000000E+01 0. -1.
<mgrwt>
<rscale>  1 0.13366958E+03</rscale>
<asrwt>0</asrwt>
<pdfrwt beam="2">  1       21 0.56213982E-01 0.13366958E+03</pdfrwt>
<pdfrwt beam="1">  1       -4 0.38580675E-02 0.13366958E+03</pdfrwt>
<totfact> 0.43957977E+04</totfact>
</mgrwt>
</event>
<event>
 6    4  0.3995738E-003  0.1278419E+03  0.7818608E-02  0.1230694E+00
         21   -1    0    0  501  502  0.00000000000E+00  0.00000000000E+00  0.14648015144E+03  0.14648015144E+03  0.00000000000E+00 0. -1.
         -4   -1    0    0    0  501 -0.00000000000E+00 -0.00000000000E+00 -0.43708375900E+02  0.43726822704E+02  0.12700000000E+01 0. -1.
         25    2    1    2    0    0  0.23454152487E+02 -0.12974056695E+02  0.63765185244E+02  0.14286195960E+03  0.12500046894E+03 0.  0.
    9000005    1    3    3    0    0  0.42826857362E+02 -0.53486685310E+02  0.47417967163E+01  0.68690973592E+02  0.10000000000E+01 0.  0.
    9000005    1    3    3    0    0 -0.19372704875E+02  0.40512628615E+02  0.59023388528E+02  0.74170986004E+02  0.10000000000E+01 0.  0.
         -4    1    1    2    0  502 -0.23454152487E+02  0.12974056695E+02  0.39006590292E+02  0.47345014545E+02  0.12700000000E+01 0.  1.
<mgrwt>
<rscale>  1 0.12784186E+03</rscale>
<asrwt>0</asrwt>
<pdfrwt beam="1">  1       21 0.22535408E-01 0.12784186E+03</pdfrwt>
<pdfrwt beam="2">  1       -4 0.67262081E-02 0.12784186E+03</pdfrwt>
<totfact> 0.10873794E+05</totfact>
</mgrwt>
</event>
<event>
 6    4  0.3995738E-003  0.1272715E+03  0.7818608E-02  0.1231561E+00
          4   -1    0    0  502    0 -0.00000000000E+00  0.00000000000E+00  0.20579612858E+03  0.20580004722E+03  0.12700000000E+01 0. -1.
         21   -1    0    0  501  502  0.00000000000E+00 -0.00000000000E+00 -0.57427517597E+02  0.57427517597E+02  0.00000000000E+00 0. -1.
         25    2    1    2    0    0 -0.19194874587E+02 -0.14303354403E+02  0.18190303459E+03  0.22200621568E+03  0.12500006661E+03 0.  0.
    9000005    1    3    3    0    0  0.26887080988E+02 -0.56798175551E+02  0.72819481514E+02  0.96190564808E+02  0.10000000000E+01 0.  0.
    9000005    1    3    3    0    0 -0.46081955575E+02  0.42494821148E+02  0.10908355307E+03  0.12581565088E+03  0.10000000000E+01 0.  0.
          4    1    1    2  501    0  0.19194874587E+02  0.14303354403E+02 -0.33534423611E+02  0.41221349135E+02  0.12700000000E+01 0. -1.
<mgrwt>
<rscale>  1 0.12727154E+03</rscale>
<asrwt>0</asrwt>
<pdfrwt beam="2">  1       21 0.88350028E-02 0.12727154E+03</pdfrwt>
<pdfrwt beam="1">  1        4 0.31662324E-01 0.12727154E+03</pdfrwt>
<totfact> 0.38913940E+04</totfact>
</mgrwt>
</event>
<event>
 6    4  0.3995738E-003  0.1284364E+03  0.7818608E-02  0.1229795E+00
         21   -1    0    0  501  502  0.00000000000E+00  0.00000000000E+00  0.73680971067E+02  0.73680971067E+02  0.00000000000E+00 0. -1.
          4   -1    0    0  502    0 -0.00000000000E+00 -0.00000000000E+00 -0.84849613779E+02  0.84859117710E+02  0.12700000000E+01 0. -1.
         25    2    1    2    0    0  0.85665901655E+01 -0.28248218175E+02 -0.62568069432E+01  0.12858867265E+03  0.12499820321E+03 0.  0.
    9000005    1    3    3    0    0 -0.25003788402E+02  0.22686017402E+02  0.39760047142E+02  0.52169973823E+02  0.10000000000E+01 0.  0.
    9000005    1    3    3    0    0  0.33570378567E+02 -0.50934235577E+02 -0.46016854085E+02  0.76418698830E+02  0.10000000000E+01 0.  0.
          4    1    1    2  501    0 -0.85665901655E+01  0.28248218175E+02 -0.49118357692E+01  0.29951416123E+02  0.12700000000E+01 0.  1.
<mgrwt>
<rscale>  1 0.12843636E+03</rscale>
<asrwt>0</asrwt>
<pdfrwt beam="1">  1       21 0.11335534E-01 0.12843636E+03</pdfrwt>
<pdfrwt beam="2">  1        4 0.13055360E-01 0.12843636E+03</pdfrwt>
<totfact> 0.12453122E+05</totfact>
</mgrwt>
</event>
<event>
 6    4  0.3995738E-003  0.1275026E+03  0.7818608E-02  0.1231209E+00
         21   -1    0    0  501  502  0.00000000000E+00  0.00000000000E+00  0.16919786911E+03  0.16919786911E+03  0.00000000000E+00 0. -1.
          4   -1    0    0  502    0 -0.00000000000E+00 -0.00000000000E+00 -0.75909234760E+02  0.75919857889E+02  0.12700000000E+01 0.  1.
         25    2    1    2    0    0  0.70166116107E+01 -0.24135597746E+02 -0.20004997696E+02  0.12906248205E+03  0.12500065770E+03 0.  0.
    9000005    1    3    3    0    0 -0.36128523767E+02 -0.56200637520E+02  0.98871348600E+01  0.67546556708E+02  0.10000000000E+01 0.  0.
    9000005    1    3    3    0    0  0.43145135378E+02  0.32065039775E+02 -0.29892132556E+02  0.61515925347E+02  0.10000000000E+01 0.  0.
          4    1    1    2  501    0 -0.70166116107E+01  0.24135597746E+02  0.11329363205E+03  0.11605524495E+03  0.12700000000E+01 0. -1.
<mgrwt>
<rscale>  1 0.12750264E+03</rscale>
<asrwt>0</asrwt>
<pdfrwt beam="1">  1       21 0.26030441E-01 0.12750264E+03</pdfrwt>
<pdfrwt beam="2">  1        4 0.11679528E-01 0.12750264E+03</pdfrwt>
<totfact> 0.33005980E+04</totfact>
</mgrwt>
</event>
<event>
 6    4  0.3995738E-003  0.1573304E+03  0.7818608E-02  0.1191744E+00
         21   -1    0    0  501  502  0.00000000000E+00  0.00000000000E+00  0.16271057926E+03  0.16271057926E+03  0.00000000000E+00 0. -1.
         -4   -1    0    0    0  501 -0.00000000000E+00 -0.00000000000E+00 -0.98271086885E+02  0.98279292923E+02  0.12700000000E+01 0.  1.
         25    2    1    2    0    0 -0.81804650333E+02  0.49349087947E+02  0.42154010072E+02  0.16287978647E+03  0.12500212389E+03 0.  0.
    9000005    1    3    3    0    0 -0.44173229576E+02  0.27589255300E+01  0.80421321660E+02  0.91801279178E+02  0.10000000000E+01 0.  0.
    9000005    1    3    3    0    0 -0.37631420756E+02  0.46590162417E+02 -0.38267311587E+02  0.71078507288E+02  0.10000000000E+01 0.  0.
         -4    1    1    2    0  502  0.81804650333E+02 -0.49349087947E+02  0.22285482299E+02  0.98110085712E+02  0.12700000000E+01 0. -1.
<mgrwt>
<rscale>  1 0.15733043E+03</rscale>
<asrwt>0</asrwt>
<pdfrwt beam="1">  1       21 0.25032397E-01 0.15733043E+03</pdfrwt>
<pdfrwt beam="2">  1       -4 0.15119641E-01 0.15733043E+03</pdfrwt>
<totfact> 0.23238195E+04</totfact>
</mgrwt>
</event>
<event>
 6    4  0.3995738E-003  0.1270657E+03  0.7818608E-02  0.1231876E+00
          4   -1    0    0  502    0 -0.00000000000E+00  0.00000000000E+00  0.64545808091E+02  0.64558301109E+02  0.12700000000E+01 0.  1.
         21   -1    0    0  501  502  0.00000000000E+00 -0.00000000000E+00 -0.11134861894E+03  0.11134861894E+03  0.00000000000E+00 0.  1.
         25    2    1    2    0    0 -0.20886968198E+02 -0.92140969994E+01 -0.37050362187E+01  0.12711966657E+03  0.12499806923E+03 0.  0.
    9000005    1    3    3    0    0  0.22274016269E+02  0.14803099130E+02 -0.51715762541E+02  0.58230435683E+02  0.10000000000E+01 0.  0.
    9000005    1    3    3    0    0 -0.43160984467E+02 -0.24017196129E+02  0.48010726323E+02  0.68889230886E+02  0.10000000000E+01 0.  0.
          4    1    1    2  501    0  0.20886968198E+02  0.92140969994E+01 -0.43097774632E+02  0.48787253481E+02  0.12700000000E+01 0. -1.
<mgrwt>
<rscale>  1 0.12706566E+03</rscale>
<asrwt>0</asrwt>
<pdfrwt beam="2">  1       21 0.17130557E-01 0.12706566E+03</pdfrwt>
<pdfrwt beam="1">  1        4 0.99316424E-02 0.12706566E+03</pdfrwt>
<totfact> 0.94460913E+04</totfact>
</mgrwt>
</event>
<event>
 6    4  0.3995738E-003  0.1293685E+03  0.7818608E-02  0.1228396E+00
         -4   -1    0    0    0  501 -0.00000000000E+00  0.00000000000E+00  0.19813579681E+04  0.19813583751E+04  0.12700000000E+01 0. -1.
         21   -1    0    0  501  502  0.00000000000E+00 -0.00000000000E+00 -0.48518926583E+01  0.48518926583E+01  0.00000000000E+00 0.  1.
         25    2    1    2    0    0  0.17095737010E+02 -0.28606054207E+02  0.18730400975E+04  0.18775024389E+04  0.12500252312E+03 0.  0.
    9000005    1    3    3    0    0 -0.54400992206E+02 -0.83380543548E+01  0.80259739804E+03  0.80448279934E+03  0.10000000000E+01 0.  0.
    9000005    1    3    3    0    0  0.71496729217E+02 -0.20267999852E+02  0.10704426994E+04  0.10730196396E+04  0.10000000000E+01 0.  0.
         -4    1    1    2    0  502 -0.17095737010E+02  0.28606054207E+02  0.10346597796E+03  0.10870782886E+03  0.12700000000E+01 0.  1.
<mgrwt>
<rscale>  1 0.12936847E+03</rscale>
<asrwt>0</asrwt>
<pdfrwt beam="2">  1       21 0.74644661E-03 0.12936847E+03</pdfrwt>
<pdfrwt beam="1">  1       -4 0.30483647E+00 0.12936847E+03</pdfrwt>
<totfact> 0.85739333E+03</totfact>
</mgrwt>
</event>
<event>
 6    4  0.3995738E-003  0.1281447E+03  0.7818608E-02  0.1230235E+00
         21   -1    0    0  501  502  0.00000000000E+00  0.00000000000E+00  0.20164775557E+02  0.20164775557E+02  0.00000000000E+00 0.  1.
          4   -1    0    0  502    0 -0.00000000000E+00 -0.00000000000E+00 -0.51925934856E+03  0.51926090164E+03  0.12700000000E+01 0. -1.
         25    2    1    2    0    0  0.27649522642E+02  0.56571800268E+01 -0.49446242280E+03  0.51079755285E+03  0.12499821057E+03 0.  0.
    9000005    1    3    3    0    0  0.71819216237E+02  0.29600239649E+02 -0.28591577061E+03  0.29628196349E+03  0.10000000000E+01 0.  0.
    9000005    1    3    3    0    0 -0.44169693595E+02 -0.23943059622E+02 -0.20854665219E+03  0.21451558936E+03  0.10000000000E+01 0.  0.
          4    1    1    2  501    0 -0.27649522642E+02 -0.56571800268E+01 -0.46321502076E+01  0.28628124349E+02  0.12700000000E+01 0.  1.
<mgrwt>
<rscale>  1 0.12814465E+03</rscale>
<asrwt>0</asrwt>
<pdfrwt beam="1">  1       21 0.31022734E-02 0.12814465E+03</pdfrwt>
<pdfrwt beam="2">  1        4 0.79889244E-01 0.12814465E+03</pdfrwt>
<totfact> 0.34304482E+04</totfact>
</mgrwt>
</event>
<event>
 6    4  0.3995738E-003  0.1302932E+03  0.7818608E-02  0.1227021E+00
         21   -1    0    0  501  502  0.00000000000E+00  0.00000000000E+00  0.36836022138E+03  0.36836022138E+03  0.00000000000E+00 0.  1.
         -4   -1    0    0    0  501 -0.00000000000E+00 -0.00000000000E+00 -0.10664503922E+03  0.10665260095E+03  0.12700000000E+01 0. -1.
         25    2    1    2    0    0  0.25267790688E+01 -0.36674300277E+02 -0.65434899319E+02  0.14580137414E+03  0.12499970295E+03 0.  0.
    9000005    1    3    3    0    0  0.64874724394E+01 -0.18751816983E+02 -0.10251101650E+03  0.10441851580E+03  0.10000000000E+01 0.  0.
    9000005    1    3    3    0    0 -0.39606933706E+01 -0.17922483294E+02  0.37076117177E+02  0.41382858339E+02  0.10000000000E+01 0.  0.
         -4    1    1    2    0  502 -0.25267790688E+01  0.36674300277E+02  0.32715008148E+03  0.32921144820E+03  0.12700000000E+01 0.  1.
<mgrwt>
<rscale>  1 0.13029319E+03</rscale>
<asrwt>0</asrwt>
<pdfrwt beam="1">  1       21 0.56670802E-01 0.13029319E+03</pdfrwt>
<pdfrwt beam="2">  1       -4 0.16407679E-01 0.13029319E+03</pdfrwt>
<totfact> 0.38960929E+03</totfact>
</mgrwt>
</event>
<event>
 6    4  0.3995738E-003  0.1398919E+03  0.7818608E-02  0.1213475E+00
          4   -1    0    0  502    0 -0.00000000000E+00  0.00000000000E+00  0.92932226213E+03  0.92932312991E+03  0.12700000000E+01 0.  1.
         21   -1    0    0  501  502  0.00000000000E+00 -0.00000000000E+00 -0.15967639198E+02  0.15967639198E+02  0.00000000000E+00 0. -1.
         25    2    1    2    0    0 -0.47394801115E+02  0.41225773247E+02  0.82557359238E+03  0.83734192115E+03  0.12499561958E+03 0.  0.
    9000005    1    3    3    0    0 -0.83650522571E+02  0.48022031613E+02  0.69472721549E+03  0.70139178024E+03  0.10000000000E+01 0.  0.
    9000005    1    3    3    0    0  0.36255721456E+02 -0.67962583663E+01  0.13084637689E+03  0.13595014090E+03  0.10000000000E+01 0.  0.
          4    1    1    2  501    0  0.47394801115E+02 -0.41225773247E+02  0.87781030551E+02  0.10794884797E+03  0.12700000000E+01 0. -1.
<mgrwt>
<rscale>  1 0.13989187E+03</rscale>
<asrwt>0</asrwt>
<pdfrwt beam="2">  1       21 0.24565606E-02 0.13989187E+03</pdfrwt>
<pdfrwt beam="1">  1        4 0.14297657E+00 0.13989187E+03</pdfrwt>
<totfact> 0.12937822E+04</totfact>
</mgrwt>
</event>
<event>
 6    4  0.3995738E-003  0.1404721E+03  0.7818608E-02  0.1212695E+00
          4   -1    0    0  502    0 -0.00000000000E+00  0.00000000000E+00  0.72205384543E+03  0.72205496231E+03  0.12700000000E+01 0. -1.
         21   -1    0    0  501  502  0.00000000000E+00 -0.00000000000E+00 -0.17254442795E+02  0.17254442795E+02  0.00000000000E+00 0.  1.
         25    2    1    2    0    0 -0.36349999164E+02 -0.52776191704E+02  0.60194506811E+03  0.61811833332E+03  0.12500304043E+03 0.  0.
    9000005    1    3    3    0    0  0.42502625525E+01  0.18694081278E+02  0.39468660648E+03  0.39515319908E+03  0.10000000000E+01 0.  0.
    9000005    1    3    3    0    0 -0.40600261716E+02 -0.71470272981E+02  0.20725846163E+03  0.22296513424E+03  0.10000000000E+01 0.  0.
          4    1    1    2  501    0  0.36349999164E+02  0.52776191704E+02  0.10285433452E+03  0.12119107178E+03  0.12700000000E+01 0.  1.
<mgrwt>
<rscale>  1 0.14047209E+03</rscale>
<asrwt>0</asrwt>
<pdfrwt beam="2">  1       21 0.26545302E-02 0.14047209E+03</pdfrwt>
<pdfrwt beam="1">  1        4 0.11108886E+00 0.14047209E+03</pdfrwt>
<totfact> 0.21080491E+04</totfact>
</mgrwt>
</event>
<event>
 6    4  0.3995738E-003  0.1300253E+03  0.7818608E-02  0.1227418E+00
         21   -1    0    0  501  502  0.00000000000E+00  0.00000000000E+00  0.62014383871E+01  0.62014383871E+01  0.00000000000E+00 0.  1.
          4   -1    0    0  502    0 -0.00000000000E+00 -0.00000000000E+00 -0.17025460304E+04  0.17025465041E+04  0.12700000000E+01 0. -1.
         25    2    1    2    0    0 -0.34383296522E+02 -0.10013329600E+02 -0.16102835514E+04  0.16155245899E+04  0.12499642729E+03 0.  0.
    9000005    1    3    3    0    0 -0.28089780878E+02 -0.32646797576E+02 -0.18131111677E+03  0.18635871390E+03  0.10000000000E+01 0.  0.
    9000005    1    3    3    0    0 -0.62935156436E+01  0.22633467976E+02 -0.14289724347E+04  0.14291658760E+04  0.10000000000E+01 0.  0.
          4    1    1    2  501    0  0.34383296522E+02  0.10013329600E+02 -0.86061040576E+02  0.93223352516E+02  0.12700000000E+01 0.  1.
<mgrwt>
<rscale>  1 0.13002532E+03</rscale>
<asrwt>0</asrwt>
<pdfrwt beam="1">  1       21 0.95406682E-03 0.13002532E+03</pdfrwt>
<pdfrwt beam="2">  1        4 0.26194037E+00 0.13002532E+03</pdfrwt>
<totfact> 0.10293531E+04</totfact>
</mgrwt>
</event>
<event>
 6    4  0.3995738E-003  0.1290367E+03  0.7818608E-02  0.1228892E+00
         21   -1    0    0  501  502  0.00000000000E+00  0.00000000000E+00  0.97993468835E+01  0.97993468835E+01  0.00000000000E+00 0. -1.
         -4   -1    0    0    0  501 -0.00000000000E+00 -0.00000000000E+00 -0.71806993789E+03  0.71807106097E+03  0.12700000000E+01 0. -1.
         25    2    1    2    0    0 -0.31819884684E+01  0.31866415528E+02 -0.46768841312E+03  0.48516278394E+03  0.12499952665E+03 0.  0.
    9000005    1    3    3    0    0 -0.58898005368E+02 -0.94321922883E+01 -0.21204938042E+03  0.22028136786E+03  0.10000000000E+01 0.  0.
    9000005    1    3    3    0    0  0.55716016899E+02  0.41298607817E+02 -0.25563903270E+03  0.26488141608E+03  0.10000000000E+01 0.  0.
         -4    1    1    2    0  502  0.31819884684E+01 -0.31866415528E+02 -0.24058217788E+03  0.24270762391E+03  0.12700000000E+01 0.  1.
<mgrwt>
<rscale>  1 0.12903672E+03</rscale>
<asrwt>0</asrwt>
<pdfrwt beam="1">  1       21 0.15075916E-02 0.12903672E+03</pdfrwt>
<pdfrwt beam="2">  1       -4 0.11047873E+00 0.12903672E+03</pdfrwt>
<totfact> 0.52731839E+04</totfact>
</mgrwt>
</event>
<event>
 6    4  0.3995738E-003  0.1291815E+03  0.7818608E-02  0.1228675E+00
         21   -1    0    0  501  502  0.00000000000E+00  0.00000000000E+00  0.53595862245E+02  0.53595862245E+02  0.00000000000E+00 0. -1.
         -4   -1    0    0    0  501 -0.00000000000E+00 -0.00000000000E+00 -0.12805463476E+03  0.12806093230E+03  0.12700000000E+01 0. -1.
         25    2    1    2    0    0  0.22105845712E+02 -0.23957506922E+02 -0.74318181293E+02  0.14903374720E+03  0.12500094072E+03 0.  0.
    9000005    1    3    3    0    0 -0.45569359591E+02 -0.17843906649E+02 -0.63568819914E+02  0.80230707359E+02  0.10000000000E+01 0.  0.
    9000005    1    3    3    0    0  0.67675205303E+02 -0.61136002723E+01 -0.10749361379E+02  0.68803039839E+02  0.10000000000E+01 0.  0.
         -4    1    1    2    0  502 -0.22105845712E+02  0.23957506922E+02 -0.14059121717E+00  0.32623047350E+02  0.12700000000E+01 0.  1.
<mgrwt>
<rscale>  1 0.12918152E+03</rscale>
<asrwt>0</asrwt>
<pdfrwt beam="1">  1       21 0.82455173E-02 0.12918152E+03</pdfrwt>
<pdfrwt beam="2">  1       -4 0.19702355E-01 0.12918152E+03</pdfrwt>
<totfact> 0.10544122E+05</totfact>
</mgrwt>
</event>
<event>
 6    4  0.3995738E-003  0.1287782E+03  0.7818608E-02  0.1229280E+00
         21   -1    0    0  501  502  0.00000000000E+00  0.00000000000E+00  0.52157406472E+03  0.52157406472E+03  0.00000000000E+00 0. -1.
         -4   -1    0    0    0  501 -0.00000000000E+00 -0.00000000000E+00 -0.12331908393E+02  0.12397131305E+02  0.12700000000E+01 0. -1.
         25    2    1    2    0    0 -0.30666557392E+02  0.43152158481E+01  0.38714113777E+03  0.40799766522E+03  0.12499910177E+03 0.  0.
    9000005    1    3    3    0    0 -0.55263026612E+02 -0.46104972844E+02  0.23826373658E+03  0.24889812936E+03  0.10000000000E+01 0.  0.
    9000005    1    3    3    0    0  0.24596469219E+02  0.50420188692E+02  0.14887740119E+03  0.15909953586E+03  0.10000000000E+01 0.  0.
         -4    1    1    2    0  502  0.30666557392E+02 -0.43152158481E+01  0.12210101855E+03  0.12597353080E+03  0.12700000000E+01 0.  1.
<mgrwt>
<rscale>  1 0.12877824E+03</rscale>
<asrwt>0</asrwt>
<pdfrwt beam="1">  1       21 0.80242147E-01 0.12877824E+03</pdfrwt>
<pdfrwt beam="2">  1       -4 0.19023532E-02 0.12877824E+03</pdfrwt>
<totfact> 0.60976485E+04</totfact>
</mgrwt>
</event>
<event>
 6    4  0.3995738E-003  0.1425364E+03  0.7818608E-02  0.1209956E+00
         -4   -1    0    0    0  501 -0.00000000000E+00  0.00000000000E+00  0.17401569050E+03  0.17402032479E+03  0.12700000000E+01 0.  1.
         21   -1    0    0  501  502  0.00000000000E+00 -0.00000000000E+00 -0.65337075012E+02  0.65337075012E+02  0.00000000000E+00 0.  1.
         25    2    1    2    0    0  0.66882579307E+02 -0.14886881669E+02  0.56939191378E+02  0.15348843237E+03  0.12498691410E+03 0.  0.
    9000005    1    3    3    0    0  0.40007905772E+02  0.49106369532E+02 -0.56145164543E+00  0.63351268976E+02  0.10000000000E+01 0.  0.
    9000005    1    3    3    0    0  0.26874673535E+02 -0.63993251201E+02  0.57500643023E+02  0.90137163395E+02  0.10000000000E+01 0.  0.
         -4    1    1    2    0  502 -0.66882579307E+02  0.14886881669E+02  0.51739424112E+02  0.85868967433E+02  0.12700000000E+01 0. -1.
<mgrwt>
<rscale>  1 0.14253641E+03</rscale>
<asrwt>0</asrwt>
<pdfrwt beam="2">  1       21 0.10051858E-01 0.14253641E+03</pdfrwt>
<pdfrwt beam="1">  1       -4 0.26772950E-01 0.14253641E+03</pdfrwt>
<totfact> 0.43181121E+04</totfact>
</mgrwt>
</event>
<event>
 6    4  0.3995738E-003  0.1270534E+03  0.7818608E-02  0.1231895E+00
         21   -1    0    0  501  502  0.00000000000E+00  0.00000000000E+00  0.13122305641E+04  0.13122305641E+04  0.00000000000E+00 0. -1.
          4   -1    0    0  502    0 -0.00000000000E+00 -0.00000000000E+00 -0.59114630878E+01  0.60463456599E+01  0.12700000000E+01 0.  1.
         25    2    1    2    0    0 -0.14238960487E+02 -0.17744994631E+02  0.69401807315E+03  0.70555201680E+03  0.12499971889E+03 0.  0.
    9000005    1    3    3    0    0  0.52014085310E+02 -0.51036547544E+01  0.42513390924E+03  0.42833556138E+03  0.10000000000E+01 0.  0.
    9000005    1    3    3    0    0 -0.66253045797E+02 -0.12641339876E+02  0.26888416392E+03  0.27721645542E+03  0.10000000000E+01 0.  0.
          4    1    1    2  501    0  0.14238960487E+02  0.17744994631E+02  0.61230102786E+03  0.61272489296E+03  0.12700000000E+01 0. -1.
<mgrwt>
<rscale>  1 0.12705338E+03</rscale>
<asrwt>0</asrwt>
<pdfrwt beam="1">  1       21 0.20188140E+00 0.12705338E+03</pdfrwt>
<pdfrwt beam="2">  1        4 0.91987976E-03 0.12705338E+03</pdfrwt>
<totfact> 0.18190396E+04</totfact>
</mgrwt>
</event>
<event>
 6    4  0.3995738E-003  0.1287190E+03  0.7818608E-02  0.1229369E+00
         21   -1    0    0  501  502  0.00000000000E+00  0.00000000000E+00  0.83853499845E+01  0.83853499845E+01  0.00000000000E+00 0.  1.
         -4   -1    0    0    0  501 -0.00000000000E+00 -0.00000000000E+00 -0.76200831730E+03  0.76200937562E+03  0.12700000000E+01 0. -1.
         25    2    1    2    0    0 -0.13270373164E+02 -0.27751645252E+02 -0.62778999984E+03  0.64085011854E+03  0.12498933517E+03 0.  0.
    9000005    1    3    3    0    0  0.29726720015E+02 -0.26169675076E+02 -0.62990558281E+02  0.74413306666E+02  0.10000000000E+01 0.  0.
    9000005    1    3    3    0    0 -0.42997093179E+02 -0.15819701759E+01 -0.56479944156E+03  0.56643681187E+03  0.10000000000E+01 0.  0.
         -4    1    1    2    0  502  0.13270373164E+02  0.27751645252E+02 -0.12583296747E+03  0.12954460707E+03  0.12700000000E+01 0.  1.
<mgrwt>
<rscale>  1 0.12871904E+03</rscale>
<asrwt>0</asrwt>
<pdfrwt beam="1">  1       21 0.12900537E-02 0.12871904E+03</pdfrwt>
<pdfrwt beam="2">  1       -4 0.11723954E+00 0.12871904E+03</pdfrwt>
<totfact> 0.58709660E+04</totfact>
</mgrwt>
</event>
<event>
 6    4  0.3995738E-003  0.1307302E+03  0.7818608E-02  0.1226376E+00
         21   -1    0    0  501  502  0.00000000000E+00  0.00000000000E+00  0.62013613777E+03  0.62013613777E+03  0.00000000000E+00 0. -1.
         -4   -1    0    0    0  501 -0.00000000000E+00 -0.00000000000E+00 -0.12711167011E+02  0.12774453679E+02  0.12700000000E+01 0.  1.
         25    2    1    2    0    0 -0.17855844078E+02 -0.33855902050E+02  0.36998494921E+03  0.39240190137E+03  0.12500134513E+03 0.  0.
    9000005    1    3    3    0    0 -0.61453207651E+02 -0.51101418573E+02  0.18429234931E+03  0.20087937108E+03  0.10000000000E+01 0.  0.
    9000005    1    3    3    0    0  0.43597363574E+02  0.17245516524E+02  0.18569259990E+03  0.19152253029E+03  0.10000000000E+01 0.  0.
         -4    1    1    2    0  502  0.17855844078E+02  0.33855902050E+02  0.23744002155E+03  0.24050869008E+03  0.12700000000E+01 0. -1.
<mgrwt>
<rscale>  1 0.13073022E+03</rscale>
<asrwt>0</asrwt>
<pdfrwt beam="1">  1       21 0.95405536E-01 0.13073022E+03</pdfrwt>
<pdfrwt beam="2">  1       -4 0.19605329E-02 0.13073022E+03</pdfrwt>
<totfact> 0.39330922E+04</totfact>
</mgrwt>
</event>
<event>
 6    4  0.3995738E-003  0.1279609E+03  0.7818608E-02  0.1230513E+00
         21   -1    0    0  501  502  0.00000000000E+00  0.00000000000E+00  0.20586868302E+02  0.20586868302E+02  0.00000000000E+00 0. -1.
         -4   -1    0    0    0  501 -0.00000000000E+00 -0.00000000000E+00 -0.48534123327E+03  0.48534289488E+03  0.12700000000E+01 0.  1.
         25    2    1    2    0    0  0.24249914180E+02 -0.12659813037E+02 -0.46082880461E+03  0.47826476494E+03  0.12500267604E+03 0.  0.
    9000005    1    3    3    0    0  0.47274101917E+02 -0.42922840277E+02 -0.40910604492E+03  0.41406034212E+03  0.10000000000E+01 0.  0.
    9000005    1    3    3    0    0 -0.23024187737E+02  0.30263027239E+02 -0.51722759693E+02  0.64204422814E+02  0.10000000000E+01 0.  0.
         -4    1    1    2    0  502 -0.24249914180E+02  0.12659813037E+02 -0.39255603562E+01  0.27664998246E+02  0.12700000000E+01 0. -1.
<mgrwt>
<rscale>  1 0.12796092E+03</rscale>
<asrwt>0</asrwt>
<pdfrwt beam="1">  1       21 0.31672111E-02 0.12796092E+03</pdfrwt>
<pdfrwt beam="2">  1       -4 0.74671010E-01 0.12796092E+03</pdfrwt>
<totfact> 0.38445624E+04</totfact>
</mgrwt>
</event>
<event>
 6    4  0.3995738E-003  0.1278102E+03  0.7818608E-02  0.1230742E+00
         21   -1    0    0  501  502  0.00000000000E+00  0.00000000000E+00  0.27551477583E+03  0.27551477583E+03  0.00000000000E+00 0.  1.
         -4   -1    0    0    0  501 -0.00000000000E+00 -0.00000000000E+00 -0.27488289034E+02  0.27517611343E+02  0.12700000000E+01 0.  1.
         25    2    1    2    0    0 -0.33870326100E+01  0.26307193183E+02  0.13095926781E+03  0.18299119814E+03  0.12502763042E+03 0.  0.
    9000005    1    3    3    0    0  0.17302156596E+02 -0.47739652526E+02  0.48041856705E+02  0.69910364338E+02  0.10000000000E+01 0.  0.
    9000005    1    3    3    0    0 -0.20689189206E+02  0.74046845709E+02  0.82917411108E+02  0.11308083381E+03  0.10000000000E+01 0.  0.
         -4    1    1    2    0  502  0.33870326100E+01 -0.26307193183E+02  0.11706721898E+03  0.12004118903E+03  0.12700000000E+01 0. -1.
<mgrwt>
<rscale>  1 0.12781021E+03</rscale>
<asrwt>0</asrwt>
<pdfrwt beam="1">  1       21 0.42386887E-01 0.12781021E+03</pdfrwt>
<pdfrwt beam="2">  1       -4 0.42314485E-02 0.12781021E+03</pdfrwt>
<totfact> 0.67514050E+04</totfact>
</mgrwt>
</event>
<event>
 6    4  0.3995738E-003  0.1266040E+03  0.7818608E-02  0.1232584E+00
         21   -1    0    0  501  502  0.00000000000E+00  0.00000000000E+00  0.14458911810E+03  0.14458911810E+03  0.00000000000E+00 0. -1.
         -4   -1    0    0    0  501 -0.00000000000E+00 -0.00000000000E+00 -0.15737735654E+03  0.15738248077E+03  0.12700000000E+01 0.  1.
         25    2    1    2    0    0  0.16360358668E+02 -0.11646874595E+02 -0.13092919610E+03  0.18212916147E+03  0.12500106417E+03 0.  0.
    9000005    1    3    3    0    0  0.10832382867E+02  0.34599128210E+02 -0.13059940247E+03  0.13554203819E+03  0.10000000000E+01 0.  0.
    9000005    1    3    3    0    0  0.55279758008E+01 -0.46246002805E+02 -0.32979362766E+00  0.46587123282E+02  0.10000000000E+01 0.  0.
         -4    1    1    2    0  502 -0.16360358668E+02  0.11646874595E+02  0.11814095766E+03  0.11984243739E+03  0.12700000000E+01 0. -1.
<mgrwt>
<rscale>  1 0.12660402E+03</rscale>
<asrwt>0</asrwt>
<pdfrwt beam="1">  1       21 0.22244480E-01 0.12660402E+03</pdfrwt>
<pdfrwt beam="2">  1       -4 0.24212724E-01 0.12660402E+03</pdfrwt>
<totfact> 0.12236367E+04</totfact>
</mgrwt>
</event>
<event>
 6    4  0.3995738E-003  0.1273025E+03  0.7818608E-02  0.1231514E+00
         21   -1    0    0  501  502  0.00000000000E+00  0.00000000000E+00  0.10119142085E+02  0.10119142085E+02  0.00000000000E+00 0.  1.
          4   -1    0    0  502    0 -0.00000000000E+00 -0.00000000000E+00 -0.56998510554E+03  0.56998652040E+03  0.12700000000E+01 0.  1.
         25    2    1    2    0    0 -0.23952187915E+02  0.27530258369E+01 -0.48587815742E+03  0.50227832282E+03  0.12499857304E+03 0.  0.
    9000005    1    3    3    0    0 -0.58560841371E+02 -0.11828302017E+02 -0.43472222976E+03  0.43880940956E+03  0.10000000000E+01 0.  0.
    9000005    1    3    3    0    0  0.34608653455E+02  0.14581327854E+02 -0.51155927661E+02  0.63468913263E+02  0.10000000000E+01 0.  0.
          4    1    1    2  501    0  0.23952187915E+02 -0.27530258369E+01 -0.73987806030E+02  0.77827339658E+02  0.12700000000E+01 0. -1.
<mgrwt>
<rscale>  1 0.12730251E+03</rscale>
<asrwt>0</asrwt>
<pdfrwt beam="1">  1       21 0.15567905E-02 0.12730251E+03</pdfrwt>
<pdfrwt beam="2">  1        4 0.87696287E-01 0.12730251E+03</pdfrwt>
<totfact> 0.85065900E+04</totfact>
</mgrwt>
</event>
<event>
 6    4  0.3995738E-003  0.1272101E+03  0.7818608E-02  0.1231655E+00
         21   -1    0    0  501  502  0.00000000000E+00  0.00000000000E+00  0.20269068472E+02  0.20269068472E+02  0.00000000000E+00 0. -1.
          4   -1    0    0  502    0 -0.00000000000E+00 -0.00000000000E+00 -0.29416954671E+03  0.29417228814E+03  0.12700000000E+01 0. -1.
         25    2    1    2    0    0  0.13743317424E+02  0.19174284753E+02 -0.25171013950E+03  0.28202907495E+03  0.12500349123E+03 0.  0.
    9000005    1    3    3    0    0 -0.33045038785E+02  0.57761815551E+02 -0.13135957144E+03  0.14725739008E+03  0.10000000000E+01 0.  0.
    9000005    1    3    3    0    0  0.46788356209E+02 -0.38587530798E+02 -0.12035056806E+03  0.13477168487E+03  0.10000000000E+01 0.  0.
          4    1    1    2  501    0 -0.13743317424E+02 -0.19174284753E+02 -0.22190338735E+02  0.32412281666E+02  0.12700000000E+01 0.  1.
<mgrwt>
<rscale>  1 0.12721008E+03</rscale>
<asrwt>0</asrwt>
<pdfrwt beam="1">  1       21 0.31183185E-02 0.12721008E+03</pdfrwt>
<pdfrwt beam="2">  1        4 0.45260120E-01 0.12721008E+03</pdfrwt>
<totfact> 0.11207518E+05</totfact>
</mgrwt>
</event>
<event>
 6    4  0.3995738E-003  0.1269286E+03  0.7818608E-02  0.1232086E+00
         21   -1    0    0  501  502  0.00000000000E+00  0.00000000000E+00  0.60789596524E+01  0.60789596524E+01  0.00000000000E+00 0. -1.
         -4   -1    0    0    0  501 -0.00000000000E+00 -0.00000000000E+00 -0.98710697458E+03  0.98710779156E+03  0.12700000000E+01 0. -1.
         25    2    1    2    0    0 -0.13070739279E+02 -0.17765787164E+02 -0.90979489328E+03  0.91860633865E+03  0.12499756057E+03 0.  0.
    9000005    1    3    3    0    0  0.68559703787E+01  0.47401260798E+02 -0.20495023682E+03  0.21047442464E+03  0.10000000000E+01 0.  0.
    9000005    1    3    3    0    0 -0.19926709658E+02 -0.65167047962E+02 -0.70484465646E+03  0.70813191401E+03  0.10000000000E+01 0.  0.
         -4    1    1    2    0  502  0.13070739279E+02  0.17765787164E+02 -0.71233121644E+02  0.74580412562E+02  0.12700000000E+01 0.  1.
<mgrwt>
<rscale>  1 0.12692855E+03</rscale>
<asrwt>0</asrwt>
<pdfrwt beam="1">  1       21 0.93522414E-03 0.12692855E+03</pdfrwt>
<pdfrwt beam="2">  1       -4 0.15187295E+00 0.12692855E+03</pdfrwt>
<totfact> 0.51476396E+04</totfact>
</mgrwt>
</event>
<event>
 6    4  0.3995738E-003  0.1362948E+03  0.7818608E-02  0.1218403E+00
         21   -1    0    0  501  502  0.00000000000E+00  0.00000000000E+00  0.31052555001E+02  0.31052555001E+02  0.00000000000E+00 0.  1.
         -4   -1    0    0    0  501 -0.00000000000E+00 -0.00000000000E+00 -0.30070210091E+03  0.30070478279E+03  0.12700000000E+01 0. -1.
         25    2    1    2    0    0  0.35479386089E+02 -0.41142730968E+02 -0.21591373755E+03  0.25533311945E+03  0.12499899471E+03 0.  0.
    9000005    1    3    3    0    0  0.36868053497E+02  0.13413250079E+02 -0.75832437755E+01  0.39970917333E+02  0.10000000000E+01 0.  0.
    9000005    1    3    3    0    0 -0.13886674078E+01 -0.54555981047E+02 -0.20833049377E+03  0.21536220211E+03  0.10000000000E+01 0.  0.
         -4    1    1    2    0  502 -0.35479386089E+02  0.41142730968E+02 -0.53735808365E+02  0.76424218343E+02  0.12700000000E+01 0.  1.
<mgrwt>
<rscale>  1 0.13629475E+03</rscale>
<asrwt>0</asrwt>
<pdfrwt beam="1">  1       21 0.47773161E-02 0.13629475E+03</pdfrwt>
<pdfrwt beam="2">  1       -4 0.46264066E-01 0.13629475E+03</pdfrwt>
<totfact> 0.53347171E+04</totfact>
</mgrwt>
</event>
<event>
 6    4  0.3995738E-003  0.1276415E+03  0.7818608E-02  0.1230998E+00
         21   -1    0    0  501  502  0.00000000000E+00  0.00000000000E+00  0.11360546355E+02  0.11360546355E+02  0.00000000000E+00 0. -1.
         -4   -1    0    0    0  501 -0.00000000000E+00 -0.00000000000E+00 -0.52911589985E+03  0.52911742399E+03  0.12700000000E+01 0.  1.
         25    2    1    2    0    0  0.14802056216E+02  0.21187260228E+02 -0.39832526906E+03  0.41827666581E+03  0.12499739326E+03 0.  0.
    9000005    1    3    3    0    0 -0.15077172907E+02  0.66017626423E+02 -0.28289616175E+03  0.29088981845E+03  0.10000000000E+01 0.  0.
    9000005    1    3    3    0    0  0.29879229123E+02 -0.44830366196E+02 -0.11542910731E+03  0.12738684736E+03  0.10000000000E+01 0.  0.
         -4    1    1    2    0  502 -0.14802056216E+02 -0.21187260228E+02 -0.11943008443E+03  0.12220130454E+03  0.12700000000E+01 0. -1.
<mgrwt>
<rscale>  1 0.12764149E+03</rscale>
<asrwt>0</asrwt>
<pdfrwt beam="1">  1       21 0.17477759E-02 0.12764149E+03</pdfrwt>
<pdfrwt beam="2">  1       -4 0.81408046E-01 0.12764149E+03</pdfrwt>
<totfact> 0.83458203E+04</totfact>
</mgrwt>
</event>
<event>
 6    4  0.3995738E-003  0.1286502E+03  0.7818608E-02  0.1229472E+00
         21   -1    0    0  501  502  0.00000000000E+00  0.00000000000E+00  0.16722664046E+02  0.16722664046E+02  0.00000000000E+00 0.  1.
         -4   -1    0    0    0  501 -0.00000000000E+00 -0.00000000000E+00 -0.40417098544E+03  0.40417298076E+03  0.12700000000E+01 0. -1.
         25    2    1    2    0    0  0.13878078601E+02 -0.26977995832E+02 -0.34864471785E+03  0.37162348357E+03  0.12502184181E+03 0.  0.
    9000005    1    3    3    0    0 -0.32177066646E+01 -0.74356016488E+02 -0.25020724695E+03  0.26104374585E+03  0.10000000000E+01 0.  0.
    9000005    1    3    3    0    0  0.17095785265E+02  0.47378020656E+02 -0.98437470904E+02  0.11057973771E+03  0.10000000000E+01 0.  0.
         -4    1    1    2    0  502 -0.13878078601E+02  0.26977995832E+02 -0.38803603547E+02  0.49272161237E+02  0.12700000000E+01 0.  1.
<mgrwt>
<rscale>  1 0.12865020E+03</rscale>
<asrwt>0</asrwt>
<pdfrwt beam="1">  1       21 0.25727178E-02 0.12865020E+03</pdfrwt>
<pdfrwt beam="2">  1       -4 0.62184007E-01 0.12865020E+03</pdfrwt>
<totfact> 0.80049519E+04</totfact>
</mgrwt>
</event>
<event>
 6    4  0.3995738E-003  0.1274448E+03  0.7818608E-02  0.1231297E+00
          4   -1    0    0  502    0 -0.00000000000E+00  0.00000000000E+00  0.73356444799E+02  0.73367437556E+02  0.12700000000E+01 0.  1.
         21   -1    0    0  501  502  0.00000000000E+00 -0.00000000000E+00 -0.13519694384E+03  0.13519694384E+03  0.00000000000E+00 0.  1.
         25    2    1    2    0    0 -0.13644628625E+02  0.20691433478E+02  0.14522610709E+02  0.12826961980E+03  0.12501151080E+03 0.  0.
    9000005    1    3    3    0    0 -0.19336034153E+02  0.43136973726E+02 -0.44456152951E+02  0.64900156041E+02  0.10000000000E+01 0.  0.
    9000005    1    3    3    0    0  0.56914055276E+01 -0.22445540248E+02  0.58978763660E+02  0.63369463756E+02  0.10000000000E+01 0.  0.
          4    1    1    2  501    0  0.13644628625E+02 -0.20691433478E+02 -0.76363109745E+02  0.80294761595E+02  0.12700000000E+01 0. -1.
<mgrwt>
<rscale>  1 0.12744485E+03</rscale>
<asrwt>0</asrwt>
<pdfrwt beam="2">  1       21 0.20799530E-01 0.12744485E+03</pdfrwt>
<pdfrwt beam="1">  1        4 0.11286911E-01 0.12744485E+03</pdfrwt>
<totfact> 0.53282415E+04</totfact>
</mgrwt>
</event>
<event>
 6    4  0.3995738E-003  0.1345393E+03  0.7818608E-02  0.1220872E+00
          4   -1    0    0  502    0 -0.00000000000E+00  0.00000000000E+00  0.66025372669E+03  0.66025494812E+03  0.12700000000E+01 0.  1.
         21   -1    0    0  501  502  0.00000000000E+00 -0.00000000000E+00 -0.13560609951E+02  0.13560609951E+02  0.00000000000E+00 0.  1.
         25    2    1    2    0    0 -0.44803766177E+02  0.21636625028E+02  0.53277034517E+03  0.54949527899E+03  0.12500119974E+03 0.  0.
    9000005    1    3    3    0    0 -0.30172844757E+02 -0.36226111073E+01  0.51373088238E+03  0.51462990914E+03  0.10000000000E+01 0.  0.
    9000005    1    3    3    0    0 -0.14630921420E+02  0.25259236136E+02  0.19039462795E+02  0.34865369858E+02  0.10000000000E+01 0.  0.
          4    1    1    2  501    0  0.44803766177E+02 -0.21636625028E+02  0.11392277157E+03  0.12432027907E+03  0.12700000000E+01 0. -1.
<mgrwt>
<rscale>  1 0.13453929E+03</rscale>
<asrwt>0</asrwt>
<pdfrwt beam="2">  1       21 0.20862482E-02 0.13453929E+03</pdfrwt>
<pdfrwt beam="1">  1        4 0.10158214E+00 0.13453929E+03</pdfrwt>
<totfact> 0.38281868E+04</totfact>
</mgrwt>
</event>
<event>
 6    4  0.3995738E-003  0.1284096E+03  0.7818608E-02  0.1229835E+00
         21   -1    0    0  501  502  0.00000000000E+00  0.00000000000E+00  0.64312307039E+02  0.64312307039E+02  0.00000000000E+00 0.  1.
          4   -1    0    0  502    0 -0.00000000000E+00 -0.00000000000E+00 -0.12022933591E+03  0.12023604333E+03  0.12700000000E+01 0. -1.
         25    2    1    2    0    0  0.83562478945E+01 -0.28178265984E+02 -0.75732423085E+02  0.14907858436E+03  0.12500073142E+03 0.  0.
    9000005    1    3    3    0    0  0.35120858133E+02  0.10284836196E+00 -0.98072273516E+02  0.10417608212E+03  0.10000000000E+01 0.  0.
    9000005    1    3    3    0    0 -0.26764610239E+02 -0.28281114346E+02  0.22339850431E+02  0.44902502237E+02  0.10000000000E+01 0.  0.
          4    1    1    2  501    0 -0.83562478945E+01  0.28178265984E+02  0.19815394209E+02  0.35469766004E+02  0.12700000000E+01 0.  1.
<mgrwt>
<rscale>  1 0.12840960E+03</rscale>
<asrwt>0</asrwt>
<pdfrwt beam="1">  1       21 0.98942010E-02 0.12840960E+03</pdfrwt>
<pdfrwt beam="2">  1        4 0.18498302E-01 0.12840960E+03</pdfrwt>
<totfact> 0.85912341E+04</totfact>
</mgrwt>
</event>
<event>
 6    4  0.3995738E-003  0.1366465E+03  0.7818608E-02  0.1217914E+00
         21   -1    0    0  501  502  0.00000000000E+00  0.00000000000E+00  0.15887357551E+03  0.15887357551E+03  0.00000000000E+00 0. -1.
         -4   -1    0    0    0  501 -0.00000000000E+00 -0.00000000000E+00 -0.13702542481E+03  0.13703131009E+03  0.12700000000E+01 0.  1.
         25    2    1    2    0    0 -0.45665549279E+02  0.30998810580E+02 -0.95166814258E+02  0.16652025137E+03  0.12500401167E+03 0.  0.
    9000005    1    3    3    0    0  0.17337294426E+02 -0.36293034563E+02 -0.49052531067E+02  0.63442233094E+02  0.10000000000E+01 0.  0.
    9000005    1    3    3    0    0 -0.63002843706E+02  0.67291845143E+02 -0.46114283191E+02  0.10307801828E+03  0.10000000000E+01 0.  0.
         -4    1    1    2    0  502  0.45665549279E+02 -0.30998810580E+02  0.11701496496E+03  0.12938463422E+03  0.12700000000E+01 0. -1.
<mgrwt>
<rscale>  1 0.13664652E+03</rscale>
<asrwt>0</asrwt>
<pdfrwt beam="1">  1       21 0.24442089E-01 0.13664652E+03</pdfrwt>
<pdfrwt beam="2">  1       -4 0.21081678E-01 0.13664652E+03</pdfrwt>
<totfact> 0.13285870E+04</totfact>
</mgrwt>
</event>
<event>
 6    4  0.3995738E-003  0.1274679E+03  0.7818608E-02  0.1231262E+00
         -4   -1    0    0    0  501 -0.00000000000E+00  0.00000000000E+00  0.15874476803E+03  0.15874984812E+03  0.12700000000E+01 0.  1.
         21   -1    0    0  501  502  0.00000000000E+00 -0.00000000000E+00 -0.57629699995E+02  0.57629699995E+02  0.00000000000E+00 0.  1.
         25    2    1    2    0    0 -0.23222673873E+02 -0.91986686803E+01  0.12731489392E+03  0.18015867204E+03  0.12499662719E+03 0.  0.
    9000005    1    3    3    0    0  0.34777789488E+02 -0.33033562610E+02  0.10163580334E+03  0.11239015714E+03  0.10000000000E+01 0.  0.
    9000005    1    3    3    0    0 -0.58000463361E+02  0.23834893930E+02  0.25679090580E+02  0.67768514900E+02  0.10000000000E+01 0.  0.
         -4    1    1    2    0  502  0.23222673873E+02  0.91986686803E+01 -0.26199825885E+02  0.36220876076E+02  0.12700000000E+01 0. -1.
<mgrwt>
<rscale>  1 0.12746790E+03</rscale>
<asrwt>0</asrwt>
<pdfrwt beam="2">  1       21 0.88661078E-02 0.12746790E+03</pdfrwt>
<pdfrwt beam="1">  1       -4 0.24423739E-01 0.12746790E+03</pdfrwt>
<totfact> 0.62840319E+04</totfact>
</mgrwt>
</event>
<event>
 6    4  0.3995738E-003  0.1268108E+03  0.7818608E-02  0.1232266E+00
         21   -1    0    0  501  502  0.00000000000E+00  0.00000000000E+00  0.26577308692E+02  0.26577308692E+02  0.00000000000E+00 0. -1.
          4   -1    0    0  502    0 -0.00000000000E+00 -0.00000000000E+00 -0.30210018425E+03  0.30210285372E+03  0.12700000000E+01 0.  1.
         25    2    1    2    0    0 -0.59701245426E+01  0.20499785675E+02 -0.27950200978E+03  0.30692401365E+03  0.12500037233E+03 0.  0.
    9000005    1    3    3    0    0 -0.32460045146E+02  0.27868085752E+02 -0.22301388224E+02  0.48255949386E+02  0.10000000000E+01 0.  0.
    9000005    1    3    3    0    0  0.26489920604E+02 -0.73683000775E+01 -0.25720062156E+03  0.25866806426E+03  0.10000000000E+01 0.  0.
          4    1    1    2  501    0  0.59701245426E+01 -0.20499785675E+02  0.39791342236E+01  0.21756148761E+02  0.12700000000E+01 0. -1.
<mgrwt>
<rscale>  1 0.12681079E+03</rscale>
<asrwt>0</asrwt>
<pdfrwt beam="1">  1       21 0.40888166E-02 0.12681079E+03</pdfrwt>
<pdfrwt beam="2">  1        4 0.46479492E-01 0.12681079E+03</pdfrwt>
<totfact> 0.67879693E+04</totfact>
</mgrwt>
</event>
<event>
 6    4  0.3995738E-003  0.1271230E+03  0.7818608E-02  0.1231788E+00
         21   -1    0    0  501  502  0.00000000000E+00  0.00000000000E+00  0.10830478812E+02  0.10830478812E+02  0.00000000000E+00 0.  1.
         -4   -1    0    0    0  501 -0.00000000000E+00 -0.00000000000E+00 -0.63364285254E+03  0.63364412526E+03  0.12700000000E+01 0.  1.
         25    2    1    2    0    0 -0.16276940135E+02 -0.16435781077E+02 -0.59426601426E+03  0.60771074657E+03  0.12500072843E+03 0.  0.
    9000005    1    3    3    0    0 -0.47493210615E+02  0.39250475766E+02 -0.34085866985E+03  0.34638394552E+03  0.10000000000E+01 0.  0.
    9000005    1    3    3    0    0  0.31216270480E+02 -0.55686256842E+02 -0.25340734441E+03  0.26132680105E+03  0.10000000000E+01 0.  0.
         -4    1    1    2    0  502  0.16276940135E+02  0.16435781077E+02 -0.28546359466E+02  0.36763857503E+02  0.12700000000E+01 0. -1.
<mgrwt>
<rscale>  1 0.12712299E+03</rscale>
<asrwt>0</asrwt>
<pdfrwt beam="1">  1       21 0.16662272E-02 0.12712299E+03</pdfrwt>
<pdfrwt beam="2">  1       -4 0.97489360E-01 0.12712299E+03</pdfrwt>
<totfact> 0.59999093E+04</totfact>
</mgrwt>
</event>
<event>
 6    4  0.3995738E-003  0.1310773E+03  0.7818608E-02  0.1225866E+00
          4   -1    0    0  502    0 -0.00000000000E+00  0.00000000000E+00  0.23466281396E+03  0.23466625057E+03  0.12700000000E+01 0.  1.
         21   -1    0    0  501  502  0.00000000000E+00 -0.00000000000E+00 -0.13919787508E+03  0.13919787508E+03  0.00000000000E+00 0. -1.
         25    2    1    2    0    0 -0.33167404101E+02  0.21338982202E+02  0.21287865805E+03  0.24999716796E+03  0.12500332828E+03 0.  0.
    9000005    1    3    3    0    0 -0.16743058485E+02  0.50987749727E+02  0.20909896123E+03  0.21587833661E+03  0.10000000000E+01 0.  0.
    9000005    1    3    3    0    0 -0.16424345616E+02 -0.29648767525E+02  0.37796968151E+01  0.34118831350E+02  0.10000000000E+01 0.  0.
          4    1    1    2  501    0  0.33167404101E+02 -0.21338982202E+02 -0.11741371917E+03  0.12386695768E+03  0.12700000000E+01 0. -1.
<mgrwt>
<rscale>  1 0.13107731E+03</rscale>
<asrwt>0</asrwt>
<pdfrwt beam="2">  1       21 0.21415058E-01 0.13107731E+03</pdfrwt>
<pdfrwt beam="1">  1        4 0.36102682E-01 0.13107731E+03</pdfrwt>
<totfact> 0.62037669E+03</totfact>
</mgrwt>
</event>
<event>
 6    4  0.3995738E-003  0.1271999E+03  0.7818608E-02  0.1231671E+00
         -4   -1    0    0    0  501 -0.00000000000E+00  0.00000000000E+00  0.16373169845E+03  0.16373662381E+03  0.12700000000E+01 0.  1.
         21   -1    0    0  501  502  0.00000000000E+00 -0.00000000000E+00 -0.47381054259E+02  0.47381054259E+02  0.00000000000E+00 0. -1.
         25    2    1    2    0    0 -0.23552072645E+02 -0.25724450371E+00  0.13160340682E+03  0.18302807201E+03  0.12500020863E+03 0.  0.
    9000005    1    3    3    0    0 -0.72634208421E+02  0.24364675357E+01  0.51641645573E+02  0.89160104108E+02  0.10000000000E+01 0.  0.
    9000005    1    3    3    0    0  0.49082135776E+02 -0.26937120394E+01  0.79961761247E+02  0.93867967905E+02  0.10000000000E+01 0.  0.
         -4    1    1    2    0  502  0.23552072645E+02  0.25724450371E+00 -0.15252762629E+02  0.28089606057E+02  0.12700000000E+01 0. -1.
<mgrwt>
<rscale>  1 0.12719992E+03</rscale>
<asrwt>0</asrwt>
<pdfrwt beam="2">  1       21 0.72893931E-02 0.12719992E+03</pdfrwt>
<pdfrwt beam="1">  1       -4 0.25191180E-01 0.12719992E+03</pdfrwt>
<totfact> 0.83173003E+04</totfact>
</mgrwt>
</event>
<event>
 6    4  0.3995738E-003  0.1279588E+03  0.7818608E-02  0.1230516E+00
         21   -1    0    0  501  502  0.00000000000E+00  0.00000000000E+00  0.19192862335E+03  0.19192862335E+03  0.00000000000E+00 0.  1.
         -4   -1    0    0    0  501 -0.00000000000E+00 -0.00000000000E+00 -0.12829065036E+03  0.12829693633E+03  0.12700000000E+01 0. -1.
         25    2    1    2    0    0 -0.96441912052E+01  0.25599250231E+02 -0.94919262254E+02  0.15932079970E+03  0.12500047534E+03 0.  0.
    9000005    1    3    3    0    0 -0.46967716145E+02  0.10168120149E+02 -0.10687711737E+03  0.11718820438E+03  0.10000000000E+01 0.  0.
    9000005    1    3    3    0    0  0.37323524940E+02  0.15431130082E+02  0.11957855120E+02  0.42132595323E+02  0.10000000000E+01 0.  0.
         -4    1    1    2    0  502  0.96441912052E+01 -0.25599250231E+02  0.15855723524E+03  0.16090475998E+03  0.12700000000E+01 0.  1.
<mgrwt>
<rscale>  1 0.12795879E+03</rscale>
<asrwt>0</asrwt>
<pdfrwt beam="1">  1       21 0.29527481E-01 0.12795879E+03</pdfrwt>
<pdfrwt beam="2">  1       -4 0.19737830E-01 0.12795879E+03</pdfrwt>
<totfact> 0.10376593E+04</totfact>
</mgrwt>
</event>
<event>
 6    4  0.3995738E-003  0.1356490E+03  0.7818608E-02  0.1219306E+00
         21   -1    0    0  501  502  0.00000000000E+00  0.00000000000E+00  0.85816738393E+03  0.85816738393E+03  0.00000000000E+00 0.  1.
          4   -1    0    0  502    0 -0.00000000000E+00 -0.00000000000E+00 -0.14566677779E+02  0.14621935628E+02  0.12700000000E+01 0. -1.
         25    2    1    2    0    0  0.32796197234E+02 -0.41227216705E+02  0.33434816284E+03  0.36081760186E+03  0.12500149547E+03 0.  0.
    9000005    1    3    3    0    0 -0.31715328820E+02  0.20874473275E+02  0.50569476481E+02  0.63244586078E+02  0.10000000000E+01 0.  0.
    9000005    1    3    3    0    0  0.64511526054E+02 -0.62101689980E+02  0.28377868636E+03  0.29757301578E+03  0.10000000000E+01 0.  0.
          4    1    1    2  501    0 -0.32796197234E+02  0.41227216705E+02  0.50925254331E+03  0.51197171769E+03  0.12700000000E+01 0.  1.
<mgrwt>
<rscale>  1 0.13564899E+03</rscale>
<asrwt>0</asrwt>
<pdfrwt beam="1">  1       21 0.13202571E+00 0.13564899E+03</pdfrwt>
<pdfrwt beam="2">  1        4 0.22453509E-02 0.13564899E+03</pdfrwt>
<totfact> 0.14642097E+04</totfact>
</mgrwt>
</event>
<event>
 6    4  0.3995738E-003  0.1313224E+03  0.7818608E-02  0.1225507E+00
          4   -1    0    0  502    0 -0.00000000000E+00  0.00000000000E+00  0.13097765778E+03  0.13098381479E+03  0.12700000000E+01 0. -1.
         21   -1    0    0  501  502  0.00000000000E+00 -0.00000000000E+00 -0.56221853532E+02  0.56221853532E+02  0.00000000000E+00 0.  1.
         25    2    1    2    0    0  0.12837249239E+02 -0.38148861022E+02  0.58887566262E+02  0.14392120873E+03  0.12500175318E+03 0.  0.
    9000005    1    3    3    0    0 -0.32324742219E+02  0.20015939586E+02  0.59093335640E+02  0.70274811378E+02  0.10000000000E+01 0.  0.
    9000005    1    3    3    0    0  0.45161991459E+02 -0.58164800608E+02 -0.20576937841E+00  0.73646397355E+02  0.10000000000E+01 0.  0.
          4    1    1    2  501    0 -0.12837249239E+02  0.38148861022E+02  0.15868237983E+02  0.43284459590E+02  0.12700000000E+01 0.  1.
<mgrwt>
<rscale>  1 0.13132239E+03</rscale>
<asrwt>0</asrwt>
<pdfrwt beam="2">  1       21 0.86495160E-02 0.13132239E+03</pdfrwt>
<pdfrwt beam="1">  1        4 0.20151986E-01 0.13132239E+03</pdfrwt>
<totfact> 0.93430568E+04</totfact>
</mgrwt>
</event>
<event>
 6    4  0.3995738E-003  0.1268029E+03  0.7818608E-02  0.1232278E+00
         21   -1    0    0  501  502  0.00000000000E+00  0.00000000000E+00  0.16565881851E+03  0.16565881851E+03  0.00000000000E+00 0. -1.
         -4   -1    0    0    0  501 -0.00000000000E+00 -0.00000000000E+00 -0.92735756416E+02  0.92744452223E+02  0.12700000000E+01 0.  1.
         25    2    1    2    0    0 -0.17172586431E+02 -0.12643623008E+02 -0.48017785576E+02  0.13559015880E+03  0.12499689798E+03 0.  0.
    9000005    1    3    3    0    0 -0.67645341561E+02 -0.12269258718E+02 -0.50084221243E+02  0.85063835805E+02  0.10000000000E+01 0.  0.
    9000005    1    3    3    0    0  0.50472755131E+02 -0.37436428993E+00  0.20664356668E+01  0.50526322996E+02  0.10000000000E+01 0.  0.
         -4    1    1    2    0  502  0.17172586431E+02  0.12643623008E+02  0.12094084767E+03  0.12281311193E+03  0.12700000000E+01 0. -1.
<mgrwt>
<rscale>  1 0.12680293E+03</rscale>
<asrwt>0</asrwt>
<pdfrwt beam="1">  1       21 0.25485972E-01 0.12680293E+03</pdfrwt>
<pdfrwt beam="2">  1       -4 0.14268083E-01 0.12680293E+03</pdfrwt>
<totfact> 0.24335670E+04</totfact>
</mgrwt>
</event>
<event>
 6    4  0.3995738E-003  0.1266941E+03  0.7818608E-02  0.1232445E+00
         21   -1    0    0  501  502  0.00000000000E+00  0.00000000000E+00  0.19680130967E+02  0.19680130967E+02  0.00000000000E+00 0. -1.
         -4   -1    0    0    0  501 -0.00000000000E+00 -0.00000000000E+00 -0.29388274333E+03  0.29388548744E+03  0.12700000000E+01 0. -1.
         25    2    1    2    0    0  0.18483405566E+02 -0.91906128795E+01 -0.25750628641E+03  0.28698585455E+03  0.12500115809E+03 0.  0.
    9000005    1    3    3    0    0  0.50456845923E+02  0.13671310267E+02 -0.23688676184E+03  0.24258840854E+03  0.10000000000E+01 0.  0.
    9000005    1    3    3    0    0 -0.31973440356E+02 -0.22861923146E+02 -0.20619524568E+02  0.44397446003E+02  0.10000000000E+01 0.  0.
         -4    1    1    2    0  502 -0.18483405566E+02  0.91906128795E+01 -0.16696325957E+02  0.26579763861E+02  0.12700000000E+01 0.  1.
<mgrwt>
<rscale>  1 0.12669409E+03</rscale>
<asrwt>0</asrwt>
<pdfrwt beam="1">  1       21 0.30277124E-02 0.12669409E+03</pdfrwt>
<pdfrwt beam="2">  1       -4 0.45216094E-01 0.12669409E+03</pdfrwt>
<totfact> 0.11778836E+05</totfact>
</mgrwt>
</event>
<event>
 6    4  0.3995738E-003  0.1281117E+03  0.7818608E-02  0.1230285E+00
          4   -1    0    0  502    0 -0.00000000000E+00  0.00000000000E+00  0.13083567808E+02  0.13145061680E+02  0.12700000000E+01 0.  1.
         21   -1    0    0  501  502  0.00000000000E+00 -0.00000000000E+00 -0.48239695608E+03  0.48239695608E+03  0.00000000000E+00 0.  1.
         25    2    1    2    0    0 -0.19116498441E+02 -0.20552475584E+02 -0.41597045072E+03  0.43525166487E+03  0.12499900453E+03 0.  0.
    9000005    1    3    3    0    0 -0.29431225613E+02  0.45147526618E+02 -0.11480929392E+03  0.12683323765E+03  0.10000000000E+01 0.  0.
    9000005    1    3    3    0    0  0.10314727171E+02 -0.65700002202E+02 -0.30116115680E+03  0.30841842722E+03  0.10000000000E+01 0.  0.
          4    1    1    2  501    0  0.19116498441E+02  0.20552475584E+02 -0.53342937555E+02  0.60290352896E+02  0.12700000000E+01 0. -1.
<mgrwt>
<rscale>  1 0.12811165E+03</rscale>
<asrwt>0</asrwt>
<pdfrwt beam="2">  1       21 0.74214908E-01 0.12811165E+03</pdfrwt>
<pdfrwt beam="1">  1        4 0.20177157E-02 0.12811165E+03</pdfrwt>
<totfact> 0.66199486E+04</totfact>
</mgrwt>
</event>
<event>
 6    4  0.3995738E-003  0.1303517E+03  0.7818608E-02  0.1226935E+00
         -4   -1    0    0    0  501 -0.00000000000E+00  0.00000000000E+00  0.17997628485E+03  0.17998076566E+03  0.12700000000E+01 0.  1.
         21   -1    0    0  501  502  0.00000000000E+00 -0.00000000000E+00 -0.45789660792E+02  0.45789660792E+02  0.00000000000E+00 0.  1.
         25    2    1    2    0    0  0.36000429874E+01  0.36771976545E+02  0.13648191144E+03  0.18872964066E+03  0.12500570604E+03 0.  0.
    9000005    1    3    3    0    0 -0.59003024876E+02  0.32684253975E+02  0.66197019887E+02  0.94512765510E+02  0.10000000000E+01 0.  0.
    9000005    1    3    3    0    0  0.62603067864E+02  0.40877225707E+01  0.70284891551E+02  0.94216875145E+02  0.10000000000E+01 0.  0.
         -4    1    1    2    0  502 -0.36000429874E+01 -0.36771976545E+02 -0.22952873795E+01  0.37040785800E+02  0.12700000000E+01 0. -1.
<mgrwt>
<rscale>  1 0.13035170E+03</rscale>
<asrwt>0</asrwt>
<pdfrwt beam="2">  1       21 0.70445633E-02 0.13035170E+03</pdfrwt>
<pdfrwt beam="1">  1       -4 0.27690358E-01 0.13035170E+03</pdfrwt>
<totfact> 0.74235971E+04</totfact>
</mgrwt>
</event>
<event>
 6    4  0.3995738E-003  0.1295476E+03  0.7818608E-02  0.1228129E+00
         21   -1    0    0  501  502  0.00000000000E+00  0.00000000000E+00  0.76688102323E+01  0.76688102323E+01  0.00000000000E+00 0. -1.
         -4   -1    0    0    0  501 -0.00000000000E+00 -0.00000000000E+00 -0.98581018416E+03  0.98581100222E+03  0.12700000000E+01 0.  1.
         25    2    1    2    0    0 -0.28873746215E+02 -0.17995235260E+02 -0.88253118962E+03  0.89198871946E+03  0.12500021313E+03 0.  0.
    9000005    1    3    3    0    0 -0.54025743382E+02 -0.34681966533E+02 -0.82037700428E+03  0.82288580550E+03  0.10000000000E+01 0.  0.
    9000005    1    3    3    0    0  0.25151997167E+02  0.16686731273E+02 -0.62154185340E+02  0.69102913957E+02  0.10000000000E+01 0.  0.
         -4    1    1    2    0  502  0.28873746215E+02  0.17995235260E+02 -0.95610184313E+02  0.10149109299E+03  0.12700000000E+01 0. -1.
<mgrwt>
<rscale>  1 0.12954758E+03</rscale>
<asrwt>0</asrwt>
<pdfrwt beam="1">  1       21 0.11798163E-02 0.12954758E+03</pdfrwt>
<pdfrwt beam="2">  1       -4 0.15167134E+00 0.12954758E+03</pdfrwt>
<totfact> 0.35889646E+04</totfact>
</mgrwt>
</event>
<event>
 6    4  0.3995738E-003  0.1266111E+03  0.7818608E-02  0.1232573E+00
         21   -1    0    0  501  502  0.00000000000E+00  0.00000000000E+00  0.10591508956E+03  0.10591508956E+03  0.00000000000E+00 0.  1.
         -4   -1    0    0    0  501 -0.00000000000E+00 -0.00000000000E+00 -0.26809285574E+03  0.26809586383E+03  0.12700000000E+01 0. -1.
         25    2    1    2    0    0  0.17030370490E+02 -0.10752271758E+02 -0.25196319822E+03  0.28198551358E+03  0.12499892697E+03 0.  0.
    9000005    1    3    3    0    0 -0.32714991237E+02 -0.16262725642E+01 -0.92417661881E+01  0.34048871587E+02  0.10000000000E+01 0.  0.
    9000005    1    3    3    0    0  0.49745361727E+02 -0.91259991937E+01 -0.24272143203E+03  0.24793664199E+03  0.10000000000E+01 0.  0.
         -4    1    1    2    0  502 -0.17030370490E+02  0.10752271758E+02  0.89785432031E+02  0.92025439809E+02  0.12700000000E+01 0.  1.
<mgrwt>
<rscale>  1 0.12661112E+03</rscale>
<asrwt>0</asrwt>
<pdfrwt beam="1">  1       21 0.16294630E-01 0.12661112E+03</pdfrwt>
<pdfrwt beam="2">  1       -4 0.41245871E-01 0.12661112E+03</pdfrwt>
<totfact> 0.78772803E+03</totfact>
</mgrwt>
</event>
<event>
 6    4  0.3995738E-003  0.1785647E+03  0.7818608E-02  0.1169199E+00
         21   -1    0    0  501  502  0.00000000000E+00  0.00000000000E+00  0.36691693205E+02  0.36691693205E+02  0.00000000000E+00 0.  1.
         -4   -1    0    0    0  501 -0.00000000000E+00 -0.00000000000E+00 -0.11010899872E+04  0.11010907196E+04  0.12700000000E+01 0. -1.
         25    2    1    2    0    0  0.46955804054E+02 -0.11855969323E+03 -0.94945373269E+03  0.96609923521E+03  0.12499637343E+03 0.  0.
    9000005    1    3    3    0    0  0.82832211215E+02 -0.39665405994E+02 -0.49935054008E+03  0.50772677842E+03  0.10000000000E+01 0.  0.
    9000005    1    3    3    0    0 -0.35876407161E+02 -0.78894287239E+02 -0.45010319261E+03  0.45837245680E+03  0.10000000000E+01 0.  0.
         -4    1    1    2    0  502 -0.46955804054E+02  0.11855969323E+03 -0.11494456127E+03  0.17168317757E+03  0.12700000000E+01 0.  1.
<mgrwt>
<rscale>  1 0.17856467E+03</rscale>
<asrwt>0</asrwt>
<pdfrwt beam="1">  1       21 0.56448763E-02 0.17856467E+03</pdfrwt>
<pdfrwt beam="2">  1       -4 0.16940019E+00 0.17856467E+03</pdfrwt>
<totfact> 0.21178722E+03</totfact>
</mgrwt>
</event>
<event>
 6    4  0.3995738E-003  0.1267426E+03  0.7818608E-02  0.1232371E+00
         21   -1    0    0  501  502  0.00000000000E+00  0.00000000000E+00  0.29383201015E+03  0.29383201015E+03  0.00000000000E+00 0. -1.
          4   -1    0    0  502    0 -0.00000000000E+00 -0.00000000000E+00 -0.22993639962E+02  0.23028685996E+02  0.12700000000E+01 0. -1.
         25    2    1    2    0    0 -0.18534104355E+02  0.96490207060E+01  0.16027253875E+03  0.20433055526E+03  0.12500828978E+03 0.  0.
    9000005    1    3    3    0    0 -0.40915466059E+00 -0.57056993401E+02  0.81949940261E+02  0.99862208129E+02  0.10000000000E+01 0.  0.
    9000005    1    3    3    0    0 -0.18124949694E+02  0.66706014107E+02  0.78322598485E+02  0.10446834713E+03  0.10000000000E+01 0.  0.
          4    1    1    2  501    0  0.18534104355E+02 -0.96490207060E+01  0.11056583145E+03  0.11253014089E+03  0.12700000000E+01 0.  1.
<mgrwt>
<rscale>  1 0.12674261E+03</rscale>
<asrwt>0</asrwt>
<pdfrwt beam="1">  1       21 0.45204922E-01 0.12674261E+03</pdfrwt>
<pdfrwt beam="2">  1        4 0.35403903E-02 0.12674261E+03</pdfrwt>
<totfact> 0.78525481E+04</totfact>
</mgrwt>
</event>
<event>
 6    4  0.3995738E-003  0.1271653E+03  0.7818608E-02  0.1231724E+00
         -4   -1    0    0    0  501 -0.00000000000E+00  0.00000000000E+00  0.15019893347E+03  0.15020430259E+03  0.12700000000E+01 0.  1.
         21   -1    0    0  501  502  0.00000000000E+00 -0.00000000000E+00 -0.14612437687E+03  0.14612437687E+03  0.00000000000E+00 0. -1.
         25    2    1    2    0    0  0.15092043982E+02  0.17848923519E+02  0.12192709234E+03  0.17617383377E+03  0.12499859997E+03 0.  0.
    9000005    1    3    3    0    0  0.37140686783E+02  0.54959713007E+02  0.26507843115E+02  0.71439949714E+02  0.10000000000E+01 0.  0.
    9000005    1    3    3    0    0 -0.22048642802E+02 -0.37110789488E+02  0.95419249227E+02  0.10473388405E+03  0.10000000000E+01 0.  0.
         -4    1    1    2    0  502 -0.15092043982E+02 -0.17848923519E+02 -0.11785253574E+03  0.12015484569E+03  0.12700000000E+01 0. -1.
<mgrwt>
<rscale>  1 0.12716526E+03</rscale>
<asrwt>0</asrwt>
<pdfrwt beam="2">  1       21 0.22480673E-01 0.12716526E+03</pdfrwt>
<pdfrwt beam="1">  1       -4 0.23108366E-01 0.12716526E+03</pdfrwt>
<totfact> 0.13073416E+04</totfact>
</mgrwt>
</event>
<event>
 6    4  0.3995738E-003  0.1594165E+03  0.7818608E-02  0.1189357E+00
         -4   -1    0    0    0  501 -0.00000000000E+00  0.00000000000E+00  0.74353331477E+02  0.74364176871E+02  0.12700000000E+01 0. -1.
         21   -1    0    0  501  502  0.00000000000E+00 -0.00000000000E+00 -0.28340296816E+03  0.28340296816E+03  0.00000000000E+00 0.  1.
         25    2    1    2    0    0 -0.42051102642E+02 -0.89562954106E+02 -0.44083240729E+02  0.16539941729E+03  0.12499526849E+03 0.  0.
    9000005    1    3    3    0    0 -0.47523710660E+02  0.19562519688E+00  0.23383421049E+02  0.52974764974E+02  0.10000000000E+01 0.  0.
    9000005    1    3    3    0    0  0.54726080187E+01 -0.89758579303E+02 -0.67466661778E+02  0.11242465232E+03  0.10000000000E+01 0.  0.
         -4    1    1    2    0  502  0.42051102642E+02  0.89562954106E+02 -0.16496639595E+03  0.19236772774E+03  0.12700000000E+01 0.  1.
<mgrwt>
<rscale>  1 0.15941655E+03</rscale>
<asrwt>0</asrwt>
<pdfrwt beam="2">  1       21 0.43600457E-01 0.15941655E+03</pdfrwt>
<pdfrwt beam="1">  1       -4 0.11440027E-01 0.15941655E+03</pdfrwt>
<totfact> 0.12680571E+04</totfact>
</mgrwt>
</event>
<event>
 6    4  0.3995738E-003  0.1275559E+03  0.7818608E-02  0.1231128E+00
         21   -1    0    0  501  502  0.00000000000E+00  0.00000000000E+00  0.24367773353E+03  0.24367773353E+03  0.00000000000E+00 0.  1.
          4   -1    0    0  502    0 -0.00000000000E+00 -0.00000000000E+00 -0.28782274839E+02  0.28810280195E+02  0.12700000000E+01 0. -1.
         25    2    1    2    0    0 -0.25387636083E+02 -0.46362785752E+00  0.12321730836E+03  0.17734999207E+03  0.12500307032E+03 0.  0.
    9000005    1    3    3    0    0  0.95674281824E+01  0.57072730325E+02  0.40236437765E+02  0.70489737926E+02  0.10000000000E+01 0.  0.
    9000005    1    3    3    0    0 -0.34955064266E+02 -0.57536358183E+02  0.82980870597E+02  0.10686025414E+03  0.10000000000E+01 0.  0.
          4    1    1    2  501    0  0.25387636083E+02  0.46362785752E+00  0.91678150326E+02  0.95138021652E+02  0.12700000000E+01 0.  1.
<mgrwt>
<rscale>  1 0.12755593E+03</rscale>
<asrwt>0</asrwt>
<pdfrwt beam="1">  1       21 0.37488881E-01 0.12755593E+03</pdfrwt>
<pdfrwt beam="2">  1        4 0.44304513E-02 0.12755593E+03</pdfrwt>
<totfact> 0.80171552E+04</totfact>
</mgrwt>
</event>
<event>
 6    4  0.3995738E-003  0.1299602E+03  0.7818608E-02  0.1227515E+00
         21   -1    0    0  501  502  0.00000000000E+00  0.00000000000E+00  0.95451560847E+01  0.95451560847E+01  0.00000000000E+00 0. -1.
         -4   -1    0    0    0  501 -0.00000000000E+00 -0.00000000000E+00 -0.90255419595E+03  0.90255508947E+03  0.12700000000E+01 0. -1.
         25    2    1    2    0    0 -0.19598764462E+02 -0.29668434792E+02 -0.82665983951E+03  0.83681308277E+03  0.12500127061E+03 0.  0.
    9000005    1    3    3    0    0 -0.22820622119E+02 -0.85513958446E+01 -0.25209274808E+02  0.35077267584E+02  0.10000000000E+01 0.  0.
    9000005    1    3    3    0    0  0.32218576569E+01 -0.21117038947E+02 -0.80145056470E+03  0.80173581519E+03  0.10000000000E+01 0.  0.
         -4    1    1    2    0  502  0.19598764462E+02  0.29668434792E+02 -0.66349200358E+02  0.75287162780E+02  0.12700000000E+01 0.  1.
<mgrwt>
<rscale>  1 0.12996017E+03</rscale>
<asrwt>0</asrwt>
<pdfrwt beam="1">  1       21 0.14684850E-02 0.12996017E+03</pdfrwt>
<pdfrwt beam="2">  1       -4 0.13886111E+00 0.12996017E+03</pdfrwt>
<totfact> 0.31667229E+04</totfact>
</mgrwt>
</event>
<event>
 6    4  0.3995738E-003  0.1282515E+03  0.7818608E-02  0.1230074E+00
         -4   -1    0    0    0  501 -0.00000000000E+00  0.00000000000E+00  0.18723843819E+03  0.18724274521E+03  0.12700000000E+01 0. -1.
         21   -1    0    0  501  502  0.00000000000E+00 -0.00000000000E+00 -0.32928999316E+02  0.32928999316E+02  0.00000000000E+00 0. -1.
         25    2    1    2    0    0 -0.14320867168E+02  0.24859326745E+02  0.12331861312E+03  0.17792109313E+03  0.12500144670E+03 0.  0.
    9000005    1    3    3    0    0 -0.42339480701E+02  0.13661508286E+02  0.13753236139E+03  0.14455247789E+03  0.10000000000E+01 0.  0.
    9000005    1    3    3    0    0  0.28018613533E+02  0.11197818459E+02 -0.14213748279E+02  0.33368615235E+02  0.10000000000E+01 0.  0.
         -4    1    1    2    0  502  0.14320867168E+02 -0.24859326745E+02  0.30990825755E+02  0.42250651399E+02  0.12700000000E+01 0.  1.
<mgrwt>
<rscale>  1 0.12825145E+03</rscale>
<asrwt>0</asrwt>
<pdfrwt beam="2">  1       21 0.50660000E-02 0.12825145E+03</pdfrwt>
<pdfrwt beam="1">  1       -4 0.28808128E-01 0.12825145E+03</pdfrwt>
<totfact> 0.12027893E+05</totfact>
</mgrwt>
</event>
<event>
 6    4  0.3995738E-003  0.1277625E+03  0.7818608E-02  0.1230814E+00
          4   -1    0    0  502    0 -0.00000000000E+00  0.00000000000E+00  0.18115200680E+03  0.18115645853E+03  0.12700000000E+01 0.  1.
         21   -1    0    0  501  502  0.00000000000E+00 -0.00000000000E+00 -0.42054453358E+02  0.42054453358E+02  0.00000000000E+00 0. -1.
         25    2    1    2    0    0  0.10140531098E+02 -0.24413805820E+02  0.14778482739E+03  0.19535510613E+03  0.12499759197E+03 0.  0.
    9000005    1    3    3    0    0  0.59873593119E+01 -0.32203339972E+02  0.16910868848E+03  0.17225461415E+03  0.10000000000E+01 0.  0.
    9000005    1    3    3    0    0  0.41531717866E+01  0.77895341523E+01 -0.21323861084E+02  0.23100491980E+02  0.10000000000E+01 0.  0.
          4    1    1    2  501    0 -0.10140531098E+02  0.24413805820E+02 -0.86872739552E+01  0.27855805756E+02  0.12700000000E+01 0. -1.
<mgrwt>
<rscale>  1 0.12776252E+03</rscale>
<asrwt>0</asrwt>
<pdfrwt beam="2">  1       21 0.64699160E-02 0.12776252E+03</pdfrwt>
<pdfrwt beam="1">  1        4 0.27871356E-01 0.12776252E+03</pdfrwt>
<totfact> 0.84564449E+04</totfact>
</mgrwt>
</event>
<event>
 6    4  0.3995738E-003  0.1267609E+03  0.7818608E-02  0.1232343E+00
         21   -1    0    0  501  502  0.00000000000E+00  0.00000000000E+00  0.29554203589E+01  0.29554203589E+01  0.00000000000E+00 0. -1.
          4   -1    0    0  502    0 -0.00000000000E+00 -0.00000000000E+00 -0.20101073198E+04  0.20101077210E+04  0.12700000000E+01 0. -1.
         25    2    1    2    0    0  0.86765771945E+01  0.19181643507E+02 -0.18708110340E+04  0.18751005996E+04  0.12500046094E+03 0.  0.
    9000005    1    3    3    0    0 -0.45941182772E+02  0.29206565465E+02 -0.13944876282E+04  0.13955502001E+04  0.10000000000E+01 0.  0.
    9000005    1    3    3    0    0  0.54617759966E+02 -0.10024921959E+02 -0.47632340580E+03  0.47955039952E+03  0.10000000000E+01 0.  0.
          4    1    1    2  501    0 -0.86765771945E+01 -0.19181643507E+02 -0.13634086543E+03  0.13796254175E+03  0.12700000000E+01 0.  1.
<mgrwt>
<rscale>  1 0.12676093E+03</rscale>
<asrwt>0</asrwt>
<pdfrwt beam="1">  1       21 0.45467934E-03 0.12676093E+03</pdfrwt>
<pdfrwt beam="2">  1        4 0.30926878E+00 0.12676093E+03</pdfrwt>
<totfact> 0.17412526E+04</totfact>
</mgrwt>
</event>
<event>
 6    4  0.3995738E-003  0.1274903E+03  0.7818608E-02  0.1231228E+00
          4   -1    0    0  502    0 -0.00000000000E+00  0.00000000000E+00  0.74779988849E+02  0.74790772374E+02  0.12700000000E+01 0. -1.
         21   -1    0    0  501  502  0.00000000000E+00 -0.00000000000E+00 -0.80904836044E+02  0.80904836044E+02  0.00000000000E+00 0. -1.
         25    2    1    2    0    0 -0.11403768685E+02  0.22327263224E+02  0.63811169741E+01  0.12764984826E+03  0.12500084993E+03 0.  0.
    9000005    1    3    3    0    0  0.41141504602E+02 -0.22318547820E+02 -0.23632850762E+02  0.52442850922E+02  0.10000000000E+01 0.  0.
    9000005    1    3    3    0    0 -0.52545273287E+02  0.44645811044E+02  0.30013967736E+02  0.75206997333E+02  0.10000000000E+01 0.  0.
          4    1    1    2  501    0  0.11403768685E+02 -0.22327263224E+02 -0.12505964169E+02  0.28045760162E+02  0.12700000000E+01 0.  1.
<mgrwt>
<rscale>  1 0.12749025E+03</rscale>
<asrwt>0</asrwt>
<pdfrwt beam="2">  1       21 0.12446898E-01 0.12749025E+03</pdfrwt>
<pdfrwt beam="1">  1        4 0.11506210E-01 0.12749025E+03</pdfrwt>
<totfact> 0.13085894E+05</totfact>
</mgrwt>
</event>
<event>
 6    4  0.3995738E-003  0.1272776E+03  0.7818608E-02  0.1231552E+00
         -4   -1    0    0    0  501 -0.00000000000E+00  0.00000000000E+00  0.13110173888E+03  0.13110789007E+03  0.12700000000E+01 0. -1.
         21   -1    0    0  501  502  0.00000000000E+00 -0.00000000000E+00 -0.47581694312E+02  0.47581694312E+02  0.00000000000E+00 0. -1.
         25    2    1    2    0    0 -0.10871655032E+02  0.21339174178E+02  0.87397869154E+02  0.15439547684E+03  0.12500408992E+03 0.  0.
    9000005    1    3    3    0    0 -0.17822745499E+02 -0.51281093467E+02  0.38624468454E+02  0.66635203666E+02  0.10000000000E+01 0.  0.
    9000005    1    3    3    0    0  0.69510904675E+01  0.72620267644E+02  0.48773400700E+02  0.87760273173E+02  0.10000000000E+01 0.  0.
         -4    1    1    2    0  502  0.10871655032E+02 -0.21339174178E+02 -0.38778245831E+01  0.24294107541E+02  0.12700000000E+01 0.  1.
<mgrwt>
<rscale>  1 0.12727755E+03</rscale>
<asrwt>0</asrwt>
<pdfrwt beam="2">  1       21 0.73202607E-02 0.12727755E+03</pdfrwt>
<pdfrwt beam="1">  1       -4 0.20171275E-01 0.12727755E+03</pdfrwt>
<totfact> 0.12378243E+05</totfact>
</mgrwt>
</event>
<event>
 6    4  0.3995738E-003  0.1586567E+03  0.7818608E-02  0.1190222E+00
          4   -1    0    0  502    0 -0.00000000000E+00  0.00000000000E+00  0.10240198619E+04  0.10240206495E+04  0.12700000000E+01 0.  1.
         21   -1    0    0  501  502  0.00000000000E+00 -0.00000000000E+00 -0.19832045956E+02  0.19832045956E+02  0.00000000000E+00 0. -1.
         25    2    1    2    0    0 -0.97677717327E+02  0.24693197793E+01  0.82142390712E+03  0.83660575748E+03  0.12499969709E+03 0.  0.
    9000005    1    3    3    0    0 -0.99731227074E+02 -0.45008037066E+02  0.51292008186E+03  0.52446167775E+03  0.10000000000E+01 0.  0.
    9000005    1    3    3    0    0  0.20535097476E+01  0.47477356845E+02  0.30850382526E+03  0.31214407974E+03  0.10000000000E+01 0.  0.
          4    1    1    2  501    0  0.97677717327E+02 -0.24693197793E+01  0.18276390886E+03  0.20724693794E+03  0.12700000000E+01 0. -1.
<mgrwt>
<rscale>  1 0.15865673E+03</rscale>
<asrwt>0</asrwt>
<pdfrwt beam="2">  1       21 0.30510848E-02 0.15865673E+03</pdfrwt>
<pdfrwt beam="1">  1        4 0.15754466E+00 0.15865673E+03</pdfrwt>
<totfact> 0.71511412E+03</totfact>
</mgrwt>
</event>
<event>
 6    4  0.3995738E-003  0.1286764E+03  0.7818608E-02  0.1229433E+00
         21   -1    0    0  501  502  0.00000000000E+00  0.00000000000E+00  0.39894733258E+02  0.39894733258E+02  0.00000000000E+00 0.  1.
         -4   -1    0    0    0  501 -0.00000000000E+00 -0.00000000000E+00 -0.16015791243E+03  0.16016294769E+03  0.12700000000E+01 0.  1.
         25    2    1    2    0    0  0.27498860838E+02 -0.13291461789E+02 -0.10388570082E+03  0.16537793180E+03  0.12499908475E+03 0.  0.
    9000005    1    3    3    0    0  0.68570941732E+02  0.22688951526E+02 -0.45189954447E+02  0.85205014842E+02  0.10000000000E+01 0.  0.
    9000005    1    3    3    0    0 -0.41072080894E+02 -0.35980413315E+02 -0.58695746372E+02  0.80172916958E+02  0.10000000000E+01 0.  0.
         -4    1    1    2    0  502 -0.27498860838E+02  0.13291461789E+02 -0.16377478348E+02  0.34679749147E+02  0.12700000000E+01 0. -1.
<mgrwt>
<rscale>  1 0.12867642E+03</rscale>
<asrwt>0</asrwt>
<pdfrwt beam="1">  1       21 0.61376514E-02 0.12867642E+03</pdfrwt>
<pdfrwt beam="2">  1       -4 0.24641620E-01 0.12867642E+03</pdfrwt>
<totfact> 0.11635503E+05</totfact>
</mgrwt>
</event>
<event>
 6    4  0.3995738E-003  0.1279557E+03  0.7818608E-02  0.1230521E+00
          4   -1    0    0  502    0 -0.00000000000E+00  0.00000000000E+00  0.65585926008E+03  0.65586048969E+03  0.12700000000E+01 0.  1.
         21   -1    0    0  501  502  0.00000000000E+00 -0.00000000000E+00 -0.21765440719E+02  0.21765440719E+02  0.00000000000E+00 0. -1.
         25    2    1    2    0    0 -0.15970657204E+02  0.22192908625E+02  0.63734451257E+03  0.65006205929E+03  0.12500026452E+03 0.  0.
    9000005    1    3    3    0    0  0.49507918261E+02 -0.81591202444E+01  0.17267215793E+03  0.17981734993E+03  0.10000000000E+01 0.  0.
    9000005    1    3    3    0    0 -0.65478575466E+02  0.30352028870E+02  0.46467235465E+03  0.47024470936E+03  0.10000000000E+01 0.  0.
          4    1    1    2  501    0  0.15970657204E+02 -0.22192908625E+02 -0.32506932118E+01  0.27563871120E+02  0.12700000000E+01 0. -1.
<mgrwt>
<rscale>  1 0.12795567E+03</rscale>
<asrwt>0</asrwt>
<pdfrwt beam="2">  1       21 0.33485299E-02 0.12795567E+03</pdfrwt>
<pdfrwt beam="1">  1        4 0.10090435E+00 0.12795567E+03</pdfrwt>
<totfact> 0.17856466E+04</totfact>
</mgrwt>
</event>
<event>
 6    4  0.3995738E-003  0.1272166E+03  0.7818608E-02  0.1231645E+00
         21   -1    0    0  501  502  0.00000000000E+00  0.00000000000E+00  0.72236342247E+01  0.72236342247E+01  0.00000000000E+00 0. -1.
          4   -1    0    0  502    0 -0.00000000000E+00 -0.00000000000E+00 -0.79341696791E+03  0.79341798434E+03  0.12700000000E+01 0. -1.
         25    2    1    2    0    0  0.41758138607E+01  0.23272160864E+02 -0.63672733081E+03  0.64931174772E+03  0.12500008414E+03 0.  0.
    9000005    1    3    3    0    0  0.60867723662E+02 -0.30466247161E+01 -0.23630468790E+03  0.24403906907E+03  0.10000000000E+01 0.  0.
    9000005    1    3    3    0    0 -0.56691909801E+02  0.26318785580E+02 -0.40042264291E+03  0.40527267866E+03  0.10000000000E+01 0.  0.
          4    1    1    2  501    0 -0.41758138607E+01 -0.23272160864E+02 -0.14946600287E+03  0.15132987084E+03  0.12700000000E+01 0.  1.
<mgrwt>
<rscale>  1 0.12721656E+03</rscale>
<asrwt>0</asrwt>
<pdfrwt beam="1">  1       21 0.11113281E-02 0.12721656E+03</pdfrwt>
<pdfrwt beam="2">  1        4 0.12207284E+00 0.12721656E+03</pdfrwt>
<totfact> 0.67377845E+04</totfact>
</mgrwt>
</event>
<event>
 6    4  0.3995738E-003  0.1370086E+03  0.7818608E-02  0.1217412E+00
          4   -1    0    0  502    0 -0.00000000000E+00  0.00000000000E+00  0.11902000362E+02  0.11969566100E+02  0.12700000000E+01 0.  1.
         21   -1    0    0  501  502  0.00000000000E+00 -0.00000000000E+00 -0.84849935376E+03  0.84849935376E+03  0.00000000000E+00 0. -1.
         25    2    1    2    0    0  0.56046989916E+02 -0.23359947569E+01 -0.46860072767E+03  0.48821920341E+03  0.12499850661E+03 0.  0.
    9000005    1    3    3    0    0 -0.39691093483E+02  0.23747053070E+01 -0.17082423819E+03  0.17539367857E+03  0.10000000000E+01 0.  0.
    9000005    1    3    3    0    0  0.95738083398E+02 -0.47107000639E+01 -0.29777648948E+03  0.31282552485E+03  0.10000000000E+01 0.  0.
          4    1    1    2  501    0 -0.56046989916E+02  0.23359947569E+01 -0.36799662573E+03  0.37224971645E+03  0.12700000000E+01 0. -1.
<mgrwt>
<rscale>  1 0.13700857E+03</rscale>
<asrwt>0</asrwt>
<pdfrwt beam="2">  1       21 0.13053838E+00 0.13700857E+03</pdfrwt>
<pdfrwt beam="1">  1        4 0.18363472E-02 0.13700857E+03</pdfrwt>
<totfact> 0.20548397E+04</totfact>
</mgrwt>
</event>
<event>
 6    4  0.3995738E-003  0.1273662E+03  0.7818608E-02  0.1231417E+00
          4   -1    0    0  502    0 -0.00000000000E+00  0.00000000000E+00  0.42998625825E+03  0.42998813377E+03  0.12700000000E+01 0.  1.
         21   -1    0    0  501  502  0.00000000000E+00 -0.00000000000E+00 -0.13826649654E+02  0.13826649654E+02  0.00000000000E+00 0. -1.
         25    2    1    2    0    0  0.16200719672E+02 -0.18314118780E+02  0.37361116479E+03  0.39472452742E+03  0.12499711926E+03 0.  0.
    9000005    1    3    3    0    0 -0.51735908853E+02 -0.86737704677E+01  0.10358911680E+03  0.11611866206E+03  0.10000000000E+01 0.  0.
    9000005    1    3    3    0    0  0.67936628525E+02 -0.96403483123E+01  0.27002204800E+03  0.27860586537E+03  0.10000000000E+01 0.  0.
          4    1    1    2  501    0 -0.16200719672E+02  0.18314118780E+02  0.42548443803E+02  0.49090256005E+02  0.12700000000E+01 0. -1.
<mgrwt>
<rscale>  1 0.12736620E+03</rscale>
<asrwt>0</asrwt>
<pdfrwt beam="2">  1       21 0.21271772E-02 0.12736620E+03</pdfrwt>
<pdfrwt beam="1">  1        4 0.66156352E-01 0.12736620E+03</pdfrwt>
<totfact> 0.95434746E+04</totfact>
</mgrwt>
</event>
<event>
 6    4  0.3995738E-003  0.1271087E+03  0.7818608E-02  0.1231810E+00
          4   -1    0    0  502    0 -0.00000000000E+00  0.00000000000E+00  0.22474512961E+03  0.22474871787E+03  0.12700000000E+01 0.  1.
         21   -1    0    0  501  502  0.00000000000E+00 -0.00000000000E+00 -0.27795665317E+02  0.27795665317E+02  0.00000000000E+00 0.  1.
         25    2    1    2    0    0 -0.77689020684E+01  0.21707259727E+02  0.18969015668E+03  0.22833960243E+03  0.12500023014E+03 0.  0.
    9000005    1    3    3    0    0  0.45322875443E+02  0.22601212507E+02  0.27422148309E+02  0.57601667190E+02  0.10000000000E+01 0.  0.
    9000005    1    3    3    0    0 -0.53091777511E+02 -0.89395278018E+00  0.16226800837E+03  0.17073793524E+03  0.10000000000E+01 0.  0.
          4    1    1    2  501    0  0.77689020684E+01 -0.21707259727E+02  0.72593076130E+01  0.24204780752E+02  0.12700000000E+01 0. -1.
<mgrwt>
<rscale>  1 0.12710869E+03</rscale>
<asrwt>0</asrwt>
<pdfrwt beam="2">  1       21 0.42762564E-02 0.12710869E+03</pdfrwt>
<pdfrwt beam="1">  1        4 0.34578680E-01 0.12710869E+03</pdfrwt>
<totfact> 0.11273496E+05</totfact>
</mgrwt>
</event>
<event>
 6    4  0.3995738E-003  0.1339816E+03  0.7818608E-02  0.1221665E+00
         21   -1    0    0  501  502  0.00000000000E+00  0.00000000000E+00  0.22871437098E+03  0.22871437098E+03  0.00000000000E+00 0.  1.
         -4   -1    0    0    0  501 -0.00000000000E+00 -0.00000000000E+00 -0.53396963749E+02  0.53412064532E+02  0.12700000000E+01 0.  1.
         25    2    1    2    0    0 -0.42498316314E+02 -0.22806343795E+02  0.42098674507E+02  0.14043988056E+03  0.12499930179E+03 0.  0.
    9000005    1    3    3    0    0  0.29436579951E+02  0.21454545530E+02  0.42486072787E+02  0.55972101480E+02  0.10000000000E+01 0.  0.
    9000005    1    3    3    0    0 -0.71934896265E+02 -0.44260889325E+02 -0.38739828046E+00  0.84467779076E+02  0.10000000000E+01 0.  0.
         -4    1    1    2    0  502  0.42498316314E+02  0.22806343795E+02  0.13321873272E+03  0.14168655495E+03  0.12700000000E+01 0. -1.
<mgrwt>
<rscale>  1 0.13398157E+03</rscale>
<asrwt>0</asrwt>
<pdfrwt beam="1">  1       21 0.35186826E-01 0.13398157E+03</pdfrwt>
<pdfrwt beam="2">  1       -4 0.82163504E-02 0.13398157E+03</pdfrwt>
<totfact> 0.33482430E+04</totfact>
</mgrwt>
</event>
<event>
 6    4  0.3995738E-003  0.1289764E+03  0.7818608E-02  0.1228983E+00
         21   -1    0    0  501  502  0.00000000000E+00  0.00000000000E+00  0.16829644575E+02  0.16829644575E+02  0.00000000000E+00 0.  1.
          4   -1    0    0  502    0 -0.00000000000E+00 -0.00000000000E+00 -0.97938235076E+03  0.97938317419E+03  0.12700000000E+01 0. -1.
         25    2    1    2    0    0 -0.25331671274E+02 -0.19166824709E+02 -0.95482419863E+03  0.96349579769E+03  0.12500336451E+03 0.  0.
    9000005    1    3    3    0    0 -0.14849040281E+02 -0.13463360285E+02 -0.19132280839E+02  0.27727247204E+02  0.10000000000E+01 0.  0.
    9000005    1    3    3    0    0 -0.10482630994E+02 -0.57034644241E+01 -0.93569191779E+03  0.93576855048E+03  0.10000000000E+01 0.  0.
          4    1    1    2  501    0  0.25331671274E+02  0.19166824709E+02 -0.77285075582E+01  0.32717021076E+02  0.12700000000E+01 0.  1.
<mgrwt>
<rscale>  1 0.12897636E+03</rscale>
<asrwt>0</asrwt>
<pdfrwt beam="1">  1       21 0.25891758E-02 0.12897636E+03</pdfrwt>
<pdfrwt beam="2">  1        4 0.15067798E+00 0.12897636E+03</pdfrwt>
<totfact> 0.10322518E+04</totfact>
</mgrwt>
</event>
<event>
 6    4  0.3995738E-003  0.1318189E+03  0.7818608E-02  0.1224781E+00
         -4   -1    0    0    0  501 -0.00000000000E+00  0.00000000000E+00  0.22151135081E+02  0.22187511924E+02  0.12700000000E+01 0.  1.
         21   -1    0    0  501  502  0.00000000000E+00 -0.00000000000E+00 -0.90747325250E+03  0.90747325250E+03  0.00000000000E+00 0. -1.
         25    2    1    2    0    0 -0.39377158403E+02  0.14123672367E+02 -0.18004111249E+03  0.22313903967E+03  0.12500476037E+03 0.  0.
    9000005    1    3    3    0    0 -0.12891301163E+01  0.49178688840E+02 -0.16975717349E+02  0.52051707676E+02  0.10000000000E+01 0.  0.
    9000005    1    3    3    0    0 -0.38088028287E+02 -0.35055016473E+02 -0.16306539514E+03  0.17108733200E+03  0.10000000000E+01 0.  0.
         -4    1    1    2    0  502  0.39377158403E+02 -0.14123672367E+02 -0.70528100493E+03  0.70652172475E+03  0.12700000000E+01 0. -1.
<mgrwt>
<rscale>  1 0.13181892E+03</rscale>
<asrwt>0</asrwt>
<pdfrwt beam="2">  1       21 0.13961127E+00 0.13181892E+03</pdfrwt>
<pdfrwt beam="1">  1       -4 0.34107334E-02 0.13181892E+03</pdfrwt>
<totfact> 0.66146337E+03</totfact>
</mgrwt>
</event>
<event>
 6    4  0.3995738E-003  0.1320700E+03  0.7818608E-02  0.1224416E+00
         21   -1    0    0  501  502  0.00000000000E+00  0.00000000000E+00  0.11133248823E+02  0.11133248823E+02  0.00000000000E+00 0.  1.
         -4   -1    0    0    0  501 -0.00000000000E+00 -0.00000000000E+00 -0.69716262905E+03  0.69716378581E+03  0.12700000000E+01 0. -1.
         25    2    1    2    0    0  0.41384737917E+02  0.10267527494E+02 -0.55504302178E+03  0.57053942993E+03  0.12499746568E+03 0.  0.
    9000005    1    3    3    0    0  0.73616317930E+02 -0.30841490340E+02 -0.33496383912E+03  0.34434333638E+03  0.10000000000E+01 0.  0.
    9000005    1    3    3    0    0 -0.32231580013E+02  0.41109017834E+02 -0.22007918265E+03  0.22619609355E+03  0.10000000000E+01 0.  0.
         -4    1    1    2    0  502 -0.41384737917E+02 -0.10267527494E+02 -0.13098635845E+03  0.13775760470E+03  0.12700000000E+01 0.  1.
<mgrwt>
<rscale>  1 0.13207000E+03</rscale>
<asrwt>0</asrwt>
<pdfrwt beam="1">  1       21 0.17128075E-02 0.13207000E+03</pdfrwt>
<pdfrwt beam="2">  1       -4 0.10726145E+00 0.13207000E+03</pdfrwt>
<totfact> 0.46221353E+04</totfact>
</mgrwt>
</event>
<event>
 6    4  0.3995738E-003  0.1314895E+03  0.7818608E-02  0.1225262E+00
          4   -1    0    0  502    0 -0.00000000000E+00  0.00000000000E+00  0.22557076533E+04  0.22557080108E+04  0.12700000000E+01 0. -1.
         21   -1    0    0  501  502  0.00000000000E+00 -0.00000000000E+00 -0.34760174636E+01  0.34760174636E+01  0.00000000000E+00 0. -1.
         25    2    1    2    0    0  0.19497774414E+02 -0.35928530916E+02  0.19092842654E+04  0.19138066487E+04  0.12497383699E+03 0.  0.
    9000005    1    3    3    0    0  0.39203168964E+02 -0.71421666620E+02  0.15678800631E+04  0.15699958074E+04  0.10000000000E+01 0.  0.
    9000005    1    3    3    0    0 -0.19705394550E+02  0.35493135705E+02  0.34140420227E+03  0.34381084128E+03  0.10000000000E+01 0.  0.
          4    1    1    2  501    0 -0.19497774414E+02  0.35928530916E+02  0.34294737041E+03  0.34537737956E+03  0.12700000000E+01 0.  1.
<mgrwt>
<rscale>  1 0.13148948E+03</rscale>
<asrwt>0</asrwt>
<pdfrwt beam="2">  1       21 0.53477372E-03 0.13148948E+03</pdfrwt>
<pdfrwt beam="1">  1        4 0.34704865E+00 0.13148948E+03</pdfrwt>
<totfact> 0.81140717E+03</totfact>
</mgrwt>
</event>
<event>
 6    4  0.3995738E-003  0.1340172E+03  0.7818608E-02  0.1221614E+00
         21   -1    0    0  501  502  0.00000000000E+00  0.00000000000E+00  0.28120958814E+03  0.28120958814E+03  0.00000000000E+00 0.  1.
         -4   -1    0    0    0  501 -0.00000000000E+00 -0.00000000000E+00 -0.93249586767E+02  0.93258234662E+02  0.12700000000E+01 0. -1.
         25    2    1    2    0    0  0.18260466478E+02 -0.44752618520E+02 -0.41243472422E+02  0.14021990542E+03  0.12499742540E+03 0.  0.
    9000005    1    3    3    0    0 -0.36247830618E+02 -0.47126265850E+02  0.15546747784E+02  0.61461301028E+02  0.10000000000E+01 0.  0.
    9000005    1    3    3    0    0  0.54508297097E+02  0.23736473292E+01 -0.56790220206E+02  0.78758604387E+02  0.10000000000E+01 0.  0.
         -4    1    1    2    0  502 -0.18260466478E+02  0.44752618520E+02  0.22920347379E+03  0.23424791738E+03  0.12700000000E+01 0.  1.
<mgrwt>
<rscale>  1 0.13401716E+03</rscale>
<asrwt>0</asrwt>
<pdfrwt beam="1">  1       21 0.43263013E-01 0.13401716E+03</pdfrwt>
<pdfrwt beam="2">  1       -4 0.14346976E-01 0.13401716E+03</pdfrwt>
<totfact> 0.86118771E+03</totfact>
</mgrwt>
</event>
<event>
 6    4  0.3995738E-003  0.1265890E+03  0.7818608E-02  0.1232607E+00
         21   -1    0    0  501  502  0.00000000000E+00  0.00000000000E+00  0.28762372928E+02  0.28762372928E+02  0.00000000000E+00 0. -1.
         -4   -1    0    0    0  501 -0.00000000000E+00 -0.00000000000E+00 -0.22044569082E+03  0.22044934906E+03  0.12700000000E+01 0.  1.
         25    2    1    2    0    0  0.24903870262E+01  0.19849343049E+02 -0.19101683522E+03  0.22915541260E+03  0.12499829335E+03 0.  0.
    9000005    1    3    3    0    0 -0.24133161584E+02  0.61294277668E+02 -0.15409130307E+03  0.16758438962E+03  0.10000000000E+01 0.  0.
    9000005    1    3    3    0    0  0.26623548610E+02 -0.41444934619E+02 -0.36925532146E+02  0.61571022977E+02  0.10000000000E+01 0.  0.
         -4    1    1    2    0  502 -0.24903870262E+01 -0.19849343049E+02 -0.66648267113E+00  0.20056309386E+02  0.12700000000E+01 0. -1.
<mgrwt>
<rscale>  1 0.12658899E+03</rscale>
<asrwt>0</asrwt>
<pdfrwt beam="1">  1       21 0.44249802E-02 0.12658899E+03</pdfrwt>
<pdfrwt beam="2">  1       -4 0.33917162E-01 0.12658899E+03</pdfrwt>
<totfact> 0.11044602E+05</totfact>
</mgrwt>
</event>
<event>
 6    4  0.3995738E-003  0.1274214E+03  0.7818608E-02  0.1231333E+00
         21   -1    0    0  501  502  0.00000000000E+00  0.00000000000E+00  0.71121260805E+02  0.71121260805E+02  0.00000000000E+00 0. -1.
         -4   -1    0    0    0  501 -0.00000000000E+00 -0.00000000000E+00 -0.11490497354E+03  0.11491199173E+03  0.12700000000E+01 0. -1.
         25    2    1    2    0    0 -0.37639058372E+01  0.24442691998E+02 -0.73697930912E+02  0.14719917564E+03  0.12499840043E+03 0.  0.
    9000005    1    3    3    0    0 -0.63204909921E+02  0.18402554792E+02 -0.50993379694E+02  0.83275683327E+02  0.10000000000E+01 0.  0.
    9000005    1    3    3    0    0  0.59441004084E+02  0.60401372054E+01 -0.22704551219E+02  0.63923492317E+02  0.10000000000E+01 0.  0.
         -4    1    1    2    0  502  0.37639058372E+01 -0.24442691998E+02  0.29914218177E+02  0.38834076896E+02  0.12700000000E+01 0.  1.
<mgrwt>
<rscale>  1 0.12742140E+03</rscale>
<asrwt>0</asrwt>
<pdfrwt beam="1">  1       21 0.10941733E-01 0.12742140E+03</pdfrwt>
<pdfrwt beam="2">  1       -4 0.17679100E-01 0.12742140E+03</pdfrwt>
<totfact> 0.77964919E+04</totfact>
</mgrwt>
</event>
<event>
 6    4  0.3995738E-003  0.1309693E+03  0.7818608E-02  0.1226024E+00
         21   -1    0    0  501  502  0.00000000000E+00  0.00000000000E+00  0.18689279138E+03  0.18689279138E+03  0.00000000000E+00 0.  1.
         -4   -1    0    0    0  501 -0.00000000000E+00 -0.00000000000E+00 -0.38864346912E+02  0.38885091756E+02  0.12700000000E+01 0.  1.
         25    2    1    2    0    0 -0.57991948630E+01 -0.38665958899E+02  0.12023757727E+03  0.17779213277E+03  0.12499712176E+03 0.  0.
    9000005    1    3    3    0    0 -0.20022019736E+02  0.26559582003E+02 -0.70887524295E+01  0.34022684807E+02  0.10000000000E+01 0.  0.
    9000005    1    3    3    0    0  0.14222824873E+02 -0.65225540902E+02  0.12732632970E+03  0.14376944796E+03  0.10000000000E+01 0.  0.
         -4    1    1    2    0  502  0.57991948630E+01  0.38665958899E+02  0.27790867203E+02  0.47985750369E+02  0.12700000000E+01 0. -1.
<mgrwt>
<rscale>  1 0.13096934E+03</rscale>
<asrwt>0</asrwt>
<pdfrwt beam="1">  1       21 0.28752737E-01 0.13096934E+03</pdfrwt>
<pdfrwt beam="2">  1       -4 0.59810581E-02 0.13096934E+03</pdfrwt>
<totfact> 0.83262674E+04</totfact>
</mgrwt>
</event>
<event>
 6    4  0.3995738E-003  0.1269662E+03  0.7818608E-02  0.1232028E+00
         21   -1    0    0  501  502  0.00000000000E+00  0.00000000000E+00  0.26517596312E+02  0.26517596312E+02  0.00000000000E+00 0. -1.
         -4   -1    0    0    0  501 -0.00000000000E+00 -0.00000000000E+00 -0.35115754185E+03  0.35115983839E+03  0.12700000000E+01 0.  1.
         25    2    1    2    0    0 -0.12275220342E+02  0.18560138439E+02 -0.33098644631E+03  0.35450307937E+03  0.12500098347E+03 0.  0.
    9000005    1    3    3    0    0 -0.21965612177E+02 -0.51451890410E+02 -0.13372700162E+03  0.14496101582E+03  0.10000000000E+01 0.  0.
    9000005    1    3    3    0    0  0.96903918342E+01  0.70012028849E+02 -0.19725944469E+03  0.20954206355E+03  0.10000000000E+01 0.  0.
         -4    1    1    2    0  502  0.12275220342E+02 -0.18560138439E+02  0.63465007663E+01  0.23174355338E+02  0.12700000000E+01 0. -1.
<mgrwt>
<rscale>  1 0.12696616E+03</rscale>
<asrwt>0</asrwt>
<pdfrwt beam="1">  1       21 0.40796306E-02 0.12696616E+03</pdfrwt>
<pdfrwt beam="2">  1       -4 0.54026748E-01 0.12696616E+03</pdfrwt>
<totfact> 0.50171319E+04</totfact>
</mgrwt>
</event>
<event>
 6    4  0.3995738E-003  0.1281716E+03  0.7818608E-02  0.1230194E+00
          4   -1    0    0  502    0 -0.00000000000E+00  0.00000000000E+00  0.53945554145E+03  0.53945703638E+03  0.12700000000E+01 0. -1.
         21   -1    0    0  501  502  0.00000000000E+00 -0.00000000000E+00 -0.22756499356E+02  0.22756499356E+02  0.00000000000E+00 0. -1.
         25    2    1    2    0    0 -0.25808784252E+02  0.11697816064E+02  0.51819379011E+03  0.53380967303E+03  0.12500012268E+03 0.  0.
    9000005    1    3    3    0    0 -0.39927146066E+02  0.51683666113E+02  0.15574314975E+03  0.16888548496E+03  0.10000000000E+01 0.  0.
    9000005    1    3    3    0    0  0.14118361814E+02 -0.39985850049E+02  0.36245064036E+03  0.36492418807E+03  0.10000000000E+01 0.  0.
          4    1    1    2  501    0  0.25808784252E+02 -0.11697816064E+02 -0.14947480097E+01  0.28403862710E+02  0.12700000000E+01 0.  1.
<mgrwt>
<rscale>  1 0.12817162E+03</rscale>
<asrwt>0</asrwt>
<pdfrwt beam="2">  1       21 0.35010003E-02 0.12817162E+03</pdfrwt>
<pdfrwt beam="1">  1        4 0.82995992E-01 0.12817162E+03</pdfrwt>
<totfact> 0.25834105E+04</totfact>
</mgrwt>
</event>
<event>
 6    4  0.3995738E-003  0.1266350E+03  0.7818608E-02  0.1232536E+00
          4   -1    0    0  502    0 -0.00000000000E+00  0.00000000000E+00  0.37251866775E+02  0.37273509067E+02  0.12700000000E+01 0.  1.
         21   -1    0    0  501  502  0.00000000000E+00 -0.00000000000E+00 -0.18285568875E+03  0.18285568875E+03  0.00000000000E+00 0.  1.
         25    2    1    2    0    0 -0.17429813201E+02  0.10387061149E+02 -0.76164474531E+02  0.14777503207E+03  0.12499897398E+03 0.  0.
    9000005    1    3    3    0    0 -0.63251276204E+02 -0.22798388039E+02 -0.56634091172E+02  0.87914223658E+02  0.10000000000E+01 0.  0.
    9000005    1    3    3    0    0  0.45821463002E+02  0.33185449188E+02 -0.19530383359E+02  0.59860808411E+02  0.10000000000E+01 0.  0.
          4    1    1    2  501    0  0.17429813201E+02 -0.10387061149E+02 -0.69439347444E+02  0.72354165747E+02  0.12700000000E+01 0. -1.
<mgrwt>
<rscale>  1 0.12663504E+03</rscale>
<asrwt>0</asrwt>
<pdfrwt beam="2">  1       21 0.28131644E-01 0.12663504E+03</pdfrwt>
<pdfrwt beam="1">  1        4 0.57330605E-02 0.12663504E+03</pdfrwt>
<totfact> 0.92584527E+04</totfact>
</mgrwt>
</event>
<event>
 6    4  0.3995738E-003  0.1347459E+03  0.7818608E-02  0.1220579E+00
         21   -1    0    0  501  502  0.00000000000E+00  0.00000000000E+00  0.84528065780E+01  0.84528065780E+01  0.00000000000E+00 0.  1.
         -4   -1    0    0    0  501 -0.00000000000E+00 -0.00000000000E+00 -0.12385663919E+04  0.12385670431E+04  0.12700000000E+01 0. -1.
         25    2    1    2    0    0 -0.79955729067E+01 -0.49671992954E+02 -0.10869031049E+04  0.10952236353E+04  0.12500086327E+03 0.  0.
    9000005    1    3    3    0    0 -0.64271705627E+02 -0.43775534207E+02 -0.58787198979E+03  0.59299378236E+03  0.10000000000E+01 0.  0.
    9000005    1    3    3    0    0  0.56276132720E+02 -0.58964587469E+01 -0.49903111512E+03  0.50222985296E+03  0.10000000000E+01 0.  0.
         -4    1    1    2    0  502  0.79955729067E+01  0.49671992954E+02 -0.14321048044E+03  0.15179621431E+03  0.12700000000E+01 0.  1.
<mgrwt>
<rscale>  1 0.13474588E+03</rscale>
<asrwt>0</asrwt>
<pdfrwt beam="1">  1       21 0.13004318E-02 0.13474588E+03</pdfrwt>
<pdfrwt beam="2">  1       -4 0.19055606E+00 0.13474588E+03</pdfrwt>
<totfact> 0.16815933E+04</totfact>
</mgrwt>
</event>
<event>
 6    4  0.3995738E-003  0.1265938E+03  0.7818608E-02  0.1232599E+00
         -4   -1    0    0    0  501 -0.00000000000E+00  0.00000000000E+00  0.93896845851E+01  0.94751821411E+01  0.12700000000E+01 0. -1.
         21   -1    0    0  501  502  0.00000000000E+00 -0.00000000000E+00 -0.72927400080E+03  0.72927400080E+03  0.00000000000E+00 0.  1.
         25    2    1    2    0    0  0.74683066368E+00 -0.20011096239E+02 -0.43200430055E+03  0.45017073945E+03  0.12499990894E+03 0.  0.
    9000005    1    3    3    0    0 -0.26726747045E+02 -0.43693753652E+02 -0.39512938418E+03  0.39843656128E+03  0.10000000000E+01 0.  0.
    9000005    1    3    3    0    0  0.27473577708E+02  0.23682657412E+02 -0.36874916363E+02  0.51734178171E+02  0.10000000000E+01 0.  0.
         -4    1    1    2    0  502 -0.74683066368E+00  0.20011096239E+02 -0.28788001567E+03  0.28857844350E+03  0.12700000000E+01 0.  1.
<mgrwt>
<rscale>  1 0.12659376E+03</rscale>
<asrwt>0</asrwt>
<pdfrwt beam="2">  1       21 0.11219599E+00 0.12659376E+03</pdfrwt>
<pdfrwt beam="1">  1       -4 0.14512288E-02 0.12659376E+03</pdfrwt>
<totfact> 0.42378422E+04</totfact>
</mgrwt>
</event>
<event>
 6    4  0.3995738E-003  0.1282612E+03  0.7818608E-02  0.1230059E+00
          4   -1    0    0  502    0 -0.00000000000E+00  0.00000000000E+00  0.40553512922E+03  0.40553711782E+03  0.12700000000E+01 0.  1.
         21   -1    0    0  501  502  0.00000000000E+00 -0.00000000000E+00 -0.15295919824E+02  0.15295919824E+02  0.00000000000E+00 0.  1.
         25    2    1    2    0    0 -0.72694190680E+01 -0.27791630536E+02  0.33106790306E+03  0.35504492645E+03  0.12500289668E+03 0.  0.
    9000005    1    3    3    0    0  0.26709251100E+02 -0.69051071385E+02  0.17291479784E+03  0.18810093532E+03  0.10000000000E+01 0.  0.
    9000005    1    3    3    0    0 -0.33978670168E+02  0.41259440850E+02  0.15815310522E+03  0.16694399114E+03  0.10000000000E+01 0.  0.
          4    1    1    2  501    0  0.72694190680E+01  0.27791630536E+02  0.59171306331E+02  0.65788111193E+02  0.12700000000E+01 0. -1.
<mgrwt>
<rscale>  1 0.12826123E+03</rscale>
<asrwt>0</asrwt>
<pdfrwt beam="2">  1       21 0.23532188E-02 0.12826123E+03</pdfrwt>
<pdfrwt beam="1">  1        4 0.62394220E-01 0.12826123E+03</pdfrwt>
<totfact> 0.91846200E+04</totfact>
</mgrwt>
</event>
<event>
 6    4  0.3995738E-003  0.1278760E+03  0.7818608E-02  0.1230642E+00
         -4   -1    0    0    0  501 -0.00000000000E+00  0.00000000000E+00  0.46961808462E+03  0.46961980186E+03  0.12700000000E+01 0. -1.
         21   -1    0    0  501  502  0.00000000000E+00 -0.00000000000E+00 -0.13767379832E+02  0.13767379832E+02  0.00000000000E+00 0. -1.
         25    2    1    2    0    0  0.11470648534E+02  0.24435156318E+02  0.41621248250E+03  0.43541370769E+03  0.12499445432E+03 0.  0.
    9000005    1    3    3    0    0  0.21084014993E+02 -0.45703627916E+02  0.10775531645E+03  0.11893513155E+03  0.10000000000E+01 0.  0.
    9000005    1    3    3    0    0 -0.96133664586E+01  0.70138784234E+02  0.30845716605E+03  0.31647857614E+03  0.10000000000E+01 0.  0.
         -4    1    1    2    0  502 -0.11470648534E+02 -0.24435156318E+02  0.39638222283E+02  0.47973474002E+02  0.12700000000E+01 0.  1.
<mgrwt>
<rscale>  1 0.12787598E+03</rscale>
<asrwt>0</asrwt>
<pdfrwt beam="2">  1       21 0.21180588E-02 0.12787598E+03</pdfrwt>
<pdfrwt beam="1">  1       -4 0.72253561E-01 0.12787598E+03</pdfrwt>
<totfact> 0.79554378E+04</totfact>
</mgrwt>
</event>
<event>
 6    4  0.3995738E-003  0.1287198E+03  0.7818608E-02  0.1229368E+00
          4   -1    0    0  502    0 -0.00000000000E+00  0.00000000000E+00  0.49103756832E+02  0.49120177473E+02  0.12700000000E+01 0.  1.
         21   -1    0    0  501  502  0.00000000000E+00 -0.00000000000E+00 -0.25548819094E+03  0.25548819094E+03  0.00000000000E+00 0. -1.
         25    2    1    2    0    0 -0.78937154223E+01 -0.29688257948E+02 -0.39107737225E+02  0.13452953486E+03  0.12500030894E+03 0.  0.
    9000005    1    3    3    0    0 -0.23424994492E+02  0.28938802185E+02 -0.59790970576E+02  0.70442492867E+02  0.10000000000E+01 0.  0.
    9000005    1    3    3    0    0  0.15531279070E+02 -0.58627060133E+02  0.20683233351E+02  0.64087041992E+02  0.10000000000E+01 0.  0.
          4    1    1    2  501    0  0.78937154223E+01  0.29688257948E+02 -0.16727669689E+03  0.17007883356E+03  0.12700000000E+01 0. -1.
<mgrwt>
<rscale>  1 0.12871978E+03</rscale>
<asrwt>0</asrwt>
<pdfrwt beam="2">  1       21 0.39305876E-01 0.12871978E+03</pdfrwt>
<pdfrwt beam="1">  1        4 0.75559300E-02 0.12871978E+03</pdfrwt>
<totfact> 0.30759826E+04</totfact>
</mgrwt>
</event>
<event>
 6    4  0.3995738E-003  0.1286435E+03  0.7818608E-02  0.1229482E+00
         21   -1    0    0  501  502  0.00000000000E+00  0.00000000000E+00  0.12042668803E+03  0.12042668803E+03  0.00000000000E+00 0.  1.
         -4   -1    0    0    0  501 -0.00000000000E+00 -0.00000000000E+00 -0.69109313173E+02  0.69120981382E+02  0.12700000000E+01 0. -1.
         25    2    1    2    0    0  0.27811896575E+02  0.12202819098E+02 -0.14490753785E+01  0.12865167976E+03  0.12500697781E+03 0.  0.
    9000005    1    3    3    0    0  0.10804972115E+02  0.66301958768E+02 -0.18026715177E+02  0.69560474545E+02  0.10000000000E+01 0.  0.
    9000005    1    3    3    0    0  0.17006924460E+02 -0.54099139670E+02  0.16577639799E+02  0.59091205216E+02  0.10000000000E+01 0.  0.
         -4    1    1    2    0  502 -0.27811896575E+02 -0.12202819098E+02  0.52766450231E+02  0.60895989646E+02  0.12700000000E+01 0.  1.
<mgrwt>
<rscale>  1 0.12864352E+03</rscale>
<asrwt>0</asrwt>
<pdfrwt beam="1">  1       21 0.18527183E-01 0.12864352E+03</pdfrwt>
<pdfrwt beam="2">  1       -4 0.10633615E-01 0.12864352E+03</pdfrwt>
<totfact> 0.73066642E+04</totfact>
</mgrwt>
</event>
<event>
 6    4  0.3995738E-003  0.1325628E+03  0.7818608E-02  0.1223702E+00
         -4   -1    0    0    0  501 -0.00000000000E+00  0.00000000000E+00  0.46779918834E+03  0.46780091226E+03  0.12700000000E+01 0. -1.
         21   -1    0    0  501  502  0.00000000000E+00 -0.00000000000E+00 -0.16707452836E+02  0.16707452836E+02  0.00000000000E+00 0.  1.
         25    2    1    2    0    0 -0.67942692092E+01 -0.43602575457E+02  0.33092035947E+03  0.35648446421E+03  0.12500216890E+03 0.  0.
    9000005    1    3    3    0    0  0.92095603481E+01 -0.52849664344E+02  0.45175744980E+02  0.70140936389E+02  0.10000000000E+01 0.  0.
    9000005    1    3    3    0    0 -0.16003829557E+02  0.92470888869E+01  0.28574461449E+03  0.28634352782E+03  0.10000000000E+01 0.  0.
         -4    1    1    2    0  502  0.67942692092E+01  0.43602575457E+02  0.12017137603E+03  0.12802390088E+03  0.12700000000E+01 0.  1.
<mgrwt>
<rscale>  1 0.13256277E+03</rscale>
<asrwt>0</asrwt>
<pdfrwt beam="2">  1       21 0.25703777E-02 0.13256277E+03</pdfrwt>
<pdfrwt beam="1">  1       -4 0.71972941E-01 0.13256277E+03</pdfrwt>
<totfact> 0.58894682E+04</totfact>
</mgrwt>
</event>
<event>
 6    4  0.3995738E-003  0.1314232E+03  0.7818608E-02  0.1225359E+00
         21   -1    0    0  501  502  0.00000000000E+00  0.00000000000E+00  0.79593061889E+02  0.79593061889E+02  0.00000000000E+00 0. -1.
          4   -1    0    0  502    0 -0.00000000000E+00 -0.00000000000E+00 -0.11007818657E+03  0.11008551249E+03  0.12700000000E+01 0. -1.
         25    2    1    2    0    0  0.24587017441E+02 -0.32289453923E+02  0.10680991811E+02  0.13185649980E+03  0.12499969076E+03 0.  0.
    9000005    1    3    3    0    0 -0.36513972718E+02  0.20232225121E+02 -0.19143721954E+02  0.45935772849E+02  0.10000000000E+01 0.  0.
    9000005    1    3    3    0    0  0.61100990159E+02 -0.52521679045E+02  0.29824713764E+02  0.85920726948E+02  0.10000000000E+01 0.  0.
          4    1    1    2  501    0 -0.24587017441E+02  0.32289453923E+02 -0.41166116495E+02  0.57822074579E+02  0.12700000000E+01 0.  1.
<mgrwt>
<rscale>  1 0.13142318E+03</rscale>
<asrwt>0</asrwt>
<pdfrwt beam="1">  1       21 0.12245086E-01 0.13142318E+03</pdfrwt>
<pdfrwt beam="2">  1        4 0.16936449E-01 0.13142318E+03</pdfrwt>
<totfact> 0.69234102E+04</totfact>
</mgrwt>
</event>
<event>
 6    4  0.3995738E-003  0.1289445E+03  0.7818608E-02  0.1229030E+00
         21   -1    0    0  501  502  0.00000000000E+00  0.00000000000E+00  0.60181919786E+02  0.60181919786E+02  0.00000000000E+00 0. -1.
         -4   -1    0    0    0  501 -0.00000000000E+00 -0.00000000000E+00 -0.15444206623E+03  0.15444728784E+03  0.12700000000E+01 0.  1.
         25    2    1    2    0    0  0.10444185695E+02  0.29897733574E+02 -0.11818946752E+03  0.17491547203E+03  0.12499486644E+03 0.  0.
    9000005    1    3    3    0    0 -0.23317130983E+02  0.13300134049E+02  0.18841020594E+02  0.32811068560E+02  0.10000000000E+01 0.  0.
    9000005    1    3    3    0    0  0.33761316678E+02  0.16597599524E+02 -0.13703048811E+03  0.14210440347E+03  0.10000000000E+01 0.  0.
         -4    1    1    2    0  502 -0.10444185695E+02 -0.29897733574E+02  0.23929321075E+02  0.39713735594E+02  0.12700000000E+01 0. -1.
<mgrwt>
<rscale>  1 0.12894445E+03</rscale>
<asrwt>0</asrwt>
<pdfrwt beam="1">  1       21 0.92587569E-02 0.12894445E+03</pdfrwt>
<pdfrwt beam="2">  1       -4 0.23761750E-01 0.12894445E+03</pdfrwt>
<totfact> 0.61391613E+04</totfact>
</mgrwt>
</event>
<event>
 6    4  0.3995738E-003  0.1274633E+03  0.7818608E-02  0.1231269E+00
          4   -1    0    0  502    0 -0.00000000000E+00  0.00000000000E+00  0.53107305222E+02  0.53122488345E+02  0.12700000000E+01 0.  1.
         21   -1    0    0  501  502  0.00000000000E+00 -0.00000000000E+00 -0.16866199355E+03  0.16866199355E+03  0.00000000000E+00 0.  1.
         25    2    1    2    0    0  0.20497120684E+02 -0.14307662981E+02 -0.27705866866E+02  0.13043969820E+03  0.12498823397E+03 0.  0.
    9000005    1    3    3    0    0  0.52514341786E+02  0.17109482606E+02 -0.54975631102E+02  0.77934655342E+02  0.10000000000E+01 0.  0.
    9000005    1    3    3    0    0 -0.32017221101E+02 -0.31417145588E+02  0.27269764236E+02  0.52505042857E+02  0.10000000000E+01 0.  0.
          4    1    1    2  501    0 -0.20497120684E+02  0.14307662981E+02 -0.87848821458E+02  0.91344783693E+02  0.12700000000E+01 0. -1.
<mgrwt>
<rscale>  1 0.12746333E+03</rscale>
<asrwt>0</asrwt>
<pdfrwt beam="2">  1       21 0.25947999E-01 0.12746333E+03</pdfrwt>
<pdfrwt beam="1">  1        4 0.81718904E-02 0.12746333E+03</pdfrwt>
<totfact> 0.60498881E+04</totfact>
</mgrwt>
</event>
<event>
 6    4  0.3995738E-003  0.1658252E+03  0.7818608E-02  0.1182273E+00
         21   -1    0    0  501  502  0.00000000000E+00  0.00000000000E+00  0.46302710091E+03  0.46302710091E+03  0.00000000000E+00 0. -1.
         -4   -1    0    0    0  501 -0.00000000000E+00 -0.00000000000E+00 -0.94636697001E+02  0.94645218153E+02  0.12700000000E+01 0.  1.
         25    2    1    2    0    0 -0.80729801242E+02  0.73180662619E+02 -0.78087833217E+01  0.16600900503E+03  0.12500120984E+03 0.  0.
    9000005    1    3    3    0    0 -0.52399428579E+02  0.10483300411E+03  0.14364662556E+02  0.11808049118E+03  0.10000000000E+01 0.  0.
    9000005    1    3    3    0    0 -0.28330372663E+02 -0.31652341495E+02 -0.22173445878E+02  0.47928513846E+02  0.10000000000E+01 0.  0.
         -4    1    1    2    0  502  0.80729801242E+02 -0.73180662619E+02  0.37619918724E+03  0.39166331404E+03  0.12700000000E+01 0. -1.
<mgrwt>
<rscale>  1 0.16582525E+03</rscale>
<asrwt>0</asrwt>
<pdfrwt beam="1">  1       21 0.71234937E-01 0.16582525E+03</pdfrwt>
<pdfrwt beam="2">  1       -4 0.14560282E-01 0.16582525E+03</pdfrwt>
<totfact> 0.29663928E+03</totfact>
</mgrwt>
</event>
<event>
 6    4  0.3995738E-003  0.1277517E+03  0.7818608E-02  0.1230830E+00
          4   -1    0    0  502    0 -0.00000000000E+00  0.00000000000E+00  0.44720366703E+01  0.46488721192E+01  0.12700000000E+01 0. -1.
         21   -1    0    0  501  502  0.00000000000E+00 -0.00000000000E+00 -0.13873906715E+04  0.13873906715E+04  0.00000000000E+00 0. -1.
         25    2    1    2    0    0  0.23977709548E+02 -0.10908415343E+02 -0.98533837985E+03  0.99358553607E+03  0.12500628227E+03 0.  0.
    9000005    1    3    3    0    0  0.74331820434E+02 -0.17125444622E+02 -0.64220258183E+03  0.64671760181E+03  0.10000000000E+01 0.  0.
    9000005    1    3    3    0    0 -0.50354110885E+02  0.62170292783E+01 -0.34313579802E+03  0.34686793427E+03  0.10000000000E+01 0.  0.
          4    1    1    2  501    0 -0.23977709548E+02  0.10908415343E+02 -0.39758025495E+03  0.39845400752E+03  0.12700000000E+01 0.  1.
<mgrwt>
<rscale>  1 0.12775169E+03</rscale>
<asrwt>0</asrwt>
<pdfrwt beam="2">  1       21 0.21344458E+00 0.12775169E+03</pdfrwt>
<pdfrwt beam="1">  1        4 0.70165354E-03 0.12775169E+03</pdfrwt>
<totfact> 0.23145425E+04</totfact>
</mgrwt>
</event>
<event>
 6    4  0.3995738E-003  0.1277580E+03  0.7818608E-02  0.1230821E+00
         21   -1    0    0  501  502  0.00000000000E+00  0.00000000000E+00  0.23398556616E+03  0.23398556616E+03  0.00000000000E+00 0. -1.
         -4   -1    0    0    0  501 -0.00000000000E+00 -0.00000000000E+00 -0.57019598003E+02  0.57033739632E+02  0.12700000000E+01 0.  1.
         25    2    1    2    0    0 -0.29878448300E+01  0.26243529753E+02  0.17001934691E+02  0.12888431582E+03  0.12499780402E+03 0.  0.
    9000005    1    3    3    0    0 -0.30637725135E+02 -0.27108093928E+02  0.46495435687E+02  0.61938231309E+02  0.10000000000E+01 0.  0.
    9000005    1    3    3    0    0  0.27649880305E+02  0.53351623681E+02 -0.29493500997E+02  0.66946084510E+02  0.10000000000E+01 0.  0.
         -4    1    1    2    0  502  0.29878448300E+01 -0.26243529753E+02  0.15996403347E+03  0.16213498997E+03  0.12700000000E+01 0. -1.
<mgrwt>
<rscale>  1 0.12775798E+03</rscale>
<asrwt>0</asrwt>
<pdfrwt beam="1">  1       21 0.35997779E-01 0.12775798E+03</pdfrwt>
<pdfrwt beam="2">  1       -4 0.87735989E-02 0.12775798E+03</pdfrwt>
<totfact> 0.28563407E+04</totfact>
</mgrwt>
</event>
<event>
 6    4  0.3995738E-003  0.1268604E+03  0.7818608E-02  0.1232190E+00
          4   -1    0    0  502    0 -0.00000000000E+00  0.00000000000E+00  0.81841476284E+02  0.81851329496E+02  0.12700000000E+01 0. -1.
         21   -1    0    0  501  502  0.00000000000E+00 -0.00000000000E+00 -0.13505471766E+03  0.13505471766E+03  0.00000000000E+00 0. -1.
         25    2    1    2    0    0  0.18753458861E+02 -0.10705328378E+02  0.30473304090E+02  0.13046909287E+03  0.12500906230E+03 0.  0.
    9000005    1    3    3    0    0  0.71378845282E+02  0.57609165071E+01  0.19676770748E+02  0.74271818477E+02  0.10000000000E+01 0.  0.
    9000005    1    3    3    0    0 -0.52625386421E+02 -0.16466244886E+02  0.10796533342E+02  0.56197274389E+02  0.10000000000E+01 0.  0.
          4    1    1    2  501    0 -0.18753458861E+02  0.10705328378E+02 -0.83686545464E+02  0.86436954289E+02  0.12700000000E+01 0.  1.
<mgrwt>
<rscale>  1 0.12686040E+03</rscale>
<asrwt>0</asrwt>
<pdfrwt beam="2">  1       21 0.20777649E-01 0.12686040E+03</pdfrwt>
<pdfrwt beam="1">  1        4 0.12592214E-01 0.12686040E+03</pdfrwt>
<totfact> 0.44264463E+04</totfact>
</mgrwt>
</event>
<event>
 6    4  0.3995738E-003  0.1334798E+03  0.7818608E-02  0.1222382E+00
         21   -1    0    0  501  502  0.00000000000E+00  0.00000000000E+00  0.54231146607E+02  0.54231146607E+02  0.00000000000E+00 0.  1.
          4   -1    0    0  502    0 -0.00000000000E+00 -0.00000000000E+00 -0.30756640111E+03  0.30756902313E+03  0.12700000000E+01 0. -1.
         25    2    1    2    0    0 -0.44480000804E+02  0.14334994805E+02 -0.27840715876E+03  0.30875136362E+03  0.12503157976E+03 0.  0.
    9000005    1    3    3    0    0  0.25871185822E+02  0.45968120437E+02 -0.14936967724E+03  0.15841302607E+03  0.10000000000E+01 0.  0.
    9000005    1    3    3    0    0 -0.70351186626E+02 -0.31633125632E+02 -0.12903748153E+03  0.15033833754E+03  0.10000000000E+01 0.  0.
          4    1    1    2  501    0  0.44480000804E+02 -0.14334994805E+02  0.25071904262E+02  0.53048806121E+02  0.12700000000E+01 0.  1.
<mgrwt>
<rscale>  1 0.13347981E+03</rscale>
<asrwt>0</asrwt>
<pdfrwt beam="1">  1       21 0.83432532E-02 0.13347981E+03</pdfrwt>
<pdfrwt beam="2">  1        4 0.47319254E-01 0.13347981E+03</pdfrwt>
<totfact> 0.19678141E+04</totfact>
</mgrwt>
</event>
<event>
 6    4  0.3995738E-003  0.1531614E+03  0.7818608E-02  0.1196641E+00
         21   -1    0    0  501  502  0.00000000000E+00  0.00000000000E+00  0.16537342246E+03  0.16537342246E+03  0.00000000000E+00 0. -1.
          4   -1    0    0  502    0 -0.00000000000E+00 -0.00000000000E+00 -0.16876026850E+03  0.16876504711E+03  0.12700000000E+01 0.  1.
         25    2    1    2    0    0  0.69156586512E+02  0.55235365859E+02 -0.11511336235E+03  0.19159722485E+03  0.12499932511E+03 0.  0.
    9000005    1    3    3    0    0 -0.24494654731E+02 -0.17787715359E+02 -0.72019975377E+01  0.31132935882E+02  0.10000000000E+01 0.  0.
    9000005    1    3    3    0    0  0.93651241244E+02  0.73023081218E+02 -0.10791136482E+03  0.16046428897E+03  0.10000000000E+01 0.  0.
          4    1    1    2  501    0 -0.69156586512E+02 -0.55235365859E+02  0.11172651631E+03  0.14254124472E+03  0.12700000000E+01 0. -1.
<mgrwt>
<rscale>  1 0.15316139E+03</rscale>
<asrwt>0</asrwt>
<pdfrwt beam="1">  1       21 0.25442065E-01 0.15316139E+03</pdfrwt>
<pdfrwt beam="2">  1        4 0.25963861E-01 0.15316139E+03</pdfrwt>
<totfact> 0.84791066E+03</totfact>
</mgrwt>
</event>
<event>
 6    4  0.3995738E-003  0.1284177E+03  0.7818608E-02  0.1229823E+00
         -4   -1    0    0    0  501 -0.00000000000E+00  0.00000000000E+00  0.99009845886E+02  0.99017990701E+02  0.12700000000E+01 0. -1.
         21   -1    0    0  501  502  0.00000000000E+00 -0.00000000000E+00 -0.22185190848E+03  0.22185190848E+03  0.00000000000E+00 0.  1.
         25    2    1    2    0    0 -0.10897259971E+01  0.29400996131E+02  0.55655498408E+02  0.13995942889E+03  0.12500200461E+03 0.  0.
    9000005    1    3    3    0    0  0.60625258669E+02  0.26663681708E+02  0.34282803059E+02  0.74583406308E+02  0.10000000000E+01 0.  0.
    9000005    1    3    3    0    0 -0.61714984666E+02  0.27373144234E+01  0.21372695349E+02  0.65376022586E+02  0.10000000000E+01 0.  0.
         -4    1    1    2    0  502  0.10897259971E+01 -0.29400996131E+02 -0.17849756100E+03  0.18091047029E+03  0.12700000000E+01 0.  1.
<mgrwt>
<rscale>  1 0.12841771E+03</rscale>
<asrwt>0</asrwt>
<pdfrwt beam="2">  1       21 0.34131062E-01 0.12841771E+03</pdfrwt>
<pdfrwt beam="1">  1       -4 0.15233190E-01 0.12841771E+03</pdfrwt>
<totfact> 0.12391599E+04</totfact>
</mgrwt>
</event>
<event>
 6    4  0.3995738E-003  0.1388317E+03  0.7818608E-02  0.1214910E+00
         21   -1    0    0  501  502  0.00000000000E+00  0.00000000000E+00  0.25546710212E+02  0.25546710212E+02  0.00000000000E+00 0.  1.
          4   -1    0    0  502    0 -0.00000000000E+00 -0.00000000000E+00 -0.41282955684E+03  0.41283151030E+03  0.12700000000E+01 0.  1.
         25    2    1    2    0    0 -0.47060424610E+02  0.37870231230E+02 -0.21617062245E+03  0.25691239966E+03  0.12500162042E+03 0.  0.
    9000005    1    3    3    0    0 -0.10687858134E+02 -0.17076412003E+02 -0.18117587829E+03  0.18229518105E+03  0.10000000000E+01 0.  0.
    9000005    1    3    3    0    0 -0.36372566476E+02  0.54946643233E+02 -0.34994744165E+02  0.74617218615E+02  0.10000000000E+01 0.  0.
          4    1    1    2  501    0  0.47060424610E+02 -0.37870231230E+02 -0.17111222417E+03  0.18146582085E+03  0.12700000000E+01 0. -1.
<mgrwt>
<rscale>  1 0.13883171E+03</rscale>
<asrwt>0</asrwt>
<pdfrwt beam="1">  1       21 0.39302633E-02 0.13883171E+03</pdfrwt>
<pdfrwt beam="2">  1        4 0.63514815E-01 0.13883171E+03</pdfrwt>
<totfact> 0.38493489E+04</totfact>
</mgrwt>
</event>
<event>
 6    4  0.3995738E-003  0.1284779E+03  0.7818608E-02  0.1229732E+00
         21   -1    0    0  501  502  0.00000000000E+00  0.00000000000E+00  0.12174073365E+03  0.12174073365E+03  0.00000000000E+00 0. -1.
         -4   -1    0    0    0  501 -0.00000000000E+00 -0.00000000000E+00 -0.57309582161E+03  0.57309722879E+03  0.12700000000E+01 0.  1.
         25    2    1    2    0    0 -0.21965922620E+02 -0.20041010960E+02 -0.56393785670E+03  0.57838781605E+03  0.12498966221E+03 0.  0.
    9000005    1    3    3    0    0 -0.42644139363E+00  0.38019110110E+02 -0.41963561381E+03  0.42135576769E+03  0.10000000000E+01 0.  0.
    9000005    1    3    3    0    0 -0.21539481227E+02 -0.58060121070E+02 -0.14430224289E+03  0.15703204837E+03  0.10000000000E+01 0.  0.
         -4    1    1    2    0  502  0.21965922620E+02  0.20041010960E+02  0.11258276874E+03  0.11645014638E+03  0.12700000000E+01 0. -1.
<mgrwt>
<rscale>  1 0.12847786E+03</rscale>
<asrwt>0</asrwt>
<pdfrwt beam="1">  1       21 0.18729344E-01 0.12847786E+03</pdfrwt>
<pdfrwt beam="2">  1       -4 0.88169203E-01 0.12847786E+03</pdfrwt>
<totfact> 0.12375330E+03</totfact>
</mgrwt>
</event>
<event>
 6    4  0.3995738E-003  0.1275612E+03  0.7818608E-02  0.1231120E+00
          4   -1    0    0  502    0 -0.00000000000E+00  0.00000000000E+00  0.68674845031E+02  0.68686587046E+02  0.12700000000E+01 0.  1.
         21   -1    0    0  501  502  0.00000000000E+00 -0.00000000000E+00 -0.46456465855E+03  0.46456465855E+03  0.00000000000E+00 0. -1.
         25    2    1    2    0    0  0.18920753718E+02  0.16989505583E+02  0.87033172414E+01  0.12785779155E+03  0.12500091563E+03 0.  0.
    9000005    1    3    3    0    0  0.47403928230E+02  0.32230191296E+02 -0.39643386543E+02  0.69703054017E+02  0.10000000000E+01 0.  0.
    9000005    1    3    3    0    0 -0.28483174512E+02 -0.15240685713E+02  0.48346703784E+02  0.58154737538E+02  0.10000000000E+01 0.  0.
          4    1    1    2  501    0 -0.18920753718E+02 -0.16989505583E+02 -0.40459313076E+03  0.40539345404E+03  0.12700000000E+01 0. -1.
<mgrwt>
<rscale>  1 0.12756123E+03</rscale>
<asrwt>0</asrwt>
<pdfrwt beam="2">  1       21 0.71471486E-01 0.12756123E+03</pdfrwt>
<pdfrwt beam="1">  1        4 0.10566398E-01 0.12756123E+03</pdfrwt>
<totfact> 0.50506514E+03</totfact>
</mgrwt>
</event>
<event>
 6    4  0.3995738E-003  0.1275373E+03  0.7818608E-02  0.1231156E+00
         -4   -1    0    0    0  501 -0.00000000000E+00  0.00000000000E+00  0.24060134687E+03  0.24060469865E+03  0.12700000000E+01 0. -1.
         21   -1    0    0  501  502  0.00000000000E+00 -0.00000000000E+00 -0.34012298163E+02  0.34012298163E+02  0.00000000000E+00 0. -1.
         25    2    1    2    0    0 -0.86022279990E+01  0.23806227864E+02  0.21319036667E+03  0.24842682480E+03  0.12500008010E+03 0.  0.
    9000005    1    3    3    0    0  0.10152521596E+02  0.51236159979E+02  0.26086899863E+02  0.58393014382E+02  0.10000000000E+01 0.  0.
    9000005    1    3    3    0    0 -0.18754749595E+02 -0.27429932116E+02  0.18710346681E+03  0.19003381041E+03  0.10000000000E+01 0.  0.
         -4    1    1    2    0  502  0.86022279990E+01 -0.23806227864E+02 -0.66013179680E+01  0.26190172022E+02  0.12700000000E+01 0.  1.
<mgrwt>
<rscale>  1 0.12753727E+03</rscale>
<asrwt>0</asrwt>
<pdfrwt beam="2">  1       21 0.52326614E-02 0.12753727E+03</pdfrwt>
<pdfrwt beam="1">  1       -4 0.37017673E-01 0.12753727E+03</pdfrwt>
<totfact> 0.70511438E+04</totfact>
</mgrwt>
</event>
<event>
 6    4  0.3995738E-003  0.1298196E+03  0.7818608E-02  0.1227724E+00
         21   -1    0    0  501  502  0.00000000000E+00  0.00000000000E+00  0.11474183765E+04  0.11474183765E+04  0.00000000000E+00 0.  1.
          4   -1    0    0  502    0 -0.00000000000E+00 -0.00000000000E+00 -0.82899133517E+01  0.83866300371E+01  0.12700000000E+01 0.  1.
         25    2    1    2    0    0 -0.26762631388E+02  0.22628302735E+02  0.52999134549E+03  0.54565918829E+03  0.12499937976E+03 0.  0.
    9000005    1    3    3    0    0 -0.11215503369E+02 -0.22352969355E+02  0.16527263012E+02  0.29993218858E+02  0.10000000000E+01 0.  0.
    9000005    1    3    3    0    0 -0.15547128019E+02  0.44981272090E+02  0.51346408248E+03  0.51566596943E+03  0.10000000000E+01 0.  0.
          4    1    1    2  501    0  0.26762631388E+02 -0.22628302735E+02  0.60913711763E+03  0.61014581823E+03  0.12700000000E+01 0. -1.
<mgrwt>
<rscale>  1 0.12981958E+03</rscale>
<asrwt>0</asrwt>
<pdfrwt beam="1">  1       21 0.17652578E+00 0.12981958E+03</pdfrwt>
<pdfrwt beam="2">  1        4 0.12828660E-02 0.12981958E+03</pdfrwt>
<totfact> 0.16103663E+04</totfact>
</mgrwt>
</event>
<event>
 6    4  0.3995738E-003  0.1269867E+03  0.7818608E-02  0.1231997E+00
         -4   -1    0    0    0  501 -0.00000000000E+00  0.00000000000E+00  0.72316734683E+02  0.72327885461E+02  0.12700000000E+01 0. -1.
         21   -1    0    0  501  502  0.00000000000E+00 -0.00000000000E+00 -0.82513944650E+02  0.82513944650E+02  0.00000000000E+00 0. -1.
         25    2    1    2    0    0  0.21190354576E+02  0.72275542909E+01  0.60799105160E+01  0.12713215275E+03  0.12499740111E+03 0.  0.
    9000005    1    3    3    0    0  0.17733751453E+02 -0.45990186858E+02 -0.34447263675E+02  0.60143139280E+02  0.10000000000E+01 0.  0.
    9000005    1    3    3    0    0  0.34566031225E+01  0.53217741149E+02  0.40527174191E+02  0.66989013472E+02  0.10000000000E+01 0.  0.
         -4    1    1    2    0  502 -0.21190354576E+02 -0.72275542909E+01 -0.16277120483E+02  0.27709677358E+02  0.12700000000E+01 0.  1.
<mgrwt>
<rscale>  1 0.12698669E+03</rscale>
<asrwt>0</asrwt>
<pdfrwt beam="2">  1       21 0.12694453E-01 0.12698669E+03</pdfrwt>
<pdfrwt beam="1">  1       -4 0.11127261E-01 0.12698669E+03</pdfrwt>
<totfact> 0.13368161E+05</totfact>
</mgrwt>
</event>
<event>
 6    4  0.3995738E-003  0.1458182E+03  0.7818608E-02  0.1205708E+00
         -4   -1    0    0    0  501 -0.00000000000E+00  0.00000000000E+00  0.24292454270E+02  0.24325629169E+02  0.12700000000E+01 0. -1.
         21   -1    0    0  501  502  0.00000000000E+00 -0.00000000000E+00 -0.88475753663E+03  0.88475753663E+03  0.00000000000E+00 0.  1.
         25    2    1    2    0    0  0.74664256685E+02 -0.79567844017E+01 -0.21817762011E+03  0.26242030254E+03  0.12499951851E+03 0.  0.
    9000005    1    3    3    0    0  0.43482194995E+02 -0.66134175282E+02 -0.13119131329E+03  0.15322072675E+03  0.10000000000E+01 0.  0.
    9000005    1    3    3    0    0  0.31182061690E+02  0.58177390880E+02 -0.86986306813E+02  0.10919957580E+03  0.10000000000E+01 0.  0.
         -4    1    1    2    0  502 -0.74664256685E+02  0.79567844017E+01 -0.64228746226E+03  0.64666286326E+03  0.12700000000E+01 0.  1.
<mgrwt>
<rscale>  1 0.14581818E+03</rscale>
<asrwt>0</asrwt>
<pdfrwt beam="2">  1       21 0.13611655E+00 0.14581818E+03</pdfrwt>
<pdfrwt beam="1">  1       -4 0.37399224E-02 0.14581818E+03</pdfrwt>
<totfact> 0.61224862E+03</totfact>
</mgrwt>
</event>
<event>
 6    4  0.3995738E-003  0.1267059E+03  0.7818608E-02  0.1232427E+00
         21   -1    0    0  501  502  0.00000000000E+00  0.00000000000E+00  0.33704127977E+02  0.33704127977E+02  0.00000000000E+00 0.  1.
         -4   -1    0    0    0  501 -0.00000000000E+00 -0.00000000000E+00 -0.48452186317E+03  0.48452352759E+03  0.12700000000E+01 0. -1.
         25    2    1    2    0    0  0.20659209878E+02  0.14712191725E+01 -0.47191916710E+03  0.48863287955E+03  0.12500169305E+03 0.  0.
    9000005    1    3    3    0    0  0.23919717119E+02 -0.49832444325E+02 -0.37372096841E+03  0.37778801941E+03  0.10000000000E+01 0.  0.
    9000005    1    3    3    0    0 -0.32605072414E+01  0.51303663497E+02 -0.98198198686E+02  0.11084486015E+03  0.10000000000E+01 0.  0.
         -4    1    1    2    0  502 -0.20659209878E+02 -0.14712191725E+01  0.21101431910E+02  0.29594776013E+02  0.12700000000E+01 0.  1.
<mgrwt>
<rscale>  1 0.12670592E+03</rscale>
<asrwt>0</asrwt>
<pdfrwt beam="1">  1       21 0.51852505E-02 0.12670592E+03</pdfrwt>
<pdfrwt beam="2">  1       -4 0.74543792E-01 0.12670592E+03</pdfrwt>
<totfact> 0.16986787E+04</totfact>
</mgrwt>
</event>
<event>
 6    4  0.3995738E-003  0.1317952E+03  0.7818608E-02  0.1224816E+00
         -4   -1    0    0    0  501 -0.00000000000E+00  0.00000000000E+00  0.29677328089E+02  0.29704489602E+02  0.12700000000E+01 0.  1.
         21   -1    0    0  501  502  0.00000000000E+00 -0.00000000000E+00 -0.25406995678E+03  0.25406995678E+03  0.00000000000E+00 0.  1.
         25    2    1    2    0    0 -0.17508230926E+02  0.37921973157E+02 -0.16561000532E+03  0.21165216197E+03  0.12500139842E+03 0.  0.
    9000005    1    3    3    0    0 -0.39722908354E+02  0.65678076301E+02 -0.15744560056E+03  0.17516174322E+03  0.10000000000E+01 0.  0.
    9000005    1    3    3    0    0  0.22214677428E+02 -0.27756103144E+02 -0.81644047601E+01  0.36490418743E+02  0.10000000000E+01 0.  0.
         -4    1    1    2    0  502  0.17508230926E+02 -0.37921973157E+02 -0.58782623373E+02  0.72122284413E+02  0.12700000000E+01 0. -1.
<mgrwt>
<rscale>  1 0.13179516E+03</rscale>
<asrwt>0</asrwt>
<pdfrwt beam="2">  1       21 0.39087685E-01 0.13179516E+03</pdfrwt>
<pdfrwt beam="1">  1       -4 0.45680763E-02 0.13179516E+03</pdfrwt>
<totfact> 0.70553351E+04</totfact>
</mgrwt>
</event>
<event>
 6    4  0.3995738E-003  0.1374967E+03  0.7818608E-02  0.1216738E+00
         21   -1    0    0  501  502  0.00000000000E+00  0.00000000000E+00  0.29761102245E+02  0.29761102245E+02  0.00000000000E+00 0. -1.
          4   -1    0    0  502    0 -0.00000000000E+00 -0.00000000000E+00 -0.47598485888E+03  0.47598655316E+03  0.12700000000E+01 0.  1.
         25    2    1    2    0    0  0.43577092750E+02 -0.37171073775E+02 -0.42148209111E+03  0.44334241002E+03  0.12499875064E+03 0.  0.
    9000005    1    3    3    0    0 -0.11010402196E+02 -0.33577202944E+01 -0.33712200875E+03  0.33731995498E+03  0.10000000000E+01 0.  0.
    9000005    1    3    3    0    0  0.54587494946E+02 -0.33813353480E+02 -0.84360082353E+02  0.10602245504E+03  0.10000000000E+01 0.  0.
          4    1    1    2  501    0 -0.43577092750E+02  0.37171073775E+02 -0.24741665533E+02  0.62405245384E+02  0.12700000000E+01 0. -1.
<mgrwt>
<rscale>  1 0.13749669E+03</rscale>
<asrwt>0</asrwt>
<pdfrwt beam="1">  1       21 0.45786314E-02 0.13749669E+03</pdfrwt>
<pdfrwt beam="2">  1        4 0.73230650E-01 0.13749669E+03</pdfrwt>
<totfact> 0.21950415E+04</totfact>
</mgrwt>
</event>
<event>
 6    4  0.3995738E-003  0.1274672E+03  0.7818608E-02  0.1231263E+00
          4   -1    0    0  502    0 -0.00000000000E+00  0.00000000000E+00  0.85177338704E+03  0.85177433383E+03  0.12700000000E+01 0.  1.
         21   -1    0    0  501  502  0.00000000000E+00 -0.00000000000E+00 -0.17905751633E+02  0.17905751633E+02  0.00000000000E+00 0. -1.
         25    2    1    2    0    0  0.24283164058E+02  0.57518997887E+01  0.83499402003E+03  0.84466732771E+03  0.12500049840E+03 0.  0.
    9000005    1    3    3    0    0  0.54866980535E+02  0.14686850603E+02  0.17680989544E+03  0.18571168046E+03  0.10000000000E+01 0.  0.
    9000005    1    3    3    0    0 -0.30583816477E+02 -0.89349508148E+01  0.65818412459E+03  0.65895564725E+03  0.10000000000E+01 0.  0.
          4    1    1    2  501    0 -0.24283164058E+02 -0.57518997887E+01 -0.11263846297E+01  0.25012757748E+02  0.12700000000E+01 0. -1.
<mgrwt>
<rscale>  1 0.12746718E+03</rscale>
<asrwt>0</asrwt>
<pdfrwt beam="2">  1       21 0.27547317E-02 0.12746718E+03</pdfrwt>
<pdfrwt beam="1">  1        4 0.13104557E+00 0.12746718E+03</pdfrwt>
<totfact> 0.13204034E+04</totfact>
</mgrwt>
</event>
<event>
 6    4  0.3995738E-003  0.1614710E+03  0.7818608E-02  0.1187046E+00
          4   -1    0    0  502    0 -0.00000000000E+00  0.00000000000E+00  0.49119615956E+03  0.49119780137E+03  0.12700000000E+01 0.  1.
         21   -1    0    0  501  502  0.00000000000E+00 -0.00000000000E+00 -0.36198233009E+02  0.36198233009E+02  0.00000000000E+00 0. -1.
         25    2    1    2    0    0  0.10023420812E+03 -0.20033118104E+02  0.31589170693E+03  0.35476818165E+03  0.12499867963E+03 0.  0.
    9000005    1    3    3    0    0  0.52763842380E+02  0.11477801637E+02  0.27132155440E+02  0.60439365086E+02  0.10000000000E+01 0.  0.
    9000005    1    3    3    0    0  0.47470365737E+02 -0.31510919740E+02  0.28875955149E+03  0.29432881657E+03  0.10000000000E+01 0.  0.
          4    1    1    2  501    0 -0.10023420812E+03  0.20033118104E+02  0.13910621963E+03  0.17262785273E+03  0.12700000000E+01 0. -1.
<mgrwt>
<rscale>  1 0.16147103E+03</rscale>
<asrwt>0</asrwt>
<pdfrwt beam="2">  1       21 0.55689593E-02 0.16147103E+03</pdfrwt>
<pdfrwt beam="1">  1        4 0.75570475E-01 0.16147103E+03</pdfrwt>
<totfact> 0.14967643E+04</totfact>
</mgrwt>
</event>
<event>
 6    4  0.3995738E-003  0.1275816E+03  0.7818608E-02  0.1231089E+00
         21   -1    0    0  501  502  0.00000000000E+00  0.00000000000E+00  0.17143825397E+03  0.17143825397E+03  0.00000000000E+00 0.  1.
          4   -1    0    0  502    0 -0.00000000000E+00 -0.00000000000E+00 -0.34262691953E+02  0.34286221137E+02  0.12700000000E+01 0.  1.
         25    2    1    2    0    0 -0.27045903138E+01  0.25395909346E+02  0.11064569046E+03  0.16887730418E+03  0.12499923212E+03 0.  0.
    9000005    1    3    3    0    0 -0.52531284915E+02  0.48987609367E+02  0.70689001462E+02  0.10078321633E+03  0.10000000000E+01 0.  0.
    9000005    1    3    3    0    0  0.49826694601E+02 -0.23591700021E+02  0.39956689001E+02  0.68094087854E+02  0.10000000000E+01 0.  0.
          4    1    1    2  501    0  0.27045903138E+01 -0.25395909346E+02  0.26529871552E+02  0.36847170920E+02  0.12700000000E+01 0. -1.
<mgrwt>
<rscale>  1 0.12758164E+03</rscale>
<asrwt>0</asrwt>
<pdfrwt beam="1">  1       21 0.26375115E-01 0.12758164E+03</pdfrwt>
<pdfrwt beam="2">  1        4 0.52733553E-02 0.12758164E+03</pdfrwt>
<totfact> 0.11994106E+05</totfact>
</mgrwt>
</event>
<event>
 6    4  0.3995738E-003  0.1317910E+03  0.7818608E-02  0.1224822E+00
         -4   -1    0    0    0  501 -0.00000000000E+00  0.00000000000E+00  0.93854908663E+03  0.93854994588E+03  0.12700000000E+01 0. -1.
         21   -1    0    0  501  502  0.00000000000E+00 -0.00000000000E+00 -0.81618842802E+01  0.81618842802E+01  0.00000000000E+00 0. -1.
         25    2    1    2    0    0 -0.37911744386E+02 -0.17493494378E+02  0.75519998840E+03  0.76661325843E+03  0.12500217124E+03 0.  0.
    9000005    1    3    3    0    0 -0.54456911419E+02 -0.61856747391E+02  0.54086330198E+03  0.54710686692E+03  0.10000000000E+01 0.  0.
    9000005    1    3    3    0    0  0.16545167033E+02  0.44363253013E+02  0.21433668642E+03  0.21950639151E+03  0.10000000000E+01 0.  0.
         -4    1    1    2    0  502  0.37911744386E+02  0.17493494378E+02  0.17518721395E+03  0.18009857173E+03  0.12700000000E+01 0.  1.
<mgrwt>
<rscale>  1 0.13179099E+03</rscale>
<asrwt>0</asrwt>
<pdfrwt beam="2">  1       21 0.12556753E-02 0.13179099E+03</pdfrwt>
<pdfrwt beam="1">  1       -4 0.14439975E+00 0.13179099E+03</pdfrwt>
<totfact> 0.36899657E+04</totfact>
</mgrwt>
</event>
<event>
 6    4  0.3995738E-003  0.1289741E+03  0.7818608E-02  0.1228986E+00
         21   -1    0    0  501  502  0.00000000000E+00  0.00000000000E+00  0.39283567822E+02  0.39283567822E+02  0.00000000000E+00 0. -1.
         -4   -1    0    0    0  501 -0.00000000000E+00 -0.00000000000E+00 -0.65894619035E+03  0.65894741420E+03  0.12700000000E+01 0.  1.
         25    2    1    2    0    0 -0.27152229878E+02 -0.16504930240E+02 -0.64487667641E+03  0.65764751590E+03  0.12499868430E+03 0.  0.
    9000005    1    3    3    0    0 -0.33363786508E+00 -0.38021534186E+02 -0.59950692974E+03  0.60071233314E+03  0.10000000000E+01 0.  0.
    9000005    1    3    3    0    0 -0.26818592013E+02  0.21516603945E+02 -0.45369746672E+02  0.56935182761E+02  0.10000000000E+01 0.  0.
         -4    1    1    2    0  502  0.27152229878E+02  0.16504930240E+02  0.25214053882E+02  0.40583466125E+02  0.12700000000E+01 0. -1.
<mgrwt>
<rscale>  1 0.12897413E+03</rscale>
<asrwt>0</asrwt>
<pdfrwt beam="1">  1       21 0.60436258E-02 0.12897413E+03</pdfrwt>
<pdfrwt beam="2">  1       -4 0.10137801E+00 0.12897413E+03</pdfrwt>
<totfact> 0.65905004E+03</totfact>
</mgrwt>
</event>
<event>
 6    4  0.3995738E-003  0.1268611E+03  0.7818608E-02  0.1232189E+00
         21   -1    0    0  501  502  0.00000000000E+00  0.00000000000E+00  0.13685956721E+03  0.13685956721E+03  0.00000000000E+00 0. -1.
          4   -1    0    0  502    0 -0.00000000000E+00 -0.00000000000E+00 -0.48632098595E+02  0.48648678438E+02  0.12700000000E+01 0. -1.
         25    2    1    2    0    0  0.17656751164E+02 -0.12531475505E+02  0.40640727985E+02  0.13321188321E+03  0.12499975327E+03 0.  0.
    9000005    1    3    3    0    0  0.48871728199E+02 -0.15640338110E+02 -0.27474023002E+02  0.58214155781E+02  0.10000000000E+01 0.  0.
    9000005    1    3    3    0    0 -0.31214977035E+02  0.31088626053E+01  0.68114750987E+02  0.74997727433E+02  0.10000000000E+01 0.  0.
          4    1    1    2  501    0 -0.17656751164E+02  0.12531475505E+02  0.47586740625E+02  0.52296362429E+02  0.12700000000E+01 0.  1.
<mgrwt>
<rscale>  1 0.12686109E+03</rscale>
<asrwt>0</asrwt>
<pdfrwt beam="1">  1       21 0.21055318E-01 0.12686109E+03</pdfrwt>
<pdfrwt beam="2">  1        4 0.74835900E-02 0.12686109E+03</pdfrwt>
<totfact> 0.10348091E+05</totfact>
</mgrwt>
</event>
<event>
 6    4  0.3995738E-003  0.1321779E+03  0.7818608E-02  0.1224259E+00
         21   -1    0    0  501  502  0.00000000000E+00  0.00000000000E+00  0.70287658840E+01  0.70287658840E+01  0.00000000000E+00 0.  1.
          4   -1    0    0  502    0 -0.00000000000E+00 -0.00000000000E+00 -0.13659038423E+04  0.13659044327E+04  0.12700000000E+01 0. -1.
         25    2    1    2    0    0 -0.42284686384E+02  0.76575712117E+01 -0.12298880665E+04  0.12369703555E+04  0.12499748378E+03 0.  0.
    9000005    1    3    3    0    0  0.19726276708E+02 -0.41203245833E+01 -0.94313823400E+03  0.94335403296E+03  0.10000000000E+01 0.  0.
    9000005    1    3    3    0    0 -0.62010963091E+02  0.11777895795E+02 -0.28674983255E+03  0.29361632250E+03  0.10000000000E+01 0.  0.
          4    1    1    2  501    0  0.42284686384E+02 -0.76575712117E+01 -0.12898700986E+03  0.13596284313E+03  0.12700000000E+01 0.  1.
<mgrwt>
<rscale>  1 0.13217793E+03</rscale>
<asrwt>0</asrwt>
<pdfrwt beam="1">  1       21 0.10813490E-02 0.13217793E+03</pdfrwt>
<pdfrwt beam="2">  1        4 0.21014785E+00 0.13217793E+03</pdfrwt>
<totfact> 0.17001006E+04</totfact>
</mgrwt>
</event>
<event>
 6    4  0.3995738E-003  0.1284202E+03  0.7818608E-02  0.1229819E+00
         -4   -1    0    0    0  501 -0.00000000000E+00  0.00000000000E+00  0.24748029477E+03  0.24748355340E+03  0.12700000000E+01 0. -1.
         21   -1    0    0  501  502  0.00000000000E+00 -0.00000000000E+00 -0.70746967365E+02  0.70746967365E+02  0.00000000000E+00 0.  1.
         25    2    1    2    0    0 -0.22544407757E+02 -0.18895080896E+02  0.22651950381E+03  0.26038978543E+03  0.12500592125E+03 0.  0.
    9000005    1    3    3    0    0  0.42229939370E+02 -0.35135238230E+02  0.14465482535E+03  0.15473807302E+03  0.10000000000E+01 0.  0.
    9000005    1    3    3    0    0 -0.64774347127E+02  0.16240157334E+02  0.81864678457E+02  0.10565171241E+03  0.10000000000E+01 0.  0.
         -4    1    1    2    0  502  0.22544407757E+02  0.18895080896E+02 -0.49786176400E+02  0.57840735332E+02  0.12700000000E+01 0.  1.
<mgrwt>
<rscale>  1 0.12842023E+03</rscale>
<asrwt>0</asrwt>
<pdfrwt beam="2">  1       21 0.10884149E-01 0.12842023E+03</pdfrwt>
<pdfrwt beam="1">  1       -4 0.38075019E-01 0.12842023E+03</pdfrwt>
<totfact> 0.18970718E+04</totfact>
</mgrwt>
</event>
<event>
 6    4  0.3995738E-003  0.1285736E+03  0.7818608E-02  0.1229588E+00
         21   -1    0    0  501  502  0.00000000000E+00  0.00000000000E+00  0.29250772168E+02  0.29250772168E+02  0.00000000000E+00 0.  1.
          4   -1    0    0  502    0 -0.00000000000E+00 -0.00000000000E+00 -0.21714717799E+03  0.21715089180E+03  0.12700000000E+01 0.  1.
         25    2    1    2    0    0 -0.30023131145E+02  0.21489368190E+01 -0.16079228345E+03  0.20587694703E+03  0.12500061027E+03 0.  0.
    9000005    1    3    3    0    0 -0.36287943606E+02 -0.52624526046E+02 -0.46738524413E+02  0.79193719807E+02  0.10000000000E+01 0.  0.
    9000005    1    3    3    0    0  0.62648124607E+01  0.54773462865E+02 -0.11405375904E+03  0.12668322723E+03  0.10000000000E+01 0.  0.
          4    1    1    2  501    0  0.30023131145E+02 -0.21489368190E+01 -0.27104122374E+02  0.40524716938E+02  0.12700000000E+01 0. -1.
<mgrwt>
<rscale>  1 0.12857355E+03</rscale>
<asrwt>0</asrwt>
<pdfrwt beam="1">  1       21 0.45001186E-02 0.12857355E+03</pdfrwt>
<pdfrwt beam="2">  1        4 0.33409666E-01 0.12857355E+03</pdfrwt>
<totfact> 0.11079220E+05</totfact>
</mgrwt>
</event>
<event>
 6    4  0.3995738E-003  0.1310847E+03  0.7818608E-02  0.1225855E+00
          4   -1    0    0  502    0 -0.00000000000E+00  0.00000000000E+00  0.17713219752E+03  0.17713675028E+03  0.12700000000E+01 0. -1.
         21   -1    0    0  501  502  0.00000000000E+00 -0.00000000000E+00 -0.42939582943E+02  0.42939582943E+02  0.00000000000E+00 0. -1.
         25    2    1    2    0    0  0.37489895437E+02 -0.12366001278E+02  0.12111236462E+03  0.17846965003E+03  0.12499920347E+03 0.  0.
    9000005    1    3    3    0    0  0.44801201760E+02  0.29877922412E+02  0.42958226641E+01  0.54030473061E+02  0.10000000000E+01 0.  0.
    9000005    1    3    3    0    0 -0.73113063233E+01 -0.42243923689E+02  0.11681654196E+03  0.12443917697E+03  0.10000000000E+01 0.  0.
          4    1    1    2  501    0 -0.37489895437E+02  0.12366001278E+02  0.13080249954E+02  0.41606683193E+02  0.12700000000E+01 0.  1.
<mgrwt>
<rscale>  1 0.13108475E+03</rscale>
<asrwt>0</asrwt>
<pdfrwt beam="2">  1       21 0.66060898E-02 0.13108475E+03</pdfrwt>
<pdfrwt beam="1">  1        4 0.27252902E-01 0.13108475E+03</pdfrwt>
<totfact> 0.85419953E+04</totfact>
</mgrwt>
</event>
<event>
 6    4  0.3995738E-003  0.1288004E+03  0.7818608E-02  0.1229247E+00
         21   -1    0    0  501  502  0.00000000000E+00  0.00000000000E+00  0.15614574662E+03  0.15614574662E+03  0.00000000000E+00 0.  1.
         -4   -1    0    0    0  501 -0.00000000000E+00 -0.00000000000E+00 -0.78337740845E+02  0.78348034696E+02  0.12700000000E+01 0.  1.
         25    2    1    2    0    0 -0.26141198198E+02  0.16759090781E+02 -0.21369403568E+02  0.13056110700E+03  0.12500128753E+03 0.  0.
    9000005    1    3    3    0    0 -0.36695733044E+01 -0.53955818215E+02 -0.14723563604E+02  0.56057822047E+02  0.10000000000E+01 0.  0.
    9000005    1    3    3    0    0 -0.22471624893E+02  0.70714908995E+02 -0.66458399642E+01  0.74503284950E+02  0.10000000000E+01 0.  0.
         -4    1    1    2    0  502  0.26141198198E+02 -0.16759090781E+02  0.99177409345E+02  0.10393267432E+03  0.12700000000E+01 0. -1.
<mgrwt>
<rscale>  1 0.12880043E+03</rscale>
<asrwt>0</asrwt>
<pdfrwt beam="1">  1       21 0.24022422E-01 0.12880043E+03</pdfrwt>
<pdfrwt beam="2">  1       -4 0.12053149E-01 0.12880043E+03</pdfrwt>
<totfact> 0.36443655E+04</totfact>
</mgrwt>
</event>
<event>
 6    4  0.3995738E-003  0.1687552E+03  0.7818608E-02  0.1179152E+00
         21   -1    0    0  501  502  0.00000000000E+00  0.00000000000E+00  0.81515185612E+03  0.81515185612E+03  0.00000000000E+00 0.  1.
          4   -1    0    0  502    0 -0.00000000000E+00 -0.00000000000E+00 -0.45198007637E+02  0.45215846717E+02  0.12700000000E+01 0. -1.
         25    2    1    2    0    0  0.65752278935E+01 -0.11318176685E+03  0.13707113425E+03  0.21740931472E+03  0.12499987326E+03 0.  0.
    9000005    1    3    3    0    0 -0.40996971986E+02 -0.86830043234E+02  0.35852436804E+02  0.10250173337E+03  0.10000000000E+01 0.  0.
    9000005    1    3    3    0    0  0.47572199879E+02 -0.26351723619E+02  0.10121869744E+03  0.11490758135E+03  0.10000000000E+01 0.  0.
          4    1    1    2  501    0 -0.65752278935E+01  0.11318176685E+03  0.63288271423E+03  0.64295838811E+03  0.12700000000E+01 0.  1.
<mgrwt>
<rscale>  1 0.16875519E+03</rscale>
<asrwt>0</asrwt>
<pdfrwt beam="1">  1       21 0.12540797E+00 0.16875519E+03</pdfrwt>
<pdfrwt beam="2">  1        4 0.69549886E-02 0.16875519E+03</pdfrwt>
<totfact> 0.27705643E+03</totfact>
</mgrwt>
</event>
<event>
 6    4  0.3995738E-003  0.1488084E+03  0.7818608E-02  0.1201945E+00
         21   -1    0    0  501  502  0.00000000000E+00  0.00000000000E+00  0.26938168967E+03  0.26938168967E+03  0.00000000000E+00 0.  1.
         -4   -1    0    0    0  501 -0.00000000000E+00 -0.00000000000E+00 -0.11565202233E+03  0.11565899519E+03  0.12700000000E+01 0. -1.
         25    2    1    2    0    0 -0.33754745008E+01 -0.80663869067E+02 -0.57015237918E+02  0.15935709753E+03  0.12500357425E+03 0.  0.
    9000005    1    3    3    0    0 -0.14144479263E+02 -0.30390328607E+02 -0.91492681274E+02  0.97445108103E+02  0.10000000000E+01 0.  0.
    9000005    1    3    3    0    0  0.10769004763E+02 -0.50273540460E+02  0.34477443356E+02  0.61911989423E+02  0.10000000000E+01 0.  0.
         -4    1    1    2    0  502  0.33754745008E+01  0.80663869067E+02  0.21074490526E+03  0.22568358733E+03  0.12700000000E+01 0.  1.
<mgrwt>
<rscale>  1 0.14880842E+03</rscale>
<asrwt>0</asrwt>
<pdfrwt beam="1">  1       21 0.41443337E-01 0.14880842E+03</pdfrwt>
<pdfrwt beam="2">  1       -4 0.17793386E-01 0.14880842E+03</pdfrwt>
<totfact> 0.64770073E+03</totfact>
</mgrwt>
</event>
<event>
 6    4  0.3995738E-003  0.1451864E+03  0.7818608E-02  0.1206516E+00
         21   -1    0    0  501  502  0.00000000000E+00  0.00000000000E+00  0.18790369846E+03  0.18790369846E+03  0.00000000000E+00 0.  1.
         -4   -1    0    0    0  501 -0.00000000000E+00 -0.00000000000E+00 -0.98697146702E+02  0.98705317319E+02  0.12700000000E+01 0. -1.
         25    2    1    2    0    0 -0.72564948339E+02  0.13683000012E+02 -0.28205083599E+02  0.14790068426E+03  0.12500475769E+03 0.  0.
    9000005    1    3    3    0    0 -0.11538698632E+02  0.17046350701E+02  0.46803042960E+02  0.51139460973E+02  0.10000000000E+01 0.  0.
    9000005    1    3    3    0    0 -0.61026249707E+02 -0.33633506887E+01 -0.75008126559E+02  0.96761223282E+02  0.10000000000E+01 0.  0.
         -4    1    1    2    0  502  0.72564948339E+02 -0.13683000012E+02  0.11741163536E+03  0.13870833152E+03  0.12700000000E+01 0.  1.
<mgrwt>
<rscale>  1 0.14518638E+03</rscale>
<asrwt>0</asrwt>
<pdfrwt beam="1">  1       21 0.28908261E-01 0.14518638E+03</pdfrwt>
<pdfrwt beam="2">  1       -4 0.15185135E-01 0.14518638E+03</pdfrwt>
<totfact> 0.17384613E+04</totfact>
</mgrwt>
</event>
<event>
 6    4  0.3995738E-003  0.1275887E+03  0.7818608E-02  0.1231078E+00
         21   -1    0    0  501  502  0.00000000000E+00  0.00000000000E+00  0.25724631524E+02  0.25724631524E+02  0.00000000000E+00 0.  1.
          4   -1    0    0  502    0 -0.00000000000E+00 -0.00000000000E+00 -0.23371496592E+03  0.23371841647E+03  0.12700000000E+01 0.  1.
         25    2    1    2    0    0  0.22518119134E+02  0.12085420846E+02 -0.15627957230E+03  0.20174782373E+03  0.12500302626E+03 0.  0.
    9000005    1    3    3    0    0  0.25851932975E+02  0.58438696044E+02 -0.37271103691E+02  0.73983368430E+02  0.10000000000E+01 0.  0.
    9000005    1    3    3    0    0 -0.33338138411E+01 -0.46353275198E+02 -0.11900846861E+03  0.12776445530E+03  0.10000000000E+01 0.  0.
          4    1    1    2  501    0 -0.22518119134E+02 -0.12085420846E+02 -0.51710762096E+02  0.57695224264E+02  0.12700000000E+01 0. -1.
<mgrwt>
<rscale>  1 0.12758871E+03</rscale>
<asrwt>0</asrwt>
<pdfrwt beam="1">  1       21 0.39576354E-02 0.12758871E+03</pdfrwt>
<pdfrwt beam="2">  1        4 0.35958827E-01 0.12758871E+03</pdfrwt>
<totfact> 0.11896728E+05</totfact>
</mgrwt>
</event>
<event>
 6    4  0.3995738E-003  0.1268413E+03  0.7818608E-02  0.1232219E+00
          4   -1    0    0  502    0 -0.00000000000E+00  0.00000000000E+00  0.11822297470E+03  0.11822979594E+03  0.12700000000E+01 0.  1.
         21   -1    0    0  501  502  0.00000000000E+00 -0.00000000000E+00 -0.50734142201E+02  0.50734142201E+02  0.00000000000E+00 0. -1.
         25    2    1    2    0    0 -0.21523661585E+01  0.21331544591E+02  0.73581748951E+02  0.14663897441E+03  0.12501618920E+03 0.  0.
    9000005    1    3    3    0    0  0.19959494983E+02  0.51395321625E+02 -0.91275645366E+01  0.55894301671E+02  0.10000000000E+01 0.  0.
    9000005    1    3    3    0    0 -0.22111861141E+02 -0.30063777034E+02  0.82709313487E+02  0.90744672737E+02  0.10000000000E+01 0.  0.
          4    1    1    2  501    0  0.21523661585E+01 -0.21331544591E+02 -0.60929164487E+01  0.22324963731E+02  0.12700000000E+01 0. -1.
<mgrwt>
<rscale>  1 0.12684130E+03</rscale>
<asrwt>0</asrwt>
<pdfrwt beam="2">  1       21 0.78052527E-02 0.12684130E+03</pdfrwt>
<pdfrwt beam="1">  1        4 0.18189897E-01 0.12684130E+03</pdfrwt>
<totfact> 0.13331089E+05</totfact>
</mgrwt>
</event>
<event>
 6    4  0.3995738E-003  0.1287535E+03  0.7818608E-02  0.1229317E+00
         21   -1    0    0  501  502  0.00000000000E+00  0.00000000000E+00  0.22609090695E+02  0.22609090695E+02  0.00000000000E+00 0. -1.
          4   -1    0    0  502    0 -0.00000000000E+00 -0.00000000000E+00 -0.36716826110E+03  0.36717045750E+03  0.12700000000E+01 0.  1.
         25    2    1    2    0    0 -0.75822539317E+00  0.30839176480E+02 -0.33263192697E+03  0.35668118346E+03  0.12500335230E+03 0.  0.
    9000005    1    3    3    0    0 -0.25869893381E+02  0.67786264376E+02 -0.27105632493E+03  0.28060071331E+03  0.10000000000E+01 0.  0.
    9000005    1    3    3    0    0  0.25111667988E+02 -0.36947087897E+02 -0.61575602036E+02  0.76080470157E+02  0.10000000000E+01 0.  0.
          4    1    1    2  501    0  0.75822539317E+00 -0.30839176480E+02 -0.11927243433E+02  0.33098364727E+02  0.12700000000E+01 0. -1.
<mgrwt>
<rscale>  1 0.12875352E+03</rscale>
<asrwt>0</asrwt>
<pdfrwt beam="1">  1       21 0.34783217E-02 0.12875352E+03</pdfrwt>
<pdfrwt beam="2">  1        4 0.56490337E-01 0.12875352E+03</pdfrwt>
<totfact> 0.59693420E+04</totfact>
</mgrwt>
</event>
<event>
 6    4  0.3995738E-003  0.1278397E+03  0.7818608E-02  0.1230697E+00
         21   -1    0    0  501  502  0.00000000000E+00  0.00000000000E+00  0.16810473845E+03  0.16810473845E+03  0.00000000000E+00 0.  1.
         -4   -1    0    0    0  501 -0.00000000000E+00 -0.00000000000E+00 -0.37037472359E+02  0.37059239857E+02  0.12700000000E+01 0.  1.
         25    2    1    2    0    0 -0.25499599933E+02 -0.82868849438E+01  0.90936129814E+02  0.15688330870E+03  0.12499636309E+03 0.  0.
    9000005    1    3    3    0    0  0.89342625708E+01  0.21330848460E+02 -0.23969904401E+02  0.33322401785E+02  0.10000000000E+01 0.  0.
    9000005    1    3    3    0    0 -0.34433862503E+02 -0.29617733404E+02  0.11490603422E+03  0.12356090692E+03  0.10000000000E+01 0.  0.
         -4    1    1    2    0  502  0.25499599933E+02  0.82868849438E+01  0.40131136281E+02  0.48280669610E+02  0.12700000000E+01 0. -1.
<mgrwt>
<rscale>  1 0.12783972E+03</rscale>
<asrwt>0</asrwt>
<pdfrwt beam="1">  1       21 0.25862267E-01 0.12783972E+03</pdfrwt>
<pdfrwt beam="2">  1       -4 0.57001162E-02 0.12783972E+03</pdfrwt>
<totfact> 0.10982937E+05</totfact>
</mgrwt>
</event>
<event>
 6    4  0.3995738E-003  0.1431473E+03  0.7818608E-02  0.1209156E+00
         21   -1    0    0  501  502  0.00000000000E+00  0.00000000000E+00  0.27933777371E+03  0.27933777371E+03  0.00000000000E+00 0.  1.
         -4   -1    0    0    0  501 -0.00000000000E+00 -0.00000000000E+00 -0.64533110827E+02  0.64545606303E+02  0.12700000000E+01 0.  1.
         25    2    1    2    0    0 -0.27302175350E+01  0.69701077415E+02  0.29875145055E+02  0.14623158077E+03  0.12500182655E+03 0.  0.
    9000005    1    3    3    0    0  0.58161527893E+02  0.15681519717E+02  0.23175137774E+02  0.64550448475E+02  0.10000000000E+01 0.  0.
    9000005    1    3    3    0    0 -0.60891745428E+02  0.54019557698E+02  0.67000072805E+01  0.81681132293E+02  0.10000000000E+01 0.  0.
         -4    1    1    2    0  502  0.27302175350E+01 -0.69701077415E+02  0.18492951783E+03  0.19765179925E+03  0.12700000000E+01 0. -1.
<mgrwt>
<rscale>  1 0.14314730E+03</rscale>
<asrwt>0</asrwt>
<pdfrwt beam="1">  1       21 0.42975042E-01 0.14314730E+03</pdfrwt>
<pdfrwt beam="2">  1       -4 0.99293543E-02 0.14314730E+03</pdfrwt>
<totfact> 0.16467241E+04</totfact>
</mgrwt>
</event>
<event>
 6    4  0.3995738E-003  0.2033419E+03  0.7818608E-02  0.1146950E+00
         21   -1    0    0  501  502  0.00000000000E+00  0.00000000000E+00  0.23188050782E+03  0.23188050782E+03  0.00000000000E+00 0.  1.
          4   -1    0    0  502    0 -0.00000000000E+00 -0.00000000000E+00 -0.14677695617E+03  0.14678245046E+03  0.12700000000E+01 0. -1.
         25    2    1    2    0    0  0.13942481129E+03  0.79257919941E+02  0.15824781984E+02  0.20395675717E+03  0.12500735656E+03 0.  0.
    9000005    1    3    3    0    0  0.16144489932E+03  0.71803549379E+02  0.25930769159E+02  0.17858782156E+03  0.10000000000E+01 0.  0.
    9000005    1    3    3    0    0 -0.22020088031E+02  0.74543705620E+01 -0.10105987175E+02  0.25368935614E+02  0.10000000000E+01 0.  0.
          4    1    1    2  501    0 -0.13942481129E+03 -0.79257919941E+02  0.69278769670E+02  0.17470620110E+03  0.12700000000E+01 0.  1.
<mgrwt>
<rscale>  1 0.20334192E+03</rscale>
<asrwt>0</asrwt>
<pdfrwt beam="1">  1       21 0.35673924E-01 0.20334192E+03</pdfrwt>
<pdfrwt beam="2">  1        4 0.22581760E-01 0.20334192E+03</pdfrwt>
<totfact> 0.57719446E+03</totfact>
</mgrwt>
</event>
<event>
 6    4  0.3995738E-003  0.1288626E+03  0.7818608E-02  0.1229153E+00
          4   -1    0    0  502    0 -0.00000000000E+00  0.00000000000E+00  0.44372712264E+03  0.44372894008E+03  0.12700000000E+01 0. -1.
         21   -1    0    0  501  502  0.00000000000E+00 -0.00000000000E+00 -0.81125220749E+02  0.81125220749E+02  0.00000000000E+00 0.  1.
         25    2    1    2    0    0 -0.57897252847E+01  0.30778559981E+02  0.43087384166E+03  0.44973085331E+03  0.12499892925E+03 0.  0.
    9000005    1    3    3    0    0 -0.62173620408E+02  0.32650876593E+02  0.27931918929E+03  0.28801362524E+03  0.10000000000E+01 0.  0.
    9000005    1    3    3    0    0  0.56383895123E+02 -0.18723166119E+01  0.15155465237E+03  0.16171722806E+03  0.10000000000E+01 0.  0.
          4    1    1    2  501    0  0.57897252847E+01 -0.30778559981E+02 -0.68271939770E+02  0.75123307524E+02  0.12700000000E+01 0.  1.
<mgrwt>
<rscale>  1 0.12886261E+03</rscale>
<asrwt>0</asrwt>
<pdfrwt beam="2">  1       21 0.12480804E-01 0.12886261E+03</pdfrwt>
<pdfrwt beam="1">  1        4 0.68266614E-01 0.12886261E+03</pdfrwt>
<totfact> 0.45180904E+03</totfact>
</mgrwt>
</event>
<event>
 6    4  0.3995738E-003  0.1287962E+03  0.7818608E-02  0.1229253E+00
         21   -1    0    0  501  502  0.00000000000E+00  0.00000000000E+00  0.54268429528E+02  0.54268429528E+02  0.00000000000E+00 0. -1.
          4   -1    0    0  502    0 -0.00000000000E+00 -0.00000000000E+00 -0.32820340284E+03  0.32820586000E+03  0.12700000000E+01 0.  1.
         25    2    1    2    0    0  0.15889433447E+02 -0.26662624022E+02 -0.30951409642E+03  0.33524234571E+03  0.12500033945E+03 0.  0.
    9000005    1    3    3    0    0  0.49016064192E+02  0.33857197594E+02 -0.15311575513E+03  0.16429947915E+03  0.10000000000E+01 0.  0.
    9000005    1    3    3    0    0 -0.33126630745E+02 -0.60519821616E+02 -0.15639834129E+03  0.17094286657E+03  0.10000000000E+01 0.  0.
          4    1    1    2  501    0 -0.15889433447E+02  0.26662624022E+02  0.35579123107E+02  0.47231943811E+02  0.12700000000E+01 0. -1.
<mgrwt>
<rscale>  1 0.12879617E+03</rscale>
<asrwt>0</asrwt>
<pdfrwt beam="1">  1       21 0.83489891E-02 0.12879617E+03</pdfrwt>
<pdfrwt beam="2">  1        4 0.50494164E-01 0.12879617E+03</pdfrwt>
<totfact> 0.17163844E+04</totfact>
</mgrwt>
</event>
<event>
 6    4  0.3995738E-003  0.1324093E+03  0.7818608E-02  0.1223924E+00
          4   -1    0    0  502    0 -0.00000000000E+00  0.00000000000E+00  0.16203075966E+04  0.16203080943E+04  0.12700000000E+01 0.  1.
         21   -1    0    0  501  502  0.00000000000E+00 -0.00000000000E+00 -0.48615815534E+01  0.48615815534E+01  0.00000000000E+00 0.  1.
         25    2    1    2    0    0  0.32735099158E+02  0.28915274328E+02  0.12966513308E+04  0.13033943763E+04  0.12499818681E+03 0.  0.
    9000005    1    3    3    0    0 -0.39194468800E+02  0.35470495139E+02  0.76989996277E+03  0.77171323371E+03  0.10000000000E+01 0.  0.
    9000005    1    3    3    0    0  0.71929567958E+02 -0.65552208110E+01  0.52675136800E+03  0.53168114256E+03  0.10000000000E+01 0.  0.
          4    1    1    2  501    0 -0.32735099158E+02 -0.28915274328E+02  0.31879468426E+03  0.32177529958E+03  0.12700000000E+01 0. -1.
<mgrwt>
<rscale>  1 0.13240931E+03</rscale>
<asrwt>0</asrwt>
<pdfrwt beam="2">  1       21 0.74793692E-03 0.13240931E+03</pdfrwt>
<pdfrwt beam="1">  1        4 0.24929046E+00 0.13240931E+03</pdfrwt>
<totfact> 0.17851163E+04</totfact>
</mgrwt>
</event>
<event>
 6    4  0.3995738E-003  0.1281608E+03  0.7818608E-02  0.1230211E+00
         21   -1    0    0  501  502  0.00000000000E+00  0.00000000000E+00  0.57612836662E+02  0.57612836662E+02  0.00000000000E+00 0. -1.
          4   -1    0    0  502    0 -0.00000000000E+00 -0.00000000000E+00 -0.24277413279E+03  0.24277745457E+03  0.12700000000E+01 0.  1.
         25    2    1    2    0    0 -0.27036570791E+02  0.83076311910E+01 -0.22054164989E+03  0.25507610771E+03  0.12500083396E+03 0.  0.
    9000005    1    3    3    0    0  0.13251406057E+01 -0.45190533151E+02 -0.27889139481E+02  0.53129505786E+02  0.10000000000E+01 0.  0.
    9000005    1    3    3    0    0 -0.28361711396E+02  0.53498164342E+02 -0.19265251041E+03  0.20194660192E+03  0.10000000000E+01 0.  0.
          4    1    1    2  501    0  0.27036570791E+02 -0.83076311910E+01  0.35380353767E+02  0.45314183528E+02  0.12700000000E+01 0. -1.
<mgrwt>
<rscale>  1 0.12816084E+03</rscale>
<asrwt>0</asrwt>
<pdfrwt beam="1">  1       21 0.88635133E-02 0.12816084E+03</pdfrwt>
<pdfrwt beam="2">  1        4 0.37351199E-01 0.12816084E+03</pdfrwt>
<totfact> 0.28187029E+04</totfact>
</mgrwt>
</event>
<event>
 6    4  0.3995738E-003  0.1280799E+03  0.7818608E-02  0.1230333E+00
         21   -1    0    0  501  502  0.00000000000E+00  0.00000000000E+00  0.25928982243E+03  0.25928982243E+03  0.00000000000E+00 0. -1.
         -4   -1    0    0    0  501 -0.00000000000E+00 -0.00000000000E+00 -0.35558804544E+02  0.35581476650E+02  0.12700000000E+01 0. -1.
         25    2    1    2    0    0 -0.98163798367E+01 -0.26118104306E+02  0.23262903735E+03  0.26555740585E+03  0.12500380033E+03 0.  0.
    9000005    1    3    3    0    0 -0.17081208034E+02  0.46016719989E+02  0.13712048309E+03  0.14564454356E+03  0.10000000000E+01 0.  0.
    9000005    1    3    3    0    0  0.72648281969E+01 -0.72134824296E+02  0.95508554259E+02  0.11991286229E+03  0.10000000000E+01 0.  0.
         -4    1    1    2    0  502  0.98163798367E+01  0.26118104306E+02 -0.88980194682E+01  0.29313893227E+02  0.12700000000E+01 0.  1.
<mgrwt>
<rscale>  1 0.12807992E+03</rscale>
<asrwt>0</asrwt>
<pdfrwt beam="1">  1       21 0.39890741E-01 0.12807992E+03</pdfrwt>
<pdfrwt beam="2">  1       -4 0.54725687E-02 0.12807992E+03</pdfrwt>
<totfact> 0.50512729E+04</totfact>
</mgrwt>
</event>
<event>
 6    4  0.3995738E-003  0.1272216E+03  0.7818608E-02  0.1231638E+00
         21   -1    0    0  501  502  0.00000000000E+00  0.00000000000E+00  0.16841471466E+03  0.16841471466E+03  0.00000000000E+00 0.  1.
         -4   -1    0    0    0  501 -0.00000000000E+00 -0.00000000000E+00 -0.10601717617E+03  0.10602478268E+03  0.12700000000E+01 0. -1.
         25    2    1    2    0    0 -0.19224531033E+02  0.13789034263E+02 -0.66381930816E+02  0.14349872953E+03  0.12500241829E+03 0.  0.
    9000005    1    3    3    0    0  0.16463050191E+02 -0.38581653793E+02  0.11092686158E+02  0.43400734063E+02  0.10000000000E+01 0.  0.
    9000005    1    3    3    0    0 -0.35687581224E+02  0.52370688056E+02 -0.77474616974E+02  0.10009799547E+03  0.10000000000E+01 0.  0.
         -4    1    1    2    0  502  0.19224531033E+02 -0.13789034263E+02  0.12877946931E+03  0.13094076781E+03  0.12700000000E+01 0.  1.
<mgrwt>
<rscale>  1 0.12722156E+03</rscale>
<asrwt>0</asrwt>
<pdfrwt beam="1">  1       21 0.25909956E-01 0.12722156E+03</pdfrwt>
<pdfrwt beam="2">  1       -4 0.16311288E-01 0.12722156E+03</pdfrwt>
<totfact> 0.18676886E+04</totfact>
</mgrwt>
</event>
<event>
 6    4  0.3995738E-003  0.1299187E+03  0.7818608E-02  0.1227576E+00
         21   -1    0    0  501  502  0.00000000000E+00  0.00000000000E+00  0.40645217610E+02  0.40645217610E+02  0.00000000000E+00 0. -1.
          4   -1    0    0  502    0 -0.00000000000E+00 -0.00000000000E+00 -0.33750146263E+03  0.33750385209E+03  0.12700000000E+01 0.  1.
         25    2    1    2    0    0 -0.35145380909E+02  0.42888015125E+01 -0.31324113826E+03  0.33911486363E+03  0.12500115366E+03 0.  0.
    9000005    1    3    3    0    0 -0.37367818292E+02  0.60235186623E+02 -0.21030693782E+03  0.22193386322E+03  0.10000000000E+01 0.  0.
    9000005    1    3    3    0    0  0.22224373833E+01 -0.55946385111E+02 -0.10293420044E+03  0.11718100040E+03  0.10000000000E+01 0.  0.
          4    1    1    2  501    0  0.35145380909E+02 -0.42888015125E+01  0.16384893238E+02  0.39034206077E+02  0.12700000000E+01 0. -1.
<mgrwt>
<rscale>  1 0.12991874E+03</rscale>
<asrwt>0</asrwt>
<pdfrwt beam="1">  1       21 0.62531106E-02 0.12991874E+03</pdfrwt>
<pdfrwt beam="2">  1        4 0.51925011E-01 0.12991874E+03</pdfrwt>
<totfact> 0.26633322E+04</totfact>
</mgrwt>
</event>
<event>
 6    4  0.3995738E-003  0.1308019E+03  0.7818608E-02  0.1226271E+00
         21   -1    0    0  501  502  0.00000000000E+00  0.00000000000E+00  0.15682256236E+03  0.15682256236E+03  0.00000000000E+00 0. -1.
          4   -1    0    0  502    0 -0.00000000000E+00 -0.00000000000E+00 -0.47582475611E+02  0.47599421060E+02  0.12700000000E+01 0.  1.
         25    2    1    2    0    0 -0.38438909949E+02  0.19885207168E+01  0.65971078710E+02  0.14649682507E+03  0.12501052963E+03 0.  0.
    9000005    1    3    3    0    0  0.26571524536E+02 -0.22611491583E+02  0.68558484476E+02  0.76932381098E+02  0.10000000000E+01 0.  0.
    9000005    1    3    3    0    0 -0.65010434485E+02  0.24600012300E+02 -0.25874057659E+01  0.69564443976E+02  0.10000000000E+01 0.  0.
          4    1    1    2  501    0  0.38438909949E+02 -0.19885207168E+01  0.43269008040E+02  0.57925158347E+02  0.12700000000E+01 0. -1.
<mgrwt>
<rscale>  1 0.13080190E+03</rscale>
<asrwt>0</asrwt>
<pdfrwt beam="1">  1       21 0.24126548E-01 0.13080190E+03</pdfrwt>
<pdfrwt beam="2">  1        4 0.73220800E-02 0.13080190E+03</pdfrwt>
<totfact> 0.83492656E+04</totfact>
</mgrwt>
</event>
<event>
 6    4  0.3995738E-003  0.1278638E+03  0.7818608E-02  0.1230660E+00
         21   -1    0    0  501  502  0.00000000000E+00  0.00000000000E+00  0.13522767388E+04  0.13522767388E+04  0.00000000000E+00 0.  1.
         -4   -1    0    0    0  501 -0.00000000000E+00 -0.00000000000E+00 -0.44424227286E+01  0.46203917258E+01  0.12700000000E+01 0.  1.
         25    2    1    2    0    0  0.25537885962E+02  0.84398632465E+01  0.10256051764E+04  0.10335449289E+04  0.12500290951E+03 0.  0.
    9000005    1    3    3    0    0  0.10340264348E+02  0.50040433075E+02  0.87672635413E+03  0.87821470384E+03  0.10000000000E+01 0.  0.
    9000005    1    3    3    0    0  0.15197621614E+02 -0.41600569829E+02  0.14887882226E+03  0.15533022510E+03  0.10000000000E+01 0.  0.
         -4    1    1    2    0  502 -0.25537885962E+02 -0.84398632465E+01  0.32222913964E+03  0.32335220155E+03  0.12700000000E+01 0. -1.
<mgrwt>
<rscale>  1 0.12786376E+03</rscale>
<asrwt>0</asrwt>
<pdfrwt beam="1">  1       21 0.20804225E+00 0.12786376E+03</pdfrwt>
<pdfrwt beam="2">  1       -4 0.69718653E-03 0.12786376E+03</pdfrwt>
<totfact> 0.25215159E+04</totfact>
</mgrwt>
</event>
<event>
 6    4  0.3995738E-003  0.1296880E+03  0.7818608E-02  0.1227919E+00
          4   -1    0    0  502    0 -0.00000000000E+00  0.00000000000E+00  0.25728287503E+02  0.25759613309E+02  0.12700000000E+01 0.  1.
         21   -1    0    0  501  502  0.00000000000E+00 -0.00000000000E+00 -0.30073758150E+03  0.30073758150E+03  0.00000000000E+00 0.  1.
         25    2    1    2    0    0 -0.34553986532E+02  0.58086552819E+00 -0.15759448370E+03  0.20409553646E+03  0.12499860527E+03 0.  0.
    9000005    1    3    3    0    0 -0.61770700403E+02  0.42317067021E+02 -0.65980420306E+02  0.99803654509E+02  0.10000000000E+01 0.  0.
    9000005    1    3    3    0    0  0.27216713871E+02 -0.41736201493E+02 -0.91614063391E+02  0.10429188195E+03  0.10000000000E+01 0.  0.
          4    1    1    2  501    0  0.34553986532E+02 -0.58086552819E+00 -0.11741481030E+03  0.12240165835E+03  0.12700000000E+01 0. -1.
<mgrwt>
<rscale>  1 0.12968796E+03</rscale>
<asrwt>0</asrwt>
<pdfrwt beam="2">  1       21 0.46267321E-01 0.12968796E+03</pdfrwt>
<pdfrwt beam="1">  1        4 0.39608140E-02 0.12968796E+03</pdfrwt>
<totfact> 0.62893988E+04</totfact>
</mgrwt>
</event>
<event>
 6    4  0.3995738E-003  0.1355428E+03  0.7818608E-02  0.1219455E+00
         -4   -1    0    0    0  501 -0.00000000000E+00  0.00000000000E+00  0.11921237204E+03  0.11921913667E+03  0.12700000000E+01 0.  1.
         21   -1    0    0  501  502  0.00000000000E+00 -0.00000000000E+00 -0.74404742410E+02  0.74404742410E+02  0.00000000000E+00 0. -1.
         25    2    1    2    0    0 -0.52298665738E+02  0.26636086994E+01  0.38227433868E+02  0.14083034609E+03  0.12501841636E+03 0.  0.
    9000005    1    3    3    0    0 -0.33796607602E+02 -0.16413852372E+02  0.81664569340E+02  0.89898426685E+02  0.10000000000E+01 0.  0.
    9000005    1    3    3    0    0 -0.18502058136E+02  0.19077461071E+02 -0.43437135471E+02  0.50931919404E+02  0.10000000000E+01 0.  0.
         -4    1    1    2    0  502  0.52298665738E+02 -0.26636086994E+01  0.65801957638E+01  0.52793532990E+02  0.12700000000E+01 0. -1.
<mgrwt>
<rscale>  1 0.13554280E+03</rscale>
<asrwt>0</asrwt>
<pdfrwt beam="2">  1       21 0.11446884E-01 0.13554280E+03</pdfrwt>
<pdfrwt beam="1">  1       -4 0.18341719E-01 0.13554280E+03</pdfrwt>
<totfact> 0.67995165E+04</totfact>
</mgrwt>
</event>
<event>
 6    4  0.3995738E-003  0.1269388E+03  0.7818608E-02  0.1232070E+00
         21   -1    0    0  501  502  0.00000000000E+00  0.00000000000E+00  0.20889269504E+03  0.20889269504E+03  0.00000000000E+00 0. -1.
          4   -1    0    0  502    0 -0.00000000000E+00 -0.00000000000E+00 -0.60562974188E+02  0.60576288616E+02  0.12700000000E+01 0.  1.
         25    2    1    2    0    0 -0.19118064734E+02  0.11108065711E+02  0.77712885343E+01  0.12717641421E+03  0.12499823152E+03 0.  0.
    9000005    1    3    3    0    0  0.38868150367E+02 -0.32816051660E+02  0.17442234936E+02  0.53785294636E+02  0.10000000000E+01 0.  0.
    9000005    1    3    3    0    0 -0.57986215101E+02  0.43924117371E+02 -0.96709464017E+01  0.73391119577E+02  0.10000000000E+01 0.  0.
          4    1    1    2  501    0  0.19118064734E+02 -0.11108065711E+02  0.14055843232E+03  0.14229256945E+03  0.12700000000E+01 0. -1.
<mgrwt>
<rscale>  1 0.12693875E+03</rscale>
<asrwt>0</asrwt>
<pdfrwt beam="1">  1       21 0.32137337E-01 0.12693875E+03</pdfrwt>
<pdfrwt beam="2">  1        4 0.93187019E-02 0.12693875E+03</pdfrwt>
<totfact> 0.32226869E+04</totfact>
</mgrwt>
</event>
<event>
 6    4  0.3995738E-003  0.1277487E+03  0.7818608E-02  0.1230835E+00
         -4   -1    0    0    0  501 -0.00000000000E+00  0.00000000000E+00  0.20488501216E+03  0.20488894824E+03  0.12700000000E+01 0. -1.
         21   -1    0    0  501  502  0.00000000000E+00 -0.00000000000E+00 -0.53854955572E+02  0.53854955572E+02  0.00000000000E+00 0.  1.
         25    2    1    2    0    0  0.84591355681E+01  0.24983503722E+02  0.17923776794E+03  0.22010428280E+03  0.12499594160E+03 0.  0.
    9000005    1    3    3    0    0 -0.54988594830E+01 -0.33975894630E+02  0.14795467557E+03  0.15190847539E+03  0.10000000000E+01 0.  0.
    9000005    1    3    3    0    0  0.13957995051E+02  0.58959398352E+02  0.31283092363E+02  0.68195807405E+02  0.10000000000E+01 0.  0.
         -4    1    1    2    0  502 -0.84591355681E+01 -0.24983503722E+02 -0.28207711343E+02  0.38639621013E+02  0.12700000000E+01 0.  1.
<mgrwt>
<rscale>  1 0.12774865E+03</rscale>
<asrwt>0</asrwt>
<pdfrwt beam="2">  1       21 0.82853779E-02 0.12774865E+03</pdfrwt>
<pdfrwt beam="1">  1       -4 0.31522225E-01 0.12774865E+03</pdfrwt>
<totfact> 0.43877721E+04</totfact>
</mgrwt>
</event>
<event>
 6    4  0.3995738E-003  0.1270058E+03  0.7818608E-02  0.1231968E+00
          4   -1    0    0  502    0 -0.00000000000E+00  0.00000000000E+00  0.36566048856E+03  0.36566269402E+03  0.12700000000E+01 0.  1.
         21   -1    0    0  501  502  0.00000000000E+00 -0.00000000000E+00 -0.34620975828E+03  0.34620975828E+03  0.00000000000E+00 0. -1.
         25    2    1    2    0    0 -0.22432842238E+02  0.77573997723E+00  0.35424493011E+03  0.37632423919E+03  0.12500651309E+03 0.  0.
    9000005    1    3    3    0    0  0.19718573262E+02 -0.45937780465E+01  0.75206897925E+00  0.20285229503E+02  0.10000000000E+01 0.  0.
    9000005    1    3    3    0    0 -0.42151415500E+02  0.53695180237E+01  0.35349286113E+03  0.35603900969E+03  0.10000000000E+01 0.  0.
          4    1    1    2  501    0  0.22432842238E+02 -0.77573997723E+00 -0.33479419982E+03  0.33554821311E+03  0.12700000000E+01 0. -1.
<mgrwt>
<rscale>  1 0.12700576E+03</rscale>
<asrwt>0</asrwt>
<pdfrwt beam="2">  1       21 0.53263040E-01 0.12700576E+03</pdfrwt>
<pdfrwt beam="1">  1        4 0.56255808E-01 0.12700576E+03</pdfrwt>
<totfact> 0.42673654E+02</totfact>
</mgrwt>
</event>
<event>
 6    4  0.3995738E-003  0.1350744E+03  0.7818608E-02  0.1220115E+00
         21   -1    0    0  501  502  0.00000000000E+00  0.00000000000E+00  0.41399173151E+03  0.41399173151E+03  0.00000000000E+00 0.  1.
          4   -1    0    0  502    0 -0.00000000000E+00 -0.00000000000E+00 -0.24879102216E+02  0.24911495882E+02  0.12700000000E+01 0. -1.
         25    2    1    2    0    0 -0.33566790567E+02  0.38644317590E+02  0.18875703599E+03  0.23210842722E+03  0.12499996256E+03 0.  0.
    9000005    1    3    3    0    0 -0.65026450450E+02  0.42866789314E+01  0.16966572653E+03  0.18175333183E+03  0.10000000000E+01 0.  0.
    9000005    1    3    3    0    0  0.31459659884E+02  0.34357638658E+02  0.19091309461E+02  0.50355095384E+02  0.10000000000E+01 0.  0.
          4    1    1    2  501    0  0.33566790567E+02 -0.38644317590E+02  0.20035559330E+03  0.20679480017E+03  0.12700000000E+01 0.  1.
<mgrwt>
<rscale>  1 0.13507444E+03</rscale>
<asrwt>0</asrwt>
<pdfrwt beam="1">  1       21 0.63691031E-01 0.13507444E+03</pdfrwt>
<pdfrwt beam="2">  1        4 0.38301961E-02 0.13507444E+03</pdfrwt>
<totfact> 0.34135374E+04</totfact>
</mgrwt>
</event>
<event>
 6    4  0.3995738E-003  0.1278373E+03  0.7818608E-02  0.1230701E+00
         -4   -1    0    0    0  501 -0.00000000000E+00  0.00000000000E+00  0.61771499750E+02  0.61784553744E+02  0.12700000000E+01 0.  1.
         21   -1    0    0  501  502  0.00000000000E+00 -0.00000000000E+00 -0.18602942908E+03  0.18602942908E+03  0.00000000000E+00 0. -1.
         25    2    1    2    0    0 -0.17916723482E+02  0.19907038359E+02 -0.75438234370E+01  0.12805967363E+03  0.12500028632E+03 0.  0.
    9000005    1    3    3    0    0 -0.49772393235E+02  0.58768748540E+02 -0.10401371844E+02  0.77719016138E+02  0.10000000000E+01 0.  0.
    9000005    1    3    3    0    0  0.31855669753E+02 -0.38861710181E+02  0.28575484071E+01  0.50340657490E+02  0.10000000000E+01 0.  0.
         -4    1    1    2    0  502  0.17916723482E+02 -0.19907038359E+02 -0.11671410590E+03  0.11975430920E+03  0.12700000000E+01 0. -1.
<mgrwt>
<rscale>  1 0.12783728E+03</rscale>
<asrwt>0</asrwt>
<pdfrwt beam="2">  1       21 0.28619912E-01 0.12783728E+03</pdfrwt>
<pdfrwt beam="1">  1       -4 0.95046454E-02 0.12783728E+03</pdfrwt>
<totfact> 0.39028524E+04</totfact>
</mgrwt>
</event>
<event>
 6    4  0.3995738E-003  0.1275799E+03  0.7818608E-02  0.1231092E+00
          4   -1    0    0  502    0 -0.00000000000E+00  0.00000000000E+00  0.41182796575E+02  0.41202374128E+02  0.12700000000E+01 0. -1.
         21   -1    0    0  501  502  0.00000000000E+00 -0.00000000000E+00 -0.16879165504E+03  0.16879165504E+03  0.00000000000E+00 0. -1.
         25    2    1    2    0    0 -0.25217116895E+02 -0.39262359587E+01 -0.13254446373E+03  0.18396920616E+03  0.12500126253E+03 0.  0.
    9000005    1    3    3    0    0 -0.51544025503E+02 -0.74664491070E+01 -0.14539385102E+03  0.15444386145E+03  0.10000000000E+01 0.  0.
    9000005    1    3    3    0    0  0.26326908609E+02  0.35402131483E+01  0.12849387287E+02  0.29525344700E+02  0.10000000000E+01 0.  0.
          4    1    1    2  501    0  0.25217116895E+02  0.39262359587E+01  0.49356052690E+01  0.26024823009E+02  0.12700000000E+01 0.  1.
<mgrwt>
<rscale>  1 0.12757991E+03</rscale>
<asrwt>0</asrwt>
<pdfrwt beam="2">  1       21 0.25967947E-01 0.12757991E+03</pdfrwt>
<pdfrwt beam="1">  1        4 0.63376884E-02 0.12757991E+03</pdfrwt>
<totfact> 0.91726269E+04</totfact>
</mgrwt>
</event>
<event>
 6    4  0.3995738E-003  0.1281709E+03  0.7818608E-02  0.1230195E+00
         21   -1    0    0  501  502  0.00000000000E+00  0.00000000000E+00  0.42352350306E+03  0.42352350306E+03  0.00000000000E+00 0. -1.
          4   -1    0    0  502    0 -0.00000000000E+00 -0.00000000000E+00 -0.34008155615E+02  0.34031860782E+02  0.12700000000E+01 0.  1.
         25    2    1    2    0    0 -0.28181809907E+02  0.28812611977E+01  0.89793132428E+02  0.15649468034E+03  0.12500104907E+03 0.  0.
    9000005    1    3    3    0    0 -0.19300512963E+02 -0.42443279127E+02  0.98958367674E+02  0.10939698477E+03  0.10000000000E+01 0.  0.
    9000005    1    3    3    0    0 -0.88812969438E+01  0.45324540325E+02 -0.91652352465E+01  0.47097695572E+02  0.10000000000E+01 0.  0.
          4    1    1    2  501    0  0.28181809907E+02 -0.28812611977E+01  0.29972221501E+03  0.30106068350E+03  0.12700000000E+01 0. -1.
<mgrwt>
<rscale>  1 0.12817090E+03</rscale>
<asrwt>0</asrwt>
<pdfrwt beam="1">  1       21 0.65157458E-01 0.12817090E+03</pdfrwt>
<pdfrwt beam="2">  1        4 0.52339942E-02 0.12817090E+03</pdfrwt>
<totfact> 0.19647163E+04</totfact>
</mgrwt>
</event>
<event>
 6    4  0.3995738E-003  0.1295857E+03  0.7818608E-02  0.1228072E+00
          4   -1    0    0  502    0 -0.00000000000E+00  0.00000000000E+00  0.25669853242E+03  0.25670167403E+03  0.12700000000E+01 0.  1.
         21   -1    0    0  501  502  0.00000000000E+00 -0.00000000000E+00 -0.30066339046E+02  0.30066339046E+02  0.00000000000E+00 0.  1.
         25    2    1    2    0    0  0.30102293161E+02  0.16253446898E+02  0.12709837575E+03  0.18151158172E+03  0.12498853784E+03 0.  0.
    9000005    1    3    3    0    0 -0.36947672964E+02  0.43115343909E+02  0.47648867295E+02  0.74131491097E+02  0.10000000000E+01 0.  0.
    9000005    1    3    3    0    0  0.67049966125E+02 -0.26861897011E+02  0.79449508451E+02  0.10738009062E+03  0.10000000000E+01 0.  0.
          4    1    1    2  501    0 -0.30102293161E+02 -0.16253446898E+02  0.99533817631E+02  0.10525643136E+03  0.12700000000E+01 0. -1.
<mgrwt>
<rscale>  1 0.12958571E+03</rscale>
<asrwt>0</asrwt>
<pdfrwt beam="2">  1       21 0.46255908E-02 0.12958571E+03</pdfrwt>
<pdfrwt beam="1">  1        4 0.39494385E-01 0.12958571E+03</pdfrwt>
<totfact> 0.76594080E+04</totfact>
</mgrwt>
</event>
<event>
 6    4  0.3995738E-003  0.1382922E+03  0.7818608E-02  0.1215646E+00
         21   -1    0    0  501  502  0.00000000000E+00  0.00000000000E+00  0.18096614442E+03  0.18096614442E+03  0.00000000000E+00 0. -1.
         -4   -1    0    0    0  501 -0.00000000000E+00 -0.00000000000E+00 -0.54362975688E+02  0.54377808209E+02  0.12700000000E+01 0. -1.
         25    2    1    2    0    0 -0.11437780320E+02 -0.58041074469E+02  0.98845678706E+02  0.16998585981E+03  0.12500054077E+03 0.  0.
    9000005    1    3    3    0    0 -0.42204433483E+02 -0.66808847428E+02  0.15270254929E+02  0.80491098799E+02  0.10000000000E+01 0.  0.
    9000005    1    3    3    0    0  0.30766653163E+02  0.87677729593E+01  0.83575423777E+02  0.89494761014E+02  0.10000000000E+01 0.  0.
         -4    1    1    2    0  502  0.11437780320E+02  0.58041074469E+02  0.27757490030E+02  0.65358092819E+02  0.12700000000E+01 0.  1.
<mgrwt>
<rscale>  1 0.13829217E+03</rscale>
<asrwt>0</asrwt>
<pdfrwt beam="1">  1       21 0.27840945E-01 0.13829217E+03</pdfrwt>
<pdfrwt beam="2">  1       -4 0.83650186E-02 0.13829217E+03</pdfrwt>
<totfact> 0.51377580E+04</totfact>
</mgrwt>
</event>
<event>
 6    4  0.3995738E-003  0.1275560E+03  0.7818608E-02  0.1231128E+00
         21   -1    0    0  501  502  0.00000000000E+00  0.00000000000E+00  0.83870540291E+03  0.83870540291E+03  0.00000000000E+00 0.  1.
          4   -1    0    0  502    0 -0.00000000000E+00 -0.00000000000E+00 -0.16150486258E+02  0.16200342785E+02  0.12700000000E+01 0.  1.
         25    2    1    2    0    0  0.24909949082E+02  0.50157744529E+01  0.23996387946E+03  0.27175945781E+03  0.12499950363E+03 0.  0.
    9000005    1    3    3    0    0 -0.50815449826E+02  0.60795749229E+01  0.83776920934E+02  0.98177103509E+02  0.10000000000E+01 0.  0.
    9000005    1    3    3    0    0  0.75725398909E+02 -0.10638004700E+01  0.15618695853E+03  0.17358235430E+03  0.10000000000E+01 0.  0.
          4    1    1    2  501    0 -0.24909949082E+02 -0.50157744529E+01  0.58259103719E+03  0.58314628788E+03  0.12700000000E+01 0. -1.
<mgrwt>
<rscale>  1 0.12755602E+03</rscale>
<asrwt>0</asrwt>
<pdfrwt beam="1">  1       21 0.12903157E+00 0.12755602E+03</pdfrwt>
<pdfrwt beam="2">  1        4 0.24885999E-02 0.12755602E+03</pdfrwt>
<totfact> 0.13170461E+04</totfact>
</mgrwt>
</event>
<event>
 6    4  0.3995738E-003  0.1296421E+03  0.7818608E-02  0.1227988E+00
          4   -1    0    0  502    0 -0.00000000000E+00  0.00000000000E+00  0.73319628654E+02  0.73330626930E+02  0.12700000000E+01 0.  1.
         21   -1    0    0  501  502  0.00000000000E+00 -0.00000000000E+00 -0.93945987856E+02  0.93945987856E+02  0.00000000000E+00 0. -1.
         25    2    1    2    0    0 -0.16725948625E+02  0.30006993383E+02 -0.56115290310E+01  0.12976348329E+03  0.12500758109E+03 0.  0.
    9000005    1    3    3    0    0 -0.60393687898E+02  0.47201253178E+02  0.15638071111E+02  0.78236213530E+02  0.10000000000E+01 0.  0.
    9000005    1    3    3    0    0  0.43667739272E+02 -0.17194259795E+02 -0.21249600142E+02  0.51527269763E+02  0.10000000000E+01 0.  0.
          4    1    1    2  501    0  0.16725948625E+02 -0.30006993383E+02 -0.15014830171E+02  0.37513131492E+02  0.12700000000E+01 0. -1.
<mgrwt>
<rscale>  1 0.12964209E+03</rscale>
<asrwt>0</asrwt>
<pdfrwt beam="2">  1       21 0.14453229E-01 0.12964209E+03</pdfrwt>
<pdfrwt beam="1">  1        4 0.11281449E-01 0.12964209E+03</pdfrwt>
<totfact> 0.10386190E+05</totfact>
</mgrwt>
</event>
<event>
 6    4  0.3995738E-003  0.1295339E+03  0.7818608E-02  0.1228149E+00
          4   -1    0    0  502    0 -0.00000000000E+00  0.00000000000E+00  0.40391508852E+01  0.42341043768E+01  0.12700000000E+01 0.  1.
         21   -1    0    0  501  502  0.00000000000E+00 -0.00000000000E+00 -0.20003846282E+04  0.20003846282E+04  0.00000000000E+00 0.  1.
         25    2    1    2    0    0  0.26862961464E+02 -0.20791567268E+02 -0.10954114772E+04  0.11030436700E+04  0.12500050245E+03 0.  0.
    9000005    1    3    3    0    0  0.20218191558E+02 -0.68828105334E+02 -0.84065683502E+03  0.84371262739E+03  0.10000000000E+01 0.  0.
    9000005    1    3    3    0    0  0.66447699057E+01  0.48036538066E+02 -0.25475464216E+03  0.25933104260E+03  0.10000000000E+01 0.  0.
          4    1    1    2  501    0 -0.26862961464E+02  0.20791567268E+02 -0.90093400018E+03  0.90157506263E+03  0.12700000000E+01 0. -1.
<mgrwt>
<rscale>  1 0.12953391E+03</rscale>
<asrwt>0</asrwt>
<pdfrwt beam="2">  1       21 0.30775075E+00 0.12953391E+03</pdfrwt>
<pdfrwt beam="1">  1        4 0.63643678E-03 0.12953391E+03</pdfrwt>
<totfact> 0.76946551E+03</totfact>
</mgrwt>
</event>
<event>
 6    4  0.3995738E-003  0.1314079E+03  0.7818608E-02  0.1225381E+00
         -4   -1    0    0    0  501 -0.00000000000E+00  0.00000000000E+00  0.78759302643E+02  0.78769541403E+02  0.12700000000E+01 0. -1.
         21   -1    0    0  501  502  0.00000000000E+00 -0.00000000000E+00 -0.10302843251E+03  0.10302843251E+03  0.00000000000E+00 0. -1.
         25    2    1    2    0    0 -0.37730196602E+02  0.14804664633E+02  0.54531677514E+01  0.13152100397E+03  0.12500116646E+03 0.  0.
    9000005    1    3    3    0    0 -0.43243873123E+02 -0.99591085837E+01  0.58074299500E+02  0.73094737628E+02  0.10000000000E+01 0.  0.
    9000005    1    3    3    0    0  0.55136765212E+01  0.24763773217E+02 -0.52621131749E+02  0.58426266347E+02  0.10000000000E+01 0.  0.
         -4    1    1    2    0  502  0.37730196602E+02 -0.14804664633E+02 -0.29722297620E+02  0.50276969940E+02  0.12700000000E+01 0.  1.
<mgrwt>
<rscale>  1 0.13140790E+03</rscale>
<asrwt>0</asrwt>
<pdfrwt beam="2">  1       21 0.15850528E-01 0.13140790E+03</pdfrwt>
<pdfrwt beam="1">  1       -4 0.12118206E-01 0.13140790E+03</pdfrwt>
<totfact> 0.77973517E+04</totfact>
</mgrwt>
</event>
<event>
 6    4  0.3995738E-003  0.1410111E+03  0.7818608E-02  0.1211975E+00
         21   -1    0    0  501  502  0.00000000000E+00  0.00000000000E+00  0.95069525552E+01  0.95069525552E+01  0.00000000000E+00 0. -1.
         -4   -1    0    0    0  501 -0.00000000000E+00 -0.00000000000E+00 -0.16557079760E+04  0.16557084631E+04  0.12700000000E+01 0.  1.
         25    2    1    2    0    0  0.27686630513E+02 -0.59043929579E+02 -0.14795547705E+04  0.14862592153E+04  0.12502560101E+03 0.  0.
    9000005    1    3    3    0    0 -0.43113902852E+02 -0.53479252960E+02 -0.82773905007E+03  0.83058519980E+03  0.10000000000E+01 0.  0.
    9000005    1    3    3    0    0  0.70800533365E+02 -0.55646766196E+01 -0.65181572043E+03  0.65567401546E+03  0.10000000000E+01 0.  0.
         -4    1    1    2    0  502 -0.27686630513E+02  0.59043929579E+02 -0.16664625295E+03  0.17895620037E+03  0.12700000000E+01 0. -1.
<mgrwt>
<rscale>  1 0.14101112E+03</rscale>
<asrwt>0</asrwt>
<pdfrwt beam="1">  1       21 0.14626101E-02 0.14101112E+03</pdfrwt>
<pdfrwt beam="2">  1       -4 0.25473051E+00 0.14101112E+03</pdfrwt>
<totfact> 0.57771154E+03</totfact>
</mgrwt>
</event>
<event>
 6    4  0.3995738E-003  0.1288559E+03  0.7818608E-02  0.1229163E+00
         21   -1    0    0  501  502  0.00000000000E+00  0.00000000000E+00  0.14137197346E+03  0.14137197346E+03  0.00000000000E+00 0.  1.
          4   -1    0    0  502    0 -0.00000000000E+00 -0.00000000000E+00 -0.45521327464E+02  0.45539039889E+02  0.12700000000E+01 0.  1.
         25    2    1    2    0    0 -0.26760674640E+02  0.16225704195E+02  0.72576215216E+02  0.14788897839E+03  0.12499774291E+03 0.  0.
    9000005    1    3    3    0    0 -0.61675894512E+01 -0.23632706332E+01  0.10499582402E+03  0.10520811409E+03  0.10000000000E+01 0.  0.
    9000005    1    3    3    0    0 -0.20593085189E+02  0.18588974828E+02 -0.32419608807E+02  0.42680864306E+02  0.10000000000E+01 0.  0.
          4    1    1    2  501    0  0.26760674640E+02 -0.16225704195E+02  0.23274430779E+02  0.39022034953E+02  0.12700000000E+01 0. -1.
<mgrwt>
<rscale>  1 0.12885590E+03</rscale>
<asrwt>0</asrwt>
<pdfrwt beam="1">  1       21 0.21749534E-01 0.12885590E+03</pdfrwt>
<pdfrwt beam="2">  1        4 0.70050825E-02 0.12885590E+03</pdfrwt>
<totfact> 0.10882745E+05</totfact>
</mgrwt>
</event>
<event>
 6    4  0.3995738E-003  0.1339997E+03  0.7818608E-02  0.1221639E+00
         -4   -1    0    0    0  501 -0.00000000000E+00  0.00000000000E+00  0.73818928309E+03  0.73819037556E+03  0.12700000000E+01 0.  1.
         21   -1    0    0  501  502  0.00000000000E+00 -0.00000000000E+00 -0.13064247613E+02  0.13064247613E+02  0.00000000000E+00 0.  1.
         25    2    1    2    0    0  0.41629229241E+02  0.24454187673E+02  0.63520291922E+03  0.64918308005E+03  0.12499969130E+03 0.  0.
    9000005    1    3    3    0    0 -0.42767478985E+02  0.20506741006E+02  0.17658410092E+03  0.18284564086E+03  0.10000000000E+01 0.  0.
    9000005    1    3    3    0    0  0.84396708225E+02  0.39474466670E+01  0.45861881830E+03  0.46633743919E+03  0.10000000000E+01 0.  0.
         -4    1    1    2    0  502 -0.41629229241E+02 -0.24454187673E+02  0.89922116267E+02  0.10207154312E+03  0.12700000000E+01 0. -1.
<mgrwt>
<rscale>  1 0.13399971E+03</rscale>
<asrwt>0</asrwt>
<pdfrwt beam="2">  1       21 0.20098848E-02 0.13399971E+03</pdfrwt>
<pdfrwt beam="1">  1       -4 0.11357238E+00 0.13399971E+03</pdfrwt>
<totfact> 0.31279537E+04</totfact>
</mgrwt>
</event>
<event>
 6    4  0.3995738E-003  0.1316313E+03  0.7818608E-02  0.1225055E+00
          4   -1    0    0  502    0 -0.00000000000E+00  0.00000000000E+00  0.80415528262E+02  0.80425556173E+02  0.12700000000E+01 0.  1.
         21   -1    0    0  501  502  0.00000000000E+00 -0.00000000000E+00 -0.29443402615E+03  0.29443402615E+03  0.00000000000E+00 0. -1.
         25    2    1    2    0    0  0.16842476714E+02  0.37683040928E+02  0.23556365819E+02  0.13372246498E+03  0.12499245847E+03 0.  0.
    9000005    1    3    3    0    0 -0.49682754739E+02 -0.36674491642E+01 -0.55894411357E+01  0.50140484182E+02  0.10000000000E+01 0.  0.
    9000005    1    3    3    0    0  0.66525231453E+02  0.41350490092E+02  0.29145806955E+02  0.83581980796E+02  0.10000000000E+01 0.  0.
          4    1    1    2  501    0 -0.16842476714E+02 -0.37683040928E+02 -0.23757486371E+03  0.24113711735E+03  0.12700000000E+01 0. -1.
<mgrwt>
<rscale>  1 0.13163129E+03</rscale>
<asrwt>0</asrwt>
<pdfrwt beam="2">  1       21 0.45297542E-01 0.13163129E+03</pdfrwt>
<pdfrwt beam="1">  1        4 0.12372602E-01 0.13163129E+03</pdfrwt>
<totfact> 0.10116048E+04</totfact>
</mgrwt>
</event>
<event>
 6    4  0.3995738E-003  0.1278845E+03  0.7818608E-02  0.1230629E+00
         21   -1    0    0  501  502  0.00000000000E+00  0.00000000000E+00  0.15797420857E+02  0.15797420857E+02  0.00000000000E+00 0.  1.
         -4   -1    0    0    0  501 -0.00000000000E+00 -0.00000000000E+00 -0.49775708277E+03  0.49775870293E+03  0.12700000000E+01 0.  1.
         25    2    1    2    0    0  0.25627116485E+02 -0.85246799963E+01 -0.46349778973E+03  0.48081665384E+03  0.12500013701E+03 0.  0.
    9000005    1    3    3    0    0  0.10388168497E+02 -0.66611587289E+02 -0.26400574660E+03  0.27247945215E+03  0.10000000000E+01 0.  0.
    9000005    1    3    3    0    0  0.15238947988E+02  0.58086907293E+02 -0.19949204313E+03  0.20833720169E+03  0.10000000000E+01 0.  0.
         -4    1    1    2    0  502 -0.25627116485E+02  0.85246799963E+01 -0.18461872180E+02  0.32739469952E+02  0.12700000000E+01 0. -1.
<mgrwt>
<rscale>  1 0.12788453E+03</rscale>
<asrwt>0</asrwt>
<pdfrwt beam="1">  1       21 0.24303724E-02 0.12788453E+03</pdfrwt>
<pdfrwt beam="2">  1       -4 0.76582066E-01 0.12788453E+03</pdfrwt>
<totfact> 0.56076261E+04</totfact>
</mgrwt>
</event>
<event>
 6    4  0.3995738E-003  0.1537001E+03  0.7818608E-02  0.1195999E+00
         -4   -1    0    0    0  501 -0.00000000000E+00  0.00000000000E+00  0.75749382455E+02  0.75760027998E+02  0.12700000000E+01 0.  1.
         21   -1    0    0  501  502  0.00000000000E+00 -0.00000000000E+00 -0.56246917289E+03  0.56246917289E+03  0.00000000000E+00 0. -1.
         25    2    1    2    0    0 -0.89204246749E+02 -0.65422382910E+01 -0.10913300005E+02  0.15408704433E+03  0.12499407423E+03 0.  0.
    9000005    1    3    3    0    0 -0.96002895653E+02 -0.17192363812E+02  0.37157459789E+02  0.10437341695E+03  0.10000000000E+01 0.  0.
    9000005    1    3    3    0    0  0.67986489044E+01  0.10650125521E+02 -0.48070759793E+02  0.49713627384E+02  0.10000000000E+01 0.  0.
         -4    1    1    2    0  502  0.89204246749E+02  0.65422382910E+01 -0.47580649043E+03  0.48414215655E+03  0.12700000000E+01 0. -1.
<mgrwt>
<rscale>  1 0.15370009E+03</rscale>
<asrwt>0</asrwt>
<pdfrwt beam="2">  1       21 0.86533717E-01 0.15370009E+03</pdfrwt>
<pdfrwt beam="1">  1       -4 0.11654681E-01 0.15370009E+03</pdfrwt>
<totfact> 0.28122816E+03</totfact>
</mgrwt>
</event>
<event>
 6    4  0.3995738E-003  0.1304272E+03  0.7818608E-02  0.1226823E+00
         -4   -1    0    0    0  501 -0.00000000000E+00  0.00000000000E+00  0.31553210301E+03  0.31553465884E+03  0.12700000000E+01 0. -1.
         21   -1    0    0  501  502  0.00000000000E+00 -0.00000000000E+00 -0.23457216271E+02  0.23457216271E+02  0.00000000000E+00 0. -1.
         25    2    1    2    0    0  0.23549592929E+02  0.28831922005E+02  0.19110762811E+03  0.23137280956E+03  0.12500155372E+03 0.  0.
    9000005    1    3    3    0    0 -0.29693502689E+02  0.25908167940E+02  0.16917399443E+03  0.17370600928E+03  0.10000000000E+01 0.  0.
    9000005    1    3    3    0    0  0.53243095619E+02  0.29237540645E+01  0.21933633675E+02  0.57666800285E+02  0.10000000000E+01 0.  0.
         -4    1    1    2    0  502 -0.23549592929E+02 -0.28831922005E+02  0.10096725863E+03  0.10761906555E+03  0.12700000000E+01 0.  1.
<mgrwt>
<rscale>  1 0.13042719E+03</rscale>
<asrwt>0</asrwt>
<pdfrwt beam="2">  1       21 0.36088027E-02 0.13042719E+03</pdfrwt>
<pdfrwt beam="1">  1       -4 0.48546238E-01 0.13042719E+03</pdfrwt>
<totfact> 0.76781732E+04</totfact>
</mgrwt>
</event>
<event>
 6    4  0.3995738E-003  0.1274073E+03  0.7818608E-02  0.1231354E+00
          4   -1    0    0  502    0 -0.00000000000E+00  0.00000000000E+00  0.32182188025E+02  0.32207237169E+02  0.12700000000E+01 0.  1.
         21   -1    0    0  501  502  0.00000000000E+00 -0.00000000000E+00 -0.52510074681E+03  0.52510074681E+03  0.00000000000E+00 0. -1.
         25    2    1    2    0    0 -0.24642757993E+02 -0.22177939139E+00 -0.95755868913E+02  0.15937943532E+03  0.12500121306E+03 0.  0.
    9000005    1    3    3    0    0 -0.69528289151E+02  0.18214043923E+02 -0.81764448822E+02  0.10886854219E+03  0.10000000000E+01 0.  0.
    9000005    1    3    3    0    0  0.44885531158E+02 -0.18435823315E+02 -0.13991420090E+02  0.50510893130E+02  0.10000000000E+01 0.  0.
          4    1    1    2  501    0  0.24642757993E+02  0.22177939139E+00 -0.39716268987E+03  0.39792854865E+03  0.12700000000E+01 0. -1.
<mgrwt>
<rscale>  1 0.12740729E+03</rscale>
<asrwt>0</asrwt>
<pdfrwt beam="2">  1       21 0.80784720E-01 0.12740729E+03</pdfrwt>
<pdfrwt beam="1">  1        4 0.49531515E-02 0.12740729E+03</pdfrwt>
<totfact> 0.13388416E+04</totfact>
</mgrwt>
</event>
<event>
 6    4  0.3995738E-003  0.1566622E+03  0.7818608E-02  0.1192517E+00
         21   -1    0    0  501  502  0.00000000000E+00  0.00000000000E+00  0.44568651776E+03  0.44568651776E+03  0.00000000000E+00 0. -1.
          4   -1    0    0  502    0 -0.00000000000E+00 -0.00000000000E+00 -0.51626827459E+02  0.51642445851E+02  0.12700000000E+01 0.  1.
         25    2    1    2    0    0  0.55744327850E+02 -0.76234006835E+02  0.93872270811E+02  0.18263362903E+03  0.12499594130E+03 0.  0.
    9000005    1    3    3    0    0  0.33806775609E+02 -0.56615981152E+02  0.12403662994E+03  0.14047901254E+03  0.10000000000E+01 0.  0.
    9000005    1    3    3    0    0  0.21937552241E+02 -0.19618025682E+02 -0.30164359125E+02  0.42154616490E+02  0.10000000000E+01 0.  0.
          4    1    1    2  501    0 -0.55744327850E+02  0.76234006835E+02  0.30018741949E+03  0.31469533458E+03  0.12700000000E+01 0. -1.
<mgrwt>
<rscale>  1 0.15666218E+03</rscale>
<asrwt>0</asrwt>
<pdfrwt beam="1">  1       21 0.68567154E-01 0.15666218E+03</pdfrwt>
<pdfrwt beam="2">  1        4 0.79439297E-02 0.15666218E+03</pdfrwt>
<totfact> 0.90243544E+03</totfact>
</mgrwt>
</event>
<event>
 6    4  0.3995738E-003  0.1296337E+03  0.7818608E-02  0.1228000E+00
         21   -1    0    0  501  502  0.00000000000E+00  0.00000000000E+00  0.82557233693E+02  0.82557233693E+02  0.00000000000E+00 0.  1.
         -4   -1    0    0    0  501 -0.00000000000E+00 -0.00000000000E+00 -0.11642873445E+04  0.11642880372E+04  0.12700000000E+01 0. -1.
         25    2    1    2    0    0 -0.33048962336E+02 -0.88511264036E+01 -0.11569553493E+04  0.11641952512E+04  0.12503730002E+03 0.  0.
    9000005    1    3    3    0    0 -0.19765589667E+02  0.24353637243E+02 -0.10659218301E+04  0.10663836674E+04  0.10000000000E+01 0.  0.
    9000005    1    3    3    0    0 -0.13283372669E+02 -0.33204763646E+02 -0.91033519128E+02  0.97811583788E+02  0.10000000000E+01 0.  0.
         -4    1    1    2    0  502  0.33048962336E+02  0.88511264036E+01  0.75225238442E+02  0.82650019654E+02  0.12700000000E+01 0.  1.
<mgrwt>
<rscale>  1 0.12963373E+03</rscale>
<asrwt>0</asrwt>
<pdfrwt beam="1">  1       21 0.12701114E-01 0.12963373E+03</pdfrwt>
<pdfrwt beam="2">  1       -4 0.17912192E+00 0.12963373E+03</pdfrwt>
<totfact> 0.44194731E+02</totfact>
</mgrwt>
</event>
<event>
 6    4  0.3995738E-003  0.1276848E+03  0.7818608E-02  0.1230932E+00
         21   -1    0    0  501  502  0.00000000000E+00  0.00000000000E+00  0.50455998889E+02  0.50455998889E+02  0.00000000000E+00 0.  1.
         -4   -1    0    0    0  501 -0.00000000000E+00 -0.00000000000E+00 -0.21485130954E+03  0.21485506303E+03  0.12700000000E+01 0. -1.
         25    2    1    2    0    0 -0.66519713614E+01  0.25184423197E+02 -0.18989911546E+03  0.22883420823E+03  0.12499966765E+03 0.  0.
    9000005    1    3    3    0    0  0.33785753459E+02  0.31823944805E+02 -0.18103842990E+03  0.18689610403E+03  0.10000000000E+01 0.  0.
    9000005    1    3    3    0    0 -0.40437724820E+02 -0.66395216088E+01 -0.88606855536E+01  0.41938104205E+02  0.10000000000E+01 0.  0.
         -4    1    1    2    0  502  0.66519713614E+01 -0.25184423197E+02  0.25503804811E+02  0.36476853683E+02  0.12700000000E+01 0.  1.
<mgrwt>
<rscale>  1 0.12768485E+03</rscale>
<asrwt>0</asrwt>
<pdfrwt beam="1">  1       21 0.77624613E-02 0.12768485E+03</pdfrwt>
<pdfrwt beam="2">  1       -4 0.33055566E-01 0.12768485E+03</pdfrwt>
<totfact> 0.44844146E+04</totfact>
</mgrwt>
</event>
<event>
 6    4  0.3995738E-003  0.1288081E+03  0.7818608E-02  0.1229235E+00
         -4   -1    0    0    0  501 -0.00000000000E+00  0.00000000000E+00  0.29739691027E+02  0.29766795635E+02  0.12700000000E+01 0. -1.
         21   -1    0    0  501  502  0.00000000000E+00 -0.00000000000E+00 -0.21508596522E+03  0.21508596522E+03  0.00000000000E+00 0. -1.
         25    2    1    2    0    0 -0.31059200163E+02  0.15077577678E+01 -0.14638066841E+03  0.19498414766E+03  0.12499828201E+03 0.  0.
    9000005    1    3    3    0    0 -0.13425580494E+02  0.61319510994E+02 -0.96504153462E+02  0.11512766946E+03  0.10000000000E+01 0.  0.
    9000005    1    3    3    0    0 -0.17633619669E+02 -0.59811753227E+02 -0.49876514951E+02  0.79856478199E+02  0.10000000000E+01 0.  0.
         -4    1    1    2    0  502  0.31059200163E+02 -0.15077577678E+01 -0.38965605781E+02  0.49868613197E+02  0.12700000000E+01 0.  1.
<mgrwt>
<rscale>  1 0.12880807E+03</rscale>
<asrwt>0</asrwt>
<pdfrwt beam="2">  1       21 0.33090149E-01 0.12880807E+03</pdfrwt>
<pdfrwt beam="1">  1       -4 0.45777104E-02 0.12880807E+03</pdfrwt>
<totfact> 0.97372525E+04</totfact>
</mgrwt>
</event>
<event>
 6    4  0.3995738E-003  0.1288952E+03  0.7818608E-02  0.1229104E+00
         21   -1    0    0  501  502  0.00000000000E+00  0.00000000000E+00  0.15483549341E+03  0.15483549341E+03  0.00000000000E+00 0.  1.
         -4   -1    0    0    0  501 -0.00000000000E+00 -0.00000000000E+00 -0.81505251713E+02  0.81515145567E+02  0.12700000000E+01 0. -1.
         25    2    1    2    0    0 -0.17335869195E+02 -0.26235385459E+02 -0.26574558060E+02  0.13160614162E+03  0.12500056626E+03 0.  0.
    9000005    1    3    3    0    0 -0.45140642051E+02 -0.59321662671E+02 -0.42168373628E+02  0.85649920965E+02  0.10000000000E+01 0.  0.
    9000005    1    3    3    0    0  0.27804772856E+02  0.33086277212E+02  0.15593815568E+02  0.45956220660E+02  0.10000000000E+01 0.  0.
         -4    1    1    2    0  502  0.17335869195E+02  0.26235385459E+02  0.99904799756E+02  0.10474449735E+03  0.12700000000E+01 0.  1.
<mgrwt>
<rscale>  1 0.12889519E+03</rscale>
<asrwt>0</asrwt>
<pdfrwt beam="1">  1       21 0.23820845E-01 0.12889519E+03</pdfrwt>
<pdfrwt beam="2">  1       -4 0.12540431E-01 0.12889519E+03</pdfrwt>
<totfact> 0.34599806E+04</totfact>
</mgrwt>
</event>
<event>
 6    4  0.3995738E-003  0.1308761E+03  0.7818608E-02  0.1226162E+00
         21   -1    0    0  501  502  0.00000000000E+00  0.00000000000E+00  0.67884525031E+01  0.67884525031E+01  0.00000000000E+00 0.  1.
         -4   -1    0    0    0  501 -0.00000000000E+00 -0.00000000000E+00 -0.11739932045E+04  0.11739938914E+04  0.12700000000E+01 0. -1.
         25    2    1    2    0    0 -0.38754390923E+02 -0.11113725011E+01 -0.10271679634E+04  0.10354721481E+04  0.12500162559E+03 0.  0.
    9000005    1    3    3    0    0 -0.52546970095E+02  0.43709539437E+02 -0.34580265751E+03  0.35249423520E+03  0.10000000000E+01 0.  0.
    9000005    1    3    3    0    0  0.13792579172E+02 -0.44820911938E+02 -0.68136530589E+03  0.68297791286E+03  0.10000000000E+01 0.  0.
         -4    1    1    2    0  502  0.38754390923E+02  0.11113725011E+01 -0.14003678857E+03  0.14531019585E+03  0.12700000000E+01 0.  1.
<mgrwt>
<rscale>  1 0.13087606E+03</rscale>
<asrwt>0</asrwt>
<pdfrwt beam="1">  1       21 0.10443765E-02 0.13087606E+03</pdfrwt>
<pdfrwt beam="2">  1       -4 0.18062367E+00 0.13087606E+03</pdfrwt>
<totfact> 0.27505633E+04</totfact>
</mgrwt>
</event>
<event>
 6    4  0.3995738E-003  0.1469140E+03  0.7818608E-02  0.1204317E+00
         21   -1    0    0  501  502  0.00000000000E+00  0.00000000000E+00  0.10222803944E+02  0.10222803944E+02  0.00000000000E+00 0. -1.
          4   -1    0    0  502    0 -0.00000000000E+00 -0.00000000000E+00 -0.14371579526E+04  0.14371585137E+04  0.12700000000E+01 0.  1.
         25    2    1    2    0    0  0.55995624633E+02 -0.53122395452E+02 -0.11674307765E+04  0.11766385783E+04  0.12500490823E+03 0.  0.
    9000005    1    3    3    0    0 -0.22315393112E+02  0.11238812219E+02 -0.66421868895E+02  0.70972898611E+02  0.10000000000E+01 0.  0.
    9000005    1    3    3    0    0  0.78311017745E+02 -0.64361207671E+02 -0.11010089076E+04  0.11056656797E+04  0.10000000000E+01 0.  0.
          4    1    1    2  501    0 -0.55995624633E+02  0.53122395452E+02 -0.25950437211E+03  0.27074273937E+03  0.12700000000E+01 0. -1.
<mgrwt>
<rscale>  1 0.14691401E+03</rscale>
<asrwt>0</asrwt>
<pdfrwt beam="1">  1       21 0.15727383E-02 0.14691401E+03</pdfrwt>
<pdfrwt beam="2">  1        4 0.22110744E+00 0.14691401E+03</pdfrwt>
<totfact> 0.81083025E+03</totfact>
</mgrwt>
</event>
<event>
 6    4  0.3995738E-003  0.1267065E+03  0.7818608E-02  0.1232426E+00
         21   -1    0    0  501  502  0.00000000000E+00  0.00000000000E+00  0.24589898942E+03  0.24589898942E+03  0.00000000000E+00 0.  1.
          4   -1    0    0  502    0 -0.00000000000E+00 -0.00000000000E+00 -0.18268347438E+03  0.18268788879E+03  0.12700000000E+01 0. -1.
         25    2    1    2    0    0 -0.20718889979E+02  0.17538968749E+00 -0.16017629953E+03  0.20423265186E+03  0.12500090396E+03 0.  0.
    9000005    1    3    3    0    0 -0.73295830576E+02 -0.56255540857E+01 -0.86359596721E+02  0.11341475029E+03  0.10000000000E+01 0.  0.
    9000005    1    3    3    0    0  0.52576940597E+02  0.58009437732E+01 -0.73816702807E+02  0.90817901564E+02  0.10000000000E+01 0.  0.
          4    1    1    2  501    0  0.20718889979E+02 -0.17538968749E+00  0.22339181457E+03  0.22435422635E+03  0.12700000000E+01 0.  1.
<mgrwt>
<rscale>  1 0.12670647E+03</rscale>
<asrwt>0</asrwt>
<pdfrwt beam="1">  1       21 0.37830614E-01 0.12670647E+03</pdfrwt>
<pdfrwt beam="2">  1        4 0.28105742E-01 0.12670647E+03</pdfrwt>
<totfact> 0.33457155E+03</totfact>
</mgrwt>
</event>
<event>
 6    4  0.3995738E-003  0.1516953E+03  0.7818608E-02  0.1198405E+00
         21   -1    0    0  501  502  0.00000000000E+00  0.00000000000E+00  0.23829038084E+02  0.23829038084E+02  0.00000000000E+00 0.  1.
          4   -1    0    0  502    0 -0.00000000000E+00 -0.00000000000E+00 -0.12666763338E+04  0.12666769704E+04  0.12700000000E+01 0. -1.
         25    2    1    2    0    0  0.82350187948E+02  0.24584577402E+02 -0.11640785293E+04  0.11739209050E+04  0.12500205580E+03 0.  0.
    9000005    1    3    3    0    0  0.14639166536E+02 -0.11488472018E+02 -0.86359644440E+03  0.86379749303E+03  0.10000000000E+01 0.  0.
    9000005    1    3    3    0    0  0.67711021411E+02  0.36073049420E+02 -0.30048208489E+03  0.31012341198E+03  0.10000000000E+01 0.  0.
          4    1    1    2  501    0 -0.82350187948E+02 -0.24584577402E+02 -0.78768766381E+02  0.11658510350E+03  0.12700000000E+01 0.  1.
<mgrwt>
<rscale>  1 0.15169532E+03</rscale>
<asrwt>0</asrwt>
<pdfrwt beam="1">  1       21 0.36660056E-02 0.15169532E+03</pdfrwt>
<pdfrwt beam="2">  1        4 0.19487595E+00 0.15169532E+03</pdfrwt>
<totfact> 0.29577630E+03</totfact>
</mgrwt>
</event>
<event>
 6    4  0.3995738E-003  0.1339187E+03  0.7818608E-02  0.1221754E+00
          4   -1    0    0  502    0 -0.00000000000E+00  0.00000000000E+00  0.98196673438E+02  0.98204885695E+02  0.12700000000E+01 0.  1.
         21   -1    0    0  501  502  0.00000000000E+00 -0.00000000000E+00 -0.34539767765E+03  0.34539767765E+03  0.00000000000E+00 0. -1.
         25    2    1    2    0    0 -0.27993496735E+02  0.39058269845E+02  0.49693645161E+02  0.14284147871E+03  0.12500018148E+03 0.  0.
    9000005    1    3    3    0    0 -0.55008146454E+02 -0.27869955240E+02  0.20704129978E+02  0.65056064894E+02  0.10000000000E+01 0.  0.
    9000005    1    3    3    0    0  0.27014649719E+02  0.66928225085E+02  0.28989515183E+02  0.77785413819E+02  0.10000000000E+01 0.  0.
          4    1    1    2  501    0  0.27993496735E+02 -0.39058269845E+02 -0.29689464937E+03  0.30076108463E+03  0.12700000000E+01 0. -1.
<mgrwt>
<rscale>  1 0.13391874E+03</rscale>
<asrwt>0</asrwt>
<pdfrwt beam="2">  1       21 0.53138104E-01 0.13391874E+03</pdfrwt>
<pdfrwt beam="1">  1        4 0.15107992E-01 0.13391874E+03</pdfrwt>
<totfact> 0.51601605E+03</totfact>
</mgrwt>
</event>
<event>
 6    4  0.3995738E-003  0.1276836E+03  0.7818608E-02  0.1230934E+00
         21   -1    0    0  501  502  0.00000000000E+00  0.00000000000E+00  0.10471399346E+03  0.10471399346E+03  0.00000000000E+00 0. -1.
         -4   -1    0    0    0  501 -0.00000000000E+00 -0.00000000000E+00 -0.57629929974E+02  0.57643921873E+02  0.12700000000E+01 0. -1.
         25    2    1    2    0    0 -0.25914921447E+02 -0.26622637214E+01  0.47608105468E+02  0.13627040257E+03  0.12499768042E+03 0.  0.
    9000005    1    3    3    0    0  0.26725773133E+02  0.34993956791E+02  0.55729403487E+02  0.71032460006E+02  0.10000000000E+01 0.  0.
    9000005    1    3    3    0    0 -0.52640694579E+02 -0.37656220512E+02 -0.81212980193E+01  0.65237942569E+02  0.10000000000E+01 0.  0.
         -4    1    1    2    0  502  0.25914921447E+02  0.26622637214E+01 -0.52404198588E+00  0.26087512754E+02  0.12700000000E+01 0.  1.
<mgrwt>
<rscale>  1 0.12768356E+03</rscale>
<asrwt>0</asrwt>
<pdfrwt beam="1">  1       21 0.16109845E-01 0.12768356E+03</pdfrwt>
<pdfrwt beam="2">  1       -4 0.88678118E-02 0.12768356E+03</pdfrwt>
<totfact> 0.12776822E+05</totfact>
</mgrwt>
</event>
<event>
 6    4  0.3995738E-003  0.1340818E+03  0.7818608E-02  0.1221522E+00
          4   -1    0    0  502    0 -0.00000000000E+00  0.00000000000E+00  0.47526651574E+02  0.47543616920E+02  0.12700000000E+01 0. -1.
         21   -1    0    0  501  502  0.00000000000E+00 -0.00000000000E+00 -0.18408606059E+03  0.18408606059E+03  0.00000000000E+00 0. -1.
         25    2    1    2    0    0 -0.29879108457E+02 -0.38207537107E+02 -0.76323979781E+02  0.15428307546E+03  0.12500136187E+03 0.  0.
    9000005    1    3    3    0    0 -0.44126393389E+02 -0.72867397329E+02 -0.79677651446E+02  0.11664615007E+03  0.10000000000E+01 0.  0.
    9000005    1    3    3    0    0  0.14247284932E+02  0.34659860222E+02  0.33536716649E+01  0.37636925382E+02  0.10000000000E+01 0.  0.
          4    1    1    2  501    0  0.29879108457E+02  0.38207537107E+02 -0.60235429232E+02  0.77346602050E+02  0.12700000000E+01 0.  1.
<mgrwt>
<rscale>  1 0.13408176E+03</rscale>
<asrwt>0</asrwt>
<pdfrwt beam="2">  1       21 0.28320932E-01 0.13408176E+03</pdfrwt>
<pdfrwt beam="1">  1        4 0.73134346E-02 0.13408176E+03</pdfrwt>
<totfact> 0.61877222E+04</totfact>
</mgrwt>
</event>
<event>
 6    4  0.3995738E-003  0.1321054E+03  0.7818608E-02  0.1224365E+00
         21   -1    0    0  501  502  0.00000000000E+00  0.00000000000E+00  0.26972593218E+03  0.26972593218E+03  0.00000000000E+00 0. -1.
          4   -1    0    0  502    0 -0.00000000000E+00 -0.00000000000E+00 -0.65569047741E+02  0.65581345836E+02  0.12700000000E+01 0.  1.
         25    2    1    2    0    0  0.33293744976E+02 -0.26803075731E+02  0.56277420271E+01  0.13222524629E+03  0.12499986381E+03 0.  0.
    9000005    1    3    3    0    0  0.51905859352E+02  0.35676011908E+02 -0.13202025867E+02  0.64360621095E+02  0.10000000000E+01 0.  0.
    9000005    1    3    3    0    0 -0.18612114376E+02 -0.62479087640E+02  0.18829767894E+02  0.67864625194E+02  0.10000000000E+01 0.  0.
          4    1    1    2  501    0 -0.33293744976E+02  0.26803075731E+02  0.19852914241E+03  0.20308203173E+03  0.12700000000E+01 0. -1.
<mgrwt>
<rscale>  1 0.13210543E+03</rscale>
<asrwt>0</asrwt>
<pdfrwt beam="1">  1       21 0.41496297E-01 0.13210543E+03</pdfrwt>
<pdfrwt beam="2">  1        4 0.10088722E-01 0.13210543E+03</pdfrwt>
<totfact> 0.17089651E+04</totfact>
</mgrwt>
</event>
<event>
 6    4  0.3995738E-003  0.1269474E+03  0.7818608E-02  0.1232057E+00
          4   -1    0    0  502    0 -0.00000000000E+00  0.00000000000E+00  0.25329408360E+03  0.25329726743E+03  0.12700000000E+01 0.  1.
         21   -1    0    0  501  502  0.00000000000E+00 -0.00000000000E+00 -0.47943906044E+03  0.47943906044E+03  0.00000000000E+00 0. -1.
         25    2    1    2    0    0  0.13516769805E+02  0.17565577774E+02  0.23710716954E+03  0.26895252413E+03  0.12499759118E+03 0.  0.
    9000005    1    3    3    0    0  0.21126222267E+02 -0.24319985942E+02  0.45746607386E+01  0.32553133556E+02  0.10000000000E+01 0.  0.
    9000005    1    3    3    0    0 -0.76094524611E+01  0.41885563716E+02  0.23253250880E+03  0.23639939058E+03  0.10000000000E+01 0.  0.
          4    1    1    2  501    0 -0.13516769805E+02 -0.17565577774E+02 -0.46325214637E+03  0.46378380374E+03  0.12700000000E+01 0. -1.
<mgrwt>
<rscale>  1 0.12694743E+03</rscale>
<asrwt>0</asrwt>
<pdfrwt beam="2">  1       21 0.73759854E-01 0.12694743E+03</pdfrwt>
<pdfrwt beam="1">  1        4 0.38968695E-01 0.12694743E+03</pdfrwt>
<totfact> 0.44547586E+02</totfact>
</mgrwt>
</event>
<event>
 6    4  0.3995738E-003  0.1298169E+03  0.7818608E-02  0.1227728E+00
          4   -1    0    0  502    0 -0.00000000000E+00  0.00000000000E+00  0.86770168437E+03  0.86770261378E+03  0.12700000000E+01 0. -1.
         21   -1    0    0  501  502  0.00000000000E+00 -0.00000000000E+00 -0.24687797015E+02  0.24687797015E+02  0.00000000000E+00 0.  1.
         25    2    1    2    0    0 -0.34945418830E+02 -0.21743275702E+01  0.84721529803E+03  0.85710337707E+03  0.12500611097E+03 0.  0.
    9000005    1    3    3    0    0 -0.19373715001E+02  0.13337570672E+02  0.82665411899E+03  0.82698927688E+03  0.10000000000E+01 0.  0.
    9000005    1    3    3    0    0 -0.15571703829E+02 -0.15511898242E+02  0.20561179035E+02  0.30114100195E+02  0.10000000000E+01 0.  0.
          4    1    1    2  501    0  0.34945418830E+02  0.21743275702E+01 -0.42014106677E+01  0.35287033726E+02  0.12700000000E+01 0.  1.
<mgrwt>
<rscale>  1 0.12981694E+03</rscale>
<asrwt>0</asrwt>
<pdfrwt beam="2">  1       21 0.37981233E-02 0.12981694E+03</pdfrwt>
<pdfrwt beam="1">  1        4 0.13349513E+00 0.12981694E+03</pdfrwt>
<totfact> 0.74513221E+03</totfact>
</mgrwt>
</event>
<event>
 6    4  0.3995738E-003  0.1309003E+03  0.7818608E-02  0.1226126E+00
         21   -1    0    0  501  502  0.00000000000E+00  0.00000000000E+00  0.91847225523E+03  0.91847225523E+03  0.00000000000E+00 0.  1.
         -4   -1    0    0    0  501 -0.00000000000E+00 -0.00000000000E+00 -0.23227067674E+02  0.23261762029E+02  0.12700000000E+01 0. -1.
         25    2    1    2    0    0  0.17839274433E+02  0.34527330406E+02  0.16576271243E+03  0.21121593352E+03  0.12499806991E+03 0.  0.
    9000005    1    3    3    0    0  0.51938973633E+02  0.31045564057E+02  0.16624839043E+03  0.17692091835E+03  0.10000000000E+01 0.  0.
    9000005    1    3    3    0    0 -0.34099699199E+02  0.34817663489E+01 -0.48567799635E+00  0.34295015170E+02  0.10000000000E+01 0.  0.
         -4    1    1    2    0  502 -0.17839274433E+02 -0.34527330406E+02  0.72948247512E+03  0.73051808374E+03  0.12700000000E+01 0.  1.
<mgrwt>
<rscale>  1 0.13090032E+03</rscale>
<asrwt>0</asrwt>
<pdfrwt beam="1">  1       21 0.14130340E+00 0.13090032E+03</pdfrwt>
<pdfrwt beam="2">  1       -4 0.35761321E-02 0.13090032E+03</pdfrwt>
<totfact> 0.59515412E+03</totfact>
</mgrwt>
</event>
<event>
 6    4  0.3995738E-003  0.1270954E+03  0.7818608E-02  0.1231830E+00
         21   -1    0    0  501  502  0.00000000000E+00  0.00000000000E+00  0.31814404063E+02  0.31814404063E+02  0.00000000000E+00 0.  1.
          4   -1    0    0  502    0 -0.00000000000E+00 -0.00000000000E+00 -0.37530623508E+03  0.37530838385E+03  0.12700000000E+01 0. -1.
         25    2    1    2    0    0 -0.18257448097E+02  0.13987745294E+02 -0.35800590604E+03  0.37989664784E+03  0.12499697136E+03 0.  0.
    9000005    1    3    3    0    0 -0.22907351316E+02 -0.52487742465E+02 -0.20819884965E+03  0.21593395020E+03  0.10000000000E+01 0.  0.
    9000005    1    3    3    0    0  0.46499032187E+01  0.66475487758E+02 -0.14980705639E+03  0.16396269764E+03  0.10000000000E+01 0.  0.
          4    1    1    2  501    0  0.18257448097E+02 -0.13987745294E+02  0.14514075026E+02  0.27226140073E+02  0.12700000000E+01 0.  1.
<mgrwt>
<rscale>  1 0.12709537E+03</rscale>
<asrwt>0</asrwt>
<pdfrwt beam="1">  1       21 0.48945236E-02 0.12709537E+03</pdfrwt>
<pdfrwt beam="2">  1        4 0.57741537E-01 0.12709537E+03</pdfrwt>
<totfact> 0.32258040E+04</totfact>
</mgrwt>
</event>
<event>
 6    4  0.3995738E-003  0.1313240E+03  0.7818608E-02  0.1225504E+00
         -4   -1    0    0    0  501 -0.00000000000E+00  0.00000000000E+00  0.64315969792E+01  0.65557867341E+01  0.12700000000E+01 0. -1.
         21   -1    0    0  501  502  0.00000000000E+00 -0.00000000000E+00 -0.11633975793E+04  0.11633975793E+04  0.00000000000E+00 0. -1.
         25    2    1    2    0    0  0.24148429231E+01 -0.40190645433E+02 -0.79791564830E+03  0.80865034265E+03  0.12499950167E+03 0.  0.
    9000005    1    3    3    0    0  0.55696061174E+02 -0.70164097977E+01 -0.20939684806E+03  0.21679326838E+03  0.10000000000E+01 0.  0.
    9000005    1    3    3    0    0 -0.53281218251E+02 -0.33174235635E+02 -0.58851880024E+03  0.59185707427E+03  0.10000000000E+01 0.  0.
         -4    1    1    2    0  502 -0.24148429231E+01  0.40190645433E+02 -0.35905033400E+03  0.36130302336E+03  0.12700000000E+01 0.  1.
<mgrwt>
<rscale>  1 0.13132401E+03</rscale>
<asrwt>0</asrwt>
<pdfrwt beam="2">  1       21 0.17898433E+00 0.13132401E+03</pdfrwt>
<pdfrwt beam="1">  1       -4 0.99908233E-03 0.13132401E+03</pdfrwt>
<totfact> 0.22623473E+04</totfact>
</mgrwt>
</event>
<event>
 6    4  0.3995738E-003  0.1276834E+03  0.7818608E-02  0.1230934E+00
         -4   -1    0    0    0  501 -0.00000000000E+00  0.00000000000E+00  0.40334320669E+02  0.40354309855E+02  0.12700000000E+01 0.  1.
         21   -1    0    0  501  502  0.00000000000E+00 -0.00000000000E+00 -0.29410846947E+03  0.29410846947E+03  0.00000000000E+00 0. -1.
         25    2    1    2    0    0 -0.24936036702E+02  0.75073688240E+01 -0.63851265856E+02  0.14275862997E+03  0.12499950307E+03 0.  0.
    9000005    1    3    3    0    0 -0.46610321810E+02  0.54677727960E+02 -0.54064623678E+02  0.89923075835E+02  0.10000000000E+01 0.  0.
    9000005    1    3    3    0    0  0.21674285108E+02 -0.47170359136E+02 -0.97866421779E+01  0.52835554138E+02  0.10000000000E+01 0.  0.
         -4    1    1    2    0  502  0.24936036702E+02 -0.75073688240E+01 -0.18992288294E+03  0.19170414935E+03  0.12700000000E+01 0. -1.
<mgrwt>
<rscale>  1 0.12768337E+03</rscale>
<asrwt>0</asrwt>
<pdfrwt beam="2">  1       21 0.45247459E-01 0.12768337E+03</pdfrwt>
<pdfrwt beam="1">  1       -4 0.62070284E-02 0.12768337E+03</pdfrwt>
<totfact> 0.31941161E+04</totfact>
</mgrwt>
</event>
<event>
 6    4  0.3995738E-003  0.1303915E+03  0.7818608E-02  0.1226876E+00
         21   -1    0    0  501  502  0.00000000000E+00  0.00000000000E+00  0.66531265794E+02  0.66531265794E+02  0.00000000000E+00 0. -1.
         -4   -1    0    0    0  501 -0.00000000000E+00 -0.00000000000E+00 -0.15556964235E+03  0.15557482611E+03  0.12700000000E+01 0.  1.
         25    2    1    2    0    0 -0.23784966348E+02  0.28459232792E+02 -0.11735473997E+03  0.17542545468E+03  0.12500521029E+03 0.  0.
    9000005    1    3    3    0    0 -0.46490137005E+01  0.47271765255E+02 -0.13511884133E+03  0.14322825979E+03  0.10000000000E+01 0.  0.
    9000005    1    3    3    0    0 -0.19135952648E+02 -0.18812532463E+02  0.17764101366E+02  0.32197194889E+02  0.10000000000E+01 0.  0.
         -4    1    1    2    0  502  0.23784966348E+02 -0.28459232792E+02  0.28316363413E+02  0.46680637230E+02  0.12700000000E+01 0. -1.
<mgrwt>
<rscale>  1 0.13039155E+03</rscale>
<asrwt>0</asrwt>
<pdfrwt beam="1">  1       21 0.10235579E-01 0.13039155E+03</pdfrwt>
<pdfrwt beam="2">  1       -4 0.23935122E-01 0.13039155E+03</pdfrwt>
<totfact> 0.50918387E+04</totfact>
</mgrwt>
</event>
<event>
 6    4  0.3995738E-003  0.1274315E+03  0.7818608E-02  0.1231317E+00
         21   -1    0    0  501  502  0.00000000000E+00  0.00000000000E+00  0.90341630691E+03  0.90341630691E+03  0.00000000000E+00 0. -1.
         -4   -1    0    0    0  501 -0.00000000000E+00 -0.00000000000E+00 -0.69970706784E+01  0.71113921337E+01  0.12700000000E+01 0. -1.
         25    2    1    2    0    0 -0.18515178834E+02 -0.16603766807E+02  0.61826275093E+03  0.63125876032E+03  0.12498118409E+03 0.  0.
    9000005    1    3    3    0    0 -0.11164084298E+02  0.20378377817E+02  0.56770396339E+03  0.56818016958E+03  0.10000000000E+01 0.  0.
    9000005    1    3    3    0    0 -0.73510945361E+01 -0.36982144625E+02  0.50558787543E+02  0.63078590740E+02  0.10000000000E+01 0.  0.
         -4    1    1    2    0  502  0.18515178834E+02  0.16603766807E+02  0.27815648529E+03  0.27926893871E+03  0.12700000000E+01 0.  1.
<mgrwt>
<rscale>  1 0.12743152E+03</rscale>
<asrwt>0</asrwt>
<pdfrwt beam="1">  1       21 0.13898703E+00 0.12743152E+03</pdfrwt>
<pdfrwt beam="2">  1       -4 0.10853358E-02 0.12743152E+03</pdfrwt>
<totfact> 0.38858727E+04</totfact>
</mgrwt>
</event>
<event>
 6    4  0.3995738E-003  0.1460003E+03  0.7818608E-02  0.1205476E+00
         -4   -1    0    0    0  501 -0.00000000000E+00  0.00000000000E+00  0.13036739551E+03  0.13037358134E+03  0.12700000000E+01 0.  1.
         21   -1    0    0  501  502  0.00000000000E+00 -0.00000000000E+00 -0.17312200489E+03  0.17312200489E+03  0.00000000000E+00 0.  1.
         25    2    1    2    0    0 -0.30421708758E+02 -0.69068185325E+02  0.74605443866E+02  0.16395745672E+03  0.12498072160E+03 0.  0.
    9000005    1    3    3    0    0 -0.24082441437E+02 -0.59341616998E+02 -0.21183672986E+02  0.67462133784E+02  0.10000000000E+01 0.  0.
    9000005    1    3    3    0    0 -0.63392673209E+01 -0.97265683268E+01  0.95789116852E+02  0.96495322938E+02  0.10000000000E+01 0.  0.
         -4    1    1    2    0  502  0.30421708758E+02  0.69068185325E+02 -0.11736005325E+03  0.13953812951E+03  0.12700000000E+01 0. -1.
<mgrwt>
<rscale>  1 0.14600026E+03</rscale>
<asrwt>0</asrwt>
<pdfrwt beam="2">  1       21 0.26634154E-01 0.14600026E+03</pdfrwt>
<pdfrwt beam="1">  1       -4 0.20057357E-01 0.14600026E+03</pdfrwt>
<totfact> 0.12417182E+04</totfact>
</mgrwt>
</event>
<event>
 6    4  0.3995738E-003  0.1276941E+03  0.7818608E-02  0.1230918E+00
          4   -1    0    0  502    0 -0.00000000000E+00  0.00000000000E+00  0.45488568089E+02  0.45506293265E+02  0.12700000000E+01 0.  1.
         21   -1    0    0  501  502  0.00000000000E+00 -0.00000000000E+00 -0.27293574619E+03  0.27293574619E+03  0.00000000000E+00 0. -1.
         25    2    1    2    0    0 -0.15710174452E+02 -0.20831060237E+02 -0.46930329344E+02  0.13604497743E+03  0.12500014967E+03 0.  0.
    9000005    1    3    3    0    0  0.47115837399E+01  0.26209055518E+02 -0.73570401690E+02  0.78247796245E+02  0.10000000000E+01 0.  0.
    9000005    1    3    3    0    0 -0.20421758192E+02 -0.47040115754E+02  0.26640072345E+02  0.57797181181E+02  0.10000000000E+01 0.  0.
          4    1    1    2  501    0  0.15710174452E+02  0.20831060237E+02 -0.18051684875E+03  0.18239706203E+03  0.12700000000E+01 0. -1.
<mgrwt>
<rscale>  1 0.12769409E+03</rscale>
<asrwt>0</asrwt>
<pdfrwt beam="2">  1       21 0.41990115E-01 0.12769409E+03</pdfrwt>
<pdfrwt beam="1">  1        4 0.69998320E-02 0.12769409E+03</pdfrwt>
<totfact> 0.30529866E+04</totfact>
</mgrwt>
</event>
<event>
 6    4  0.3995738E-003  0.1274388E+03  0.7818608E-02  0.1231306E+00
          4   -1    0    0  502    0 -0.00000000000E+00  0.00000000000E+00  0.21608671732E+03  0.21609044935E+03  0.12700000000E+01 0. -1.
         21   -1    0    0  501  502  0.00000000000E+00 -0.00000000000E+00 -0.27152985927E+02  0.27152985927E+02  0.00000000000E+00 0.  1.
         25    2    1    2    0    0  0.32184774322E+01  0.24595001693E+02  0.16727396446E+03  0.21028844918E+03  0.12500151986E+03 0.  0.
    9000005    1    3    3    0    0  0.93346620245E+01  0.42021245321E+02  0.10823096549E+01  0.43070783225E+02  0.10000000000E+01 0.  0.
    9000005    1    3    3    0    0 -0.61161845924E+01 -0.17426243628E+02  0.16619165480E+03  0.16721766595E+03  0.10000000000E+01 0.  0.
          4    1    1    2  501    0 -0.32184774322E+01 -0.24595001693E+02  0.21659766933E+02  0.32954986100E+02  0.12700000000E+01 0.  1.
<mgrwt>
<rscale>  1 0.12743882E+03</rscale>
<asrwt>0</asrwt>
<pdfrwt beam="2">  1       21 0.41773826E-02 0.12743882E+03</pdfrwt>
<pdfrwt beam="1">  1        4 0.33246681E-01 0.12743882E+03</pdfrwt>
<totfact> 0.12643938E+05</totfact>
</mgrwt>
</event>
<event>
 6    4  0.3995738E-003  0.1273731E+03  0.7818608E-02  0.1231407E+00
         21   -1    0    0  501  502  0.00000000000E+00  0.00000000000E+00  0.13776558957E+02  0.13776558957E+02  0.00000000000E+00 0.  1.
         -4   -1    0    0    0  501 -0.00000000000E+00 -0.00000000000E+00 -0.42019235115E+03  0.42019427039E+03  0.12700000000E+01 0.  1.
         25    2    1    2    0    0 -0.21425775440E+02  0.11803343763E+02 -0.35044617621E+03  0.37287587382E+03  0.12500204830E+03 0.  0.
    9000005    1    3    3    0    0  0.45478705061E+02  0.21141271020E+02 -0.22362131385E+03  0.22917844131E+03  0.10000000000E+01 0.  0.
    9000005    1    3    3    0    0 -0.66904480501E+02 -0.93379272564E+01 -0.12682486236E+03  0.14369743251E+03  0.10000000000E+01 0.  0.
         -4    1    1    2    0  502  0.21425775440E+02 -0.11803343763E+02 -0.55969615987E+02  0.61094955528E+02  0.12700000000E+01 0. -1.
<mgrwt>
<rscale>  1 0.12737305E+03</rscale>
<asrwt>0</asrwt>
<pdfrwt beam="1">  1       21 0.21194705E-02 0.12737305E+03</pdfrwt>
<pdfrwt beam="2">  1       -4 0.64649630E-01 0.12737305E+03</pdfrwt>
<totfact> 0.10082243E+05</totfact>
</mgrwt>
</event>
<event>
 6    4  0.3995738E-003  0.1350868E+03  0.7818608E-02  0.1220097E+00
         -4   -1    0    0    0  501 -0.00000000000E+00  0.00000000000E+00  0.19546045369E+04  0.19546049495E+04  0.12700000000E+01 0. -1.
         21   -1    0    0  501  502  0.00000000000E+00 -0.00000000000E+00 -0.52225785658E+01  0.52225785658E+01  0.00000000000E+00 0.  1.
         25    2    1    2    0    0  0.47141083044E+02  0.20019901627E+02  0.16927611436E+04  0.16981427298E+04  0.12500145357E+03 0.  0.
    9000005    1    3    3    0    0  0.14365621537E+02  0.69515587326E+02  0.69490408259E+03  0.69852091735E+03  0.10000000000E+01 0.  0.
    9000005    1    3    3    0    0  0.32775461508E+02 -0.49495685699E+02  0.99785706097E+03  0.99962181244E+03  0.10000000000E+01 0.  0.
         -4    1    1    2    0  502 -0.47141083044E+02 -0.20019901627E+02  0.25662081476E+03  0.26168479826E+03  0.12700000000E+01 0.  1.
<mgrwt>
<rscale>  1 0.13508679E+03</rscale>
<asrwt>0</asrwt>
<pdfrwt beam="2">  1       21 0.80347519E-03 0.13508679E+03</pdfrwt>
<pdfrwt beam="1">  1       -4 0.30071972E+00 0.13508679E+03</pdfrwt>
<totfact> 0.80889216E+03</totfact>
</mgrwt>
</event>
<event>
 6    4  0.3995738E-003  0.1298707E+03  0.7818608E-02  0.1227648E+00
          4   -1    0    0  502    0 -0.00000000000E+00  0.00000000000E+00  0.60378052178E+02  0.60391407376E+02  0.12700000000E+01 0.  1.
         21   -1    0    0  501  502  0.00000000000E+00 -0.00000000000E+00 -0.11371223719E+03  0.11371223719E+03  0.00000000000E+00 0. -1.
         25    2    1    2    0    0  0.25454539934E+02 -0.24364563423E+02 -0.35739048795E+02  0.13469847647E+03  0.12499933760E+03 0.  0.
    9000005    1    3    3    0    0  0.39910303462E+01 -0.74699797045E+02 -0.15898535563E+02  0.76483667765E+02  0.10000000000E+01 0.  0.
    9000005    1    3    3    0    0  0.21463509588E+02  0.50335233622E+02 -0.19840513233E+02  0.58214808708E+02  0.10000000000E+01 0.  0.
          4    1    1    2  501    0 -0.25454539934E+02  0.24364563423E+02 -0.17595136217E+02  0.39405168095E+02  0.12700000000E+01 0. -1.
<mgrwt>
<rscale>  1 0.12987070E+03</rscale>
<asrwt>0</asrwt>
<pdfrwt beam="2">  1       21 0.17494190E-01 0.12987070E+03</pdfrwt>
<pdfrwt beam="1">  1        4 0.92905040E-02 0.12987070E+03</pdfrwt>
<totfact> 0.10198707E+05</totfact>
</mgrwt>
</event>
<event>
 6    4  0.3995738E-003  0.1581134E+03  0.7818608E-02  0.1190843E+00
         21   -1    0    0  501  502  0.00000000000E+00  0.00000000000E+00  0.88214970873E+02  0.88214970873E+02  0.00000000000E+00 0. -1.
         -4   -1    0    0    0  501 -0.00000000000E+00 -0.00000000000E+00 -0.41870874941E+03  0.41871067544E+03  0.12700000000E+01 0.  1.
         25    2    1    2    0    0 -0.35574234058E+01  0.96758852941E+02 -0.36998177651E+03  0.40235105204E+03  0.12499969295E+03 0.  0.
    9000005    1    3    3    0    0  0.45248547894E+02  0.59768003394E+02 -0.30057641476E+03  0.30978512945E+03  0.10000000000E+01 0.  0.
    9000005    1    3    3    0    0 -0.48805971300E+02  0.36990849548E+02 -0.69405361754E+02  0.92565922590E+02  0.10000000000E+01 0.  0.
         -4    1    1    2    0  502  0.35574234058E+01 -0.96758852941E+02  0.39487997982E+02  0.10457459428E+03  0.12700000000E+01 0. -1.
<mgrwt>
<rscale>  1 0.15811342E+03</rscale>
<asrwt>0</asrwt>
<pdfrwt beam="1">  1       21 0.13571534E-01 0.15811342E+03</pdfrwt>
<pdfrwt beam="2">  1       -4 0.64417583E-01 0.15811342E+03</pdfrwt>
<totfact> 0.44648414E+03</totfact>
</mgrwt>
</event>
<event>
 6    4  0.3995738E-003  0.1287164E+03  0.7818608E-02  0.1229373E+00
          4   -1    0    0  502    0 -0.00000000000E+00  0.00000000000E+00  0.72644578669E+03  0.72644689682E+03  0.12700000000E+01 0. -1.
         21   -1    0    0  501  502  0.00000000000E+00 -0.00000000000E+00 -0.47340075061E+02  0.47340075061E+02  0.00000000000E+00 0.  1.
         25    2    1    2    0    0 -0.16826050238E+01  0.30662769474E+02  0.71502192827E+03  0.72651516094E+03  0.12499953828E+03 0.  0.
    9000005    1    3    3    0    0 -0.22053651436E+02  0.55178380439E+02  0.66185159943E+03  0.66451452721E+03  0.10000000000E+01 0.  0.
    9000005    1    3    3    0    0  0.20371046413E+02 -0.24515610966E+02  0.53170328847E+02  0.62000633728E+02  0.10000000000E+01 0.  0.
          4    1    1    2  501    0  0.16826050238E+01 -0.30662769474E+02 -0.35916216646E+02  0.47271810941E+02  0.12700000000E+01 0.  1.
<mgrwt>
<rscale>  1 0.12871644E+03</rscale>
<asrwt>0</asrwt>
<pdfrwt beam="2">  1       21 0.72830890E-02 0.12871644E+03</pdfrwt>
<pdfrwt beam="1">  1        4 0.11176228E+00 0.12871644E+03</pdfrwt>
<totfact> 0.38153602E+03</totfact>
</mgrwt>
</event>
<event>
 6    4  0.3995738E-003  0.1274140E+03  0.7818608E-02  0.1231344E+00
         21   -1    0    0  501  502  0.00000000000E+00  0.00000000000E+00  0.17920445428E+03  0.17920445428E+03  0.00000000000E+00 0. -1.
          4   -1    0    0  502    0 -0.00000000000E+00 -0.00000000000E+00 -0.35893855547E+02  0.35916316154E+02  0.12700000000E+01 0. -1.
         25    2    1    2    0    0 -0.25890805733E+01  0.24543490410E+02  0.14139605774E+03  0.19033439056E+03  0.12500099530E+03 0.  0.
    9000005    1    3    3    0    0  0.26736113310E+02 -0.22660155667E+02  0.12860861649E+03  0.13330220796E+03  0.10000000000E+01 0.  0.
    9000005    1    3    3    0    0 -0.29325193883E+02  0.47203646077E+02  0.12787441249E+02  0.57032182607E+02  0.10000000000E+01 0.  0.
          4    1    1    2  501    0  0.25890805733E+01 -0.24543490410E+02  0.19145409876E+01  0.24786379867E+02  0.12700000000E+01 0.  1.
<mgrwt>
<rscale>  1 0.12741403E+03</rscale>
<asrwt>0</asrwt>
<pdfrwt beam="1">  1       21 0.27569916E-01 0.12741403E+03</pdfrwt>
<pdfrwt beam="2">  1        4 0.55242056E-02 0.12741403E+03</pdfrwt>
<totfact> 0.10225739E+05</totfact>
</mgrwt>
</event>
<event>
 6    4  0.3995738E-003  0.1331537E+03  0.7818608E-02  0.1222850E+00
         21   -1    0    0  501  502  0.00000000000E+00  0.00000000000E+00  0.10053388672E+04  0.10053388672E+04  0.00000000000E+00 0. -1.
          4   -1    0    0  502    0 -0.00000000000E+00 -0.00000000000E+00 -0.97661920371E+01  0.98484215438E+01  0.12700000000E+01 0.  1.
         25    2    1    2    0    0  0.35266080831E+02  0.29334817200E+02  0.49769319306E+03  0.51519746929E+03  0.12500275992E+03 0.  0.
    9000005    1    3    3    0    0 -0.18446249611E+02  0.59216337827E+02  0.15353650851E+03  0.16559377475E+03  0.10000000000E+01 0.  0.
    9000005    1    3    3    0    0  0.53712330443E+02 -0.29881520627E+02  0.34415668455E+03  0.34960369454E+03  0.10000000000E+01 0.  0.
          4    1    1    2  501    0 -0.35266080831E+02 -0.29334817200E+02  0.49787948208E+03  0.49998981943E+03  0.12700000000E+01 0. -1.
<mgrwt>
<rscale>  1 0.13315374E+03</rscale>
<asrwt>0</asrwt>
<pdfrwt beam="1">  1       21 0.15466744E+00 0.13315374E+03</pdfrwt>
<pdfrwt beam="2">  1        4 0.15088789E-02 0.13315374E+03</pdfrwt>
<totfact> 0.17960344E+04</totfact>
</mgrwt>
</event>
<event>
 6    4  0.3995738E-003  0.1274603E+03  0.7818608E-02  0.1231274E+00
         -4   -1    0    0    0  501 -0.00000000000E+00  0.00000000000E+00  0.18549266222E+03  0.18549700978E+03  0.12700000000E+01 0. -1.
         21   -1    0    0  501  502  0.00000000000E+00 -0.00000000000E+00 -0.31690605195E+02  0.31690605195E+02  0.00000000000E+00 0. -1.
         25    2    1    2    0    0  0.24905200800E+02 -0.92591529896E+00  0.13688563569E+03  0.18703957098E+03  0.12499999003E+03 0.  0.
    9000005    1    3    3    0    0  0.47244221482E+02  0.95953695827E+01  0.15104688181E+03  0.15855676613E+03  0.10000000000E+01 0.  0.
    9000005    1    3    3    0    0 -0.22339020682E+02 -0.10521284882E+02 -0.14161246118E+02  0.28482804851E+02  0.10000000000E+01 0.  0.
         -4    1    1    2    0  502 -0.24905200800E+02  0.92591529896E+00  0.16916421332E+02  0.30148043995E+02  0.12700000000E+01 0.  1.
<mgrwt>
<rscale>  1 0.12746028E+03</rscale>
<asrwt>0</asrwt>
<pdfrwt beam="2">  1       21 0.48754778E-02 0.12746028E+03</pdfrwt>
<pdfrwt beam="1">  1       -4 0.28539624E-01 0.12746028E+03</pdfrwt>
<totfact> 0.13042377E+05</totfact>
</mgrwt>
</event>
<event>
 6    4  0.3995738E-003  0.1302952E+03  0.7818608E-02  0.1227018E+00
         -4   -1    0    0    0  501 -0.00000000000E+00  0.00000000000E+00  0.18202086595E+03  0.18202529644E+03  0.12700000000E+01 0. -1.
         21   -1    0    0  501  502  0.00000000000E+00 -0.00000000000E+00 -0.94281576976E+02  0.94281576976E+02  0.00000000000E+00 0. -1.
         25    2    1    2    0    0  0.22617742941E+02  0.28992544179E+02  0.15326123250E+03  0.20116122885E+03  0.12499881876E+03 0.  0.
    9000005    1    3    3    0    0 -0.19505144650E+02  0.69211881352E+02  0.89152955025E+02  0.11454250118E+03  0.10000000000E+01 0.  0.
    9000005    1    3    3    0    0  0.42122887591E+02 -0.40219337173E+02  0.64108277475E+02  0.86618727666E+02  0.10000000000E+01 0.  0.
         -4    1    1    2    0  502 -0.22617742941E+02 -0.28992544179E+02 -0.65521943522E+02  0.75145644561E+02  0.12700000000E+01 0.  1.
<mgrwt>
<rscale>  1 0.13029518E+03</rscale>
<asrwt>0</asrwt>
<pdfrwt beam="2">  1       21 0.14504858E-01 0.13029518E+03</pdfrwt>
<pdfrwt beam="1">  1       -4 0.28004209E-01 0.13029518E+03</pdfrwt>
<totfact> 0.20503480E+04</totfact>
</mgrwt>
</event>
<event>
 6    4  0.3995738E-003  0.1295389E+03  0.7818608E-02  0.1228141E+00
         -4   -1    0    0    0  501 -0.00000000000E+00  0.00000000000E+00  0.46012720586E+01  0.47733221720E+01  0.12700000000E+01 0.  1.
         21   -1    0    0  501  502  0.00000000000E+00 -0.00000000000E+00 -0.19472980601E+04  0.19472980601E+04  0.00000000000E+00 0.  1.
         25    2    1    2    0    0  0.33552621493E+02  0.54897268188E+01 -0.94992260308E+03  0.95871439169E+03  0.12499766992E+03 0.  0.
    9000005    1    3    3    0    0 -0.88615660656E+01  0.49465340307E+02 -0.68476092247E+03  0.68660313733E+03  0.10000000000E+01 0.  0.
    9000005    1    3    3    0    0  0.42414187558E+02 -0.43975613489E+02 -0.26516168061E+03  0.27211125436E+03  0.10000000000E+01 0.  0.
         -4    1    1    2    0  502 -0.33552621493E+02 -0.54897268188E+01 -0.99277418496E+03  0.99335699058E+03  0.12700000000E+01 0. -1.
<mgrwt>
<rscale>  1 0.12953892E+03</rscale>
<asrwt>0</asrwt>
<pdfrwt beam="2">  1       21 0.29958426E+00 0.12953892E+03</pdfrwt>
<pdfrwt beam="1">  1       -4 0.72115464E-03 0.12953892E+03</pdfrwt>
<totfact> 0.71009758E+03</totfact>
</mgrwt>
</event>
<event>
 6    4  0.3995738E-003  0.1309036E+03  0.7818608E-02  0.1226121E+00
         21   -1    0    0  501  502  0.00000000000E+00  0.00000000000E+00  0.23273214827E+02  0.23273214827E+02  0.00000000000E+00 0. -1.
          4   -1    0    0  502    0 -0.00000000000E+00 -0.00000000000E+00 -0.31027122588E+03  0.31027382504E+03  0.12700000000E+01 0. -1.
         25    2    1    2    0    0 -0.33341889547E+02  0.20008273705E+02 -0.22698186333E+03  0.26202387228E+03  0.12499492289E+03 0.  0.
    9000005    1    3    3    0    0 -0.13888095410E+02  0.71246293904E+02 -0.98706506086E+02  0.12252709061E+03  0.10000000000E+01 0.  0.
    9000005    1    3    3    0    0 -0.19453794138E+02 -0.51238020198E+02 -0.12827535725E+03  0.13949678167E+03  0.10000000000E+01 0.  0.
          4    1    1    2  501    0  0.33341889547E+02 -0.20008273705E+02 -0.60016147715E+02  0.71523167588E+02  0.12700000000E+01 0.  1.
<mgrwt>
<rscale>  1 0.13090357E+03</rscale>
<asrwt>0</asrwt>
<pdfrwt beam="1">  1       21 0.35804950E-02 0.13090357E+03</pdfrwt>
<pdfrwt beam="2">  1        4 0.47736895E-01 0.13090357E+03</pdfrwt>
<totfact> 0.80521611E+04</totfact>
</mgrwt>
</event>
<event>
 6    4  0.3995738E-003  0.1279234E+03  0.7818608E-02  0.1230570E+00
          4   -1    0    0  502    0 -0.00000000000E+00  0.00000000000E+00  0.24253153491E+02  0.24286382074E+02  0.12700000000E+01 0.  1.
         21   -1    0    0  501  502  0.00000000000E+00 -0.00000000000E+00 -0.24946684933E+03  0.24946684933E+03  0.00000000000E+00 0.  1.
         25    2    1    2    0    0  0.25775886064E+02 -0.86712465772E+01 -0.17707059175E+03  0.21844538213E+03  0.12499921477E+03 0.  0.
    9000005    1    3    3    0    0  0.31744247553E+02 -0.59975058267E+02 -0.60405462192E+02  0.90854415025E+02  0.10000000000E+01 0.  0.
    9000005    1    3    3    0    0 -0.59683614893E+01  0.51303811690E+02 -0.11666512955E+03  0.12759096710E+03  0.10000000000E+01 0.  0.
          4    1    1    2  501    0 -0.25775886064E+02  0.86712465772E+01 -0.48143104088E+02  0.55307849270E+02  0.12700000000E+01 0. -1.
<mgrwt>
<rscale>  1 0.12792338E+03</rscale>
<asrwt>0</asrwt>
<pdfrwt beam="2">  1       21 0.38379513E-01 0.12792338E+03</pdfrwt>
<pdfrwt beam="1">  1        4 0.37340593E-02 0.12792338E+03</pdfrwt>
<totfact> 0.10042999E+05</totfact>
</mgrwt>
</event>
<event>
 6    4  0.3995738E-003  0.1300539E+03  0.7818608E-02  0.1227376E+00
         -4   -1    0    0    0  501 -0.00000000000E+00  0.00000000000E+00  0.11397960913E+04  0.11397967988E+04  0.12700000000E+01 0.  1.
         21   -1    0    0  501  502  0.00000000000E+00 -0.00000000000E+00 -0.90377005190E+01  0.90377005190E+01  0.00000000000E+00 0. -1.
         25    2    1    2    0    0  0.32673676572E+02  0.14803609886E+02  0.10728527666E+04  0.10807067501E+04  0.12500921930E+03 0.  0.
    9000005    1    3    3    0    0  0.20559789706E+02 -0.25234886523E+02  0.72485638887E+02  0.79464912354E+02  0.10000000000E+01 0.  0.
    9000005    1    3    3    0    0  0.12113886866E+02  0.40038496410E+02  0.10003671277E+04  0.10012418378E+04  0.10000000000E+01 0.  0.
         -4    1    1    2    0  502 -0.32673676572E+02 -0.14803609886E+02  0.57905624165E+02  0.68127749239E+02  0.12700000000E+01 0. -1.
<mgrwt>
<rscale>  1 0.13005392E+03</rscale>
<asrwt>0</asrwt>
<pdfrwt beam="2">  1       21 0.13904164E-02 0.13005392E+03</pdfrwt>
<pdfrwt beam="1">  1       -4 0.17536005E+00 0.13005392E+03</pdfrwt>
<totfact> 0.18916831E+04</totfact>
</mgrwt>
</event>
<event>
 6    4  0.3995738E-003  0.1268748E+03  0.7818608E-02  0.1232168E+00
         -4   -1    0    0    0  501 -0.00000000000E+00  0.00000000000E+00  0.69269010229E+02  0.69280651543E+02  0.12700000000E+01 0.  1.
         21   -1    0    0  501  502  0.00000000000E+00 -0.00000000000E+00 -0.11221695984E+03  0.11221695984E+03  0.00000000000E+00 0.  1.
         25    2    1    2    0    0  0.10627168926E+02 -0.18976671472E+02  0.69351938175E+01  0.12706424223E+03  0.12499669579E+03 0.  0.
    9000005    1    3    3    0    0  0.32301663903E+02  0.47189900626E+02  0.14183679042E+01  0.57212725679E+02  0.10000000000E+01 0.  0.
    9000005    1    3    3    0    0 -0.21674494978E+02 -0.66166572098E+02  0.55168259133E+01  0.69851516547E+02  0.10000000000E+01 0.  0.
         -4    1    1    2    0  502 -0.10627168926E+02  0.18976671472E+02 -0.49883143429E+02  0.54433369158E+02  0.12700000000E+01 0. -1.
<mgrwt>
<rscale>  1 0.12687484E+03</rscale>
<asrwt>0</asrwt>
<pdfrwt beam="2">  1       21 0.17264148E-01 0.12687484E+03</pdfrwt>
<pdfrwt beam="1">  1       -4 0.10658219E-01 0.12687484E+03</pdfrwt>
<totfact> 0.82661768E+04</totfact>
</mgrwt>
</event>
<event>
 6    4  0.3995738E-003  0.1272205E+03  0.7818608E-02  0.1231639E+00
         21   -1    0    0  501  502  0.00000000000E+00  0.00000000000E+00  0.54786119610E+01  0.54786119610E+01  0.00000000000E+00 0. -1.
          4   -1    0    0  502    0 -0.00000000000E+00 -0.00000000000E+00 -0.10579448218E+04  0.10579455840E+04  0.12700000000E+01 0. -1.
         25    2    1    2    0    0 -0.36590485046E+01  0.23396634209E+02 -0.82930884294E+03  0.83901026058E+03  0.12499707696E+03 0.  0.
    9000005    1    3    3    0    0 -0.62930119568E+02  0.25359448392E+02 -0.45462705731E+03  0.45966298830E+03  0.10000000000E+01 0.  0.
    9000005    1    3    3    0    0  0.59271071064E+02 -0.19628141835E+01 -0.37468178564E+03  0.37934727229E+03  0.10000000000E+01 0.  0.
          4    1    1    2  501    0  0.36590485046E+01 -0.23396634209E+02 -0.22315736685E+03  0.22441393541E+03  0.12700000000E+01 0.  1.
<mgrwt>
<rscale>  1 0.12722052E+03</rscale>
<asrwt>0</asrwt>
<pdfrwt beam="1">  1       21 0.84286426E-03 0.12722052E+03</pdfrwt>
<pdfrwt beam="2">  1        4 0.16277195E+00 0.12722052E+03</pdfrwt>
<totfact> 0.50683026E+04</totfact>
</mgrwt>
</event>
<event>
 6    4  0.3995738E-003  0.1276334E+03  0.7818608E-02  0.1231010E+00
          4   -1    0    0  502    0 -0.00000000000E+00  0.00000000000E+00  0.36808602505E+03  0.36808821597E+03  0.12700000000E+01 0.  1.
         21   -1    0    0  501  502  0.00000000000E+00 -0.00000000000E+00 -0.16042233780E+02  0.16042233780E+02  0.00000000000E+00 0.  1.
         25    2    1    2    0    0  0.24693392156E+02 -0.73510812444E+01  0.30087355403E+03  0.32682592907E+03  0.12500596139E+03 0.  0.
    9000005    1    3    3    0    0  0.52214197195E+02  0.23984784794E+02  0.26692369842E+03  0.27304002101E+03  0.10000000000E+01 0.  0.
    9000005    1    3    3    0    0 -0.27520805039E+02 -0.31335866038E+02  0.33949855606E+02  0.53785908062E+02  0.10000000000E+01 0.  0.
          4    1    1    2  501    0 -0.24693392156E+02  0.73510812444E+01  0.51170237242E+02  0.57304520686E+02  0.12700000000E+01 0. -1.
<mgrwt>
<rscale>  1 0.12763343E+03</rscale>
<asrwt>0</asrwt>
<pdfrwt beam="2">  1       21 0.24680363E-02 0.12763343E+03</pdfrwt>
<pdfrwt beam="1">  1        4 0.56632648E-01 0.12763343E+03</pdfrwt>
<totfact> 0.10404677E+05</totfact>
</mgrwt>
</event>
<event>
 6    4  0.3995738E-003  0.1266827E+03  0.7818608E-02  0.1232463E+00
         -4   -1    0    0    0  501 -0.00000000000E+00  0.00000000000E+00  0.21221287284E+03  0.21221667300E+03  0.12700000000E+01 0. -1.
         21   -1    0    0  501  502  0.00000000000E+00 -0.00000000000E+00 -0.28045557049E+02  0.28045557049E+02  0.00000000000E+00 0. -1.
         25    2    1    2    0    0  0.83422298960E+01 -0.18810666070E+02  0.17849189640E+03  0.21887865591E+03  0.12500029991E+03 0.  0.
    9000005    1    3    3    0    0 -0.14417751462E+02 -0.69562915793E+02  0.10089635507E+03  0.12340156108E+03  0.10000000000E+01 0.  0.
    9000005    1    3    3    0    0  0.22759981358E+02  0.50752249723E+02  0.77595541331E+02  0.95477094833E+02  0.10000000000E+01 0.  0.
         -4    1    1    2    0  502 -0.83422298960E+01  0.18810666070E+02  0.56754193938E+01  0.21383574138E+02  0.12700000000E+01 0.  1.
<mgrwt>
<rscale>  1 0.12668271E+03</rscale>
<asrwt>0</asrwt>
<pdfrwt beam="2">  1       21 0.43147012E-02 0.12668271E+03</pdfrwt>
<pdfrwt beam="1">  1       -4 0.32650637E-01 0.12668271E+03</pdfrwt>
<totfact> 0.12391053E+05</totfact>
</mgrwt>
</event>
<event>
 6    4  0.3995738E-003  0.1533844E+03  0.7818608E-02  0.1196375E+00
         21   -1    0    0  501  502  0.00000000000E+00  0.00000000000E+00  0.10613777879E+03  0.10613777879E+03  0.00000000000E+00 0.  1.
          4   -1    0    0  502    0 -0.00000000000E+00 -0.00000000000E+00 -0.27838169160E+03  0.27838458851E+03  0.12700000000E+01 0.  1.
         25    2    1    2    0    0  0.68213648329E+02  0.57001512725E+02 -0.23148374043E+03  0.27768958044E+03  0.12499802691E+03 0.  0.
    9000005    1    3    3    0    0  0.99768078315E+02  0.31621992530E+02 -0.12084664225E+03  0.15987035624E+03  0.10000000000E+01 0.  0.
    9000005    1    3    3    0    0 -0.31554429986E+02  0.25379520194E+02 -0.11063709818E+03  0.11781922420E+03  0.10000000000E+01 0.  0.
          4    1    1    2  501    0 -0.68213648329E+02 -0.57001512725E+02  0.59239827625E+02  0.10683278686E+03  0.12700000000E+01 0. -1.
<mgrwt>
<rscale>  1 0.15338442E+03</rscale>
<asrwt>0</asrwt>
<pdfrwt beam="1">  1       21 0.16328889E-01 0.15338442E+03</pdfrwt>
<pdfrwt beam="2">  1        4 0.42828759E-01 0.15338442E+03</pdfrwt>
<totfact> 0.73915806E+03</totfact>
</mgrwt>
</event>
<event>
 6    4  0.3995738E-003  0.1444502E+03  0.7818608E-02  0.1207463E+00
          4   -1    0    0  502    0 -0.00000000000E+00  0.00000000000E+00  0.41062758804E+02  0.41082393559E+02  0.12700000000E+01 0.  1.
         21   -1    0    0  501  502  0.00000000000E+00 -0.00000000000E+00 -0.31545734634E+03  0.31545734634E+03  0.00000000000E+00 0. -1.
         25    2    1    2    0    0  0.64872813597E+02  0.32121655639E+02 -0.12707282636E+03  0.19238859942E+03  0.12500234911E+03 0.  0.
    9000005    1    3    3    0    0  0.85358694149E+02  0.41012832046E+02 -0.13810668277E+03  0.16745929322E+03  0.10000000000E+01 0.  0.
    9000005    1    3    3    0    0 -0.20485880552E+02 -0.88911764079E+01  0.11033856417E+02  0.24929306195E+02  0.10000000000E+01 0.  0.
          4    1    1    2  501    0 -0.64872813597E+02 -0.32121655639E+02 -0.14732176118E+03  0.16415114048E+03  0.12700000000E+01 0. -1.
<mgrwt>
<rscale>  1 0.14445023E+03</rscale>
<asrwt>0</asrwt>
<pdfrwt beam="2">  1       21 0.48531899E-01 0.14445023E+03</pdfrwt>
<pdfrwt beam="1">  1        4 0.63190546E-02 0.14445023E+03</pdfrwt>
<totfact> 0.27198784E+04</totfact>
</mgrwt>
</event>
<event>
 6    4  0.3995738E-003  0.1283554E+03  0.7818608E-02  0.1229917E+00
         21   -1    0    0  501  502  0.00000000000E+00  0.00000000000E+00  0.92185874379E+01  0.92185874379E+01  0.00000000000E+00 0. -1.
         -4   -1    0    0    0  501 -0.00000000000E+00 -0.00000000000E+00 -0.11440417670E+04  0.11440424719E+04  0.12700000000E+01 0. -1.
         25    2    1    2    0    0  0.16002725193E+02  0.24377692782E+02 -0.11015362146E+04  0.11089892392E+04  0.12499896617E+03 0.  0.
    9000005    1    3    3    0    0  0.44346016207E+02  0.39356503232E+02 -0.25337537010E+03  0.26022217752E+03  0.10000000000E+01 0.  0.
    9000005    1    3    3    0    0 -0.28343291014E+02 -0.14978810450E+02 -0.84816084450E+03  0.84876706172E+03  0.10000000000E+01 0.  0.
         -4    1    1    2    0  502 -0.16002725193E+02 -0.24377692782E+02 -0.33286964916E+02  0.44271820070E+02  0.12700000000E+01 0.  1.
<mgrwt>
<rscale>  1 0.12835537E+03</rscale>
<asrwt>0</asrwt>
<pdfrwt beam="1">  1       21 0.14182453E-02 0.12835537E+03</pdfrwt>
<pdfrwt beam="2">  1       -4 0.17601307E+00 0.12835537E+03</pdfrwt>
<totfact> 0.18121674E+04</totfact>
</mgrwt>
</event>
<event>
 6    4  0.3995738E-003  0.1279950E+03  0.7818608E-02  0.1230462E+00
         -4   -1    0    0    0  501 -0.00000000000E+00  0.00000000000E+00  0.91685509244E+03  0.91685597202E+03  0.12700000000E+01 0. -1.
         21   -1    0    0  501  502  0.00000000000E+00 -0.00000000000E+00 -0.98263260811E+01  0.98263260811E+01  0.00000000000E+00 0.  1.
         25    2    1    2    0    0 -0.23283219496E+02 -0.14687778702E+02  0.87550239775E+03  0.88480910894E+03  0.12499948654E+03 0.  0.
    9000005    1    3    3    0    0  0.70932304146E+01 -0.24511630622E+02  0.82270832894E+03  0.82310456715E+03  0.10000000000E+01 0.  0.
    9000005    1    3    3    0    0 -0.30376449911E+02  0.98238519201E+01  0.52794068814E+02  0.61704541791E+02  0.10000000000E+01 0.  0.
         -4    1    1    2    0  502  0.23283219496E+02  0.14687778702E+02  0.31526368604E+02  0.41873189162E+02  0.12700000000E+01 0.  1.
<mgrwt>
<rscale>  1 0.12799496E+03</rscale>
<asrwt>0</asrwt>
<pdfrwt beam="2">  1       21 0.15117432E-02 0.12799496E+03</pdfrwt>
<pdfrwt beam="1">  1       -4 0.14106094E+00 0.12799496E+03</pdfrwt>
<totfact> 0.29015574E+04</totfact>
</mgrwt>
</event>
<event>
 6    4  0.3995738E-003  0.1355501E+03  0.7818608E-02  0.1219445E+00
         21   -1    0    0  501  502  0.00000000000E+00  0.00000000000E+00  0.40640736269E+02  0.40640736269E+02  0.00000000000E+00 0. -1.
         -4   -1    0    0    0  501 -0.00000000000E+00 -0.00000000000E+00 -0.36727569171E+03  0.36727788746E+03  0.12700000000E+01 0.  1.
         25    2    1    2    0    0  0.27795893235E+01  0.52404321714E+02 -0.32852565117E+03  0.35539123391E+03  0.12497954477E+03 0.  0.
    9000005    1    3    3    0    0 -0.44085277201E+02 -0.14563318559E+01 -0.22714260821E+03  0.23138797945E+03  0.10000000000E+01 0.  0.
    9000005    1    3    3    0    0  0.46864866525E+02  0.53860653570E+02 -0.10138304296E+03  0.12400325446E+03  0.10000000000E+01 0.  0.
         -4    1    1    2    0  502 -0.27795893235E+01 -0.52404321714E+02  0.18906957322E+01  0.52527389822E+02  0.12700000000E+01 0. -1.
<mgrwt>
<rscale>  1 0.13555009E+03</rscale>
<asrwt>0</asrwt>
<pdfrwt beam="1">  1       21 0.62524211E-02 0.13555009E+03</pdfrwt>
<pdfrwt beam="2">  1       -4 0.56505647E-01 0.13555009E+03</pdfrwt>
<totfact> 0.22481123E+04</totfact>
</mgrwt>
</event>
<event>
 6    4  0.3995738E-003  0.1274512E+03  0.7818608E-02  0.1231287E+00
         21   -1    0    0  501  502  0.00000000000E+00  0.00000000000E+00  0.14882525190E+04  0.14882525190E+04  0.00000000000E+00 0.  1.
         -4   -1    0    0    0  501 -0.00000000000E+00 -0.00000000000E+00 -0.37915682912E+01  0.39986110222E+01  0.12700000000E+01 0.  1.
         25    2    1    2    0    0 -0.21143206892E+02  0.12900522548E+02  0.12319187275E+04  0.12384940688E+04  0.12502139333E+03 0.  0.
    9000005    1    3    3    0    0 -0.15792200687E+01  0.48309804823E+02  0.10857864233E+04  0.10868622214E+04  0.10000000000E+01 0.  0.
    9000005    1    3    3    0    0 -0.19563986823E+02 -0.35409282275E+02  0.14613230415E+03  0.15163184748E+03  0.10000000000E+01 0.  0.
         -4    1    1    2    0  502  0.21143206892E+02 -0.12900522548E+02  0.25254222324E+03  0.25375706118E+03  0.12700000000E+01 0. -1.
<mgrwt>
<rscale>  1 0.12745120E+03</rscale>
<asrwt>0</asrwt>
<pdfrwt beam="1">  1       21 0.22896147E+00 0.12745120E+03</pdfrwt>
<pdfrwt beam="2">  1       -4 0.59928743E-03 0.12745120E+03</pdfrwt>
<totfact> 0.23624898E+04</totfact>
</mgrwt>
</event>
<event>
 6    4  0.3995738E-003  0.1275892E+03  0.7818608E-02  0.1231077E+00
          4   -1    0    0  502    0 -0.00000000000E+00  0.00000000000E+00  0.67011941876E+03  0.67012062220E+03  0.12700000000E+01 0. -1.
         21   -1    0    0  501  502  0.00000000000E+00 -0.00000000000E+00 -0.89454243011E+01  0.89454243011E+01  0.00000000000E+00 0. -1.
         25    2    1    2    0    0  0.33239099594E+01 -0.25302050715E+02  0.58389848846E+03  0.59767588201E+03  0.12501109139E+03 0.  0.
    9000005    1    3    3    0    0 -0.51061595658E+02  0.19538684223E+02  0.31385312966E+03  0.31858096887E+03  0.10000000000E+01 0.  0.
    9000005    1    3    3    0    0  0.54385505618E+02 -0.44840734939E+02  0.27004535880E+03  0.27909491314E+03  0.10000000000E+01 0.  0.
          4    1    1    2  501    0 -0.33239099594E+01  0.25302050715E+02  0.77275506004E+02  0.81390164491E+02  0.12700000000E+01 0.  1.
<mgrwt>
<rscale>  1 0.12758924E+03</rscale>
<asrwt>0</asrwt>
<pdfrwt beam="2">  1       21 0.13762197E-02 0.12758924E+03</pdfrwt>
<pdfrwt beam="1">  1        4 0.10310228E+00 0.12758924E+03</pdfrwt>
<totfact> 0.71583106E+04</totfact>
</mgrwt>
</event>
<event>
 6    4  0.3995738E-003  0.1626228E+03  0.7818608E-02  0.1185767E+00
         21   -1    0    0  501  502  0.00000000000E+00  0.00000000000E+00  0.44985493707E+02  0.44985493707E+02  0.00000000000E+00 0. -1.
         -4   -1    0    0    0  501 -0.00000000000E+00 -0.00000000000E+00 -0.69147180945E+03  0.69147297573E+03  0.12700000000E+01 0.  1.
         25    2    1    2    0    0 -0.87627726982E+02  0.56057873652E+02 -0.60153568659E+03  0.62313029247E+03  0.12500030166E+03 0.  0.
    9000005    1    3    3    0    0 -0.98396070940E+02  0.79334709214E+02 -0.38828501811E+03  0.40834059087E+03  0.10000000000E+01 0.  0.
    9000005    1    3    3    0    0  0.10768343958E+02 -0.23276835562E+02 -0.21325066848E+03  0.21478970160E+03  0.10000000000E+01 0.  0.
         -4    1    1    2    0  502  0.87627726982E+02 -0.56057873652E+02 -0.44950629156E+02  0.11332817697E+03  0.12700000000E+01 0. -1.
<mgrwt>
<rscale>  1 0.16262281E+03</rscale>
<asrwt>0</asrwt>
<pdfrwt beam="1">  1       21 0.69208452E-02 0.16262281E+03</pdfrwt>
<pdfrwt beam="2">  1       -4 0.10638175E+00 0.16262281E+03</pdfrwt>
<totfact> 0.47516751E+03</totfact>
</mgrwt>
</event>
<event>
 6    4  0.3995738E-003  0.1267278E+03  0.7818608E-02  0.1232393E+00
         -4   -1    0    0    0  501 -0.00000000000E+00  0.00000000000E+00  0.15585370993E+03  0.15585888424E+03  0.12700000000E+01 0. -1.
         21   -1    0    0  501  502  0.00000000000E+00 -0.00000000000E+00 -0.48481033863E+02  0.48481033863E+02  0.00000000000E+00 0.  1.
         25    2    1    2    0    0  0.15598339223E+02  0.13918812832E+02  0.12422380801E+03  0.17745841731E+03  0.12499157516E+03 0.  0.
    9000005    1    3    3    0    0 -0.49515940636E+02  0.31305070818E+02  0.67333778436E+02  0.89256224178E+02  0.10000000000E+01 0.  0.
    9000005    1    3    3    0    0  0.65114279859E+02 -0.17386257986E+02  0.56890029575E+02  0.88202193132E+02  0.10000000000E+01 0.  0.
         -4    1    1    2    0  502 -0.15598339223E+02 -0.13918812832E+02 -0.16851131948E+02  0.26881500797E+02  0.12700000000E+01 0.  1.
<mgrwt>
<rscale>  1 0.12672780E+03</rscale>
<asrwt>0</asrwt>
<pdfrwt beam="2">  1       21 0.74586207E-02 0.12672780E+03</pdfrwt>
<pdfrwt beam="1">  1       -4 0.23979171E-01 0.12672780E+03</pdfrwt>
<totfact> 0.87509387E+04</totfact>
</mgrwt>
</event>
<event>
 6    4  0.3995738E-003  0.1268172E+03  0.7818608E-02  0.1232256E+00
         21   -1    0    0  501  502  0.00000000000E+00  0.00000000000E+00  0.26947673058E+03  0.26947673058E+03  0.00000000000E+00 0.  1.
          4   -1    0    0  502    0 -0.00000000000E+00 -0.00000000000E+00 -0.35881310383E+02  0.35903778837E+02  0.12700000000E+01 0. -1.
         25    2    1    2    0    0 -0.17223374568E+01 -0.21325910441E+02  0.79226336705E+02  0.14953062093E+03  0.12499933306E+03 0.  0.
    9000005    1    3    3    0    0  0.29086271329E+02  0.39435445693E+02  0.57850869557E+01  0.49352130530E+02  0.10000000000E+01 0.  0.
    9000005    1    3    3    0    0 -0.30808608786E+02 -0.60761356134E+02  0.73441249749E+02  0.10017849040E+03  0.10000000000E+01 0.  0.
          4    1    1    2  501    0  0.17223374568E+01  0.21325910441E+02  0.15436908349E+03  0.15584988849E+03  0.12700000000E+01 0.  1.
<mgrwt>
<rscale>  1 0.12681717E+03</rscale>
<asrwt>0</asrwt>
<pdfrwt beam="1">  1       21 0.41457957E-01 0.12681717E+03</pdfrwt>
<pdfrwt beam="2">  1        4 0.55221603E-02 0.12681717E+03</pdfrwt>
<totfact> 0.46032159E+04</totfact>
</mgrwt>
</event>
<event>
 6    4  0.3995738E-003  0.1270465E+03  0.7818608E-02  0.1231905E+00
         21   -1    0    0  501  502  0.00000000000E+00  0.00000000000E+00  0.57792218886E+02  0.57792218886E+02  0.00000000000E+00 0. -1.
          4   -1    0    0  502    0 -0.00000000000E+00 -0.00000000000E+00 -0.99681306705E+02  0.99689396660E+02  0.12700000000E+01 0. -1.
         25    2    1    2    0    0 -0.19353849970E+02  0.11868187918E+02 -0.44453086241E+02  0.13459903743E+03  0.12500159443E+03 0.  0.
    9000005    1    3    3    0    0 -0.31439606998E+02  0.11235031086E+02 -0.85500341754E+02  0.91793154711E+02  0.10000000000E+01 0.  0.
    9000005    1    3    3    0    0  0.12085757028E+02  0.63315683212E+00  0.41047255514E+02  0.42805882723E+02  0.10000000000E+01 0.  0.
          4    1    1    2  501    0  0.19353849970E+02 -0.11868187918E+02  0.25639984219E+01  0.22882578111E+02  0.12700000000E+01 0.  1.
<mgrwt>
<rscale>  1 0.12704654E+03</rscale>
<asrwt>0</asrwt>
<pdfrwt beam="1">  1       21 0.88911107E-02 0.12704654E+03</pdfrwt>
<pdfrwt beam="2">  1        4 0.15337281E-01 0.12704654E+03</pdfrwt>
<totfact> 0.14381040E+05</totfact>
</mgrwt>
</event>
<event>
 6    4  0.3995738E-003  0.1309468E+03  0.7818608E-02  0.1226058E+00
         21   -1    0    0  501  502  0.00000000000E+00  0.00000000000E+00  0.17156948463E+02  0.17156948463E+02  0.00000000000E+00 0. -1.
          4   -1    0    0  502    0 -0.00000000000E+00 -0.00000000000E+00 -0.43165914054E+03  0.43166100880E+03  0.12700000000E+01 0.  1.
         25    2    1    2    0    0  0.21803964951E+02 -0.32369651905E+02 -0.34626232066E+03  0.37019544010E+03  0.12499544757E+03 0.  0.
    9000005    1    3    3    0    0 -0.18711790056E+02 -0.15701232978E+01  0.13719301365E+01  0.18854139242E+02  0.10000000000E+01 0.  0.
    9000005    1    3    3    0    0  0.40515755006E+02 -0.30799528607E+02 -0.34763425079E+03  0.35134130086E+03  0.10000000000E+01 0.  0.
          4    1    1    2  501    0 -0.21803964951E+02  0.32369651905E+02 -0.68239871426E+02  0.78622517158E+02  0.12700000000E+01 0. -1.
<mgrwt>
<rscale>  1 0.13094682E+03</rscale>
<asrwt>0</asrwt>
<pdfrwt beam="1">  1       21 0.26395309E-02 0.13094682E+03</pdfrwt>
<pdfrwt beam="2">  1        4 0.66412849E-01 0.13094682E+03</pdfrwt>
<totfact> 0.66933972E+04</totfact>
</mgrwt>
</event>
<event>
 6    4  0.3995738E-003  0.1272333E+03  0.7818608E-02  0.1231620E+00
         21   -1    0    0  501  502  0.00000000000E+00  0.00000000000E+00  0.69991039259E+03  0.69991039259E+03  0.00000000000E+00 0. -1.
         -4   -1    0    0    0  501 -0.00000000000E+00 -0.00000000000E+00 -0.12559667578E+02  0.12623713783E+02  0.12700000000E+01 0.  1.
         25    2    1    2    0    0 -0.14961833907E+02  0.18245772846E+02  0.31916343240E+03  0.34358931370E+03  0.12502621807E+03 0.  0.
    9000005    1    3    3    0    0  0.51296772539E+02 -0.14502446451E+02  0.13388293218E+03  0.14410870673E+03  0.10000000000E+01 0.  0.
    9000005    1    3    3    0    0 -0.66258606446E+02  0.32748219297E+02  0.18528050022E+03  0.19948060697E+03  0.10000000000E+01 0.  0.
         -4    1    1    2    0  502  0.14961833907E+02 -0.18245772846E+02  0.36818729261E+03  0.36894479267E+03  0.12700000000E+01 0. -1.
<mgrwt>
<rscale>  1 0.12723333E+03</rscale>
<asrwt>0</asrwt>
<pdfrwt beam="1">  1       21 0.10767849E+00 0.12723333E+03</pdfrwt>
<pdfrwt beam="2">  1       -4 0.19372724E-02 0.12723333E+03</pdfrwt>
<totfact> 0.30072568E+04</totfact>
</mgrwt>
</event>
<event>
 6    4  0.3995738E-003  0.1271781E+03  0.7818608E-02  0.1231704E+00
         21   -1    0    0  501  502  0.00000000000E+00  0.00000000000E+00  0.17416294733E+02  0.17416294733E+02  0.00000000000E+00 0.  1.
          4   -1    0    0  502    0 -0.00000000000E+00 -0.00000000000E+00 -0.35186090086E+03  0.35186319281E+03  0.12700000000E+01 0.  1.
         25    2    1    2    0    0 -0.31328909096E+01 -0.23233074945E+02 -0.23613305786E+03  0.26820345577E+03  0.12499872757E+03 0.  0.
    9000005    1    3    3    0    0 -0.14229504228E+02 -0.71228254786E+01 -0.24583032507E+03  0.24634683306E+03  0.10000000000E+01 0.  0.
    9000005    1    3    3    0    0  0.11096613319E+02 -0.16110249467E+02  0.96972672075E+01  0.21856622711E+02  0.10000000000E+01 0.  0.
          4    1    1    2  501    0  0.31328909096E+01  0.23233074945E+02 -0.98311548260E+02  0.10107603177E+03  0.12700000000E+01 0. -1.
<mgrwt>
<rscale>  1 0.12717811E+03</rscale>
<asrwt>0</asrwt>
<pdfrwt beam="1">  1       21 0.26794301E-02 0.12717811E+03</pdfrwt>
<pdfrwt beam="2">  1        4 0.54136182E-01 0.12717811E+03</pdfrwt>
<totfact> 0.99852488E+04</totfact>
</mgrwt>
</event>
<event>
 6    4  0.3995738E-003  0.1281407E+03  0.7818608E-02  0.1230241E+00
         21   -1    0    0  501  502  0.00000000000E+00  0.00000000000E+00  0.67832635756E+01  0.67832635756E+01  0.00000000000E+00 0. -1.
         -4   -1    0    0    0  501 -0.00000000000E+00 -0.00000000000E+00 -0.95851340602E+03  0.95851424737E+03  0.12700000000E+01 0. -1.
         25    2    1    2    0    0  0.20772826306E+02  0.19088231595E+02 -0.85431815624E+03  0.86387473809E+03  0.12499672049E+03 0.  0.
    9000005    1    3    3    0    0 -0.23776492218E+02  0.29238553649E+02 -0.73708330925E+03  0.73804675962E+03  0.10000000000E+01 0.  0.
    9000005    1    3    3    0    0  0.44549318524E+02 -0.10150322054E+02 -0.11723484699E+03  0.12582797847E+03  0.10000000000E+01 0.  0.
         -4    1    1    2    0  502 -0.20772826306E+02 -0.19088231595E+02 -0.97411986203E+02  0.10142277286E+03  0.12700000000E+01 0.  1.
<mgrwt>
<rscale>  1 0.12814075E+03</rscale>
<asrwt>0</asrwt>
<pdfrwt beam="1">  1       21 0.10435803E-02 0.12814075E+03</pdfrwt>
<pdfrwt beam="2">  1       -4 0.14747263E+00 0.12814075E+03</pdfrwt>
<totfact> 0.46728501E+04</totfact>
</mgrwt>
</event>
<event>
 6    4  0.3995738E-003  0.1396104E+03  0.7818608E-02  0.1213854E+00
          4   -1    0    0  502    0 -0.00000000000E+00  0.00000000000E+00  0.19921669028E+03  0.19922073834E+03  0.12700000000E+01 0.  1.
         21   -1    0    0  501  502  0.00000000000E+00 -0.00000000000E+00 -0.10149484951E+03  0.10149484951E+03  0.00000000000E+00 0. -1.
         25    2    1    2    0    0 -0.45901764769E+02  0.41931727236E+02  0.16024685537E+03  0.21253264104E+03  0.12500330832E+03 0.  0.
    9000005    1    3    3    0    0 -0.16441806269E+02  0.82555640440E+02  0.12686173194E+03  0.15225198124E+03  0.10000000000E+01 0.  0.
    9000005    1    3    3    0    0 -0.29459958500E+02 -0.40623913204E+02  0.33385123436E+02  0.60280659798E+02  0.10000000000E+01 0.  0.
          4    1    1    2  501    0  0.45901764769E+02 -0.41931727236E+02 -0.62525014598E+02  0.88182946812E+02  0.12700000000E+01 0. -1.
<mgrwt>
<rscale>  1 0.13961042E+03</rscale>
<asrwt>0</asrwt>
<pdfrwt beam="2">  1       21 0.15614592E-01 0.13961042E+03</pdfrwt>
<pdfrwt beam="1">  1        4 0.30649644E-01 0.13961042E+03</pdfrwt>
<totfact> 0.15242719E+04</totfact>
</mgrwt>
</event>
<event>
 6    4  0.3995738E-003  0.1302522E+03  0.7818608E-02  0.1227082E+00
         21   -1    0    0  501  502  0.00000000000E+00  0.00000000000E+00  0.25440723120E+02  0.25440723120E+02  0.00000000000E+00 0. -1.
         -4   -1    0    0    0  501 -0.00000000000E+00 -0.00000000000E+00 -0.92980475020E+03  0.92980561753E+03  0.12700000000E+01 0.  1.
         25    2    1    2    0    0  0.72365381197E+01  0.35894496460E+02 -0.90902766962E+03  0.91831200945E+03  0.12499944083E+03 0.  0.
    9000005    1    3    3    0    0  0.37617083792E+02  0.61670334415E+02 -0.77825856232E+03  0.78160454512E+03  0.10000000000E+01 0.  0.
    9000005    1    3    3    0    0 -0.30380545673E+02 -0.25775837955E+02 -0.13076910730E+03  0.13670746432E+03  0.10000000000E+01 0.  0.
         -4    1    1    2    0  502 -0.72365381197E+01 -0.35894496460E+02  0.46636425344E+01  0.36934331208E+02  0.12700000000E+01 0. -1.
<mgrwt>
<rscale>  1 0.13025223E+03</rscale>
<asrwt>0</asrwt>
<pdfrwt beam="1">  1       21 0.39139576E-02 0.13025223E+03</pdfrwt>
<pdfrwt beam="2">  1       -4 0.14304938E+00 0.13025223E+03</pdfrwt>
<totfact> 0.59715006E+03</totfact>
</mgrwt>
</event>
<event>
 6    4  0.3995738E-003  0.1279978E+03  0.7818608E-02  0.1230457E+00
         21   -1    0    0  501  502  0.00000000000E+00  0.00000000000E+00  0.38808516145E+02  0.38808516145E+02  0.00000000000E+00 0. -1.
         -4   -1    0    0    0  501 -0.00000000000E+00 -0.00000000000E+00 -0.36930489047E+03  0.36930707416E+03  0.12700000000E+01 0.  1.
         25    2    1    2    0    0  0.27553269242E+02  0.38880054637E+00 -0.35108777132E+03  0.37369245359E+03  0.12499637149E+03 0.  0.
    9000005    1    3    3    0    0 -0.42365863405E+02 -0.22195210777E+02 -0.20055859026E+03  0.20618497009E+03  0.10000000000E+01 0.  0.
    9000005    1    3    3    0    0  0.69919132647E+02  0.22584011323E+02 -0.15052918105E+03  0.16750748349E+03  0.10000000000E+01 0.  0.
         -4    1    1    2    0  502 -0.27553269242E+02 -0.38880054637E+00  0.20591396991E+02  0.34423136722E+02  0.12700000000E+01 0. -1.
<mgrwt>
<rscale>  1 0.12799776E+03</rscale>
<asrwt>0</asrwt>
<pdfrwt beam="1">  1       21 0.59705408E-02 0.12799776E+03</pdfrwt>
<pdfrwt beam="2">  1       -4 0.56817905E-01 0.12799776E+03</pdfrwt>
<totfact> 0.23882986E+04</totfact>
</mgrwt>
</event>
<event>
 6    4  0.3995738E-003  0.1288124E+03  0.7818608E-02  0.1229229E+00
         -4   -1    0    0    0  501 -0.00000000000E+00  0.00000000000E+00  0.21679273548E+02  0.21716440813E+02  0.12700000000E+01 0.  1.
         21   -1    0    0  501  502  0.00000000000E+00 -0.00000000000E+00 -0.29510237491E+03  0.29510237491E+03  0.00000000000E+00 0.  1.
         25    2    1    2    0    0 -0.29618491553E+02 -0.95140605636E+01 -0.22445017754E+03  0.25878664742E+03  0.12499949718E+03 0.  0.
    9000005    1    3    3    0    0 -0.22717046280E+02 -0.35492525902E+02 -0.22781233413E+03  0.23167918156E+03  0.10000000000E+01 0.  0.
    9000005    1    3    3    0    0 -0.69014452732E+01  0.25978465338E+02  0.33621565942E+01  0.27107465856E+02  0.10000000000E+01 0.  0.
         -4    1    1    2    0  502  0.29618491553E+02  0.95140605636E+01 -0.48972923823E+02  0.58032168304E+02  0.12700000000E+01 0. -1.
<mgrwt>
<rscale>  1 0.12881245E+03</rscale>
<asrwt>0</asrwt>
<pdfrwt beam="2">  1       21 0.45400362E-01 0.12881245E+03</pdfrwt>
<pdfrwt beam="1">  1       -4 0.33383423E-02 0.12881245E+03</pdfrwt>
<totfact> 0.85555496E+04</totfact>
</mgrwt>
</event>
<event>
 6    4  0.3995738E-003  0.1274841E+03  0.7818608E-02  0.1231237E+00
          4   -1    0    0  502    0 -0.00000000000E+00  0.00000000000E+00  0.81737241011E+03  0.81737339675E+03  0.12700000000E+01 0. -1.
         21   -1    0    0  501  502  0.00000000000E+00 -0.00000000000E+00 -0.91322917894E+01  0.91322917894E+01  0.00000000000E+00 0. -1.
         25    2    1    2    0    0  0.23824515041E+02 -0.77015579927E+01  0.77190043056E+03  0.78235699298E+03  0.12500107304E+03 0.  0.
    9000005    1    3    3    0    0  0.66910798852E+02 -0.33775421358E+02  0.52938755728E+03  0.53466813996E+03  0.10000000000E+01 0.  0.
    9000005    1    3    3    0    0 -0.43086283811E+02  0.26073863365E+02  0.24251287328E+03  0.24768885302E+03  0.10000000000E+01 0.  0.
          4    1    1    2  501    0 -0.23824515041E+02  0.77015579927E+01  0.36339687767E+02  0.44148695558E+02  0.12700000000E+01 0.  1.
<mgrwt>
<rscale>  1 0.12748408E+03</rscale>
<asrwt>0</asrwt>
<pdfrwt beam="2">  1       21 0.14049686E-02 0.12748408E+03</pdfrwt>
<pdfrwt beam="1">  1        4 0.12575641E+00 0.12748408E+03</pdfrwt>
<totfact> 0.43234869E+04</totfact>
</mgrwt>
</event>
<event>
 6    4  0.3995738E-003  0.1274785E+03  0.7818608E-02  0.1231246E+00
         -4   -1    0    0    0  501 -0.00000000000E+00  0.00000000000E+00  0.34780982311E+02  0.34804161110E+02  0.12700000000E+01 0.  1.
         21   -1    0    0  501  502  0.00000000000E+00 -0.00000000000E+00 -0.21627403325E+03  0.21627403325E+03  0.00000000000E+00 0.  1.
         25    2    1    2    0    0 -0.11773337757E+02 -0.22080546653E+02 -0.18612776006E+03  0.22559770278E+03  0.12499847364E+03 0.  0.
    9000005    1    3    3    0    0 -0.61014430696E+02  0.66317881623E+01 -0.13782850946E+03  0.15087888980E+03  0.10000000000E+01 0.  0.
    9000005    1    3    3    0    0  0.49241092939E+02 -0.28712334815E+02 -0.48299250597E+02  0.74718812976E+02  0.10000000000E+01 0.  0.
         -4    1    1    2    0  502  0.11773337757E+02  0.22080546653E+02  0.46347091223E+01  0.25480491578E+02  0.12700000000E+01 0. -1.
<mgrwt>
<rscale>  1 0.12747855E+03</rscale>
<asrwt>0</asrwt>
<pdfrwt beam="2">  1       21 0.33272928E-01 0.12747855E+03</pdfrwt>
<pdfrwt beam="1">  1       -4 0.53529902E-02 0.12747855E+03</pdfrwt>
<totfact> 0.74841324E+04</totfact>
</mgrwt>
</event>
<event>
 6    4  0.3995738E-003  0.1270356E+03  0.7818608E-02  0.1231922E+00
          4   -1    0    0  502    0 -0.00000000000E+00  0.00000000000E+00  0.12784362167E+04  0.12784368475E+04  0.12700000000E+01 0. -1.
         21   -1    0    0  501  502  0.00000000000E+00 -0.00000000000E+00 -0.16949306078E+02  0.16949306078E+02  0.00000000000E+00 0.  1.
         25    2    1    2    0    0 -0.56291688021E+01  0.21925044239E+02  0.12659258946E+04  0.12722839333E+04  0.12500256496E+03 0.  0.
    9000005    1    3    3    0    0 -0.50973257056E+02  0.50323396164E+02  0.61379275696E+03  0.61795895141E+03  0.10000000000E+01 0.  0.
    9000005    1    3    3    0    0  0.45344088254E+02 -0.28398351924E+02  0.65213313760E+03  0.65432498186E+03  0.10000000000E+01 0.  0.
          4    1    1    2  501    0  0.56291688021E+01 -0.21925044239E+02 -0.44389839141E+01  0.23102220337E+02  0.12700000000E+01 0.  1.
<mgrwt>
<rscale>  1 0.12703557E+03</rscale>
<asrwt>0</asrwt>
<pdfrwt beam="2">  1       21 0.26075866E-02 0.12703557E+03</pdfrwt>
<pdfrwt beam="1">  1        4 0.19668613E+00 0.12703557E+03</pdfrwt>
<totfact> 0.49967986E+03</totfact>
</mgrwt>
</event>
<event>
 6    4  0.3995738E-003  0.1310046E+03  0.7818608E-02  0.1225973E+00
          4   -1    0    0  502    0 -0.00000000000E+00  0.00000000000E+00  0.89181622044E+02  0.89190664368E+02  0.12700000000E+01 0.  1.
         21   -1    0    0  501  502  0.00000000000E+00 -0.00000000000E+00 -0.88556628452E+02  0.88556628452E+02  0.00000000000E+00 0.  1.
         25    2    1    2    0    0 -0.20789086548E+02  0.33304706139E+02  0.22290673439E+02  0.13288746498E+03  0.12498325750E+03 0.  0.
    9000005    1    3    3    0    0 -0.44850620512E+01  0.73834046733E+02  0.41870324574E+02  0.85004154713E+02  0.10000000000E+01 0.  0.
    9000005    1    3    3    0    0 -0.16304024496E+02 -0.40529340594E+02 -0.19579651135E+02  0.47883310269E+02  0.10000000000E+01 0.  0.
          4    1    1    2  501    0  0.20789086548E+02 -0.33304706139E+02 -0.21665679847E+02  0.44859827839E+02  0.12700000000E+01 0. -1.
<mgrwt>
<rscale>  1 0.13100460E+03</rscale>
<asrwt>0</asrwt>
<pdfrwt beam="2">  1       21 0.13624097E-01 0.13100460E+03</pdfrwt>
<pdfrwt beam="1">  1        4 0.13721646E-01 0.13100460E+03</pdfrwt>
<totfact> 0.82659992E+04</totfact>
</mgrwt>
</event>
<event>
 6    4  0.3995738E-003  0.1460452E+03  0.7818608E-02  0.1205419E+00
         21   -1    0    0  501  502  0.00000000000E+00  0.00000000000E+00  0.33752298493E+02  0.33752298493E+02  0.00000000000E+00 0. -1.
         -4   -1    0    0    0  501 -0.00000000000E+00 -0.00000000000E+00 -0.40771953370E+03  0.40772151165E+03  0.12700000000E+01 0.  1.
         25    2    1    2    0    0 -0.41755289572E+02 -0.62970168180E+02 -0.30917336811E+03  0.34193183708E+03  0.12498185216E+03 0.  0.
    9000005    1    3    3    0    0  0.23643052520E+02  0.16796427133E+02 -0.14623029627E+03  0.14908190179E+03  0.10000000000E+01 0.  0.
    9000005    1    3    3    0    0 -0.65398342092E+02 -0.79766595313E+02 -0.16294307185E+03  0.19284993529E+03  0.10000000000E+01 0.  0.
         -4    1    1    2    0  502  0.41755289572E+02  0.62970168180E+02 -0.64793867091E+02  0.99541973059E+02  0.12700000000E+01 0. -1.
<mgrwt>
<rscale>  1 0.14604523E+03</rscale>
<asrwt>0</asrwt>
<pdfrwt beam="1">  1       21 0.51926616E-02 0.14604523E+03</pdfrwt>
<pdfrwt beam="2">  1       -4 0.62728068E-01 0.14604523E+03</pdfrwt>
<totfact> 0.24929630E+04</totfact>
</mgrwt>
</event>
<event>
 6    4  0.3995738E-003  0.1315736E+03  0.7818608E-02  0.1225139E+00
         21   -1    0    0  501  502  0.00000000000E+00  0.00000000000E+00  0.23691448717E+03  0.23691448717E+03  0.00000000000E+00 0.  1.
         -4   -1    0    0    0  501 -0.00000000000E+00 -0.00000000000E+00 -0.56300559032E+02  0.56314881224E+02  0.12700000000E+01 0.  1.
         25    2    1    2    0    0 -0.39447014371E+02 -0.11436292467E+02  0.27131817784E+02  0.13434190247E+03  0.12499902198E+03 0.  0.
    9000005    1    3    3    0    0 -0.17580390715E+02 -0.27435447620E+02 -0.45980169609E+02  0.56364438444E+02  0.10000000000E+01 0.  0.
    9000005    1    3    3    0    0 -0.21866623656E+02  0.15999155153E+02  0.73111987393E+02  0.77977464028E+02  0.10000000000E+01 0.  0.
         -4    1    1    2    0  502  0.39447014371E+02  0.11436292467E+02  0.15348211035E+03  0.15888746592E+03  0.12700000000E+01 0. -1.
<mgrwt>
<rscale>  1 0.13157360E+03</rscale>
<asrwt>0</asrwt>
<pdfrwt beam="1">  1       21 0.36448382E-01 0.13157360E+03</pdfrwt>
<pdfrwt beam="2">  1       -4 0.86629881E-02 0.13157360E+03</pdfrwt>
<totfact> 0.28552784E+04</totfact>
</mgrwt>
</event>
<event>
 6    4  0.3995738E-003  0.1398152E+03  0.7818608E-02  0.1213578E+00
         21   -1    0    0  501  502  0.00000000000E+00  0.00000000000E+00  0.15475368291E+03  0.15475368291E+03  0.00000000000E+00 0. -1.
         -4   -1    0    0    0  501 -0.00000000000E+00 -0.00000000000E+00 -0.91506713968E+02  0.91515526558E+02  0.12700000000E+01 0.  1.
         25    2    1    2    0    0 -0.11376673580E+02 -0.61562859285E+02 -0.20911951936E+02  0.14137044299E+03  0.12501551133E+03 0.  0.
    9000005    1    3    3    0    0  0.42875125029E+02 -0.12047944799E+02  0.28460793092E+02  0.52862520405E+02  0.10000000000E+01 0.  0.
    9000005    1    3    3    0    0 -0.54251798609E+02 -0.49514914486E+02 -0.49372745028E+02  0.88507922586E+02  0.10000000000E+01 0.  0.
         -4    1    1    2    0  502  0.11376673580E+02  0.61562859285E+02  0.84158920878E+02  0.10489876648E+03  0.12700000000E+01 0. -1.
<mgrwt>
<rscale>  1 0.13981521E+03</rscale>
<asrwt>0</asrwt>
<pdfrwt beam="1">  1       21 0.23808259E-01 0.13981521E+03</pdfrwt>
<pdfrwt beam="2">  1       -4 0.14079035E-01 0.13981521E+03</pdfrwt>
<totfact> 0.28607044E+04</totfact>
</mgrwt>
</event>
<event>
 6    4  0.3995738E-003  0.1271750E+03  0.7818608E-02  0.1231709E+00
         21   -1    0    0  501  502  0.00000000000E+00  0.00000000000E+00  0.29704278809E+03  0.29704278809E+03  0.00000000000E+00 0.  1.
          4   -1    0    0  502    0 -0.00000000000E+00 -0.00000000000E+00 -0.22303782467E+02  0.22339910751E+02  0.12700000000E+01 0. -1.
         25    2    1    2    0    0  0.18216166813E+02 -0.14711958674E+02  0.17146590828E+03  0.21348078198E+03  0.12500086443E+03 0.  0.
    9000005    1    3    3    0    0 -0.18933376544E+02 -0.42316831683E+02  0.12663491429E+02  0.48068191210E+02  0.10000000000E+01 0.  0.
    9000005    1    3    3    0    0  0.37149543357E+02  0.27604873009E+02  0.15880241685E+03  0.16541259077E+03  0.10000000000E+01 0.  0.
          4    1    1    2  501    0 -0.18216166813E+02  0.14711958674E+02  0.10327309734E+03  0.10590191687E+03  0.12700000000E+01 0.  1.
<mgrwt>
<rscale>  1 0.12717502E+03</rscale>
<asrwt>0</asrwt>
<pdfrwt beam="1">  1       21 0.45698888E-01 0.12717502E+03</pdfrwt>
<pdfrwt beam="2">  1        4 0.34343393E-02 0.12717502E+03</pdfrwt>
<totfact> 0.80611819E+04</totfact>
</mgrwt>
</event>
<event>
 6    4  0.3995738E-003  0.1352655E+03  0.7818608E-02  0.1219845E+00
         -4   -1    0    0    0  501 -0.00000000000E+00  0.00000000000E+00  0.76866938325E+03  0.76867043240E+03  0.12700000000E+01 0. -1.
         21   -1    0    0  501  502  0.00000000000E+00 -0.00000000000E+00 -0.12587279856E+02  0.12587279856E+02  0.00000000000E+00 0.  1.
         25    2    1    2    0    0  0.23327223261E+02  0.46126099132E+02  0.64065801234E+03  0.65478198312E+03  0.12499992108E+03 0.  0.
    9000005    1    3    3    0    0  0.27798803543E+02  0.16352221645E+01  0.57299841556E+03  0.57367554564E+03  0.10000000000E+01 0.  0.
    9000005    1    3    3    0    0 -0.44715802826E+01  0.44490876968E+02  0.67659596784E+02  0.81106437479E+02  0.10000000000E+01 0.  0.
         -4    1    1    2    0  502 -0.23327223261E+02 -0.46126099132E+02  0.11542409105E+03  0.12647572914E+03  0.12700000000E+01 0.  1.
<mgrwt>
<rscale>  1 0.13526550E+03</rscale>
<asrwt>0</asrwt>
<pdfrwt beam="2">  1       21 0.19365052E-02 0.13526550E+03</pdfrwt>
<pdfrwt beam="1">  1       -4 0.11826180E+00 0.13526550E+03</pdfrwt>
<totfact> 0.30203836E+04</totfact>
</mgrwt>
</event>
<event>
 6    4  0.3995738E-003  0.1290289E+03  0.7818608E-02  0.1228904E+00
          4   -1    0    0  502    0 -0.00000000000E+00  0.00000000000E+00  0.15707347409E+03  0.15707860823E+03  0.12700000000E+01 0. -1.
         21   -1    0    0  501  502  0.00000000000E+00 -0.00000000000E+00 -0.41985134496E+02  0.41985134496E+02  0.00000000000E+00 0.  1.
         25    2    1    2    0    0 -0.18926967267E+02  0.25794910864E+02  0.10198599423E+03  0.16446761765E+03  0.12499938688E+03 0.  0.
    9000005    1    3    3    0    0  0.47306222848E+02  0.29712463994E+02  0.73324862156E+02  0.92185924342E+02  0.10000000000E+01 0.  0.
    9000005    1    3    3    0    0 -0.66233190115E+02 -0.39175531296E+01  0.28661132070E+02  0.72281693304E+02  0.10000000000E+01 0.  0.
          4    1    1    2  501    0  0.18926967267E+02 -0.25794910864E+02  0.13102345370E+02  0.34596125081E+02  0.12700000000E+01 0.  1.
<mgrwt>
<rscale>  1 0.12902889E+03</rscale>
<asrwt>0</asrwt>
<pdfrwt beam="2">  1       21 0.64592516E-02 0.12902889E+03</pdfrwt>
<pdfrwt beam="1">  1        4 0.24167022E-01 0.12902889E+03</pdfrwt>
<totfact> 0.11060508E+05</totfact>
</mgrwt>
</event>
<event>
 6    4  0.3995738E-003  0.1274099E+03  0.7818608E-02  0.1231350E+00
         -4   -1    0    0    0  501 -0.00000000000E+00  0.00000000000E+00  0.13088960541E+03  0.13089576656E+03  0.12700000000E+01 0. -1.
         21   -1    0    0  501  502  0.00000000000E+00 -0.00000000000E+00 -0.51491631944E+02  0.51491631944E+02  0.00000000000E+00 0. -1.
         25    2    1    2    0    0  0.24550785714E+02 -0.23645325598E+01  0.89500822429E+02  0.15570383520E+03  0.12499981995E+03 0.  0.
    9000005    1    3    3    0    0  0.15268228664E+02  0.46321208407E+02  0.94023193365E+02  0.10592513415E+03  0.10000000000E+01 0.  0.
    9000005    1    3    3    0    0  0.92825570505E+01 -0.48685740967E+02 -0.45223709358E+01  0.49778701045E+02  0.10000000000E+01 0.  0.
         -4    1    1    2    0  502 -0.24550785714E+02  0.23645325598E+01 -0.10102848967E+02  0.26683563305E+02  0.12700000000E+01 0.  1.
<mgrwt>
<rscale>  1 0.12740992E+03</rscale>
<asrwt>0</asrwt>
<pdfrwt beam="2">  1       21 0.79217896E-02 0.12740992E+03</pdfrwt>
<pdfrwt beam="1">  1       -4 0.20138541E-01 0.12740992E+03</pdfrwt>
<totfact> 0.10840679E+05</totfact>
</mgrwt>
</event>
<event>
 6    4  0.3995738E-003  0.1329528E+03  0.7818608E-02  0.1223139E+00
          4   -1    0    0  502    0 -0.00000000000E+00  0.00000000000E+00  0.27518946802E+02  0.27548236479E+02  0.12700000000E+01 0. -1.
         21   -1    0    0  501  502  0.00000000000E+00 -0.00000000000E+00 -0.59091391461E+03  0.59091391461E+03  0.00000000000E+00 0.  1.
         25    2    1    2    0    0 -0.15164473652E+02 -0.42689685380E+02 -0.14158145878E+03  0.19422092278E+03  0.12499634745E+03 0.  0.
    9000005    1    3    3    0    0 -0.47383941337E+02 -0.52775592466E+02 -0.28914246720E+02  0.76599834988E+02  0.10000000000E+01 0.  0.
    9000005    1    3    3    0    0  0.32219467685E+02  0.10085907086E+02 -0.11266721206E+03  0.11762108779E+03  0.10000000000E+01 0.  0.
          4    1    1    2  501    0  0.15164473652E+02  0.42689685380E+02 -0.42181350903E+03  0.42424122831E+03  0.12700000000E+01 0.  1.
<mgrwt>
<rscale>  1 0.13295284E+03</rscale>
<asrwt>0</asrwt>
<pdfrwt beam="2">  1       21 0.90909834E-01 0.13295284E+03</pdfrwt>
<pdfrwt beam="1">  1        4 0.42360421E-02 0.13295284E+03</pdfrwt>
<totfact> 0.13197697E+04</totfact>
</mgrwt>
</event>
<event>
 6    4  0.3995738E-003  0.1283229E+03  0.7818608E-02  0.1229966E+00
         -4   -1    0    0    0  501 -0.00000000000E+00  0.00000000000E+00  0.73055434821E+03  0.73055545209E+03  0.12700000000E+01 0.  1.
         21   -1    0    0  501  502  0.00000000000E+00 -0.00000000000E+00 -0.86724045508E+01  0.86724045508E+01  0.00000000000E+00 0.  1.
         25    2    1    2    0    0  0.14582840619E+02  0.25095132033E+02  0.62704302890E+03  0.64003885754E+03  0.12499741665E+03 0.  0.
    9000005    1    3    3    0    0 -0.32242129377E+02 -0.19410066839E+02  0.72002508923E+02  0.81250642413E+02  0.10000000000E+01 0.  0.
    9000005    1    3    3    0    0  0.46824969996E+02  0.44505198872E+02  0.55504051998E+03  0.55878821512E+03  0.10000000000E+01 0.  0.
         -4    1    1    2    0  502 -0.14582840619E+02 -0.25095132033E+02  0.94838914755E+02  0.99188999109E+02  0.12700000000E+01 0. -1.
<mgrwt>
<rscale>  1 0.12832295E+03</rscale>
<asrwt>0</asrwt>
<pdfrwt beam="2">  1       21 0.13342167E-02 0.12832295E+03</pdfrwt>
<pdfrwt beam="1">  1       -4 0.11240017E+00 0.12832295E+03</pdfrwt>
<totfact> 0.61468139E+04</totfact>
</mgrwt>
</event>
<event>
 6    4  0.3995738E-003  0.1267035E+03  0.7818608E-02  0.1232431E+00
         21   -1    0    0  501  502  0.00000000000E+00  0.00000000000E+00  0.21787655468E+02  0.21787655468E+02  0.00000000000E+00 0. -1.
          4   -1    0    0  502    0 -0.00000000000E+00 -0.00000000000E+00 -0.97836339453E+03  0.97836421881E+03  0.12700000000E+01 0.  1.
         25    2    1    2    0    0  0.18837796000E+02  0.87485011097E+01 -0.96810590248E+03  0.97636203615E+03  0.12498955312E+03 0.  0.
    9000005    1    3    3    0    0  0.45190097066E+02  0.33110558737E+02 -0.87152155869E+03  0.87332083522E+03  0.10000000000E+01 0.  0.
    9000005    1    3    3    0    0 -0.26352301066E+02 -0.24362057627E+02 -0.96584343786E+02  0.10304120092E+03  0.10000000000E+01 0.  0.
          4    1    1    2  501    0 -0.18837796000E+02 -0.87485011097E+01  0.11530163419E+02  0.23789838130E+02  0.12700000000E+01 0. -1.
<mgrwt>
<rscale>  1 0.12670354E+03</rscale>
<asrwt>0</asrwt>
<pdfrwt beam="1">  1       21 0.33519471E-02 0.12670354E+03</pdfrwt>
<pdfrwt beam="2">  1        4 0.15052035E+00 0.12670354E+03</pdfrwt>
<totfact> 0.67691049E+03</totfact>
</mgrwt>
</event>
<event>
 6    4  0.3995738E-003  0.1321182E+03  0.7818608E-02  0.1224346E+00
         21   -1    0    0  501  502  0.00000000000E+00  0.00000000000E+00  0.44308254519E+03  0.44308254519E+03  0.00000000000E+00 0.  1.
          4   -1    0    0  502    0 -0.00000000000E+00 -0.00000000000E+00 -0.20139593966E+02  0.20179597249E+02  0.12700000000E+01 0. -1.
         25    2    1    2    0    0 -0.33931981838E+01  0.42652622628E+02  0.22656213172E+03  0.26227010484E+03  0.12499779338E+03 0.  0.
    9000005    1    3    3    0    0 -0.58886963449E+02  0.24668187344E+02  0.67835907829E+02  0.93160637192E+02  0.10000000000E+01 0.  0.
    9000005    1    3    3    0    0  0.55493765265E+02  0.17984435285E+02  0.15872622389E+03  0.16910946765E+03  0.10000000000E+01 0.  0.
          4    1    1    2  501    0  0.33931981838E+01 -0.42652622628E+02  0.19638081950E+03  0.20099203760E+03  0.12700000000E+01 0.  1.
<mgrwt>
<rscale>  1 0.13211816E+03</rscale>
<asrwt>0</asrwt>
<pdfrwt beam="1">  1       21 0.68166538E-01 0.13211816E+03</pdfrwt>
<pdfrwt beam="2">  1        4 0.31016166E-02 0.13211816E+03</pdfrwt>
<totfact> 0.41021662E+04</totfact>
</mgrwt>
</event>
<event>
 6    4  0.3995738E-003  0.1274614E+03  0.7818608E-02  0.1231272E+00
         -4   -1    0    0    0  501 -0.00000000000E+00  0.00000000000E+00  0.15244431722E+04  0.15244437012E+04  0.12700000000E+01 0. -1.
         21   -1    0    0  501  502  0.00000000000E+00 -0.00000000000E+00 -0.38217899420E+01  0.38217899420E+01  0.00000000000E+00 0. -1.
         25    2    1    2    0    0 -0.67222065762E+01 -0.24005455329E+02  0.13017631402E+04  0.13079884089E+04  0.12499981882E+03 0.  0.
    9000005    1    3    3    0    0  0.48839912130E+02 -0.19847413921E+01  0.94406809401E+03  0.94533319118E+03  0.10000000000E+01 0.  0.
    9000005    1    3    3    0    0 -0.55562118706E+02 -0.22020713937E+02  0.35769504623E+03  0.36265521777E+03  0.10000000000E+01 0.  0.
         -4    1    1    2    0  502  0.67222065762E+01  0.24005455329E+02  0.21885824202E+03  0.22027708221E+03  0.12700000000E+01 0.  1.
<mgrwt>
<rscale>  1 0.12746138E+03</rscale>
<asrwt>0</asrwt>
<pdfrwt beam="2">  1       21 0.58796890E-03 0.12746138E+03</pdfrwt>
<pdfrwt beam="1">  1       -4 0.23454550E+00 0.12746138E+03</pdfrwt>
<totfact> 0.31502177E+04</totfact>
</mgrwt>
</event>
<event>
 6    4  0.3995738E-003  0.1290622E+03  0.7818608E-02  0.1228854E+00
          4   -1    0    0  502    0 -0.00000000000E+00  0.00000000000E+00  0.85189464475E+02  0.85198930496E+02  0.12700000000E+01 0. -1.
         21   -1    0    0  501  502  0.00000000000E+00 -0.00000000000E+00 -0.90831492340E+02  0.90831492340E+02  0.00000000000E+00 0. -1.
         25    2    1    2    0    0  0.31890863457E+02  0.39908290050E+01  0.25164577205E+02  0.13149264444E+03  0.12499642278E+03 0.  0.
    9000005    1    3    3    0    0 -0.42781583802E+02 -0.10535331670E+01  0.35912509992E+02  0.55875595913E+02  0.10000000000E+01 0.  0.
    9000005    1    3    3    0    0  0.74672447258E+02  0.50443621720E+01 -0.10747932787E+02  0.75617048531E+02  0.10000000000E+01 0.  0.
          4    1    1    2  501    0 -0.31890863457E+02 -0.39908290050E+01 -0.30806605069E+02  0.44537778392E+02  0.12700000000E+01 0.  1.
<mgrwt>
<rscale>  1 0.12906223E+03</rscale>
<asrwt>0</asrwt>
<pdfrwt beam="2">  1       21 0.13974076E-01 0.12906223E+03</pdfrwt>
<pdfrwt beam="1">  1        4 0.13107483E-01 0.12906223E+03</pdfrwt>
<totfact> 0.85311549E+04</totfact>
</mgrwt>
</event>
<event>
 6    4  0.3995738E-003  0.1644722E+03  0.7818608E-02  0.1183738E+00
          4   -1    0    0  502    0 -0.00000000000E+00  0.00000000000E+00  0.15321295465E+03  0.15321821815E+03  0.12700000000E+01 0. -1.
         21   -1    0    0  501  502  0.00000000000E+00 -0.00000000000E+00 -0.30892661113E+03  0.30892661113E+03  0.00000000000E+00 0.  1.
         25    2    1    2    0    0  0.79161020919E+02  0.71786349461E+02  0.94765109090E+02  0.18981970723E+03  0.12502539002E+03 0.  0.
    9000005    1    3    3    0    0  0.53311722665E+02  0.80902860700E+02  0.11883330772E+03  0.15332895247E+03  0.10000000000E+01 0.  0.
    9000005    1    3    3    0    0  0.25849298254E+02 -0.91165112389E+01 -0.24068198627E+02  0.36490754755E+02  0.10000000000E+01 0.  0.
          4    1    1    2  501    0 -0.79161020919E+02 -0.71786349461E+02 -0.25047876557E+03  0.27232512206E+03  0.12700000000E+01 0.  1.
<mgrwt>
<rscale>  1 0.16447217E+03</rscale>
<asrwt>0</asrwt>
<pdfrwt beam="2">  1       21 0.47527170E-01 0.16447217E+03</pdfrwt>
<pdfrwt beam="1">  1        4 0.23571830E-01 0.16447217E+03</pdfrwt>
<totfact> 0.29598186E+03</totfact>
</mgrwt>
</event>
<event>
 6    4  0.3995738E-003  0.1297480E+03  0.7818608E-02  0.1227830E+00
         -4   -1    0    0    0  501 -0.00000000000E+00  0.00000000000E+00  0.13230349115E+03  0.13230958647E+03  0.12700000000E+01 0.  1.
         21   -1    0    0  501  502  0.00000000000E+00 -0.00000000000E+00 -0.52918132563E+02  0.52918132563E+02  0.00000000000E+00 0.  1.
         25    2    1    2    0    0 -0.33767857048E+02  0.82887240295E+01  0.75757597731E+02  0.15024565699E+03  0.12500229084E+03 0.  0.
    9000005    1    3    3    0    0  0.16448208159E+02  0.51350166604E+02  0.62571216020E+01  0.54291203087E+02  0.10000000000E+01 0.  0.
    9000005    1    3    3    0    0 -0.50216065207E+02 -0.43061442575E+02  0.69500476129E+02  0.95954453902E+02  0.10000000000E+01 0.  0.
         -4    1    1    2    0  502  0.33767857048E+02 -0.82887240295E+01  0.36277608561E+01  0.34982062038E+02  0.12700000000E+01 0. -1.
<mgrwt>
<rscale>  1 0.12974800E+03</rscale>
<asrwt>0</asrwt>
<pdfrwt beam="2">  1       21 0.81412512E-02 0.12974800E+03</pdfrwt>
<pdfrwt beam="1">  1       -4 0.20356024E-01 0.12974800E+03</pdfrwt>
<totfact> 0.10170680E+05</totfact>
</mgrwt>
</event>
<event>
 6    4  0.3995738E-003  0.1298269E+03  0.7818608E-02  0.1227713E+00
         21   -1    0    0  501  502  0.00000000000E+00  0.00000000000E+00  0.14477544263E+02  0.14477544263E+02  0.00000000000E+00 0.  1.
          4   -1    0    0  502    0 -0.00000000000E+00 -0.00000000000E+00 -0.91931961371E+03  0.91932049094E+03  0.12700000000E+01 0. -1.
         25    2    1    2    0    0 -0.16813245464E+02  0.30759622848E+02 -0.88296227347E+03  0.89245582925E+03  0.12500476459E+03 0.  0.
    9000005    1    3    3    0    0 -0.61462625866E+02  0.15920599946E+02 -0.72111158412E+03  0.72390195236E+03  0.10000000000E+01 0.  0.
    9000005    1    3    3    0    0  0.44649380402E+02  0.14839022901E+02 -0.16185068935E+03  0.16855387689E+03  0.10000000000E+01 0.  0.
          4    1    1    2  501    0  0.16813245464E+02 -0.30759622848E+02 -0.21879795980E+02  0.41342205951E+02  0.12700000000E+01 0.  1.
<mgrwt>
<rscale>  1 0.12982693E+03</rscale>
<asrwt>0</asrwt>
<pdfrwt beam="1">  1       21 0.22273144E-02 0.12982693E+03</pdfrwt>
<pdfrwt beam="2">  1        4 0.14143815E+00 0.12982693E+03</pdfrwt>
<totfact> 0.15477435E+04</totfact>
</mgrwt>
</event>
<event>
 6    4  0.3995738E-003  0.1417921E+03  0.7818608E-02  0.1210938E+00
         21   -1    0    0  501  502  0.00000000000E+00  0.00000000000E+00  0.21655548867E+03  0.21655548867E+03  0.00000000000E+00 0.  1.
         -4   -1    0    0    0  501 -0.00000000000E+00 -0.00000000000E+00 -0.10910231168E+03  0.10910970311E+03  0.12700000000E+01 0. -1.
         25    2    1    2    0    0 -0.48787531801E+02 -0.45789414261E+02 -0.53346662417E+02  0.15149546143E+03  0.12501245828E+03 0.  0.
    9000005    1    3    3    0    0 -0.46443094290E+02 -0.87310303550E+02 -0.46692968721E+02  0.10936765263E+03  0.10000000000E+01 0.  0.
    9000005    1    3    3    0    0 -0.23444375111E+01  0.41520889289E+02 -0.66536936960E+01  0.42127808801E+02  0.10000000000E+01 0.  0.
         -4    1    1    2    0  502  0.48787531801E+02  0.45789414261E+02  0.16079983941E+03  0.17416973035E+03  0.12700000000E+01 0.  1.
<mgrwt>
<rscale>  1 0.14179213E+03</rscale>
<asrwt>0</asrwt>
<pdfrwt beam="1">  1       21 0.33316229E-01 0.14179213E+03</pdfrwt>
<pdfrwt beam="2">  1       -4 0.16785826E-01 0.14179213E+03</pdfrwt>
<totfact> 0.11042856E+04</totfact>
</mgrwt>
</event>
<event>
 6    4  0.3995738E-003  0.1276047E+03  0.7818608E-02  0.1231054E+00
         21   -1    0    0  501  502  0.00000000000E+00  0.00000000000E+00  0.80263490234E+01  0.80263490234E+01  0.00000000000E+00 0. -1.
         -4   -1    0    0    0  501 -0.00000000000E+00 -0.00000000000E+00 -0.73225295112E+03  0.73225405245E+03  0.12700000000E+01 0. -1.
         25    2    1    2    0    0  0.20821733094E+00 -0.25628938019E+02 -0.61091677590E+03  0.62410116309E+03  0.12500427542E+03 0.  0.
    9000005    1    3    3    0    0 -0.47713852570E+01 -0.75460158796E+02 -0.41819275736E+03  0.42497433333E+03  0.10000000000E+01 0.  0.
    9000005    1    3    3    0    0  0.49796025880E+01  0.49831220777E+02 -0.19272401854E+03  0.19912682976E+03  0.10000000000E+01 0.  0.
         -4    1    1    2    0  502 -0.20821733094E+00  0.25628938019E+02 -0.11330982619E+03  0.11617923838E+03  0.12700000000E+01 0.  1.
<mgrwt>
<rscale>  1 0.12760468E+03</rscale>
<asrwt>0</asrwt>
<pdfrwt beam="1">  1       21 0.12348230E-02 0.12760468E+03</pdfrwt>
<pdfrwt beam="2">  1       -4 0.11266210E+00 0.12760468E+03</pdfrwt>
<totfact> 0.69073986E+04</totfact>
</mgrwt>
</event>
<event>
 6    4  0.3995738E-003  0.1271721E+03  0.7818608E-02  0.1231713E+00
         21   -1    0    0  501  502  0.00000000000E+00  0.00000000000E+00  0.14342915643E+03  0.14342915643E+03  0.00000000000E+00 0. -1.
          4   -1    0    0  502    0 -0.00000000000E+00 -0.00000000000E+00 -0.41318506102E+02  0.41338019383E+02  0.12700000000E+01 0. -1.
         25    2    1    2    0    0  0.21387583279E+02 -0.95167238477E+01  0.98904819265E+02  0.16110524427E+03  0.12499895882E+03 0.  0.
    9000005    1    3    3    0    0 -0.31151849996E+02  0.13453990328E+02  0.98037234718E+02  0.10374847953E+03  0.10000000000E+01 0.  0.
    9000005    1    3    3    0    0  0.52539433275E+02 -0.22970714176E+02  0.86758454780E+00  0.57356764741E+02  0.10000000000E+01 0.  0.
          4    1    1    2  501    0 -0.21387583279E+02  0.95167238477E+01  0.32058310591E+01  0.23661931537E+02  0.12700000000E+01 0.  1.
<mgrwt>
<rscale>  1 0.12717207E+03</rscale>
<asrwt>0</asrwt>
<pdfrwt beam="1">  1       21 0.22066024E-01 0.12717207E+03</pdfrwt>
<pdfrwt beam="2">  1        4 0.63586269E-02 0.12717207E+03</pdfrwt>
<totfact> 0.12387172E+05</totfact>
</mgrwt>
</event>
<event>
 6    4  0.3995738E-003  0.1298574E+03  0.7818608E-02  0.1227668E+00
         21   -1    0    0  501  502  0.00000000000E+00  0.00000000000E+00  0.25779516137E+02  0.25779516137E+02  0.00000000000E+00 0. -1.
          4   -1    0    0  502    0 -0.00000000000E+00 -0.00000000000E+00 -0.64637277063E+03  0.64637401828E+03  0.12700000000E+01 0.  1.
         25    2    1    2    0    0  0.27216474580E+02 -0.22311787887E+02 -0.62344204614E+03  0.63682251574E+03  0.12499751712E+03 0.  0.
    9000005    1    3    3    0    0 -0.47402509405E+02  0.99565475056E+01 -0.22042485749E+03  0.22568617267E+03  0.10000000000E+01 0.  0.
    9000005    1    3    3    0    0  0.74618983985E+02 -0.32268335392E+02 -0.40301718865E+03  0.41113634306E+03  0.10000000000E+01 0.  0.
          4    1    1    2  501    0 -0.27216474580E+02  0.22311787887E+02  0.28487916501E+01  0.35331018682E+02  0.12700000000E+01 0. -1.
<mgrwt>
<rscale>  1 0.12985735E+03</rscale>
<asrwt>0</asrwt>
<pdfrwt beam="1">  1       21 0.39660797E-02 0.12985735E+03</pdfrwt>
<pdfrwt beam="2">  1        4 0.99444460E-01 0.12985735E+03</pdfrwt>
<totfact> 0.13981081E+04</totfact>
</mgrwt>
</event>
<event>
 6    4  0.3995738E-003  0.1276067E+03  0.7818608E-02  0.1231051E+00
         21   -1    0    0  501  502  0.00000000000E+00  0.00000000000E+00  0.13393106461E+03  0.13393106461E+03  0.00000000000E+00 0. -1.
          4   -1    0    0  502    0 -0.00000000000E+00 -0.00000000000E+00 -0.70244792028E+02  0.70256271657E+02  0.12700000000E+01 0.  1.
         25    2    1    2    0    0  0.13123349547E+01  0.25635181504E+02 -0.81753300407E+01  0.12786835052E+03  0.12499837715E+03 0.  0.
    9000005    1    3    3    0    0 -0.82743453341E+01 -0.48863169451E+02  0.10032341776E+02  0.50573926099E+02  0.10000000000E+01 0.  0.
    9000005    1    3    3    0    0  0.95866802888E+01  0.74498350955E+02 -0.18207671817E+02  0.77294424423E+02  0.10000000000E+01 0.  0.
          4    1    1    2  501    0 -0.13123349547E+01 -0.25635181504E+02  0.71861602627E+02  0.76318985750E+02  0.12700000000E+01 0. -1.
<mgrwt>
<rscale>  1 0.12760674E+03</rscale>
<asrwt>0</asrwt>
<pdfrwt beam="1">  1       21 0.20604779E-01 0.12760674E+03</pdfrwt>
<pdfrwt beam="2">  1        4 0.10808237E-01 0.12760674E+03</pdfrwt>
<totfact> 0.58365047E+04</totfact>
</mgrwt>
</event>
<event>
 6    4  0.3995738E-003  0.1271384E+03  0.7818608E-02  0.1231765E+00
         21   -1    0    0  501  502  0.00000000000E+00  0.00000000000E+00  0.10384038518E+03  0.10384038518E+03  0.00000000000E+00 0. -1.
         -4   -1    0    0    0  501 -0.00000000000E+00 -0.00000000000E+00 -0.55692866268E+02  0.55707344696E+02  0.12700000000E+01 0. -1.
         25    2    1    2    0    0  0.20227674380E+02 -0.11394608401E+02  0.49068044176E+02  0.13627851893E+03  0.12500066340E+03 0.  0.
    9000005    1    3    3    0    0  0.14340797494E+02 -0.24498709706E+02  0.89214594912E+02  0.93627395538E+02  0.10000000000E+01 0.  0.
    9000005    1    3    3    0    0  0.58868768860E+01  0.13104101305E+02 -0.40146550735E+02  0.42651123390E+02  0.10000000000E+01 0.  0.
         -4    1    1    2    0  502 -0.20227674380E+02  0.11394608401E+02 -0.92052526303E+00  0.23269210949E+02  0.12700000000E+01 0.  1.
<mgrwt>
<rscale>  1 0.12713836E+03</rscale>
<asrwt>0</asrwt>
<pdfrwt beam="1">  1       21 0.15975444E-01 0.12713836E+03</pdfrwt>
<pdfrwt beam="2">  1       -4 0.85698444E-02 0.12713836E+03</pdfrwt>
<totfact> 0.13723200E+05</totfact>
</mgrwt>
</event>
<event>
 6    4  0.3995738E-003  0.1280286E+03  0.7818608E-02  0.1230411E+00
         21   -1    0    0  501  502  0.00000000000E+00  0.00000000000E+00  0.13184675352E+02  0.13184675352E+02  0.00000000000E+00 0. -1.
         -4   -1    0    0    0  501 -0.00000000000E+00 -0.00000000000E+00 -0.48590226352E+03  0.48590392321E+03  0.12700000000E+01 0.  1.
         25    2    1    2    0    0 -0.25274015750E+02  0.11282909005E+02 -0.42547891162E+03  0.44432377984E+03  0.12500094876E+03 0.  0.
    9000005    1    3    3    0    0 -0.43700089264E+02  0.57497873289E+02 -0.18192568694E+03  0.19573875141E+03  0.10000000000E+01 0.  0.
    9000005    1    3    3    0    0  0.18426073514E+02 -0.46214964284E+02 -0.24355322468E+03  0.24858502844E+03  0.10000000000E+01 0.  0.
         -4    1    1    2    0  502  0.25274015750E+02 -0.11282909005E+02 -0.47238676546E+02  0.54764818721E+02  0.12700000000E+01 0. -1.
<mgrwt>
<rscale>  1 0.12802858E+03</rscale>
<asrwt>0</asrwt>
<pdfrwt beam="1">  1       21 0.20284113E-02 0.12802858E+03</pdfrwt>
<pdfrwt beam="2">  1       -4 0.74759037E-01 0.12802858E+03</pdfrwt>
<totfact> 0.79232169E+04</totfact>
</mgrwt>
</event>
<event>
 6    4  0.3995738E-003  0.1273697E+03  0.7818608E-02  0.1231412E+00
          4   -1    0    0  502    0 -0.00000000000E+00  0.00000000000E+00  0.35982653389E+03  0.35982877511E+03  0.12700000000E+01 0. -1.
         21   -1    0    0  501  502  0.00000000000E+00 -0.00000000000E+00 -0.10033941304E+03  0.10033941304E+03  0.00000000000E+00 0.  1.
         25    2    1    2    0    0  0.21336540391E+02 -0.12002188839E+02  0.34681549539E+03  0.36946450359E+03  0.12499492421E+03 0.  0.
    9000005    1    3    3    0    0  0.42810621500E+01  0.47900705870E+02  0.24823448713E+03  0.25285206291E+03  0.10000000000E+01 0.  0.
    9000005    1    3    3    0    0  0.17055478241E+02 -0.59902894710E+02  0.98581008256E+02  0.11661244068E+03  0.10000000000E+01 0.  0.
          4    1    1    2  501    0 -0.21336540391E+02  0.12002188839E+02 -0.87328374530E+02  0.90703684550E+02  0.12700000000E+01 0.  1.
<mgrwt>
<rscale>  1 0.12736967E+03</rscale>
<asrwt>0</asrwt>
<pdfrwt beam="2">  1       21 0.15436833E-01 0.12736967E+03</pdfrwt>
<pdfrwt beam="1">  1        4 0.55358718E-01 0.12736967E+03</pdfrwt>
<totfact> 0.47965067E+03</totfact>
</mgrwt>
</event>
<event>
 6    4  0.3995738E-003  0.1270887E+03  0.7818608E-02  0.1231841E+00
         21   -1    0    0  501  502  0.00000000000E+00  0.00000000000E+00  0.32771122934E+02  0.32771122934E+02  0.00000000000E+00 0. -1.
         -4   -1    0    0    0  501 -0.00000000000E+00 -0.00000000000E+00 -0.21296802368E+03  0.21297181037E+03  0.12700000000E+01 0.  1.
         25    2    1    2    0    0  0.93241176117E+01  0.21276831873E+02 -0.18247086241E+03  0.22236716496E+03  0.12494757973E+03 0.  0.
    9000005    1    3    3    0    0 -0.43247999766E+02  0.49858039337E+02 -0.80189788505E+02  0.10386344762E+03  0.10000000000E+01 0.  0.
    9000005    1    3    3    0    0  0.52572117378E+02 -0.28581207463E+02 -0.10228107391E+03  0.11850371735E+03  0.10000000000E+01 0.  0.
         -4    1    1    2    0  502 -0.93241176117E+01 -0.21276831873E+02  0.22739616613E+01  0.23375768339E+02  0.12700000000E+01 0. -1.
<mgrwt>
<rscale>  1 0.12708871E+03</rscale>
<asrwt>0</asrwt>
<pdfrwt beam="1">  1       21 0.50417115E-02 0.12708871E+03</pdfrwt>
<pdfrwt beam="2">  1       -4 0.32766494E-01 0.12708871E+03</pdfrwt>
<totfact> 0.94891897E+04</totfact>
</mgrwt>
</event>
<event>
 6    4  0.3995738E-003  0.1268000E+03  0.7818608E-02  0.1232283E+00
         21   -1    0    0  501  502  0.00000000000E+00  0.00000000000E+00  0.11187932809E+02  0.11187932809E+02  0.00000000000E+00 0. -1.
          4   -1    0    0  502    0 -0.00000000000E+00 -0.00000000000E+00 -0.90435940349E+03  0.90436029523E+03  0.12700000000E+01 0.  1.
         25    2    1    2    0    0  0.83065204253E+01  0.19624476350E+02 -0.88271732573E+03  0.89177807027E+03  0.12499652440E+03 0.  0.
    9000005    1    3    3    0    0 -0.84585113399E+01 -0.50319629179E+02 -0.47812877188E+03  0.48084481280E+03  0.10000000000E+01 0.  0.
    9000005    1    3    3    0    0  0.16765031765E+02  0.69944105529E+02 -0.40458855385E+03  0.41093325747E+03  0.10000000000E+01 0.  0.
          4    1    1    2  501    0 -0.83065204253E+01 -0.19624476350E+02 -0.10454144951E+02  0.23770157767E+02  0.12700000000E+01 0. -1.
<mgrwt>
<rscale>  1 0.12680004E+03</rscale>
<asrwt>0</asrwt>
<pdfrwt beam="1">  1       21 0.17212205E-02 0.12680004E+03</pdfrwt>
<pdfrwt beam="2">  1        4 0.13913782E+00 0.12680004E+03</pdfrwt>
<totfact> 0.24369022E+04</totfact>
</mgrwt>
</event>
<event>
 6    4  0.3995738E-003  0.1271355E+03  0.7818608E-02  0.1231769E+00
         -4   -1    0    0    0  501 -0.00000000000E+00  0.00000000000E+00  0.10218779739E+04  0.10218787631E+04  0.12700000000E+01 0. -1.
         21   -1    0    0  501  502  0.00000000000E+00 -0.00000000000E+00 -0.17012812813E+02  0.17012812813E+02  0.00000000000E+00 0.  1.
         25    2    1    2    0    0 -0.23181170042E+02 -0.74868554333E+00  0.10075223758E+04  0.10155120793E+04  0.12500207315E+03 0.  0.
    9000005    1    3    3    0    0 -0.75133631622E+02  0.93414953984E+00  0.59483312706E+03  0.59956099297E+03  0.10000000000E+01 0.  0.
    9000005    1    3    3    0    0  0.51952461580E+02 -0.16828350832E+01  0.41268924870E+03  0.41595108630E+03  0.10000000000E+01 0.  0.
         -4    1    1    2    0  502  0.23181170042E+02  0.74868554333E+00 -0.26572146464E+01  0.23379496664E+02  0.12700000000E+01 0.  1.
<mgrwt>
<rscale>  1 0.12713554E+03</rscale>
<asrwt>0</asrwt>
<pdfrwt beam="2">  1       21 0.26173566E-02 0.12713554E+03</pdfrwt>
<pdfrwt beam="1">  1       -4 0.15721565E+00 0.12713554E+03</pdfrwt>
<totfact> 0.90840954E+03</totfact>
</mgrwt>
</event>
<event>
 6    4  0.3995738E-003  0.1453531E+03  0.7818608E-02  0.1206302E+00
         21   -1    0    0  501  502  0.00000000000E+00  0.00000000000E+00  0.29606023145E+04  0.29606023145E+04  0.00000000000E+00 0. -1.
          4   -1    0    0  502    0 -0.00000000000E+00 -0.00000000000E+00 -0.40654088898E+01  0.42591606498E+01  0.12700000000E+01 0.  1.
         25    2    1    2    0    0  0.35116101336E+01 -0.74095830527E+02  0.17376115275E+04  0.17436804018E+04  0.12499999902E+03 0.  0.
    9000005    1    3    3    0    0  0.28152414492E+02  0.80433609774E+01  0.10925646718E+04  0.10929573716E+04  0.10000000000E+01 0.  0.
    9000005    1    3    3    0    0 -0.24640804359E+02 -0.82139191504E+02  0.64504685568E+03  0.65072303021E+03  0.10000000000E+01 0.  0.
          4    1    1    2  501    0 -0.35116101336E+01  0.74095830527E+02  0.12189253782E+04  0.12211810734E+04  0.12700000000E+01 0. -1.
<mgrwt>
<rscale>  1 0.14535310E+03</rscale>
<asrwt>0</asrwt>
<pdfrwt beam="1">  1       21 0.45547560E+00 0.14535310E+03</pdfrwt>
<pdfrwt beam="2">  1        4 0.64037482E-03 0.14535310E+03</pdfrwt>
<totfact> 0.96893409E+02</totfact>
</mgrwt>
</event>
<event>
 6    4  0.3995738E-003  0.2322340E+03  0.7818608E-02  0.1125077E+00
         21   -1    0    0  501  502  0.00000000000E+00  0.00000000000E+00  0.88767986990E+03  0.88767986990E+03  0.00000000000E+00 0. -1.
         -4   -1    0    0    0  501 -0.00000000000E+00 -0.00000000000E+00 -0.78498812771E+02  0.78509085502E+02  0.12700000000E+01 0.  1.
         25    2    1    2    0    0  0.16072902904E+03  0.11168723092E+03  0.14503560114E+03  0.27380274964E+03  0.12499904714E+03 0.  0.
    9000005    1    3    3    0    0  0.17537729404E+03  0.95311154324E+02  0.15182407746E+03  0.25078469232E+03  0.10000000000E+01 0.  0.
    9000005    1    3    3    0    0 -0.14648265006E+02  0.16376076592E+02 -0.67884763169E+01  0.23018057323E+02  0.10000000000E+01 0.  0.
         -4    1    1    2    0  502 -0.16072902904E+03 -0.11168723092E+03  0.66414545599E+03  0.69238620577E+03  0.12700000000E+01 0. -1.
<mgrwt>
<rscale>  1 0.23223398E+03</rscale>
<asrwt>0</asrwt>
<pdfrwt beam="1">  1       21 0.13656613E+00 0.23223398E+03</pdfrwt>
<pdfrwt beam="2">  1       -4 0.12077601E-01 0.23223398E+03</pdfrwt>
<totfact> 0.87749007E+02</totfact>
</mgrwt>
</event>
<event>
 6    4  0.3995738E-003  0.1274338E+03  0.7818608E-02  0.1231314E+00
         -4   -1    0    0    0  501 -0.00000000000E+00  0.00000000000E+00  0.87841681845E+02  0.87850862087E+02  0.12700000000E+01 0. -1.
         21   -1    0    0  501  502  0.00000000000E+00 -0.00000000000E+00 -0.85776311372E+02  0.85776311372E+02  0.00000000000E+00 0. -1.
         25    2    1    2    0    0 -0.22750258133E+02 -0.98035663077E+01  0.35228496017E+02  0.13221352893E+03  0.12500274454E+03 0.  0.
    9000005    1    3    3    0    0  0.20534490610E+01  0.46030230925E+02 -0.19633708030E+02  0.50094723306E+02  0.10000000000E+01 0.  0.
    9000005    1    3    3    0    0 -0.24803707194E+02 -0.55833797233E+02  0.54862204047E+02  0.82118805623E+02  0.10000000000E+01 0.  0.
         -4    1    1    2    0  502  0.22750258133E+02  0.98035663077E+01 -0.33163125543E+02  0.41413644530E+02  0.12700000000E+01 0.  1.
<mgrwt>
<rscale>  1 0.12743379E+03</rscale>
<asrwt>0</asrwt>
<pdfrwt beam="2">  1       21 0.13196356E-01 0.12743379E+03</pdfrwt>
<pdfrwt beam="1">  1       -4 0.13515534E-01 0.12743379E+03</pdfrwt>
<totfact> 0.89488034E+04</totfact>
</mgrwt>
</event>
<event>
 6    4  0.3995738E-003  0.1297903E+03  0.7818608E-02  0.1227767E+00
         -4   -1    0    0    0  501 -0.00000000000E+00  0.00000000000E+00  0.15077368795E+03  0.15077903660E+03  0.12700000000E+01 0.  1.
         21   -1    0    0  501  502  0.00000000000E+00 -0.00000000000E+00 -0.62393982369E+02  0.62393982369E+02  0.00000000000E+00 0. -1.
         25    2    1    2    0    0  0.25620047080E+02 -0.23749142976E+02  0.11162793621E+03  0.17119085928E+03  0.12500042222E+03 0.  0.
    9000005    1    3    3    0    0 -0.17335651691E+02 -0.16999015627E+02 -0.20685443576E+02  0.31912049884E+02  0.10000000000E+01 0.  0.
    9000005    1    3    3    0    0  0.42955698771E+02 -0.67501273484E+01  0.13231337979E+03  0.13927880940E+03  0.10000000000E+01 0.  0.
         -4    1    1    2    0  502 -0.25620047080E+02  0.23749142976E+02 -0.23248230632E+02  0.41982159687E+02  0.12700000000E+01 0. -1.
<mgrwt>
<rscale>  1 0.12979027E+03</rscale>
<asrwt>0</asrwt>
<pdfrwt beam="2">  1       21 0.95990743E-02 0.12979027E+03</pdfrwt>
<pdfrwt beam="1">  1       -4 0.23197357E-01 0.12979027E+03</pdfrwt>
<totfact> 0.60294169E+04</totfact>
</mgrwt>
</event>
<event>
 6    4  0.3995738E-003  0.1272868E+03  0.7818608E-02  0.1231538E+00
         -4   -1    0    0    0  501 -0.00000000000E+00  0.00000000000E+00  0.54366212753E+01  0.55829876313E+01  0.12700000000E+01 0. -1.
         21   -1    0    0  501  502  0.00000000000E+00 -0.00000000000E+00 -0.11698515278E+04  0.11698515278E+04  0.00000000000E+00 0. -1.
         25    2    1    2    0    0  0.22402205961E+02  0.86353435036E+01 -0.78446086830E+03  0.79472056500E+03  0.12500197819E+03 0.  0.
    9000005    1    3    3    0    0 -0.37356385141E+02  0.25259955773E+02 -0.13569482777E+03  0.14299528370E+03  0.10000000000E+01 0.  0.
    9000005    1    3    3    0    0  0.59758591102E+02 -0.16624612269E+02 -0.64876604053E+03  0.65172528130E+03  0.10000000000E+01 0.  0.
         -4    1    1    2    0  502 -0.22402205961E+02 -0.86353435036E+01 -0.37995403826E+03  0.38071395047E+03  0.12700000000E+01 0.  1.
<mgrwt>
<rscale>  1 0.12728677E+03</rscale>
<asrwt>0</asrwt>
<pdfrwt beam="2">  1       21 0.17997746E+00 0.12728677E+03</pdfrwt>
<pdfrwt beam="1">  1       -4 0.84771382E-03 0.12728677E+03</pdfrwt>
<totfact> 0.28463079E+04</totfact>
</mgrwt>
</event>
<event>
 6    4  0.3995738E-003  0.1273501E+03  0.7818608E-02  0.1231441E+00
         21   -1    0    0  501  502  0.00000000000E+00  0.00000000000E+00  0.34291373471E+03  0.34291373471E+03  0.00000000000E+00 0.  1.
         -4   -1    0    0    0  501 -0.00000000000E+00 -0.00000000000E+00 -0.19609643179E+02  0.19650725320E+02  0.12700000000E+01 0.  1.
         25    2    1    2    0    0  0.14411261730E+02 -0.19607154048E+02  0.30922635384E+03  0.33442337702E+03  0.12500372887E+03 0.  0.
    9000005    1    3    3    0    0  0.48345066482E+02  0.35203295258E+02  0.18553395969E+03  0.19493682989E+03  0.10000000000E+01 0.  0.
    9000005    1    3    3    0    0 -0.33933804753E+02 -0.54810449306E+02  0.12369239416E+03  0.13948654713E+03  0.10000000000E+01 0.  0.
         -4    1    1    2    0  502 -0.14411261730E+02  0.19607154048E+02  0.14077737684E+02  0.28141083007E+02  0.12700000000E+01 0. -1.
<mgrwt>
<rscale>  1 0.12735014E+03</rscale>
<asrwt>0</asrwt>
<pdfrwt beam="1">  1       21 0.52755955E-01 0.12735014E+03</pdfrwt>
<pdfrwt beam="2">  1       -4 0.30202095E-02 0.12735014E+03</pdfrwt>
<totfact> 0.73414509E+04</totfact>
</mgrwt>
</event>
<event>
 6    4  0.3995738E-003  0.1469065E+03  0.7818608E-02  0.1204327E+00
         -4   -1    0    0    0  501 -0.00000000000E+00  0.00000000000E+00  0.70376494841E+02  0.70387952990E+02  0.12700000000E+01 0.  1.
         21   -1    0    0  501  502  0.00000000000E+00 -0.00000000000E+00 -0.20847676721E+03  0.20847676721E+03  0.00000000000E+00 0. -1.
         25    2    1    2    0    0  0.11463249940E+02 -0.76322899065E+02 -0.36688587797E+02  0.15141852101E+03  0.12499970003E+03 0.  0.
    9000005    1    3    3    0    0  0.62879960198E+02 -0.63641856492E+02 -0.40712698977E+02  0.98299029244E+02  0.10000000000E+01 0.  0.
    9000005    1    3    3    0    0 -0.51416710258E+02 -0.12681042573E+02  0.40241111801E+01  0.53119491764E+02  0.10000000000E+01 0.  0.
         -4    1    1    2    0  502 -0.11463249940E+02  0.76322899065E+02 -0.10141168457E+03  0.12744619919E+03  0.12700000000E+01 0. -1.
<mgrwt>
<rscale>  1 0.14690649E+03</rscale>
<asrwt>0</asrwt>
<pdfrwt beam="2">  1       21 0.32073348E-01 0.14690649E+03</pdfrwt>
<pdfrwt beam="1">  1       -4 0.10828332E-01 0.14690649E+03</pdfrwt>
<totfact> 0.25485474E+04</totfact>
</mgrwt>
</event>
<event>
 6    4  0.3995738E-003  0.1283514E+03  0.7818608E-02  0.1229923E+00
          4   -1    0    0  502    0 -0.00000000000E+00  0.00000000000E+00  0.34541261135E+02  0.34564600689E+02  0.12700000000E+01 0. -1.
         21   -1    0    0  501  502  0.00000000000E+00 -0.00000000000E+00 -0.28603128144E+03  0.28603128144E+03  0.00000000000E+00 0.  1.
         25    2    1    2    0    0 -0.28598777829E+02 -0.55758152262E+01 -0.90655509584E+02  0.15713844869E+03  0.12500036331E+03 0.  0.
    9000005    1    3    3    0    0 -0.20533722275E+02  0.59159100887E+02 -0.37628115459E+02  0.73063725892E+02  0.10000000000E+01 0.  0.
    9000005    1    3    3    0    0 -0.80650555542E+01 -0.64734916113E+02 -0.53027394125E+02  0.84074722794E+02  0.10000000000E+01 0.  0.
          4    1    1    2  501    0  0.28598777829E+02  0.55758152262E+01 -0.16083451072E+03  0.16345743345E+03  0.12700000000E+01 0.  1.
<mgrwt>
<rscale>  1 0.12835136E+03</rscale>
<asrwt>0</asrwt>
<pdfrwt beam="2">  1       21 0.44004814E-01 0.12835136E+03</pdfrwt>
<pdfrwt beam="1">  1        4 0.53160522E-02 0.12835136E+03</pdfrwt>
<totfact> 0.43458133E+04</totfact>
</mgrwt>
</event>
<event>
 6    4  0.3995738E-003  0.1287460E+03  0.7818608E-02  0.1229328E+00
         21   -1    0    0  501  502  0.00000000000E+00  0.00000000000E+00  0.37370448874E+03  0.37370448874E+03  0.00000000000E+00 0. -1.
          4   -1    0    0  502    0 -0.00000000000E+00 -0.00000000000E+00 -0.39444778071E+02  0.39465217814E+02  0.12700000000E+01 0.  1.
         25    2    1    2    0    0  0.20784743364E+02 -0.22760775301E+02  0.68900555827E+02  0.14602339382E+03  0.12500194599E+03 0.  0.
    9000005    1    3    3    0    0  0.31581172675E+02  0.98587741913E+01 -0.27907112948E+02  0.43294027869E+02  0.10000000000E+01 0.  0.
    9000005    1    3    3    0    0 -0.10796429312E+02 -0.32619549492E+02  0.96807668775E+02  0.10272936595E+03  0.10000000000E+01 0.  0.
          4    1    1    2  501    0 -0.20784743364E+02  0.22760775301E+02  0.26535915484E+03  0.26714631273E+03  0.12700000000E+01 0. -1.
<mgrwt>
<rscale>  1 0.12874605E+03</rscale>
<asrwt>0</asrwt>
<pdfrwt beam="1">  1       21 0.57492996E-01 0.12874605E+03</pdfrwt>
<pdfrwt beam="2">  1        4 0.60701659E-02 0.12874605E+03</pdfrwt>
<totfact> 0.20192532E+04</totfact>
</mgrwt>
</event>
<event>
 6    4  0.3995738E-003  0.1270203E+03  0.7818608E-02  0.1231945E+00
         21   -1    0    0  501  502  0.00000000000E+00  0.00000000000E+00  0.20186568850E+02  0.20186568850E+02  0.00000000000E+00 0.  1.
         -4   -1    0    0    0  501 -0.00000000000E+00 -0.00000000000E+00 -0.28124093943E+03  0.28124380689E+03  0.12700000000E+01 0.  1.
         25    2    1    2    0    0  0.20988077476E+02 -0.82812451681E+01 -0.23332250630E+03  0.26565681547E+03  0.12500029297E+03 0.  0.
    9000005    1    3    3    0    0  0.21706025202E+02  0.19025409883E+02 -0.23639280539E+03  0.23815053263E+03  0.10000000000E+01 0.  0.
    9000005    1    3    3    0    0 -0.71794772580E+00 -0.27306655051E+02  0.30702990948E+01  0.27506282838E+02  0.10000000000E+01 0.  0.
         -4    1    1    2    0  502 -0.20988077476E+02  0.82812451681E+01 -0.27731864288E+02  0.35773560272E+02  0.12700000000E+01 0. -1.
<mgrwt>
<rscale>  1 0.12702028E+03</rscale>
<asrwt>0</asrwt>
<pdfrwt beam="1">  1       21 0.31056263E-02 0.12702028E+03</pdfrwt>
<pdfrwt beam="2">  1       -4 0.43271126E-01 0.12702028E+03</pdfrwt>
<totfact> 0.12338538E+05</totfact>
</mgrwt>
</event>
<event>
 6    4  0.3995738E-003  0.1266552E+03  0.7818608E-02  0.1232505E+00
          4   -1    0    0  502    0 -0.00000000000E+00  0.00000000000E+00  0.44248333142E+02  0.44266554935E+02  0.12700000000E+01 0. -1.
         21   -1    0    0  501  502  0.00000000000E+00 -0.00000000000E+00 -0.20392637151E+03  0.20392637151E+03  0.00000000000E+00 0. -1.
         25    2    1    2    0    0 -0.16266151565E+02  0.12310106116E+02 -0.49256962713E+02  0.13589620678E+03  0.12500161696E+03 0.  0.
    9000005    1    3    3    0    0 -0.41387872358E+02  0.30404465033E+02 -0.78161743202E+02  0.93528848879E+02  0.10000000000E+01 0.  0.
    9000005    1    3    3    0    0  0.25121720793E+02 -0.18094358916E+02  0.28904780489E+02  0.42367357899E+02  0.10000000000E+01 0.  0.
          4    1    1    2  501    0  0.16266151565E+02 -0.12310106116E+02 -0.11042107565E+03  0.11229671966E+03  0.12700000000E+01 0.  1.
<mgrwt>
<rscale>  1 0.12665516E+03</rscale>
<asrwt>0</asrwt>
<pdfrwt beam="2">  1       21 0.31373288E-01 0.12665516E+03</pdfrwt>
<pdfrwt beam="1">  1        4 0.68091417E-02 0.12665516E+03</pdfrwt>
<totfact> 0.56725142E+04</totfact>
</mgrwt>
</event>
<event>
 6    4  0.3995738E-003  0.1360575E+03  0.7818608E-02  0.1218735E+00
         -4   -1    0    0    0  501 -0.00000000000E+00  0.00000000000E+00  0.14923817328E+04  0.14923822732E+04  0.12700000000E+01 0. -1.
         21   -1    0    0  501  502  0.00000000000E+00 -0.00000000000E+00 -0.17062712234E+02  0.17062712234E+02  0.00000000000E+00 0.  1.
         25    2    1    2    0    0 -0.15658879344E+02 -0.51394937866E+02  0.14370330860E+04  0.14434596399E+04  0.12500000631E+03 0.  0.
    9000005    1    3    3    0    0 -0.48094734301E+02 -0.68763266367E+02  0.62704286772E+03  0.63263358133E+03  0.10000000000E+01 0.  0.
    9000005    1    3    3    0    0  0.32435854957E+02  0.17368328502E+02  0.80999021828E+03  0.81082605855E+03  0.10000000000E+01 0.  0.
         -4    1    1    2    0  502  0.15658879344E+02  0.51394937866E+02  0.38285934600E+02  0.65985345560E+02  0.12700000000E+01 0.  1.
<mgrwt>
<rscale>  1 0.13605749E+03</rscale>
<asrwt>0</asrwt>
<pdfrwt beam="2">  1       21 0.26250338E-02 0.13605749E+03</pdfrwt>
<pdfrwt beam="1">  1       -4 0.22960076E+00 0.13605749E+03</pdfrwt>
<totfact> 0.31395251E+03</totfact>
</mgrwt>
</event>
<event>
 6    4  0.3995738E-003  0.1308277E+03  0.7818608E-02  0.1226233E+00
         21   -1    0    0  501  502  0.00000000000E+00  0.00000000000E+00  0.44167526154E+02  0.44167526154E+02  0.00000000000E+00 0.  1.
          4   -1    0    0  502    0 -0.00000000000E+00 -0.00000000000E+00 -0.16256541610E+03  0.16257037680E+03  0.12700000000E+01 0.  1.
         25    2    1    2    0    0  0.37390008784E+02 -0.96315785141E+01 -0.92662041606E+02  0.16031886751E+03  0.12500042105E+03 0.  0.
    9000005    1    3    3    0    0  0.43037268868E+02  0.27065691973E+02  0.93968674138E+01  0.51711307379E+02  0.10000000000E+01 0.  0.
    9000005    1    3    3    0    0 -0.56472600849E+01 -0.36697270487E+02 -0.10205890902E+03  0.10860756013E+03  0.10000000000E+01 0.  0.
          4    1    1    2  501    0 -0.37390008784E+02  0.96315785141E+01 -0.25735848342E+02  0.46419035442E+02  0.12700000000E+01 0. -1.
<mgrwt>
<rscale>  1 0.13082769E+03</rscale>
<asrwt>0</asrwt>
<pdfrwt beam="1">  1       21 0.67950041E-02 0.13082769E+03</pdfrwt>
<pdfrwt beam="2">  1        4 0.25011850E-01 0.13082769E+03</pdfrwt>
<totfact> 0.95422356E+04</totfact>
</mgrwt>
</event>
<event>
 6    4  0.3995738E-003  0.1363626E+03  0.7818608E-02  0.1218309E+00
         -4   -1    0    0    0  501 -0.00000000000E+00  0.00000000000E+00  0.15164079282E+03  0.15164611089E+03  0.12700000000E+01 0.  1.
         21   -1    0    0  501  502  0.00000000000E+00 -0.00000000000E+00 -0.12511123460E+03  0.12511123460E+03  0.00000000000E+00 0. -1.
         25    2    1    2    0    0  0.75828686878E+01  0.53969616744E+02  0.11126795532E+03  0.17599808649E+03  0.12499819654E+03 0.  0.
    9000005    1    3    3    0    0 -0.39342707235E+02  0.54192296898E+02  0.14614972109E+02  0.68551083619E+02  0.10000000000E+01 0.  0.
    9000005    1    3    3    0    0  0.46925575923E+02 -0.22268015407E+00  0.96652983215E+02  0.10744700287E+03  0.10000000000E+01 0.  0.
         -4    1    1    2    0  502 -0.75828686878E+01 -0.53969616744E+02 -0.84738397105E+02  0.10075925899E+03  0.12700000000E+01 0. -1.
<mgrwt>
<rscale>  1 0.13636264E+03</rscale>
<asrwt>0</asrwt>
<pdfrwt beam="2">  1       21 0.19247882E-01 0.13636264E+03</pdfrwt>
<pdfrwt beam="1">  1       -4 0.23330258E-01 0.13636264E+03</pdfrwt>
<totfact> 0.17251183E+04</totfact>
</mgrwt>
</event>
<event>
 6    4  0.3995738E-003  0.1308270E+03  0.7818608E-02  0.1226234E+00
         -4   -1    0    0    0  501 -0.00000000000E+00  0.00000000000E+00  0.79655468511E+01  0.80661537697E+01  0.12700000000E+01 0.  1.
         21   -1    0    0  501  502  0.00000000000E+00 -0.00000000000E+00 -0.93850249326E+03  0.93850249326E+03  0.00000000000E+00 0.  1.
         25    2    1    2    0    0  0.31946320892E+02 -0.21688636376E+02 -0.79255149571E+03  0.80327677053E+03  0.12499892941E+03 0.  0.
    9000005    1    3    3    0    0  0.23686491903E+02 -0.61257002228E+02 -0.22783055473E+03  0.23711016825E+03  0.10000000000E+01 0.  0.
    9000005    1    3    3    0    0  0.82598289884E+01  0.39568365852E+02 -0.56472094098E+03  0.56616660228E+03  0.10000000000E+01 0.  0.
         -4    1    1    2    0  502 -0.31946320892E+02  0.21688636376E+02 -0.13798545070E+03  0.14329187650E+03  0.12700000000E+01 0. -1.
<mgrwt>
<rscale>  1 0.13082697E+03</rscale>
<asrwt>0</asrwt>
<pdfrwt beam="2">  1       21 0.14438501E+00 0.13082697E+03</pdfrwt>
<pdfrwt beam="1">  1       -4 0.12332738E-02 0.13082697E+03</pdfrwt>
<totfact> 0.29125412E+04</totfact>
</mgrwt>
</event>
<event>
 6    4  0.3995738E-003  0.1338651E+03  0.7818608E-02  0.1221831E+00
         -4   -1    0    0    0  501 -0.00000000000E+00  0.00000000000E+00  0.84801749538E+01  0.85747458999E+01  0.12700000000E+01 0. -1.
         21   -1    0    0  501  502  0.00000000000E+00 -0.00000000000E+00 -0.11266213198E+04  0.11266213198E+04  0.00000000000E+00 0. -1.
         25    2    1    2    0    0  0.35759807361E+02 -0.31781576018E+02 -0.97775940227E+03  0.98688059467E+03  0.12502410576E+03 0.  0.
    9000005    1    3    3    0    0 -0.19596502211E+02 -0.57553904739E+02 -0.28390355741E+03  0.29034239228E+03  0.10000000000E+01 0.  0.
    9000005    1    3    3    0    0  0.55356309573E+02  0.25772328721E+02 -0.69385584486E+03  0.69653820239E+03  0.10000000000E+01 0.  0.
         -4    1    1    2    0  502 -0.35759807361E+02  0.31781576018E+02 -0.14038174258E+03  0.14831547102E+03  0.12700000000E+01 0.  1.
<mgrwt>
<rscale>  1 0.13386508E+03</rscale>
<asrwt>0</asrwt>
<pdfrwt beam="2">  1       21 0.17332638E+00 0.13386508E+03</pdfrwt>
<pdfrwt beam="1">  1       -4 0.13119719E-02 0.13386508E+03</pdfrwt>
<totfact> 0.16387768E+04</totfact>
</mgrwt>
</event>
<event>
 6    4  0.3995738E-003  0.1282467E+03  0.7818608E-02  0.1230081E+00
         -4   -1    0    0    0  501 -0.00000000000E+00  0.00000000000E+00  0.64735843771E+03  0.64735968346E+03  0.12700000000E+01 0. -1.
         21   -1    0    0  501  502  0.00000000000E+00 -0.00000000000E+00 -0.16234217628E+02  0.16234217628E+02  0.00000000000E+00 0.  1.
         25    2    1    2    0    0  0.25624332558E+02 -0.12882371332E+02  0.61947688027E+03  0.63261269171E+03  0.12499860243E+03 0.  0.
    9000005    1    3    3    0    0 -0.30534890751E+02  0.14641725881E+01  0.40557346050E+02  0.50797851069E+02  0.10000000000E+01 0.  0.
    9000005    1    3    3    0    0  0.56159223308E+02 -0.14346543920E+02  0.57891953422E+03  0.58181484064E+03  0.10000000000E+01 0.  0.
         -4    1    1    2    0  502 -0.25624332558E+02  0.12882371332E+02  0.11647339809E+02  0.30981209382E+02  0.12700000000E+01 0.  1.
<mgrwt>
<rscale>  1 0.12824669E+03</rscale>
<asrwt>0</asrwt>
<pdfrwt beam="2">  1       21 0.24975724E-02 0.12824669E+03</pdfrwt>
<pdfrwt beam="1">  1       -4 0.99597503E-01 0.12824669E+03</pdfrwt>
<totfact> 0.29749929E+04</totfact>
</mgrwt>
</event>
<event>
 6    4  0.3995738E-003  0.1898914E+03  0.7818608E-02  0.1158559E+00
         -4   -1    0    0    0  501 -0.00000000000E+00  0.00000000000E+00  0.38177647543E+03  0.38177858778E+03  0.12700000000E+01 0.  1.
         21   -1    0    0  501  502  0.00000000000E+00 -0.00000000000E+00 -0.48900191229E+03  0.48900191229E+03  0.00000000000E+00 0. -1.
         25    2    1    2    0    0  0.12830553527E+03  0.62954673085E+02  0.34647559744E+03  0.39510010037E+03  0.12503258953E+03 0.  0.
    9000005    1    3    3    0    0  0.36921195892E+01 -0.13550643701E+02 -0.45807839368E+01  0.14806595600E+02  0.10000000000E+01 0.  0.
    9000005    1    3    3    0    0  0.12461341568E+03  0.76505316787E+02  0.35105638137E+03  0.38029350477E+03  0.10000000000E+01 0.  0.
         -4    1    1    2    0  502 -0.12830553527E+03 -0.62954673085E+02 -0.45370103430E+03  0.47568039971E+03  0.12700000000E+01 0. -1.
<mgrwt>
<rscale>  1 0.18989142E+03</rscale>
<asrwt>0</asrwt>
<pdfrwt beam="2">  1       21 0.75231064E-01 0.18989142E+03</pdfrwt>
<pdfrwt beam="1">  1       -4 0.58735132E-01 0.18989142E+03</pdfrwt>
<totfact> 0.18434964E+02</totfact>
</mgrwt>
</event>
<event>
 6    4  0.3995738E-003  0.1273991E+03  0.7818608E-02  0.1231367E+00
         -4   -1    0    0    0  501 -0.00000000000E+00  0.00000000000E+00  0.13984218723E+02  0.14041768881E+02  0.12700000000E+01 0. -1.
         21   -1    0    0  501  502  0.00000000000E+00 -0.00000000000E+00 -0.46155683171E+03  0.46155683171E+03  0.00000000000E+00 0.  1.
         25    2    1    2    0    0 -0.12490908186E+02  0.21230817340E+02 -0.41855532273E+03  0.43751466137E+03  0.12499500126E+03 0.  0.
    9000005    1    3    3    0    0 -0.35055431551E+02  0.35066726402E+02 -0.59389993916E+02  0.77373961764E+02  0.10000000000E+01 0.  0.
    9000005    1    3    3    0    0  0.22564523365E+02 -0.13835909062E+02 -0.35916532881E+03  0.36014069961E+03  0.10000000000E+01 0.  0.
         -4    1    1    2    0  502  0.12490908186E+02 -0.21230817340E+02 -0.29017290256E+02  0.38083939214E+02  0.12700000000E+01 0.  1.
<mgrwt>
<rscale>  1 0.12739906E+03</rscale>
<asrwt>0</asrwt>
<pdfrwt beam="2">  1       21 0.71008739E-01 0.12739906E+03</pdfrwt>
<pdfrwt beam="1">  1       -4 0.21559797E-02 0.12739906E+03</pdfrwt>
<totfact> 0.65811692E+04</totfact>
</mgrwt>
</event>
<event>
 6    4  0.3995738E-003  0.1290670E+03  0.7818608E-02  0.1228847E+00
          4   -1    0    0  502    0 -0.00000000000E+00  0.00000000000E+00  0.30644224593E+03  0.30644487757E+03  0.12700000000E+01 0. -1.
         21   -1    0    0  501  502  0.00000000000E+00 -0.00000000000E+00 -0.22914200500E+02  0.22914200500E+02  0.00000000000E+00 0. -1.
         25    2    1    2    0    0  0.29303855240E+02 -0.13433013495E+02  0.25701141771E+03  0.28759897476E+03  0.12497655645E+03 0.  0.
    9000005    1    3    3    0    0 -0.22515901673E+02  0.35794107785E+02  0.16901736469E+03  0.17422988707E+03  0.10000000000E+01 0.  0.
    9000005    1    3    3    0    0  0.51819756913E+02 -0.49227121280E+02  0.87994053019E+02  0.11336908769E+03  0.10000000000E+01 0.  0.
          4    1    1    2  501    0 -0.29303855240E+02  0.13433013495E+02  0.26516627716E+02  0.41760103315E+02  0.12700000000E+01 0.  1.
<mgrwt>
<rscale>  1 0.12906704E+03</rscale>
<asrwt>0</asrwt>
<pdfrwt beam="2">  1       21 0.35252618E-02 0.12906704E+03</pdfrwt>
<pdfrwt beam="1">  1        4 0.47147868E-01 0.12906704E+03</pdfrwt>
<totfact> 0.84539617E+04</totfact>
</mgrwt>
</event>
<event>
 6    4  0.3995738E-003  0.1299718E+03  0.7818608E-02  0.1227498E+00
         -4   -1    0    0    0  501 -0.00000000000E+00  0.00000000000E+00  0.91365385176E+03  0.91365473442E+03  0.12700000000E+01 0. -1.
         21   -1    0    0  501  502  0.00000000000E+00 -0.00000000000E+00 -0.50034347312E+02  0.50034347312E+02  0.00000000000E+00 0.  1.
         25    2    1    2    0    0  0.33151542355E+02 -0.12973408621E+02  0.90200521780E+03  0.91132105732E+03  0.12500128997E+03 0.  0.
    9000005    1    3    3    0    0  0.38655315103E+02  0.40896707780E+02  0.21707321054E+03  0.22425109326E+03  0.10000000000E+01 0.  0.
    9000005    1    3    3    0    0 -0.55037727479E+01 -0.53870116401E+02  0.68493200725E+03  0.68706996406E+03  0.10000000000E+01 0.  0.
         -4    1    1    2    0  502 -0.33151542355E+02  0.12973408621E+02 -0.38385713348E+02  0.52368024414E+02  0.12700000000E+01 0.  1.
<mgrwt>
<rscale>  1 0.12997175E+03</rscale>
<asrwt>0</asrwt>
<pdfrwt beam="2">  1       21 0.76975925E-02 0.12997175E+03</pdfrwt>
<pdfrwt beam="1">  1       -4 0.14056343E+00 0.12997175E+03</pdfrwt>
<totfact> 0.19908981E+03</totfact>
</mgrwt>
</event>
<event>
 6    4  0.3995738E-003  0.1291099E+03  0.7818608E-02  0.1228782E+00
         21   -1    0    0  501  502  0.00000000000E+00  0.00000000000E+00  0.27464468768E+03  0.27464468768E+03  0.00000000000E+00 0.  1.
          4   -1    0    0  502    0 -0.00000000000E+00 -0.00000000000E+00 -0.73808277963E+02  0.73819203436E+02  0.12700000000E+01 0. -1.
         25    2    1    2    0    0  0.29874686210E+02 -0.12247909123E+02 -0.15220522479E+02  0.13000401149E+03  0.12500748196E+03 0.  0.
    9000005    1    3    3    0    0  0.52010890570E+02 -0.24099309062E+01 -0.59776424561E+02  0.79279010073E+02  0.10000000000E+01 0.  0.
    9000005    1    3    3    0    0 -0.22136204360E+02 -0.98379782168E+01  0.44555902081E+02  0.50725001421E+02  0.10000000000E+01 0.  0.
          4    1    1    2  501    0 -0.29874686210E+02  0.12247909123E+02  0.21605693220E+03  0.21845987962E+03  0.12700000000E+01 0.  1.
<mgrwt>
<rscale>  1 0.12910995E+03</rscale>
<asrwt>0</asrwt>
<pdfrwt beam="1">  1       21 0.42253028E-01 0.12910995E+03</pdfrwt>
<pdfrwt beam="2">  1        4 0.11356186E-01 0.12910995E+03</pdfrwt>
<totfact> 0.13460386E+04</totfact>
</mgrwt>
</event>
<event>
 6    4  0.3995738E-003  0.1366989E+03  0.7818608E-02  0.1217841E+00
         21   -1    0    0  501  502  0.00000000000E+00  0.00000000000E+00  0.20526388337E+02  0.20526388337E+02  0.00000000000E+00 0.  1.
         -4   -1    0    0    0  501 -0.00000000000E+00 -0.00000000000E+00 -0.10537213964E+04  0.10537221617E+04  0.12700000000E+01 0. -1.
         25    2    1    2    0    0  0.51765564465E+02 -0.19536842842E+02 -0.10008571673E+04  0.10101493243E+04  0.12500090504E+03 0.  0.
    9000005    1    3    3    0    0  0.87685952016E+02 -0.30621061592E+01 -0.49233319659E+03  0.50009117082E+03  0.10000000000E+01 0.  0.
    9000005    1    3    3    0    0 -0.35920387551E+02 -0.16474736683E+02 -0.50852397070E+03  0.51005815351E+03  0.10000000000E+01 0.  0.
         -4    1    1    2    0  502 -0.51765564465E+02  0.19536842842E+02 -0.32337840765E+02  0.64099225720E+02  0.12700000000E+01 0.  1.
<mgrwt>
<rscale>  1 0.13669890E+03</rscale>
<asrwt>0</asrwt>
<pdfrwt beam="1">  1       21 0.31579062E-02 0.13669890E+03</pdfrwt>
<pdfrwt beam="2">  1       -4 0.16211405E+00 0.13669890E+03</pdfrwt>
<totfact> 0.62032787E+03</totfact>
</mgrwt>
</event>
<event>
 6    4  0.3995738E-003  0.1266838E+03  0.7818608E-02  0.1232461E+00
          4   -1    0    0  502    0 -0.00000000000E+00  0.00000000000E+00  0.13332232391E+03  0.13332837265E+03  0.12700000000E+01 0.  1.
         21   -1    0    0  501  502  0.00000000000E+00 -0.00000000000E+00 -0.40593302163E+02  0.40593302163E+02  0.00000000000E+00 0.  1.
         25    2    1    2    0    0 -0.15969518928E+02  0.12715132715E+02  0.80231836904E+02  0.14995309822E+03  0.12502833231E+03 0.  0.
    9000005    1    3    3    0    0 -0.16372861983E+02  0.56276371308E+02  0.87955830110E+02  0.10569923665E+03  0.10000000000E+01 0.  0.
    9000005    1    3    3    0    0  0.40334305467E+00 -0.43561238594E+02 -0.77239932060E+01  0.44253861577E+02  0.10000000000E+01 0.  0.
          4    1    1    2  501    0  0.15969518928E+02 -0.12715132715E+02  0.12497184848E+02  0.23968576592E+02  0.12700000000E+01 0. -1.
<mgrwt>
<rscale>  1 0.12668380E+03</rscale>
<asrwt>0</asrwt>
<pdfrwt beam="2">  1       21 0.62451235E-02 0.12668380E+03</pdfrwt>
<pdfrwt beam="1">  1        4 0.20513120E-01 0.12668380E+03</pdfrwt>
<totfact> 0.15737926E+05</totfact>
</mgrwt>
</event>
<event>
 6    4  0.3995738E-003  0.1333883E+03  0.7818608E-02  0.1222513E+00
         -4   -1    0    0    0  501 -0.00000000000E+00  0.00000000000E+00  0.11800207031E+04  0.11800213865E+04  0.12700000000E+01 0. -1.
         21   -1    0    0  501  502  0.00000000000E+00 -0.00000000000E+00 -0.80676543403E+01  0.80676543403E+01  0.00000000000E+00 0.  1.
         25    2    1    2    0    0 -0.36251014313E+02  0.29205625142E+02  0.10321552744E+04  0.10407386585E+04  0.12500136059E+03 0.  0.
    9000005    1    3    3    0    0  0.78764366854E+00 -0.36500160200E+02  0.66031365118E+03  0.66132291660E+03  0.10000000000E+01 0.  0.
    9000005    1    3    3    0    0 -0.37038657982E+02  0.65705785342E+02  0.37184162323E+03  0.37941574187E+03  0.10000000000E+01 0.  0.
         -4    1    1    2    0  502  0.36251014313E+02 -0.29205625142E+02  0.13979777431E+03  0.14735038236E+03  0.12700000000E+01 0.  1.
<mgrwt>
<rscale>  1 0.13338832E+03</rscale>
<asrwt>0</asrwt>
<pdfrwt beam="2">  1       21 0.12411785E-02 0.13338832E+03</pdfrwt>
<pdfrwt beam="1">  1       -4 0.18154925E+00 0.13338832E+03</pdfrwt>
<totfact> 0.20678874E+04</totfact>
</mgrwt>
</event>
<event>
 6    4  0.3995738E-003  0.1321297E+03  0.7818608E-02  0.1224329E+00
          4   -1    0    0  502    0 -0.00000000000E+00  0.00000000000E+00  0.14741097299E+02  0.14795703754E+02  0.12700000000E+01 0.  1.
         21   -1    0    0  501  502  0.00000000000E+00 -0.00000000000E+00 -0.19414653026E+04  0.19414653026E+04  0.00000000000E+00 0. -1.
         25    2    1    2    0    0 -0.14113597159E+02  0.40420174489E+02 -0.28674894004E+03  0.31572649965E+03  0.12500113533E+03 0.  0.
    9000005    1    3    3    0    0 -0.26683876237E+02 -0.39449539327E+02 -0.14390234280E+03  0.15158225380E+03  0.10000000000E+01 0.  0.
    9000005    1    3    3    0    0  0.12570279077E+02  0.79869713815E+02 -0.14284659724E+03  0.16414424584E+03  0.10000000000E+01 0.  0.
          4    1    1    2  501    0  0.14113597159E+02 -0.40420174489E+02 -0.16399752653E+04  0.16405345068E+04  0.12700000000E+01 0. -1.
<mgrwt>
<rscale>  1 0.13212974E+03</rscale>
<asrwt>0</asrwt>
<pdfrwt beam="2">  1       21 0.29868688E+00 0.13212974E+03</pdfrwt>
<pdfrwt beam="1">  1        4 0.22720943E-02 0.13212974E+03</pdfrwt>
<totfact> 0.12584637E+03</totfact>
</mgrwt>
</event>
<event>
 6    4  0.3995738E-003  0.1297282E+03  0.7818608E-02  0.1227860E+00
         21   -1    0    0  501  502  0.00000000000E+00  0.00000000000E+00  0.15907999617E+03  0.15907999617E+03  0.00000000000E+00 0. -1.
         -4   -1    0    0    0  501 -0.00000000000E+00 -0.00000000000E+00 -0.45297438247E+02  0.45315238185E+02  0.12700000000E+01 0. -1.
         25    2    1    2    0    0 -0.34361837124E+02  0.48109184994E+01  0.10881285878E+03  0.16932114710E+03  0.12500212731E+03 0.  0.
    9000005    1    3    3    0    0 -0.73393943689E+02 -0.45842392677E+01  0.10606525013E+03  0.12906790269E+03  0.10000000000E+01 0.  0.
    9000005    1    3    3    0    0  0.39032106565E+02  0.93951577671E+01  0.27476086530E+01  0.40253244411E+02  0.10000000000E+01 0.  0.
         -4    1    1    2    0  502  0.34361837124E+02 -0.48109184994E+01  0.49696991463E+01  0.35074087258E+02  0.12700000000E+01 0.  1.
<mgrwt>
<rscale>  1 0.12972823E+03</rscale>
<asrwt>0</asrwt>
<pdfrwt beam="1">  1       21 0.24473845E-01 0.12972823E+03</pdfrwt>
<pdfrwt beam="2">  1       -4 0.69705959E-02 0.12972823E+03</pdfrwt>
<totfact> 0.88017377E+04</totfact>
</mgrwt>
</event>
<event>
 6    4  0.3995738E-003  0.1434144E+03  0.7818608E-02  0.1208807E+00
         -4   -1    0    0    0  501 -0.00000000000E+00  0.00000000000E+00  0.13881572687E+03  0.13882153625E+03  0.12700000000E+01 0. -1.
         21   -1    0    0  501  502  0.00000000000E+00 -0.00000000000E+00 -0.15794712514E+03  0.15794712514E+03  0.00000000000E+00 0.  1.
         25    2    1    2    0    0  0.12410318378E+02 -0.69208895709E+02  0.88262553613E+02  0.16839825573E+03  0.12499522757E+03 0.  0.
    9000005    1    3    3    0    0  0.45191385139E+02 -0.28517914212E+02  0.10129951757E+03  0.11453438340E+03  0.10000000000E+01 0.  0.
    9000005    1    3    3    0    0 -0.32781066761E+02 -0.40690981496E+02 -0.13036963952E+02  0.53863872328E+02  0.10000000000E+01 0.  0.
         -4    1    1    2    0  502 -0.12410318378E+02  0.69208895709E+02 -0.10739395189E+03  0.12837040566E+03  0.12700000000E+01 0.  1.
<mgrwt>
<rscale>  1 0.14341441E+03</rscale>
<asrwt>0</asrwt>
<pdfrwt beam="2">  1       21 0.24299558E-01 0.14341441E+03</pdfrwt>
<pdfrwt beam="1">  1       -4 0.21357105E-01 0.14341441E+03</pdfrwt>
<totfact> 0.13174275E+04</totfact>
</mgrwt>
</event>
<event>
 6    4  0.3995738E-003  0.1266291E+03  0.7818608E-02  0.1232545E+00
         21   -1    0    0  501  502  0.00000000000E+00  0.00000000000E+00  0.12027899562E+04  0.12027899562E+04  0.00000000000E+00 0. -1.
          4   -1    0    0  502    0 -0.00000000000E+00 -0.00000000000E+00 -0.13381827543E+02  0.13441957015E+02  0.12700000000E+01 0.  1.
         25    2    1    2    0    0 -0.10394660971E+02 -0.17375915306E+02  0.28816210330E+03  0.31475757496E+03  0.12499984723E+03 0.  0.
    9000005    1    3    3    0    0  0.47833448600E+02  0.18544590517E+02  0.17641851318E+03  0.18372923675E+03  0.10000000000E+01 0.  0.
    9000005    1    3    3    0    0 -0.58228109571E+02 -0.35920505822E+02  0.11174359012E+03  0.13102833822E+03  0.10000000000E+01 0.  0.
          4    1    1    2  501    0  0.10394660971E+02  0.17375915306E+02  0.90124602532E+03  0.90147433821E+03  0.12700000000E+01 0. -1.
<mgrwt>
<rscale>  1 0.12662912E+03</rscale>
<asrwt>0</asrwt>
<pdfrwt beam="1">  1       21 0.18504452E+00 0.12662912E+03</pdfrwt>
<pdfrwt beam="2">  1        4 0.20634206E-02 0.12662912E+03</pdfrwt>
<totfact> 0.68324875E+03</totfact>
</mgrwt>
</event>
<event>
 6    4  0.3995738E-003  0.1756205E+03  0.7818608E-02  0.1172110E+00
         -4   -1    0    0    0  501 -0.00000000000E+00  0.00000000000E+00  0.55279798592E+03  0.55279944477E+03  0.12700000000E+01 0. -1.
         21   -1    0    0  501  502  0.00000000000E+00 -0.00000000000E+00 -0.78412843862E+02  0.78412843862E+02  0.00000000000E+00 0.  1.
         25    2    1    2    0    0  0.97660300305E+02 -0.75356971143E+02  0.47650018787E+03  0.50783362891E+03  0.12500543293E+03 0.  0.
    9000005    1    3    3    0    0  0.36621679581E+02 -0.35088002609E+02  0.39535467067E+03  0.39859582406E+03  0.10000000000E+01 0.  0.
    9000005    1    3    3    0    0  0.61038620724E+02 -0.40268968533E+02  0.81145517202E+02  0.10923780485E+03  0.10000000000E+01 0.  0.
         -4    1    1    2    0  502 -0.97660300305E+02  0.75356971143E+02 -0.21150458080E+01  0.12337865972E+03  0.12700000000E+01 0.  1.
<mgrwt>
<rscale>  1 0.17562052E+03</rscale>
<asrwt>0</asrwt>
<pdfrwt beam="2">  1       21 0.12063515E-01 0.17562052E+03</pdfrwt>
<pdfrwt beam="1">  1       -4 0.85046745E-01 0.17562052E+03</pdfrwt>
<totfact> 0.30164228E+03</totfact>
</mgrwt>
</event>
<event>
 6    4  0.3995738E-003  0.1350381E+03  0.7818608E-02  0.1220166E+00
         21   -1    0    0  501  502  0.00000000000E+00  0.00000000000E+00  0.10966510287E+03  0.10966510287E+03  0.00000000000E+00 0.  1.
          4   -1    0    0  502    0 -0.00000000000E+00 -0.00000000000E+00 -0.11354642861E+03  0.11355353077E+03  0.12700000000E+01 0. -1.
         25    2    1    2    0    0  0.38482978223E+02 -0.33608704719E+02 -0.59603726285E+02  0.14760723590E+03  0.12499922903E+03 0.  0.
    9000005    1    3    3    0    0  0.12049896555E+02 -0.36483261325E+01 -0.94019917444E+02  0.94864404108E+02  0.10000000000E+01 0.  0.
    9000005    1    3    3    0    0  0.26433081668E+02 -0.29960378586E+02  0.34416191160E+02  0.52742831792E+02  0.10000000000E+01 0.  0.
          4    1    1    2  501    0 -0.38482978223E+02  0.33608704719E+02  0.55722400547E+02  0.75611397742E+02  0.12700000000E+01 0.  1.
<mgrwt>
<rscale>  1 0.13503811E+03</rscale>
<asrwt>0</asrwt>
<pdfrwt beam="1">  1       21 0.16871554E-01 0.13503811E+03</pdfrwt>
<pdfrwt beam="2">  1        4 0.17469793E-01 0.13503811E+03</pdfrwt>
<totfact> 0.36948028E+04</totfact>
</mgrwt>
</event>
<event>
 6    4  0.3995738E-003  0.1268230E+03  0.7818608E-02  0.1232247E+00
          4   -1    0    0  502    0 -0.00000000000E+00  0.00000000000E+00  0.93204391993E+03  0.93204478518E+03  0.12700000000E+01 0. -1.
         21   -1    0    0  501  502  0.00000000000E+00 -0.00000000000E+00 -0.59127455763E+01  0.59127455763E+01  0.00000000000E+00 0. -1.
         25    2    1    2    0    0  0.56410814243E+01 -0.20684963560E+02  0.77514157894E+03  0.78544798896E+03  0.12499754571E+03 0.  0.
    9000005    1    3    3    0    0 -0.11395894001E+02 -0.13152155930E+02  0.10033654535E+02  0.20112678315E+02  0.10000000000E+01 0.  0.
    9000005    1    3    3    0    0  0.17036975426E+02 -0.75328076306E+01  0.76510792441E+03  0.76533531064E+03  0.10000000000E+01 0.  0.
          4    1    1    2  501    0 -0.56410814243E+01  0.20684963560E+02  0.15098959541E+03  0.15250954180E+03  0.12700000000E+01 0.  1.
<mgrwt>
<rscale>  1 0.12682301E+03</rscale>
<asrwt>0</asrwt>
<pdfrwt beam="2">  1       21 0.90965391E-03 0.12682301E+03</pdfrwt>
<pdfrwt beam="1">  1        4 0.14340181E+00 0.12682301E+03</pdfrwt>
<totfact> 0.62162427E+04</totfact>
</mgrwt>
</event>
<event>
 6    4  0.3995738E-003  0.1268461E+03  0.7818608E-02  0.1232212E+00
         21   -1    0    0  501  502  0.00000000000E+00  0.00000000000E+00  0.73404828713E+01  0.73404828713E+01  0.00000000000E+00 0. -1.
          4   -1    0    0  502    0 -0.00000000000E+00 -0.00000000000E+00 -0.92890454236E+03  0.92890541053E+03  0.12700000000E+01 0. -1.
         25    2    1    2    0    0 -0.13149522234E+02  0.17093756825E+02 -0.88281573371E+03  0.89188203302E+03  0.12499933873E+03 0.  0.
    9000005    1    3    3    0    0  0.25490529937E+02 -0.31438325680E+02 -0.12203474886E+03  0.12857532954E+03  0.10000000000E+01 0.  0.
    9000005    1    3    3    0    0 -0.38640052171E+02  0.48532082505E+02 -0.76078098485E+03  0.76330670348E+03  0.10000000000E+01 0.  0.
          4    1    1    2  501    0  0.13149522234E+02 -0.17093756825E+02 -0.38748325777E+02  0.44363860381E+02  0.12700000000E+01 0.  1.
<mgrwt>
<rscale>  1 0.12684613E+03</rscale>
<asrwt>0</asrwt>
<pdfrwt beam="1">  1       21 0.11293063E-02 0.12684613E+03</pdfrwt>
<pdfrwt beam="2">  1        4 0.14291675E+00 0.12684613E+03</pdfrwt>
<totfact> 0.44585861E+04</totfact>
</mgrwt>
</event>
<event>
 6    4  0.3995738E-003  0.1279683E+03  0.7818608E-02  0.1230502E+00
          4   -1    0    0  502    0 -0.00000000000E+00  0.00000000000E+00  0.18395930353E+04  0.18395934737E+04  0.12700000000E+01 0.  1.
         21   -1    0    0  501  502  0.00000000000E+00 -0.00000000000E+00 -0.44577726126E+01  0.44577726126E+01  0.00000000000E+00 0. -1.
         25    2    1    2    0    0 -0.25336437245E+02  0.10434094189E+02  0.17485146668E+04  0.17531912116E+04  0.12500031611E+03 0.  0.
    9000005    1    3    3    0    0  0.29202266760E+02  0.43849379263E+01  0.11436099018E+03  0.11811619761E+03  0.10000000000E+01 0.  0.
    9000005    1    3    3    0    0 -0.54538704005E+02  0.60491562631E+01  0.16341536767E+04  0.16350750140E+04  0.10000000000E+01 0.  0.
          4    1    1    2  501    0  0.25336437245E+02 -0.10434094189E+02  0.86620595848E+02  0.90860034663E+02  0.12700000000E+01 0. -1.
<mgrwt>
<rscale>  1 0.12796829E+03</rscale>
<asrwt>0</asrwt>
<pdfrwt beam="2">  1       21 0.68581264E-03 0.12796829E+03</pdfrwt>
<pdfrwt beam="1">  1        4 0.28302766E+00 0.12796829E+03</pdfrwt>
<totfact> 0.13056991E+04</totfact>
</mgrwt>
</event>
<event>
 6    4  0.3995738E-003  0.1277043E+03  0.7818608E-02  0.1230902E+00
         -4   -1    0    0    0  501 -0.00000000000E+00  0.00000000000E+00  0.52579939375E+02  0.52595274738E+02  0.12700000000E+01 0.  1.
         21   -1    0    0  501  502  0.00000000000E+00 -0.00000000000E+00 -0.11955437991E+03  0.11955437991E+03  0.00000000000E+00 0.  1.
         25    2    1    2    0    0 -0.13595201010E+02  0.22318238593E+02 -0.38281000567E+02  0.13331848596E+03  0.12500180171E+03 0.  0.
    9000005    1    3    3    0    0 -0.19846715274E+02 -0.47118087457E+02 -0.37802101022E+02  0.63592492595E+02  0.10000000000E+01 0.  0.
    9000005    1    3    3    0    0  0.62515142641E+01  0.69436326050E+02 -0.47889954490E+00  0.69725993365E+02  0.10000000000E+01 0.  0.
         -4    1    1    2    0  502  0.13595201010E+02 -0.22318238593E+02 -0.28693439964E+02  0.38831168684E+02  0.12700000000E+01 0. -1.
<mgrwt>
<rscale>  1 0.12770428E+03</rscale>
<asrwt>0</asrwt>
<pdfrwt beam="2">  1       21 0.18392981E-01 0.12770428E+03</pdfrwt>
<pdfrwt beam="1">  1       -4 0.80909200E-02 0.12770428E+03</pdfrwt>
<totfact> 0.11685708E+05</totfact>
</mgrwt>
</event>
<event>
 6    4  0.3995738E-003  0.1393961E+03  0.7818608E-02  0.1214144E+00
          4   -1    0    0  502    0 -0.00000000000E+00  0.00000000000E+00  0.73527345610E+02  0.73538312820E+02  0.12700000000E+01 0.  1.
         21   -1    0    0  501  502  0.00000000000E+00 -0.00000000000E+00 -0.62480951712E+03  0.62480951712E+03  0.00000000000E+00 0. -1.
         25    2    1    2    0    0  0.45464116094E+02  0.41696338340E+02  0.41901589064E+01  0.13945902773E+03  0.12500276997E+03 0.  0.
    9000005    1    3    3    0    0  0.33694610620E+02  0.40088678050E+02 -0.56829804987E+02  0.77285546045E+02  0.10000000000E+01 0.  0.
    9000005    1    3    3    0    0  0.11769505474E+02  0.16076602896E+01  0.61019963893E+02  0.62173481680E+02  0.10000000000E+01 0.  0.
          4    1    1    2  501    0 -0.45464116094E+02 -0.41696338340E+02 -0.55547233041E+03  0.55888880221E+03  0.12700000000E+01 0. -1.
<mgrwt>
<rscale>  1 0.13939607E+03</rscale>
<asrwt>0</asrwt>
<pdfrwt beam="2">  1       21 0.96124539E-01 0.13939607E+03</pdfrwt>
<pdfrwt beam="1">  1        4 0.11312842E-01 0.13939607E+03</pdfrwt>
<totfact> 0.23159633E+03</totfact>
</mgrwt>
</event>
<event>
 6    4  0.3995738E-003  0.1302618E+03  0.7818608E-02  0.1227068E+00
         -4   -1    0    0    0  501 -0.00000000000E+00  0.00000000000E+00  0.40383368565E+03  0.40383568263E+03  0.12700000000E+01 0. -1.
         21   -1    0    0  501  502  0.00000000000E+00 -0.00000000000E+00 -0.21129164394E+02  0.21129164394E+02  0.00000000000E+00 0.  1.
         25    2    1    2    0    0 -0.95894260545E+01 -0.35365494565E+02  0.35744726660E+03  0.38044275014E+03  0.12500184975E+03 0.  0.
    9000005    1    3    3    0    0 -0.23652358187E+02 -0.34979750873E+02  0.27959438225E+02  0.50653205277E+02  0.10000000000E+01 0.  0.
    9000005    1    3    3    0    0  0.14062932133E+02 -0.38574369175E+00  0.32948782837E+03  0.32978954487E+03  0.10000000000E+01 0.  0.
         -4    1    1    2    0  502  0.95894260545E+01  0.35365494565E+02  0.25257254663E+02  0.44522096884E+02  0.12700000000E+01 0.  1.
<mgrwt>
<rscale>  1 0.13026180E+03</rscale>
<asrwt>0</asrwt>
<pdfrwt beam="2">  1       21 0.32506410E-02 0.13026180E+03</pdfrwt>
<pdfrwt beam="1">  1       -4 0.62131343E-01 0.13026180E+03</pdfrwt>
<totfact> 0.54771860E+04</totfact>
</mgrwt>
</event>
<event>
 6    4  0.3995738E-003  0.1290331E+03  0.7818608E-02  0.1228897E+00
         -4   -1    0    0    0  501 -0.00000000000E+00  0.00000000000E+00  0.76125670173E+03  0.76125776109E+03  0.12700000000E+01 0.  1.
         21   -1    0    0  501  502  0.00000000000E+00 -0.00000000000E+00 -0.16131902979E+02  0.16131902979E+02  0.00000000000E+00 0. -1.
         25    2    1    2    0    0 -0.26345956163E+02  0.18199380708E+02  0.73111685593E+03  0.74241592783E+03  0.12499690403E+03 0.  0.
    9000005    1    3    3    0    0  0.19168725218E+02  0.51555713866E+02  0.54912720670E+03  0.55187600129E+03  0.10000000000E+01 0.  0.
    9000005    1    3    3    0    0 -0.45514681381E+02 -0.33356333158E+02  0.18198964923E+03  0.19053992655E+03  0.10000000000E+01 0.  0.
         -4    1    1    2    0  502  0.26345956163E+02 -0.18199380708E+02  0.14007942823E+02  0.34973736238E+02  0.12700000000E+01 0. -1.
<mgrwt>
<rscale>  1 0.12903315E+03</rscale>
<asrwt>0</asrwt>
<pdfrwt beam="2">  1       21 0.24818318E-02 0.12903315E+03</pdfrwt>
<pdfrwt beam="1">  1       -4 0.11712031E+00 0.12903315E+03</pdfrwt>
<totfact> 0.20566928E+04</totfact>
</mgrwt>
</event>
<event>
 6    4  0.3995738E-003  0.1280443E+03  0.7818608E-02  0.1230387E+00
         21   -1    0    0  501  502  0.00000000000E+00  0.00000000000E+00  0.43998596135E+02  0.43998596135E+02  0.00000000000E+00 0.  1.
         -4   -1    0    0    0  501 -0.00000000000E+00 -0.00000000000E+00 -0.14204210665E+03  0.14204778408E+03  0.12700000000E+01 0.  1.
         25    2    1    2    0    0 -0.22751033594E+02 -0.15895756059E+02 -0.67461740499E+02  0.14472880347E+03  0.12500022214E+03 0.  0.
    9000005    1    3    3    0    0  0.12000739621E+02 -0.51029951326E+02  0.94769751134E+01  0.53281204389E+02  0.10000000000E+01 0.  0.
    9000005    1    3    3    0    0 -0.34751773215E+02  0.35134195267E+02 -0.76938715612E+02  0.91447599086E+02  0.10000000000E+01 0.  0.
         -4    1    1    2    0  502  0.22751033594E+02  0.15895756059E+02 -0.30581770020E+02  0.41317576742E+02  0.12700000000E+01 0. -1.
<mgrwt>
<rscale>  1 0.12804429E+03</rscale>
<asrwt>0</asrwt>
<pdfrwt beam="1">  1       21 0.67690148E-02 0.12804429E+03</pdfrwt>
<pdfrwt beam="2">  1       -4 0.21854478E-01 0.12804429E+03</pdfrwt>
<totfact> 0.12255761E+05</totfact>
</mgrwt>
</event>
<event>
 6    4  0.3995738E-003  0.1285963E+03  0.7818608E-02  0.1229554E+00
          4   -1    0    0  502    0 -0.00000000000E+00  0.00000000000E+00  0.48395090484E+02  0.48411751496E+02  0.12700000000E+01 0.  1.
         21   -1    0    0  501  502  0.00000000000E+00 -0.00000000000E+00 -0.21794657724E+03  0.21794657724E+03  0.00000000000E+00 0. -1.
         25    2    1    2    0    0 -0.17803319466E+02  0.24399908697E+02 -0.42012034969E+02  0.13528492033E+03  0.12499873943E+03 0.  0.
    9000005    1    3    3    0    0  0.14285398709E+02 -0.27807407279E+02  0.28180597261E+02  0.42100719446E+02  0.10000000000E+01 0.  0.
    9000005    1    3    3    0    0 -0.32088718175E+02  0.52207315976E+02 -0.70192632230E+02  0.93184200887E+02  0.10000000000E+01 0.  0.
          4    1    1    2  501    0  0.17803319466E+02 -0.24399908697E+02 -0.12753945179E+03  0.13107340840E+03  0.12700000000E+01 0. -1.
<mgrwt>
<rscale>  1 0.12859626E+03</rscale>
<asrwt>0</asrwt>
<pdfrwt beam="2">  1       21 0.33530242E-01 0.12859626E+03</pdfrwt>
<pdfrwt beam="1">  1        4 0.74469649E-02 0.12859626E+03</pdfrwt>
<totfact> 0.43105229E+04</totfact>
</mgrwt>
</event>
<event>
 6    4  0.3995738E-003  0.1307216E+03  0.7818608E-02  0.1226389E+00
         -4   -1    0    0    0  501 -0.00000000000E+00  0.00000000000E+00  0.20469045468E+02  0.20508406139E+02  0.12700000000E+01 0.  1.
         21   -1    0    0  501  502  0.00000000000E+00 -0.00000000000E+00 -0.36806312832E+03  0.36806312832E+03  0.00000000000E+00 0.  1.
         25    2    1    2    0    0 -0.35056140597E+02 -0.15283211740E+02 -0.22581485934E+03  0.26092239920E+03  0.12500255257E+03 0.  0.
    9000005    1    3    3    0    0  0.31405507062E+02 -0.45889112306E+02 -0.12008958288E+03  0.13234282912E+03  0.10000000000E+01 0.  0.
    9000005    1    3    3    0    0 -0.66461647658E+02  0.30605900566E+02 -0.10572527646E+03  0.12857957008E+03  0.10000000000E+01 0.  0.
         -4    1    1    2    0  502  0.35056140597E+02  0.15283211740E+02 -0.12177922351E+03  0.12764913526E+03  0.12700000000E+01 0. -1.
<mgrwt>
<rscale>  1 0.13072164E+03</rscale>
<asrwt>0</asrwt>
<pdfrwt beam="2">  1       21 0.56625094E-01 0.13072164E+03</pdfrwt>
<pdfrwt beam="1">  1       -4 0.31522803E-02 0.13072164E+03</pdfrwt>
<totfact> 0.59387203E+04</totfact>
</mgrwt>
</event>
<event>
 6    4  0.3995738E-003  0.1519349E+03  0.7818608E-02  0.1198115E+00
          4   -1    0    0  502    0 -0.00000000000E+00  0.00000000000E+00  0.87481226714E+03  0.87481318900E+03  0.12700000000E+01 0. -1.
         21   -1    0    0  501  502  0.00000000000E+00 -0.00000000000E+00 -0.16254515786E+02  0.16254515786E+02  0.00000000000E+00 0. -1.
         25    2    1    2    0    0  0.28128221808E+01  0.86320981750E+02  0.53033314550E+03  0.55166789829E+03  0.12500000370E+03 0.  0.
    9000005    1    3    3    0    0  0.12594278015E+02  0.74177061265E+02  0.53073002041E+03  0.53603750505E+03  0.10000000000E+01 0.  0.
    9000005    1    3    3    0    0 -0.97814558343E+01  0.12143920485E+02 -0.39687491163E+00  0.15630393235E+02  0.10000000000E+01 0.  0.
          4    1    1    2  501    0 -0.28128221808E+01 -0.86320981750E+02  0.32822460586E+03  0.33939980650E+03  0.12700000000E+01 0.  1.
<mgrwt>
<rscale>  1 0.15193494E+03</rscale>
<asrwt>0</asrwt>
<pdfrwt beam="2">  1       21 0.25006954E-02 0.15193494E+03</pdfrwt>
<pdfrwt beam="1">  1        4 0.13459035E+00 0.15193494E+03</pdfrwt>
<totfact> 0.14727372E+04</totfact>
</mgrwt>
</event>
<event>
 6    4  0.3995738E-003  0.1291550E+03  0.7818608E-02  0.1228715E+00
         -4   -1    0    0    0  501 -0.00000000000E+00  0.00000000000E+00  0.14398784884E+04  0.14398790485E+04  0.12700000000E+01 0.  1.
         21   -1    0    0  501  502  0.00000000000E+00 -0.00000000000E+00 -0.52989278985E+01  0.52989278985E+01  0.00000000000E+00 0. -1.
         25    2    1    2    0    0  0.18902088005E+02 -0.26448241159E+02  0.13124471335E+04  0.13187867543E+04  0.12499690686E+03 0.  0.
    9000005    1    3    3    0    0 -0.14748334337E+02  0.37752082321E+02  0.20506422280E+03  0.20903365413E+03  0.10000000000E+01 0.  0.
    9000005    1    3    3    0    0  0.33650422342E+02 -0.64200323481E+02  0.11073829107E+04  0.11097531001E+04  0.10000000000E+01 0.  0.
         -4    1    1    2    0  502 -0.18902088005E+02  0.26448241159E+02  0.12213242709E+03  0.12639122215E+03  0.12700000000E+01 0. -1.
<mgrwt>
<rscale>  1 0.12915504E+03</rscale>
<asrwt>0</asrwt>
<pdfrwt beam="2">  1       21 0.81522083E-03 0.12915504E+03</pdfrwt>
<pdfrwt beam="1">  1       -4 0.22153121E+00 0.12915504E+03</pdfrwt>
<totfact> 0.22607298E+04</totfact>
</mgrwt>
</event>
<event>
 6    4  0.3995738E-003  0.1346716E+03  0.7818608E-02  0.1220684E+00
         21   -1    0    0  501  502  0.00000000000E+00  0.00000000000E+00  0.66928055654E+01  0.66928055654E+01  0.00000000000E+00 0.  1.
         -4   -1    0    0    0  501 -0.00000000000E+00 -0.00000000000E+00 -0.14190414267E+04  0.14190419950E+04  0.12700000000E+01 0. -1.
         25    2    1    2    0    0 -0.28115802516E+02 -0.41509429009E+02 -0.12005400424E+04  0.12080698792E+04  0.12499163453E+03 0.  0.
    9000005    1    3    3    0    0 -0.76916267628E+02 -0.14205115975E+02 -0.75153858268E+03  0.75559853018E+03  0.10000000000E+01 0.  0.
    9000005    1    3    3    0    0  0.48800465112E+02 -0.27304313034E+02 -0.44900145968E+03  0.45247134904E+03  0.10000000000E+01 0.  0.
         -4    1    1    2    0  502  0.28115802516E+02  0.41509429009E+02 -0.21180857879E+03  0.21766492138E+03  0.12700000000E+01 0.  1.
<mgrwt>
<rscale>  1 0.13467160E+03</rscale>
<asrwt>0</asrwt>
<pdfrwt beam="1">  1       21 0.10296608E-02 0.13467160E+03</pdfrwt>
<pdfrwt beam="2">  1       -4 0.21832372E+00 0.13467160E+03</pdfrwt>
<totfact> 0.16425674E+04</totfact>
</mgrwt>
</event>
<event>
 6    4  0.3995738E-003  0.1269522E+03  0.7818608E-02  0.1232049E+00
         -4   -1    0    0    0  501 -0.00000000000E+00  0.00000000000E+00  0.39239515633E+03  0.39239721152E+03  0.12700000000E+01 0. -1.
         21   -1    0    0  501  502  0.00000000000E+00 -0.00000000000E+00 -0.14530627538E+02  0.14530627538E+02  0.00000000000E+00 0. -1.
         25    2    1    2    0    0  0.16110265458E+02  0.15244797437E+02  0.34126238371E+03  0.36411108502E+03  0.12499969278E+03 0.  0.
    9000005    1    3    3    0    0  0.73525834842E+01 -0.16806535791E+02  0.32769182840E+03  0.32820642061E+03  0.10000000000E+01 0.  0.
    9000005    1    3    3    0    0  0.87576819735E+01  0.32051333228E+02  0.13570555317E+02  0.35904664416E+02  0.10000000000E+01 0.  0.
         -4    1    1    2    0  502 -0.16110265458E+02 -0.15244797437E+02  0.36602145076E+02  0.42816754036E+02  0.12700000000E+01 0.  1.
<mgrwt>
<rscale>  1 0.12695223E+03</rscale>
<asrwt>0</asrwt>
<pdfrwt beam="2">  1       21 0.22354815E-02 0.12695223E+03</pdfrwt>
<pdfrwt beam="1">  1       -4 0.60372905E-01 0.12695223E+03</pdfrwt>
<totfact> 0.10681927E+05</totfact>
</mgrwt>
</event>
<event>
 6    4  0.3995738E-003  0.1303736E+03  0.7818608E-02  0.1226902E+00
          4   -1    0    0  502    0 -0.00000000000E+00  0.00000000000E+00  0.10113471845E+04  0.10113479819E+04  0.12700000000E+01 0.  1.
         21   -1    0    0  501  502  0.00000000000E+00 -0.00000000000E+00 -0.16691562804E+02  0.16691562804E+02  0.00000000000E+00 0. -1.
         25    2    1    2    0    0 -0.38562555883E+00 -0.36995789062E+02  0.97933516142E+03  0.98797501526E+03  0.12501374036E+03 0.  0.
    9000005    1    3    3    0    0 -0.42978646628E+01 -0.83521569184E+02  0.61740971358E+03  0.62304901780E+03  0.10000000000E+01 0.  0.
    9000005    1    3    3    0    0  0.39122391040E+01  0.46525780122E+02  0.36192544784E+03  0.36492599746E+03  0.10000000000E+01 0.  0.
          4    1    1    2  501    0  0.38562555883E+00  0.36995789062E+02  0.15320460259E+02  0.40064529424E+02  0.12700000000E+01 0. -1.
<mgrwt>
<rscale>  1 0.13037359E+03</rscale>
<asrwt>0</asrwt>
<pdfrwt beam="2">  1       21 0.25679335E-02 0.13037359E+03</pdfrwt>
<pdfrwt beam="1">  1        4 0.15559560E+00 0.13037359E+03</pdfrwt>
<totfact> 0.96468126E+03</totfact>
</mgrwt>
</event>
<event>
 6    4  0.3995738E-003  0.1327420E+03  0.7818608E-02  0.1223443E+00
         21   -1    0    0  501  502  0.00000000000E+00  0.00000000000E+00  0.50490975640E+02  0.50490975640E+02  0.00000000000E+00 0.  1.
         -4   -1    0    0    0  501 -0.00000000000E+00 -0.00000000000E+00 -0.17386318670E+03  0.17386782506E+03  0.12700000000E+01 0. -1.
         25    2    1    2    0    0 -0.38146267014E+02  0.23252223343E+02 -0.12098185165E+03  0.17960245706E+03  0.12499852230E+03 0.  0.
    9000005    1    3    3    0    0  0.89065185431E+00  0.65033235331E+02 -0.28835222037E+02  0.71151844588E+02  0.10000000000E+01 0.  0.
    9000005    1    3    3    0    0 -0.39036918868E+02 -0.41781011988E+02 -0.92146629613E+02  0.10845061248E+03  0.10000000000E+01 0.  0.
         -4    1    1    2    0  502  0.38146267014E+02 -0.23252223343E+02 -0.23903594142E+01  0.44756343635E+02  0.12700000000E+01 0.  1.
<mgrwt>
<rscale>  1 0.13274198E+03</rscale>
<asrwt>0</asrwt>
<pdfrwt beam="1">  1       21 0.77678424E-02 0.13274198E+03</pdfrwt>
<pdfrwt beam="2">  1       -4 0.26749768E-01 0.13274198E+03</pdfrwt>
<totfact> 0.67112477E+04</totfact>
</mgrwt>
</event>
<event>
 6    4  0.3995738E-003  0.1272996E+03  0.7818608E-02  0.1231519E+00
          4   -1    0    0  502    0 -0.00000000000E+00  0.00000000000E+00  0.31832423305E+03  0.31832676647E+03  0.12700000000E+01 0.  1.
         21   -1    0    0  501  502  0.00000000000E+00 -0.00000000000E+00 -0.21060061608E+02  0.21060061608E+02  0.00000000000E+00 0.  1.
         25    2    1    2    0    0  0.24028256773E+02 -0.16430411797E+01  0.28541151643E+03  0.31251388557E+03  0.12500055303E+03 0.  0.
    9000005    1    3    3    0    0  0.48572965197E+02 -0.36257607902E+02  0.68430703897E+02  0.91420502704E+02  0.10000000000E+01 0.  0.
    9000005    1    3    3    0    0 -0.24544708424E+02  0.34614566723E+02  0.21698081253E+03  0.22109338287E+03  0.10000000000E+01 0.  0.
          4    1    1    2  501    0 -0.24028256773E+02  0.16430411797E+01  0.11852655020E+02  0.26872942506E+02  0.12700000000E+01 0. -1.
<mgrwt>
<rscale>  1 0.12729963E+03</rscale>
<asrwt>0</asrwt>
<pdfrwt beam="2">  1       21 0.32400097E-02 0.12729963E+03</pdfrwt>
<pdfrwt beam="1">  1        4 0.48976096E-01 0.12729963E+03</pdfrwt>
<totfact> 0.89780530E+04</totfact>
</mgrwt>
</event>
<event>
 6    4  0.3995738E-003  0.1289852E+03  0.7818608E-02  0.1228969E+00
         21   -1    0    0  501  502  0.00000000000E+00  0.00000000000E+00  0.29583881085E+02  0.29583881085E+02  0.00000000000E+00 0. -1.
          4   -1    0    0  502    0 -0.00000000000E+00 -0.00000000000E+00 -0.33742267294E+03  0.33742506296E+03  0.12700000000E+01 0.  1.
         25    2    1    2    0    0 -0.30813946093E+01 -0.31660615417E+02 -0.30932320263E+03  0.33513880227E+03  0.12500113416E+03 0.  0.
    9000005    1    3    3    0    0  0.68732860605E+01 -0.24552279870E+02  0.56394755043E-01  0.25515871305E+02  0.10000000000E+01 0.  0.
    9000005    1    3    3    0    0 -0.99546806698E+01 -0.71083355472E+01 -0.30937959739E+03  0.30962293097E+03  0.10000000000E+01 0.  0.
          4    1    1    2  501    0  0.30813946093E+01  0.31660615417E+02  0.14844107764E+01  0.31870141774E+02  0.12700000000E+01 0. -1.
<mgrwt>
<rscale>  1 0.12898517E+03</rscale>
<asrwt>0</asrwt>
<pdfrwt beam="1">  1       21 0.45513660E-02 0.12898517E+03</pdfrwt>
<pdfrwt beam="2">  1        4 0.51913465E-01 0.12898517E+03</pdfrwt>
<totfact> 0.45471509E+04</totfact>
</mgrwt>
</event>
<event>
 6    4  0.3995738E-003  0.1288474E+03  0.7818608E-02  0.1229176E+00
          4   -1    0    0  502    0 -0.00000000000E+00  0.00000000000E+00  0.40302940188E+03  0.40303140284E+03  0.12700000000E+01 0.  1.
         21   -1    0    0  501  502  0.00000000000E+00 -0.00000000000E+00 -0.16024740012E+02  0.16024740012E+02  0.00000000000E+00 0.  1.
         25    2    1    2    0    0  0.96976698104E+01 -0.29679943823E+02  0.32533524336E+03  0.34992095685E+03  0.12500684624E+03 0.  0.
    9000005    1    3    3    0    0  0.32791746663E+02 -0.40332487593E+02  0.45971586324E+02  0.69400251828E+02  0.10000000000E+01 0.  0.
    9000005    1    3    3    0    0 -0.23094076853E+02  0.10652543770E+02  0.27936365703E+03  0.28052070502E+03  0.10000000000E+01 0.  0.
          4    1    1    2  501    0 -0.96976698104E+01  0.29679943823E+02  0.61669418507E+02  0.69135186006E+02  0.12700000000E+01 0. -1.
<mgrwt>
<rscale>  1 0.12884741E+03</rscale>
<asrwt>0</asrwt>
<pdfrwt beam="2">  1       21 0.24653449E-02 0.12884741E+03</pdfrwt>
<pdfrwt beam="1">  1        4 0.62008541E-01 0.12884741E+03</pdfrwt>
<totfact> 0.86334960E+04</totfact>
</mgrwt>
</event>
<event>
 6    4  0.3995738E-003  0.1584278E+03  0.7818608E-02  0.1190483E+00
         -4   -1    0    0    0  501 -0.00000000000E+00  0.00000000000E+00  0.37138554517E+03  0.37138771662E+03  0.12700000000E+01 0. -1.
         21   -1    0    0  501  502  0.00000000000E+00 -0.00000000000E+00 -0.44764255888E+02  0.44764255888E+02  0.00000000000E+00 0. -1.
         25    2    1    2    0    0 -0.88493928277E+02 -0.40537196083E+02  0.17590032857E+03  0.23672828259E+03  0.12499965831E+03 0.  0.
    9000005    1    3    3    0    0 -0.93088615413E+02  0.15541070569E+01  0.17018765302E+03  0.19399160500E+03  0.10000000000E+01 0.  0.
    9000005    1    3    3    0    0  0.45946871365E+01 -0.42091303140E+02  0.57126755511E+01  0.42736677595E+02  0.10000000000E+01 0.  0.
         -4    1    1    2    0  502  0.88493928277E+02  0.40537196083E+02  0.15072096071E+03  0.17942368992E+03  0.12700000000E+01 0.  1.
<mgrwt>
<rscale>  1 0.15842776E+03</rscale>
<asrwt>0</asrwt>
<pdfrwt beam="2">  1       21 0.68868089E-02 0.15842776E+03</pdfrwt>
<pdfrwt beam="1">  1       -4 0.57137788E-01 0.15842776E+03</pdfrwt>
<totfact> 0.18920260E+04</totfact>
</mgrwt>
</event>
<event>
 6    4  0.3995738E-003  0.1277060E+03  0.7818608E-02  0.1230900E+00
         21   -1    0    0  501  502  0.00000000000E+00  0.00000000000E+00  0.88640664084E+01  0.88640664084E+01  0.00000000000E+00 0.  1.
         -4   -1    0    0    0  501 -0.00000000000E+00 -0.00000000000E+00 -0.76454069866E+03  0.76454175348E+03  0.12700000000E+01 0.  1.
         25    2    1    2    0    0 -0.97149142867E+01  0.24279989445E+02 -0.70384437021E+03  0.71533608822E+03  0.12499969676E+03 0.  0.
    9000005    1    3    3    0    0  0.24095004280E+01 -0.66721071960E-01 -0.67734327950E+03  0.67734830658E+03  0.10000000000E+01 0.  0.
    9000005    1    3    3    0    0 -0.12124414715E+02  0.24346710517E+02 -0.26501090710E+02  0.37987781641E+02  0.10000000000E+01 0.  0.
         -4    1    1    2    0  502  0.97149142867E+01 -0.24279989445E+02 -0.51832262050E+02  0.58069731671E+02  0.12700000000E+01 0. -1.
<mgrwt>
<rscale>  1 0.12770600E+03</rscale>
<asrwt>0</asrwt>
<pdfrwt beam="1">  1       21 0.13637026E-02 0.12770600E+03</pdfrwt>
<pdfrwt beam="2">  1       -4 0.11762872E+00 0.12770600E+03</pdfrwt>
<totfact> 0.53270337E+04</totfact>
</mgrwt>
</event>
<event>
 6    4  0.3995738E-003  0.1318925E+03  0.7818608E-02  0.1224674E+00
          4   -1    0    0  502    0 -0.00000000000E+00  0.00000000000E+00  0.15167426582E+02  0.15220503576E+02  0.12700000000E+01 0. -1.
         21   -1    0    0  501  502  0.00000000000E+00 -0.00000000000E+00 -0.52415728538E+03  0.52415728538E+03  0.00000000000E+00 0. -1.
         25    2    1    2    0    0  0.26035963697E+02 -0.33055516705E+02 -0.32730870617E+03  0.35288330455E+03  0.12500039565E+03 0.  0.
    9000005    1    3    3    0    0  0.53632647134E+02  0.30199114273E+02 -0.17929537016E+03  0.18956866066E+03  0.10000000000E+01 0.  0.
    9000005    1    3    3    0    0 -0.27596683437E+02 -0.63254630978E+02 -0.14801333600E+03  0.16331464390E+03  0.10000000000E+01 0.  0.
          4    1    1    2  501    0 -0.26035963697E+02  0.33055516705E+02 -0.18168115263E+03  0.18649448440E+03  0.12700000000E+01 0.  1.
<mgrwt>
<rscale>  1 0.13189252E+03</rscale>
<asrwt>0</asrwt>
<pdfrwt beam="2">  1       21 0.80639572E-01 0.13189252E+03</pdfrwt>
<pdfrwt beam="1">  1        4 0.23376518E-02 0.13189252E+03</pdfrwt>
<totfact> 0.43995130E+04</totfact>
</mgrwt>
</event>
<event>
 6    4  0.3995738E-003  0.1315557E+03  0.7818608E-02  0.1225165E+00
         21   -1    0    0  501  502  0.00000000000E+00  0.00000000000E+00  0.88758828141E+02  0.88758828141E+02  0.00000000000E+00 0. -1.
         -4   -1    0    0    0  501 -0.00000000000E+00 -0.00000000000E+00 -0.10952174934E+03  0.10952911247E+03  0.12700000000E+01 0. -1.
         25    2    1    2    0    0  0.38645681457E+02 -0.13849948954E+02 -0.57133899251E+02  0.14342656325E+03  0.12498634653E+03 0.  0.
    9000005    1    3    3    0    0  0.58471599201E+02  0.19459784603E+02  0.13274812372E+02  0.63046266927E+02  0.10000000000E+01 0.  0.
    9000005    1    3    3    0    0 -0.19825917744E+02 -0.33309733557E+02 -0.70408711623E+02  0.80380296320E+02  0.10000000000E+01 0.  0.
         -4    1    1    2    0  502 -0.38645681457E+02  0.13849948954E+02  0.36370978055E+02  0.54861377362E+02  0.12700000000E+01 0.  1.
<mgrwt>
<rscale>  1 0.13155568E+03</rscale>
<asrwt>0</asrwt>
<pdfrwt beam="1">  1       21 0.13655204E-01 0.13155568E+03</pdfrwt>
<pdfrwt beam="2">  1       -4 0.16850765E-01 0.13155568E+03</pdfrwt>
<totfact> 0.57528609E+04</totfact>
</mgrwt>
</event>
<event>
 6    4  0.3995738E-003  0.1268080E+03  0.7818608E-02  0.1232270E+00
          4   -1    0    0  502    0 -0.00000000000E+00  0.00000000000E+00  0.18945583395E+03  0.18946009057E+03  0.12700000000E+01 0.  1.
         21   -1    0    0  501  502  0.00000000000E+00 -0.00000000000E+00 -0.43071703874E+02  0.43071703874E+02  0.00000000000E+00 0.  1.
         25    2    1    2    0    0  0.13721065204E+02  0.16306943503E+02  0.16225501770E+03  0.20592950111E+03  0.12500433842E+03 0.  0.
    9000005    1    3    3    0    0  0.12260945917E+01  0.43209851006E+02  0.23599415154E+01  0.43303162192E+02  0.10000000000E+01 0.  0.
    9000005    1    3    3    0    0  0.12494970612E+02 -0.26902907503E+02  0.15989507619E+03  0.16262633892E+03  0.10000000000E+01 0.  0.
          4    1    1    2  501    0 -0.13721065204E+02 -0.16306943503E+02 -0.15870887620E+02  0.26602293333E+02  0.12700000000E+01 0. -1.
<mgrwt>
<rscale>  1 0.12680800E+03</rscale>
<asrwt>0</asrwt>
<pdfrwt beam="2">  1       21 0.66264161E-02 0.12680800E+03</pdfrwt>
<pdfrwt beam="1">  1        4 0.29148819E-01 0.12680800E+03</pdfrwt>
<totfact> 0.74568404E+04</totfact>
</mgrwt>
</event>
<event>
 6    4  0.3995738E-003  0.1275306E+03  0.7818608E-02  0.1231167E+00
         -4   -1    0    0    0  501 -0.00000000000E+00  0.00000000000E+00  0.43614481559E+03  0.43614666463E+03  0.12700000000E+01 0.  1.
         21   -1    0    0  501  502  0.00000000000E+00 -0.00000000000E+00 -0.19946457005E+02  0.19946457005E+02  0.00000000000E+00 0.  1.
         25    2    1    2    0    0  0.20231474224E+01  0.25182865062E+02  0.41091660509E+03  0.43025168905E+03  0.12500315904E+03 0.  0.
    9000005    1    3    3    0    0  0.17376151175E+02 -0.46037788647E+02  0.10785853336E+03  0.11855746215E+03  0.10000000000E+01 0.  0.
    9000005    1    3    3    0    0 -0.15353003752E+02  0.71220653709E+02  0.30305807173E+03  0.31169422689E+03  0.10000000000E+01 0.  0.
         -4    1    1    2    0  502 -0.20231474224E+01 -0.25182865062E+02  0.52817534965E+01  0.25841432588E+02  0.12700000000E+01 0. -1.
<mgrwt>
<rscale>  1 0.12753062E+03</rscale>
<asrwt>0</asrwt>
<pdfrwt beam="2">  1       21 0.30686860E-02 0.12753062E+03</pdfrwt>
<pdfrwt beam="1">  1       -4 0.67102448E-01 0.12753062E+03</pdfrwt>
<totfact> 0.50981062E+04</totfact>
</mgrwt>
</event>
<event>
 6    4  0.3995738E-003  0.1351612E+03  0.7818608E-02  0.1219992E+00
          4   -1    0    0  502    0 -0.00000000000E+00  0.00000000000E+00  0.20960382883E+02  0.20998822601E+02  0.12700000000E+01 0. -1.
         21   -1    0    0  501  502  0.00000000000E+00 -0.00000000000E+00 -0.79757153953E+03  0.79757153953E+03  0.00000000000E+00 0.  1.
         25    2    1    2    0    0  0.31201018753E+02  0.40853773065E+02 -0.21068728289E+03  0.25031515702E+03  0.12500404921E+03 0.  0.
    9000005    1    3    3    0    0 -0.17871385408E+02 -0.28912864671E+02 -0.12446719800E+03  0.12902877020E+03  0.10000000000E+01 0.  0.
    9000005    1    3    3    0    0  0.49072404161E+02  0.69766637736E+02 -0.86220084884E+02  0.12128638682E+03  0.10000000000E+01 0.  0.
          4    1    1    2  501    0 -0.31201018753E+02 -0.40853773065E+02 -0.56592387376E+03  0.56825520511E+03  0.12700000000E+01 0.  1.
<mgrwt>
<rscale>  1 0.13516119E+03</rscale>
<asrwt>0</asrwt>
<pdfrwt beam="2">  1       21 0.12270331E+00 0.13516119E+03</pdfrwt>
<pdfrwt beam="1">  1        4 0.32277091E-02 0.13516119E+03</pdfrwt>
<totfact> 0.99693996E+03</totfact>
</mgrwt>
</event>
<event>
 6    4  0.3995738E-003  0.1283511E+03  0.7818608E-02  0.1229923E+00
         21   -1    0    0  501  502  0.00000000000E+00  0.00000000000E+00  0.71205989408E+03  0.71205989408E+03  0.00000000000E+00 0. -1.
         -4   -1    0    0    0  501 -0.00000000000E+00 -0.00000000000E+00 -0.16337073307E+02  0.16386362142E+02  0.12700000000E+01 0. -1.
         25    2    1    2    0    0 -0.15340765020E+02  0.24750065089E+02  0.24324919641E+03  0.27503485535E+03  0.12500438117E+03 0.  0.
    9000005    1    3    3    0    0  0.42768939763E+02  0.39858493204E+02  0.17301901257E+03  0.18263203553E+03  0.10000000000E+01 0.  0.
    9000005    1    3    3    0    0 -0.58109704783E+02 -0.15108428115E+02  0.70230183835E+02  0.92402819825E+02  0.10000000000E+01 0.  0.
         -4    1    1    2    0  502  0.15340765020E+02 -0.24750065089E+02  0.45247362436E+03  0.45341140087E+03  0.12700000000E+01 0.  1.
<mgrwt>
<rscale>  1 0.12835108E+03</rscale>
<asrwt>0</asrwt>
<pdfrwt beam="1">  1       21 0.10954765E+00 0.12835108E+03</pdfrwt>
<pdfrwt beam="2">  1       -4 0.25172750E-02 0.12835108E+03</pdfrwt>
<totfact> 0.19274699E+04</totfact>
</mgrwt>
</event>
<event>
 6    4  0.3995738E-003  0.1269810E+03  0.7818608E-02  0.1232005E+00
         -4   -1    0    0    0  501 -0.00000000000E+00  0.00000000000E+00  0.87782439953E+02  0.87791626390E+02  0.12700000000E+01 0.  1.
         21   -1    0    0  501  502  0.00000000000E+00 -0.00000000000E+00 -0.65380047927E+02  0.65380047927E+02  0.00000000000E+00 0.  1.
         25    2    1    2    0    0 -0.20377222392E+02  0.91771524556E+01  0.28144172102E+02  0.13006253634E+03  0.12499887046E+03 0.  0.
    9000005    1    3    3    0    0 -0.20858544081E+02 -0.50702246124E+02 -0.14287240398E+02  0.56664996792E+02  0.10000000000E+01 0.  0.
    9000005    1    3    3    0    0  0.48132168822E+00  0.59879398580E+02  0.42431412500E+02  0.73397539548E+02  0.10000000000E+01 0.  0.
         -4    1    1    2    0  502  0.20377222392E+02 -0.91771524556E+01 -0.57417800759E+01  0.23109137977E+02  0.12700000000E+01 0. -1.
<mgrwt>
<rscale>  1 0.12698098E+03</rscale>
<asrwt>0</asrwt>
<pdfrwt beam="2">  1       21 0.10058469E-01 0.12698098E+03</pdfrwt>
<pdfrwt beam="1">  1       -4 0.13506646E-01 0.12698098E+03</pdfrwt>
<totfact> 0.14463881E+05</totfact>
</mgrwt>
</event>
<event>
 6    4  0.3995738E-003  0.1378208E+03  0.7818608E-02  0.1216292E+00
         -4   -1    0    0    0  501 -0.00000000000E+00  0.00000000000E+00  0.24279767302E+03  0.24280099449E+03  0.12700000000E+01 0. -1.
         21   -1    0    0  501  502  0.00000000000E+00 -0.00000000000E+00 -0.42543134583E+02  0.42543134583E+02  0.00000000000E+00 0. -1.
         25    2    1    2    0    0  0.37642828015E+02 -0.44179091134E+02  0.17306484446E+03  0.22123744492E+03  0.12500316817E+03 0.  0.
    9000005    1    3    3    0    0  0.80504635286E+02 -0.35392601964E+02  0.14389426581E+03  0.16864220204E+03  0.10000000000E+01 0.  0.
    9000005    1    3    3    0    0 -0.42861807272E+02 -0.87864891701E+01  0.29170578651E+02  0.52595242878E+02  0.10000000000E+01 0.  0.
         -4    1    1    2    0  502 -0.37642828015E+02  0.44179091134E+02  0.27189693975E+02  0.64106684151E+02  0.12700000000E+01 0.  1.
<mgrwt>
<rscale>  1 0.13782078E+03</rscale>
<asrwt>0</asrwt>
<pdfrwt beam="2">  1       21 0.65450978E-02 0.13782078E+03</pdfrwt>
<pdfrwt beam="1">  1       -4 0.37355201E-01 0.13782078E+03</pdfrwt>
<totfact> 0.47893302E+04</totfact>
</mgrwt>
</event>
<event>
 6    4  0.3995738E-003  0.1292951E+03  0.7818608E-02  0.1228506E+00
         21   -1    0    0  501  502  0.00000000000E+00  0.00000000000E+00  0.13312207485E+03  0.13312207485E+03  0.00000000000E+00 0.  1.
         -4   -1    0    0    0  501 -0.00000000000E+00 -0.00000000000E+00 -0.53767624155E+02  0.53782620866E+02  0.12700000000E+01 0.  1.
         25    2    1    2    0    0  0.31715856631E+02 -0.92603126424E+01  0.39655373606E+02  0.13523963428E+03  0.12500224426E+03 0.  0.
    9000005    1    3    3    0    0  0.25490119338E+02  0.13497067470E+02  0.81903555672E+02  0.86839561525E+02  0.10000000000E+01 0.  0.
    9000005    1    3    3    0    0  0.62257372928E+01 -0.22757380113E+02 -0.42248182065E+02  0.48400072750E+02  0.10000000000E+01 0.  0.
         -4    1    1    2    0  502 -0.31715856631E+02  0.92603126424E+01  0.39699077093E+02  0.51665061445E+02  0.12700000000E+01 0. -1.
<mgrwt>
<rscale>  1 0.12929505E+03</rscale>
<asrwt>0</asrwt>
<pdfrwt beam="1">  1       21 0.20480319E-01 0.12929505E+03</pdfrwt>
<pdfrwt beam="2">  1       -4 0.82735618E-02 0.12929505E+03</pdfrwt>
<totfact> 0.92526214E+04</totfact>
</mgrwt>
</event>
<event>
 6    4  0.3995738E-003  0.1328438E+03  0.7818608E-02  0.1223296E+00
         21   -1    0    0  501  502  0.00000000000E+00  0.00000000000E+00  0.56528962178E+02  0.56528962178E+02  0.00000000000E+00 0.  1.
         -4   -1    0    0    0  501 -0.00000000000E+00 -0.00000000000E+00 -0.32601463756E+03  0.32601711121E+03  0.12700000000E+01 0. -1.
         25    2    1    2    0    0  0.20944138406E+02  0.39810967706E+02 -0.30005243598E+03  0.32814469623E+03  0.12499562891E+03 0.  0.
    9000005    1    3    3    0    0 -0.42846592656E+02  0.20449763873E+02 -0.21443384080E+03  0.21962899496E+03  0.10000000000E+01 0.  0.
    9000005    1    3    3    0    0  0.63790731062E+02  0.19361203833E+02 -0.85618595177E+02  0.10851570128E+03  0.10000000000E+01 0.  0.
         -4    1    1    2    0  502 -0.20944138406E+02 -0.39810967706E+02  0.30566760597E+02  0.54401377158E+02  0.12700000000E+01 0.  1.
<mgrwt>
<rscale>  1 0.13284381E+03</rscale>
<asrwt>0</asrwt>
<pdfrwt beam="1">  1       21 0.86967636E-02 0.13284381E+03</pdfrwt>
<pdfrwt beam="2">  1       -4 0.50157385E-01 0.13284381E+03</pdfrwt>
<totfact> 0.16265530E+04</totfact>
</mgrwt>
</event>
<event>
 6    4  0.3995738E-003  0.1362501E+03  0.7818608E-02  0.1218466E+00
         -4   -1    0    0    0  501 -0.00000000000E+00  0.00000000000E+00  0.52711834192E+03  0.52711987184E+03  0.12700000000E+01 0.  1.
         21   -1    0    0  501  502  0.00000000000E+00 -0.00000000000E+00 -0.26041187902E+02  0.26041187902E+02  0.00000000000E+00 0. -1.
         25    2    1    2    0    0  0.26560880356E+02  0.47226390126E+02  0.47277848418E+03  0.49201991235E+03  0.12501314634E+03 0.  0.
    9000005    1    3    3    0    0 -0.45071466958E+02  0.33034885151E+02  0.28721123949E+03  0.29259876429E+03  0.10000000000E+01 0.  0.
    9000005    1    3    3    0    0  0.71632347314E+02  0.14191504975E+02  0.18556724469E+03  0.19942114807E+03  0.10000000000E+01 0.  0.
         -4    1    1    2    0  502 -0.26560880356E+02 -0.47226390126E+02  0.28298669841E+02  0.61141147392E+02  0.12700000000E+01 0. -1.
<mgrwt>
<rscale>  1 0.13625013E+03</rscale>
<asrwt>0</asrwt>
<pdfrwt beam="2">  1       21 0.40063370E-02 0.13625013E+03</pdfrwt>
<pdfrwt beam="1">  1       -4 0.81097621E-01 0.13625013E+03</pdfrwt>
<totfact> 0.21902119E+04</totfact>
</mgrwt>
</event>
<event>
 6    4  0.3995738E-003  0.1611118E+03  0.7818608E-02  0.1187447E+00
          4   -1    0    0  502    0 -0.00000000000E+00  0.00000000000E+00  0.34707026688E+03  0.34707259046E+03  0.12700000000E+01 0. -1.
         21   -1    0    0  501  502  0.00000000000E+00 -0.00000000000E+00 -0.54038419171E+02  0.54038419171E+02  0.00000000000E+00 0.  1.
         25    2    1    2    0    0  0.42007187533E+02  0.92566669702E+02  0.23226694567E+03  0.28267462011E+03  0.12499525855E+03 0.  0.
    9000005    1    3    3    0    0 -0.33924804865E+02  0.10126423076E+02  0.11554038720E+03  0.12084708479E+03  0.10000000000E+01 0.  0.
    9000005    1    3    3    0    0  0.75931992398E+02  0.82440246626E+02  0.11672655847E+03  0.16182753532E+03  0.10000000000E+01 0.  0.
          4    1    1    2  501    0 -0.42007187533E+02 -0.92566669702E+02  0.60764902037E+02  0.11843638953E+03  0.12700000000E+01 0.  1.
<mgrwt>
<rscale>  1 0.16111178E+03</rscale>
<asrwt>0</asrwt>
<pdfrwt beam="2">  1       21 0.83136032E-02 0.16111178E+03</pdfrwt>
<pdfrwt beam="1">  1        4 0.53396751E-01 0.16111178E+03</pdfrwt>
<totfact> 0.15755708E+04</totfact>
</mgrwt>
</event>
<event>
 6    4  0.3995738E-003  0.1285457E+03  0.7818608E-02  0.1229630E+00
         -4   -1    0    0    0  501 -0.00000000000E+00  0.00000000000E+00  0.64418602737E+02  0.64431120420E+02  0.12700000000E+01 0.  1.
         21   -1    0    0  501  502  0.00000000000E+00 -0.00000000000E+00 -0.49162599590E+03  0.49162599590E+03  0.00000000000E+00 0. -1.
         25    2    1    2    0    0  0.89765737330E+01  0.28635296164E+02 -0.75464491301E+00  0.12854791355E+03  0.12499374995E+03 0.  0.
    9000005    1    3    3    0    0  0.24058876307E+01  0.78110566228E+02 -0.58283946017E+01  0.78371034416E+02  0.10000000000E+01 0.  0.
    9000005    1    3    3    0    0  0.65706861023E+01 -0.49475270064E+02  0.50737496887E+01  0.50176879134E+02  0.10000000000E+01 0.  0.
         -4    1    1    2    0  502 -0.89765737330E+01 -0.28635296164E+02 -0.42645274825E+03  0.42750920277E+03  0.12700000000E+01 0. -1.
<mgrwt>
<rscale>  1 0.12854570E+03</rscale>
<asrwt>0</asrwt>
<pdfrwt beam="2">  1       21 0.75634767E-01 0.12854570E+03</pdfrwt>
<pdfrwt beam="1">  1       -4 0.99116435E-02 0.12854570E+03</pdfrwt>
<totfact> 0.49693615E+03</totfact>
</mgrwt>
</event>
<event>
 6    4  0.3995738E-003  0.1345563E+03  0.7818608E-02  0.1220847E+00
          4   -1    0    0  502    0 -0.00000000000E+00  0.00000000000E+00  0.31787980444E+02  0.31813339980E+02  0.12700000000E+01 0. -1.
         21   -1    0    0  501  502  0.00000000000E+00 -0.00000000000E+00 -0.28022542624E+03  0.28022542624E+03  0.00000000000E+00 0. -1.
         25    2    1    2    0    0  0.38673603452E+02  0.31382212170E+02 -0.14864533287E+03  0.20050146507E+03  0.12499964667E+03 0.  0.
    9000005    1    3    3    0    0  0.58983985098E+02  0.69229319652E+02 -0.10980913212E+03  0.14258630613E+03  0.10000000000E+01 0.  0.
    9000005    1    3    3    0    0 -0.20310381646E+02 -0.37847107482E+02 -0.38836200749E+02  0.57915158948E+02  0.10000000000E+01 0.  0.
          4    1    1    2  501    0 -0.38673603452E+02 -0.31382212170E+02 -0.99792112923E+02  0.11153730114E+03  0.12700000000E+01 0.  1.
<mgrwt>
<rscale>  1 0.13455632E+03</rscale>
<asrwt>0</asrwt>
<pdfrwt beam="2">  1       21 0.43111602E-01 0.13455632E+03</pdfrwt>
<pdfrwt beam="1">  1        4 0.48926308E-02 0.13455632E+03</pdfrwt>
<totfact> 0.52038495E+04</totfact>
</mgrwt>
</event>
<event>
 6    4  0.3995738E-003  0.1300578E+03  0.7818608E-02  0.1227370E+00
          4   -1    0    0  502    0 -0.00000000000E+00  0.00000000000E+00  0.65221379056E+03  0.65221502704E+03  0.12700000000E+01 0.  1.
         21   -1    0    0  501  502  0.00000000000E+00 -0.00000000000E+00 -0.13207135968E+02  0.13207135968E+02  0.00000000000E+00 0.  1.
         25    2    1    2    0    0  0.17931528894E+02  0.31129926735E+02  0.59269200223E+03  0.60679391051E+03  0.12499771303E+03 0.  0.
    9000005    1    3    3    0    0  0.56585481859E+02 -0.20622128040E+02  0.20173754989E+03  0.21053794898E+03  0.10000000000E+01 0.  0.
    9000005    1    3    3    0    0 -0.38653952964E+02  0.51752054775E+02  0.39095445233E+03  0.39625596153E+03  0.10000000000E+01 0.  0.
          4    1    1    2  501    0 -0.17931528894E+02 -0.31129926735E+02  0.46314652368E+02  0.58628252499E+02  0.12700000000E+01 0. -1.
<mgrwt>
<rscale>  1 0.13005783E+03</rscale>
<asrwt>0</asrwt>
<pdfrwt beam="2">  1       21 0.20318676E-02 0.13005783E+03</pdfrwt>
<pdfrwt beam="1">  1        4 0.10034535E+00 0.13005783E+03</pdfrwt>
<totfact> 0.40929853E+04</totfact>
</mgrwt>
</event>
<event>
 6    4  0.3995738E-003  0.1274976E+03  0.7818608E-02  0.1231217E+00
         -4   -1    0    0    0  501 -0.00000000000E+00  0.00000000000E+00  0.63097100394E+03  0.63097228205E+03  0.12700000000E+01 0.  1.
         21   -1    0    0  501  502  0.00000000000E+00 -0.00000000000E+00 -0.13215698957E+02  0.13215698957E+02  0.00000000000E+00 0. -1.
         25    2    1    2    0    0  0.20515534700E+02 -0.14392417541E+02  0.60012957170E+03  0.61352353546E+03  0.12501038715E+03 0.  0.
    9000005    1    3    3    0    0  0.46073736983E+02  0.24780854278E+02  0.50299634884E+03  0.50571059602E+03  0.10000000000E+01 0.  0.
    9000005    1    3    3    0    0 -0.25558202283E+02 -0.39173271819E+02  0.97133222853E+02  0.10781293944E+03  0.10000000000E+01 0.  0.
         -4    1    1    2    0  502 -0.20515534700E+02  0.14392417541E+02  0.17625733290E+02  0.30664445547E+02  0.12700000000E+01 0. -1.
<mgrwt>
<rscale>  1 0.12749755E+03</rscale>
<asrwt>0</asrwt>
<pdfrwt beam="2">  1       21 0.20331849E-02 0.12749755E+03</pdfrwt>
<pdfrwt beam="1">  1       -4 0.97077231E-01 0.12749755E+03</pdfrwt>
<totfact> 0.44008155E+04</totfact>
</mgrwt>
</event>
<event>
 6    4  0.3995738E-003  0.1297380E+03  0.7818608E-02  0.1227845E+00
         21   -1    0    0  501  502  0.00000000000E+00  0.00000000000E+00  0.65248244494E+03  0.65248244494E+03  0.00000000000E+00 0. -1.
         -4   -1    0    0    0  501 -0.00000000000E+00 -0.00000000000E+00 -0.19002210859E+02  0.19044603370E+02  0.12700000000E+01 0. -1.
         25    2    1    2    0    0  0.12084572092E+02 -0.32572562079E+02  0.21152894298E+03  0.24814599814E+03  0.12499973596E+03 0.  0.
    9000005    1    3    3    0    0 -0.49591822047E+02 -0.66256088968E+01  0.14659452108E+03  0.15490061691E+03  0.10000000000E+01 0.  0.
    9000005    1    3    3    0    0  0.61676394139E+02 -0.25946953182E+02  0.64934421899E+02  0.93245381230E+02  0.10000000000E+01 0.  0.
         -4    1    1    2    0  502 -0.12084572092E+02  0.32572562079E+02  0.42195129111E+03  0.42338105018E+03  0.12700000000E+01 0.  1.
<mgrwt>
<rscale>  1 0.12973798E+03</rscale>
<asrwt>0</asrwt>
<pdfrwt beam="1">  1       21 0.10038190E+00 0.12973798E+03</pdfrwt>
<pdfrwt beam="2">  1       -4 0.29267736E-02 0.12973798E+03</pdfrwt>
<totfact> 0.18761559E+04</totfact>
</mgrwt>
</event>
<event>
 6    4  0.3995738E-003  0.1285197E+03  0.7818608E-02  0.1229669E+00
          4   -1    0    0  502    0 -0.00000000000E+00  0.00000000000E+00  0.13093758346E+04  0.13093764505E+04  0.12700000000E+01 0.  1.
         21   -1    0    0  501  502  0.00000000000E+00 -0.00000000000E+00 -0.52908782814E+01  0.52908782814E+01  0.00000000000E+00 0. -1.
         25    2    1    2    0    0  0.65603437609E+01  0.29157595039E+02  0.11821992234E+04  0.11891645469E+04  0.12499644981E+03 0.  0.
    9000005    1    3    3    0    0 -0.32708531895E+02  0.47111756372E+02  0.27404998835E+03  0.27998886007E+03  0.10000000000E+01 0.  0.
    9000005    1    3    3    0    0  0.39268875656E+02 -0.17954161333E+02  0.90814923501E+03  0.90917568685E+03  0.10000000000E+01 0.  0.
          4    1    1    2  501    0 -0.65603437609E+01 -0.29157595039E+02  0.12188573298E+03  0.12550278189E+03  0.12700000000E+01 0. -1.
<mgrwt>
<rscale>  1 0.12851971E+03</rscale>
<asrwt>0</asrwt>
<pdfrwt beam="2">  1       21 0.81398232E-03 0.12851971E+03</pdfrwt>
<pdfrwt beam="1">  1        4 0.20145395E+00 0.12851971E+03</pdfrwt>
<totfact> 0.29953707E+04</totfact>
</mgrwt>
</event>
<event>
 6    4  0.3995738E-003  0.1292523E+03  0.7818608E-02  0.1228569E+00
         21   -1    0    0  501  502  0.00000000000E+00  0.00000000000E+00  0.16065024909E+03  0.16065024909E+03  0.00000000000E+00 0.  1.
         -4   -1    0    0    0  501 -0.00000000000E+00 -0.00000000000E+00 -0.75757618487E+02  0.75768262874E+02  0.12700000000E+01 0. -1.
         25    2    1    2    0    0 -0.24251238480E+02  0.22205933974E+02 -0.16052454174E+02  0.13024530860E+03  0.12499973223E+03 0.  0.
    9000005    1    3    3    0    0  0.42254379002E+02 -0.82300595819E+00  0.24651127720E+02  0.48936571003E+02  0.10000000000E+01 0.  0.
    9000005    1    3    3    0    0 -0.66505617481E+02  0.23028939932E+02 -0.40703581894E+02  0.81308737599E+02  0.10000000000E+01 0.  0.
         -4    1    1    2    0  502  0.24251238480E+02 -0.22205933974E+02  0.10094508477E+03  0.10617320336E+03  0.12700000000E+01 0.  1.
<mgrwt>
<rscale>  1 0.12925231E+03</rscale>
<asrwt>0</asrwt>
<pdfrwt beam="1">  1       21 0.24715423E-01 0.12925231E+03</pdfrwt>
<pdfrwt beam="2">  1       -4 0.11656223E-01 0.12925231E+03</pdfrwt>
<totfact> 0.36587789E+04</totfact>
</mgrwt>
</event>
<event>
 6    4  0.3995738E-003  0.1293762E+03  0.7818608E-02  0.1228384E+00
         -4   -1    0    0    0  501 -0.00000000000E+00  0.00000000000E+00  0.25750397932E+03  0.25750711109E+03  0.12700000000E+01 0. -1.
         21   -1    0    0  501  502  0.00000000000E+00 -0.00000000000E+00 -0.30708518402E+02  0.30708518402E+02  0.00000000000E+00 0.  1.
         25    2    1    2    0    0  0.92377249042E+01 -0.32061205258E+02  0.21830682505E+03  0.25376383298E+03  0.12499982650E+03 0.  0.
    9000005    1    3    3    0    0 -0.51434796948E+02 -0.10472397012E+01  0.14410985381E+03  0.15302053788E+03  0.10000000000E+01 0.  0.
    9000005    1    3    3    0    0  0.60672521853E+02 -0.31013965556E+02  0.74196971237E+02  0.10074329510E+03  0.10000000000E+01 0.  0.
         -4    1    1    2    0  502 -0.92377249042E+01  0.32061205258E+02  0.84886358659E+01  0.34451796511E+02  0.12700000000E+01 0.  1.
<mgrwt>
<rscale>  1 0.12937625E+03</rscale>
<asrwt>0</asrwt>
<pdfrwt beam="2">  1       21 0.47243876E-02 0.12937625E+03</pdfrwt>
<pdfrwt beam="1">  1       -4 0.39618256E-01 0.12937625E+03</pdfrwt>
<totfact> 0.73461619E+04</totfact>
</mgrwt>
</event>
<event>
 6    4  0.3995738E-003  0.1280189E+03  0.7818608E-02  0.1230425E+00
          4   -1    0    0  502    0 -0.00000000000E+00  0.00000000000E+00  0.47849256586E+03  0.47849425126E+03  0.12700000000E+01 0.  1.
         21   -1    0    0  501  502  0.00000000000E+00 -0.00000000000E+00 -0.13047194910E+02  0.13047194910E+02  0.00000000000E+00 0.  1.
         25    2    1    2    0    0  0.15718875685E+02 -0.22750160431E+02  0.34582063462E+03  0.36875568439E+03  0.12499676231E+03 0.  0.
    9000005    1    3    3    0    0  0.29014052419E+01 -0.22642025114E+02  0.35319550291E+03  0.35393381123E+03  0.10000000000E+01 0.  0.
    9000005    1    3    3    0    0  0.12817470443E+02 -0.10813531702E+00 -0.73748682890E+01  0.14821873164E+02  0.10000000000E+01 0.  0.
          4    1    1    2  501    0 -0.15718875685E+02  0.22750160431E+02  0.11962473633E+03  0.12278576177E+03  0.12700000000E+01 0. -1.
<mgrwt>
<rscale>  1 0.12801892E+03</rscale>
<asrwt>0</asrwt>
<pdfrwt beam="2">  1       21 0.20072611E-02 0.12801892E+03</pdfrwt>
<pdfrwt beam="1">  1        4 0.73619111E-01 0.12801892E+03</pdfrwt>
<totfact> 0.83324992E+04</totfact>
</mgrwt>
</event>
<event>
 6    4  0.3995738E-003  0.1320753E+03  0.7818608E-02  0.1224408E+00
         -4   -1    0    0    0  501 -0.00000000000E+00  0.00000000000E+00  0.16757629447E+03  0.16758110684E+03  0.12700000000E+01 0. -1.
         21   -1    0    0  501  502  0.00000000000E+00 -0.00000000000E+00 -0.47007368230E+02  0.47007368230E+02  0.00000000000E+00 0.  1.
         25    2    1    2    0    0 -0.42555095134E+02  0.29402796760E+01  0.10646492764E+03  0.16964276289E+03  0.12499721924E+03 0.  0.
    9000005    1    3    3    0    0 -0.59638714419E+02 -0.41362479277E+02  0.27747964734E+02  0.77708303909E+02  0.10000000000E+01 0.  0.
    9000005    1    3    3    0    0  0.17083619285E+02  0.44302758953E+02  0.78716962910E+02  0.91934458983E+02  0.10000000000E+01 0.  0.
         -4    1    1    2    0  502  0.42555095134E+02 -0.29402796760E+01  0.14103998595E+02  0.44945712174E+02  0.12700000000E+01 0.  1.
<mgrwt>
<rscale>  1 0.13207530E+03</rscale>
<asrwt>0</asrwt>
<pdfrwt beam="2">  1       21 0.72319029E-02 0.13207530E+03</pdfrwt>
<pdfrwt beam="1">  1       -4 0.25782658E-01 0.13207530E+03</pdfrwt>
<totfact> 0.81199082E+04</totfact>
</mgrwt>
</event>
<event>
 6    4  0.3995738E-003  0.1300483E+03  0.7818608E-02  0.1227384E+00
         21   -1    0    0  501  502  0.00000000000E+00  0.00000000000E+00  0.38862995425E+02  0.38862995425E+02  0.00000000000E+00 0.  1.
          4   -1    0    0  502    0 -0.00000000000E+00 -0.00000000000E+00 -0.20332446152E+03  0.20332842780E+03  0.12700000000E+01 0.  1.
         25    2    1    2    0    0 -0.27485079347E+02 -0.23108214815E+02 -0.15968967491E+03  0.20594501555E+03  0.12499255169E+03 0.  0.
    9000005    1    3    3    0    0 -0.63234477932E+02 -0.44357207542E+02 -0.14005246804E+03  0.15994328640E+03  0.10000000000E+01 0.  0.
    9000005    1    3    3    0    0  0.35749398585E+02  0.21248992727E+02 -0.19637206873E+02  0.46001729151E+02  0.10000000000E+01 0.  0.
          4    1    1    2  501    0  0.27485079347E+02  0.23108214815E+02 -0.47717911863E+01  0.36246407681E+02  0.12700000000E+01 0. -1.
<mgrwt>
<rscale>  1 0.13004829E+03</rscale>
<asrwt>0</asrwt>
<pdfrwt beam="1">  1       21 0.59789223E-02 0.13004829E+03</pdfrwt>
<pdfrwt beam="2">  1        4 0.31282588E-01 0.13004829E+03</pdfrwt>
<totfact> 0.77992034E+04</totfact>
</mgrwt>
</event>
<event>
 6    4  0.3995738E-003  0.1478720E+03  0.7818608E-02  0.1203113E+00
         21   -1    0    0  501  502  0.00000000000E+00  0.00000000000E+00  0.11712859199E+04  0.11712859199E+04  0.00000000000E+00 0.  1.
         -4   -1    0    0    0  501 -0.00000000000E+00 -0.00000000000E+00 -0.11496830319E+02  0.11566763047E+02  0.12700000000E+01 0. -1.
         25    2    1    2    0    0  0.75004162603E+02  0.24820307434E+02  0.62479936437E+03  0.64205947750E+03  0.12499781946E+03 0.  0.
    9000005    1    3    3    0    0  0.12661055484E+01  0.22298009133E+02  0.13071119700E+02  0.25897073286E+02  0.10000000000E+01 0.  0.
    9000005    1    3    3    0    0  0.73738057055E+02  0.25222983007E+01  0.61172824467E+03  0.61616240422E+03  0.10000000000E+01 0.  0.
         -4    1    1    2    0  502 -0.75004162603E+02 -0.24820307434E+02  0.53498972519E+03  0.54079320542E+03  0.12700000000E+01 0.  1.
<mgrwt>
<rscale>  1 0.14787200E+03</rscale>
<asrwt>0</asrwt>
<pdfrwt beam="1">  1       21 0.18019774E+00 0.14787200E+03</pdfrwt>
<pdfrwt beam="2">  1       -4 0.17741765E-02 0.14787200E+03</pdfrwt>
<totfact> 0.93196067E+03</totfact>
</mgrwt>
</event>
<event>
 6    4  0.3995738E-003  0.1280692E+03  0.7818608E-02  0.1230349E+00
          4   -1    0    0  502    0 -0.00000000000E+00  0.00000000000E+00  0.10240764022E+04  0.10240771897E+04  0.12700000000E+01 0. -1.
         21   -1    0    0  501  502  0.00000000000E+00 -0.00000000000E+00 -0.13475395061E+02  0.13475395061E+02  0.00000000000E+00 0. -1.
         25    2    1    2    0    0 -0.23063292585E+02 -0.15650265058E+02  0.99926220475E+03  0.10074356858E+04  0.12499944399E+03 0.  0.
    9000005    1    3    3    0    0 -0.31218314069E+02 -0.48414412426E+02  0.91269396217E+03  0.91451069269E+03  0.10000000000E+01 0.  0.
    9000005    1    3    3    0    0  0.81550214844E+01  0.32764147368E+02  0.86568242577E+02  0.92924993145E+02  0.10000000000E+01 0.  0.
          4    1    1    2  501    0  0.23063292585E+02  0.15650265058E+02  0.11338802409E+02  0.30116898932E+02  0.12700000000E+01 0.  1.
<mgrwt>
<rscale>  1 0.12806915E+03</rscale>
<asrwt>0</asrwt>
<pdfrwt beam="2">  1       21 0.20731385E-02 0.12806915E+03</pdfrwt>
<pdfrwt beam="1">  1        4 0.15755482E+00 0.12806915E+03</pdfrwt>
<totfact> 0.13195828E+04</totfact>
</mgrwt>
</event>
<event>
 6    4  0.3995738E-003  0.1347781E+03  0.7818608E-02  0.1220533E+00
         -4   -1    0    0    0  501 -0.00000000000E+00  0.00000000000E+00  0.45422610288E+03  0.45422787832E+03  0.12700000000E+01 0. -1.
         21   -1    0    0  501  502  0.00000000000E+00 -0.00000000000E+00 -0.24026381557E+02  0.24026381557E+02  0.00000000000E+00 0. -1.
         25    2    1    2    0    0  0.37891254363E+02  0.33192856506E+02  0.39342975761E+03  0.41587512866E+03  0.12501054187E+03 0.  0.
    9000005    1    3    3    0    0  0.23741909801E+02 -0.46884969539E+02  0.13169817785E+03  0.14180017172E+03  0.10000000000E+01 0.  0.
    9000005    1    3    3    0    0  0.14149344562E+02  0.80077826044E+02  0.26173157976E+03  0.27407495694E+03  0.10000000000E+01 0.  0.
         -4    1    1    2    0  502 -0.37891254363E+02 -0.33192856506E+02  0.36769963710E+02  0.62379131217E+02  0.12700000000E+01 0.  1.
<mgrwt>
<rscale>  1 0.13477815E+03</rscale>
<asrwt>0</asrwt>
<pdfrwt beam="2">  1       21 0.36963667E-02 0.13477815E+03</pdfrwt>
<pdfrwt beam="1">  1       -4 0.69883651E-01 0.13477815E+03</pdfrwt>
<totfact> 0.34620066E+04</totfact>
</mgrwt>
</event>
<event>
 6    4  0.3995738E-003  0.1516324E+03  0.7818608E-02  0.1198481E+00
         -4   -1    0    0    0  501 -0.00000000000E+00  0.00000000000E+00  0.62353675066E+03  0.62353804400E+03  0.12700000000E+01 0.  1.
         21   -1    0    0  501  502  0.00000000000E+00 -0.00000000000E+00 -0.92845878621E+02  0.92845878621E+02  0.00000000000E+00 0. -1.
         25    2    1    2    0    0 -0.52762587747E+02 -0.67701516583E+02  0.59186106031E+03  0.61097618644E+03  0.12499999869E+03 0.  0.
    9000005    1    3    3    0    0 -0.90222010336E+02 -0.53478464956E+02  0.49783168395E+03  0.50876059488E+03  0.10000000000E+01 0.  0.
    9000005    1    3    3    0    0  0.37459422589E+02 -0.14223051627E+02  0.94029376367E+02  0.10221559156E+03  0.10000000000E+01 0.  0.
         -4    1    1    2    0  502  0.52762587747E+02  0.67701516583E+02 -0.61170188276E+02  0.10540773618E+03  0.12700000000E+01 0. -1.
<mgrwt>
<rscale>  1 0.15163240E+03</rscale>
<asrwt>0</asrwt>
<pdfrwt beam="2">  1       21 0.14283982E-01 0.15163240E+03</pdfrwt>
<pdfrwt beam="1">  1       -4 0.95929496E-01 0.15163240E+03</pdfrwt>
<totfact> 0.16841947E+03</totfact>
</mgrwt>
</event>
<event>
 6    4  0.3995738E-003  0.1279726E+03  0.7818608E-02  0.1230495E+00
         -4   -1    0    0    0  501 -0.00000000000E+00  0.00000000000E+00  0.79348081813E+02  0.79358244609E+02  0.12700000000E+01 0.  1.
         21   -1    0    0  501  502  0.00000000000E+00 -0.00000000000E+00 -0.20888229236E+03  0.20888229236E+03  0.00000000000E+00 0.  1.
         25    2    1    2    0    0  0.13685275779E+02 -0.23774183472E+02  0.25757905897E+02  0.13053906931E+03  0.12499792129E+03 0.  0.
    9000005    1    3    3    0    0 -0.85303497503E+01  0.40369361229E+02  0.43912902922E+02  0.60264377836E+02  0.10000000000E+01 0.  0.
    9000005    1    3    3    0    0  0.22215625530E+02 -0.64143544701E+02 -0.18154997026E+02  0.70274691472E+02  0.10000000000E+01 0.  0.
         -4    1    1    2    0  502 -0.13685275779E+02  0.23774183472E+02 -0.15529211645E+03  0.15770146767E+03  0.12700000000E+01 0. -1.
<mgrwt>
<rscale>  1 0.12797257E+03</rscale>
<asrwt>0</asrwt>
<pdfrwt beam="2">  1       21 0.32135737E-01 0.12797257E+03</pdfrwt>
<pdfrwt beam="1">  1       -4 0.12208476E-01 0.12797257E+03</pdfrwt>
<totfact> 0.20426041E+04</totfact>
</mgrwt>
</event>
<event>
 6    4  0.3995738E-003  0.1269801E+03  0.7818608E-02  0.1232007E+00
         21   -1    0    0  501  502  0.00000000000E+00  0.00000000000E+00  0.56978703844E+03  0.56978703844E+03  0.00000000000E+00 0.  1.
         -4   -1    0    0    0  501 -0.00000000000E+00 -0.00000000000E+00 -0.98136553812E+01  0.98954904851E+01  0.12700000000E+01 0.  1.
         25    2    1    2    0    0  0.11239729781E+02  0.19293210534E+02  0.49213585432E+03  0.50825352428E+03  0.12500154537E+03 0.  0.
    9000005    1    3    3    0    0 -0.13622712215E+02  0.68642086531E+02  0.23274241438E+03  0.24303774559E+03  0.10000000000E+01 0.  0.
    9000005    1    3    3    0    0  0.24862441996E+02 -0.49348875996E+02  0.25939343994E+03  0.26521577869E+03  0.10000000000E+01 0.  0.
         -4    1    1    2    0  502 -0.11239729781E+02 -0.19293210534E+02  0.67837528736E+02  0.71429004636E+02  0.12700000000E+01 0. -1.
<mgrwt>
<rscale>  1 0.12698010E+03</rscale>
<asrwt>0</asrwt>
<pdfrwt beam="1">  1       21 0.87659518E-01 0.12698010E+03</pdfrwt>
<pdfrwt beam="2">  1       -4 0.15161975E-02 0.12698010E+03</pdfrwt>
<totfact> 0.70576791E+04</totfact>
</mgrwt>
</event>
<event>
 6    4  0.3995738E-003  0.1279501E+03  0.7818608E-02  0.1230530E+00
         21   -1    0    0  501  502  0.00000000000E+00  0.00000000000E+00  0.13154601475E+02  0.13154601475E+02  0.00000000000E+00 0. -1.
          4   -1    0    0  502    0 -0.00000000000E+00 -0.00000000000E+00 -0.46724381515E+03  0.46724554111E+03  0.12700000000E+01 0. -1.
         25    2    1    2    0    0  0.17981274953E+02  0.20354582657E+02 -0.39813601882E+03  0.41819075264E+03  0.12503431860E+03 0.  0.
    9000005    1    3    3    0    0 -0.31287832813E+02  0.73595729974E+01 -0.22822778281E+02  0.39433120664E+02  0.10000000000E+01 0.  0.
    9000005    1    3    3    0    0  0.49269107766E+02  0.12995009659E+02 -0.37531324054E+03  0.37875763197E+03  0.10000000000E+01 0.  0.
          4    1    1    2  501    0 -0.17981274953E+02 -0.20354582657E+02 -0.55953194854E+02  0.62209389954E+02  0.12700000000E+01 0.  1.
<mgrwt>
<rscale>  1 0.12795005E+03</rscale>
<asrwt>0</asrwt>
<pdfrwt beam="1">  1       21 0.20237846E-02 0.12795005E+03</pdfrwt>
<pdfrwt beam="2">  1        4 0.71888522E-01 0.12795005E+03</pdfrwt>
<totfact> 0.86578775E+04</totfact>
</mgrwt>
</event>
<event>
 6    4  0.3995738E-003  0.1299563E+03  0.7818608E-02  0.1227521E+00
          4   -1    0    0  502    0 -0.00000000000E+00  0.00000000000E+00  0.99776284376E+02  0.99784366631E+02  0.12700000000E+01 0.  1.
         21   -1    0    0  501  502  0.00000000000E+00 -0.00000000000E+00 -0.74875633677E+02  0.74875633677E+02  0.00000000000E+00 0.  1.
         25    2    1    2    0    0 -0.15253265016E+02  0.32117410626E+02  0.40054537324E+02  0.13598903783E+03  0.12499784915E+03 0.  0.
    9000005    1    3    3    0    0  0.31857872186E+01  0.36655555323E+02  0.82028811674E+02  0.89908313969E+02  0.10000000000E+01 0.  0.
    9000005    1    3    3    0    0 -0.18439052234E+02 -0.45381446971E+01 -0.41974274350E+02  0.46080723863E+02  0.10000000000E+01 0.  0.
          4    1    1    2  501    0  0.15253265016E+02 -0.32117410626E+02 -0.15153886625E+02  0.38670962475E+02  0.12700000000E+01 0. -1.
<mgrwt>
<rscale>  1 0.12995635E+03</rscale>
<asrwt>0</asrwt>
<pdfrwt beam="2">  1       21 0.11519328E-01 0.12995635E+03</pdfrwt>
<pdfrwt beam="1">  1        4 0.15351648E-01 0.12995635E+03</pdfrwt>
<totfact> 0.91539493E+04</totfact>
</mgrwt>
</event>
<event>
 6    4  0.3995738E-003  0.1392669E+03  0.7818608E-02  0.1214319E+00
         -4   -1    0    0    0  501 -0.00000000000E+00  0.00000000000E+00  0.48251525643E+02  0.48268236210E+02  0.12700000000E+01 0. -1.
         21   -1    0    0  501  502  0.00000000000E+00 -0.00000000000E+00 -0.32724966116E+03  0.32724966116E+03  0.00000000000E+00 0.  1.
         25    2    1    2    0    0  0.45783928378E+02  0.40916974350E+02 -0.66512813698E+02  0.15433473396E+03  0.12499955533E+03 0.  0.
    9000005    1    3    3    0    0  0.79145255598E+01  0.23850881283E+02 -0.98651177416E+02  0.10180647847E+03  0.10000000000E+01 0.  0.
    9000005    1    3    3    0    0  0.37869402818E+02  0.17066093066E+02  0.32138363718E+02  0.52528255490E+02  0.10000000000E+01 0.  0.
         -4    1    1    2    0  502 -0.45783928378E+02 -0.40916974350E+02 -0.21248532182E+03  0.22118316341E+03  0.12700000000E+01 0.  1.
<mgrwt>
<rscale>  1 0.13926685E+03</rscale>
<asrwt>0</asrwt>
<pdfrwt beam="2">  1       21 0.50346102E-01 0.13926685E+03</pdfrwt>
<pdfrwt beam="1">  1       -4 0.74247866E-02 0.13926685E+03</pdfrwt>
<totfact> 0.19290402E+04</totfact>
</mgrwt>
</event>
<event>
 6    4  0.3995738E-003  0.1266981E+03  0.7818608E-02  0.1232439E+00
         21   -1    0    0  501  502  0.00000000000E+00  0.00000000000E+00  0.13740958988E+02  0.13740958988E+02  0.00000000000E+00 0.  1.
          4   -1    0    0  502    0 -0.00000000000E+00 -0.00000000000E+00 -0.59328993347E+03  0.59329129275E+03  0.12700000000E+01 0.  1.
         25    2    1    2    0    0  0.20694705968E+02 -0.26396904864E+00 -0.57051564796E+03  0.58441468284E+03  0.12499630562E+03 0.  0.
    9000005    1    3    3    0    0  0.65402921033E+02  0.13684728791E+01 -0.18338160678E+03  0.19470292371E+03  0.10000000000E+01 0.  0.
    9000005    1    3    3    0    0 -0.44708215065E+02 -0.16324419277E+01 -0.38713404118E+03  0.38971175913E+03  0.10000000000E+01 0.  0.
          4    1    1    2  501    0 -0.20694705968E+02  0.26396904864E+00 -0.90333265163E+01  0.22617568895E+02  0.12700000000E+01 0. -1.
<mgrwt>
<rscale>  1 0.12669813E+03</rscale>
<asrwt>0</asrwt>
<pdfrwt beam="1">  1       21 0.21139939E-02 0.12669813E+03</pdfrwt>
<pdfrwt beam="2">  1        4 0.91279985E-01 0.12669813E+03</pdfrwt>
<totfact> 0.47501545E+04</totfact>
</mgrwt>
</event>
<event>
 6    4  0.3995738E-003  0.1292581E+03  0.7818608E-02  0.1228561E+00
         21   -1    0    0  501  502  0.00000000000E+00  0.00000000000E+00  0.11063143786E+03  0.11063143786E+03  0.00000000000E+00 0.  1.
          4   -1    0    0  502    0 -0.00000000000E+00 -0.00000000000E+00 -0.14304383858E+03  0.14304947625E+03  0.12700000000E+01 0. -1.
         25    2    1    2    0    0  0.18776945555E+02 -0.27006566016E+02 -0.10979031153E+03  0.16959237581E+03  0.12500293250E+03 0.  0.
    9000005    1    3    3    0    0  0.47912628980E+02  0.19844827113E+02 -0.10123847112E+03  0.11375264926E+03  0.10000000000E+01 0.  0.
    9000005    1    3    3    0    0 -0.29135683425E+02 -0.46851393129E+02 -0.85518404108E+01  0.55839726550E+02  0.10000000000E+01 0.  0.
          4    1    1    2  501    0 -0.18776945555E+02  0.27006566016E+02  0.77377910807E+02  0.84088538298E+02  0.12700000000E+01 0.  1.
<mgrwt>
<rscale>  1 0.12925812E+03</rscale>
<asrwt>0</asrwt>
<pdfrwt beam="1">  1       21 0.17020221E-01 0.12925812E+03</pdfrwt>
<pdfrwt beam="2">  1        4 0.22007739E-01 0.12925812E+03</pdfrwt>
<totfact> 0.23913468E+04</totfact>
</mgrwt>
</event>
<event>
 6    4  0.3995738E-003  0.1332258E+03  0.7818608E-02  0.1222746E+00
         21   -1    0    0  501  502  0.00000000000E+00  0.00000000000E+00  0.41013678349E+02  0.41013678349E+02  0.00000000000E+00 0. -1.
         -4   -1    0    0    0  501 -0.00000000000E+00 -0.00000000000E+00 -0.19600851019E+03  0.19601262451E+03  0.12700000000E+01 0. -1.
         25    2    1    2    0    0  0.21031945966E+02  0.41002125023E+02 -0.11561501886E+03  0.17639710545E+03  0.12500235685E+03 0.  0.
    9000005    1    3    3    0    0 -0.18372888643E+01  0.65365825712E+02 -0.10680003451E+02  0.66265596466E+02  0.10000000000E+01 0.  0.
    9000005    1    3    3    0    0  0.22869234830E+02 -0.24363700688E+02 -0.10493501541E+03  0.11013150899E+03  0.10000000000E+01 0.  0.
         -4    1    1    2    0  502 -0.21031945966E+02 -0.41002125023E+02 -0.39379812982E+02  0.60629197406E+02  0.12700000000E+01 0.  1.
<mgrwt>
<rscale>  1 0.13322577E+03</rscale>
<asrwt>0</asrwt>
<pdfrwt beam="1">  1       21 0.63097967E-02 0.13322577E+03</pdfrwt>
<pdfrwt beam="2">  1       -4 0.30156984E-01 0.13322577E+03</pdfrwt>
<totfact> 0.76545524E+04</totfact>
</mgrwt>
</event>
<event>
 6    4  0.3995738E-003  0.1318162E+03  0.7818608E-02  0.1224785E+00
         21   -1    0    0  501  502  0.00000000000E+00  0.00000000000E+00  0.40707991433E+02  0.40707991433E+02  0.00000000000E+00 0. -1.
         -4   -1    0    0    0  501 -0.00000000000E+00 -0.00000000000E+00 -0.19634166720E+03  0.19634577454E+03  0.12700000000E+01 0. -1.
         25    2    1    2    0    0  0.19048530601E+02 -0.37267410658E+02 -0.91500319676E+02  0.16046129455E+03  0.12499524844E+03 0.  0.
    9000005    1    3    3    0    0  0.15663205760E+02 -0.69254499447E+02 -0.85947969387E+01  0.71528960868E+02  0.10000000000E+01 0.  0.
    9000005    1    3    3    0    0  0.33853248413E+01  0.31987088789E+02 -0.82905522738E+02  0.88932333681E+02  0.10000000000E+01 0.  0.
         -4    1    1    2    0  502 -0.19048530601E+02  0.37267410658E+02 -0.64133356094E+02  0.76592471426E+02  0.12700000000E+01 0.  1.
<mgrwt>
<rscale>  1 0.13181623E+03</rscale>
<asrwt>0</asrwt>
<pdfrwt beam="1">  1       21 0.62627681E-02 0.13181623E+03</pdfrwt>
<pdfrwt beam="2">  1       -4 0.30208249E-01 0.13181623E+03</pdfrwt>
<totfact> 0.77165766E+04</totfact>
</mgrwt>
</event>
<event>
 6    4  0.3995738E-003  0.1277932E+03  0.7818608E-02  0.1230768E+00
         21   -1    0    0  501  502  0.00000000000E+00  0.00000000000E+00  0.41670632832E+02  0.41670632832E+02  0.00000000000E+00 0. -1.
         -4   -1    0    0    0  501 -0.00000000000E+00 -0.00000000000E+00 -0.14314761440E+03  0.14315324799E+03  0.12700000000E+01 0. -1.
         25    2    1    2    0    0 -0.79542703731E+01 -0.25373115652E+02 -0.85903724586E+02  0.15398227502E+03  0.12499610277E+03 0.  0.
    9000005    1    3    3    0    0  0.47843437059E+02  0.20133596504E+01 -0.77703896905E+02  0.91279481161E+02  0.10000000000E+01 0.  0.
    9000005    1    3    3    0    0 -0.55797707432E+02 -0.27386475302E+02 -0.81998276808E+01  0.62702793862E+02  0.10000000000E+01 0.  0.
         -4    1    1    2    0  502  0.79542703731E+01  0.25373115652E+02 -0.15573256986E+02  0.30841605798E+02  0.12700000000E+01 0.  1.
<mgrwt>
<rscale>  1 0.12779316E+03</rscale>
<asrwt>0</asrwt>
<pdfrwt beam="1">  1       21 0.64108667E-02 0.12779316E+03</pdfrwt>
<pdfrwt beam="2">  1       -4 0.22024632E-01 0.12779316E+03</pdfrwt>
<totfact> 0.13253673E+05</totfact>
</mgrwt>
</event>
<event>
 6    4  0.3995738E-003  0.1268255E+03  0.7818608E-02  0.1232244E+00
         21   -1    0    0  501  502  0.00000000000E+00  0.00000000000E+00  0.18297454119E+02  0.18297454119E+02  0.00000000000E+00 0. -1.
          4   -1    0    0  502    0 -0.00000000000E+00 -0.00000000000E+00 -0.90255385884E+03  0.90255475236E+03  0.12700000000E+01 0.  1.
         25    2    1    2    0    0 -0.20766185059E+02  0.53097177013E+01 -0.88970576839E+03  0.89869964436E+03  0.12500107568E+03 0.  0.
    9000005    1    3    3    0    0 -0.38208474485E+02 -0.49465670805E+02 -0.31625854105E+03  0.32237742616E+03  0.10000000000E+01 0.  0.
    9000005    1    3    3    0    0  0.17442289426E+02  0.54775388506E+02 -0.57344722734E+03  0.57632221820E+03  0.10000000000E+01 0.  0.
          4    1    1    2  501    0  0.20766185059E+02 -0.53097177013E+01  0.54493636702E+01  0.22152562118E+02  0.12700000000E+01 0. -1.
<mgrwt>
<rscale>  1 0.12682546E+03</rscale>
<asrwt>0</asrwt>
<pdfrwt beam="1">  1       21 0.28149944E-02 0.12682546E+03</pdfrwt>
<pdfrwt beam="2">  1        4 0.13885783E+00 0.12682546E+03</pdfrwt>
<totfact> 0.11044404E+04</totfact>
</mgrwt>
</event>
<event>
 6    4  0.3995738E-003  0.1304712E+03  0.7818608E-02  0.1226758E+00
         21   -1    0    0  501  502  0.00000000000E+00  0.00000000000E+00  0.55348303780E+02  0.55348303780E+02  0.00000000000E+00 0. -1.
          4   -1    0    0  502    0 -0.00000000000E+00 -0.00000000000E+00 -0.21872418826E+03  0.21872787530E+03  0.12700000000E+01 0. -1.
         25    2    1    2    0    0  0.36499574108E+02 -0.80826251686E+01 -0.18833147075E+03  0.22911017052E+03  0.12500071848E+03 0.  0.
    9000005    1    3    3    0    0  0.51280451289E+02  0.32269172659E+02 -0.17327318097E+03  0.18356355693E+03  0.10000000000E+01 0.  0.
    9000005    1    3    3    0    0 -0.14780877181E+02 -0.40351797828E+02 -0.15058289780E+02  0.45546613587E+02  0.10000000000E+01 0.  0.
          4    1    1    2  501    0 -0.36499574108E+02  0.80826251686E+01  0.24955586269E+02  0.44966008559E+02  0.12700000000E+01 0.  1.
<mgrwt>
<rscale>  1 0.13047117E+03</rscale>
<asrwt>0</asrwt>
<pdfrwt beam="1">  1       21 0.85151238E-02 0.13047117E+03</pdfrwt>
<pdfrwt beam="2">  1        4 0.33651279E-01 0.13047117E+03</pdfrwt>
<totfact> 0.37039579E+04</totfact>
</mgrwt>
</event>
<event>
 6    4  0.3995738E-003  0.1401224E+03  0.7818608E-02  0.1213164E+00
         21   -1    0    0  501  502  0.00000000000E+00  0.00000000000E+00  0.29294939914E+02  0.29294939914E+02  0.00000000000E+00 0. -1.
          4   -1    0    0  502    0 -0.00000000000E+00 -0.00000000000E+00 -0.84459662217E+03  0.84459757700E+03  0.12700000000E+01 0.  1.
         25    2    1    2    0    0  0.63222424059E+02 -0.36453707490E+01 -0.79518239949E+03  0.80743379235E+03  0.12499566771E+03 0.  0.
    9000005    1    3    3    0    0  0.95873351944E+02 -0.93408619219E+01 -0.42556003125E+03  0.43632704651E+03  0.10000000000E+01 0.  0.
    9000005    1    3    3    0    0 -0.32650927884E+02  0.56954911729E+01 -0.36962236824E+03  0.37110674585E+03  0.10000000000E+01 0.  0.
          4    1    1    2  501    0 -0.63222424059E+02  0.36453707490E+01 -0.20119282769E+02  0.66458724566E+02  0.12700000000E+01 0. -1.
<mgrwt>
<rscale>  1 0.14012238E+03</rscale>
<asrwt>0</asrwt>
<pdfrwt beam="1">  1       21 0.45069136E-02 0.14012238E+03</pdfrwt>
<pdfrwt beam="2">  1        4 0.12994014E+00 0.14012238E+03</pdfrwt>
<totfact> 0.60232736E+03</totfact>
</mgrwt>
</event>
<event>
 6    4  0.3995738E-003  0.1291328E+03  0.7818608E-02  0.1228748E+00
          4   -1    0    0  502    0 -0.00000000000E+00  0.00000000000E+00  0.93933173626E+02  0.93941758592E+02  0.12700000000E+01 0.  1.
         21   -1    0    0  501  502  0.00000000000E+00 -0.00000000000E+00 -0.62819259544E+03  0.62819259544E+03  0.00000000000E+00 0. -1.
         25    2    1    2    0    0  0.26011775577E+02 -0.19333335447E+02  0.48894197481E+02  0.13807943630E+03  0.12499959141E+03 0.  0.
    9000005    1    3    3    0    0  0.82523006921E+01 -0.68399284680E+02  0.36358209263E+01  0.68998418860E+02  0.10000000000E+01 0.  0.
    9000005    1    3    3    0    0  0.17759474885E+02  0.49065949233E+02  0.45258376555E+02  0.69081017441E+02  0.10000000000E+01 0.  0.
          4    1    1    2  501    0 -0.26011775577E+02  0.19333335447E+02 -0.58315361929E+03  0.58405491773E+03  0.12700000000E+01 0. -1.
<mgrwt>
<rscale>  1 0.12913283E+03</rscale>
<asrwt>0</asrwt>
<pdfrwt beam="2">  1       21 0.96645011E-01 0.12913283E+03</pdfrwt>
<pdfrwt beam="1">  1        4 0.14452017E-01 0.12913283E+03</pdfrwt>
<totfact> 0.14979315E+03</totfact>
</mgrwt>
</event>
<event>
 6    4  0.3995738E-003  0.1398431E+03  0.7818608E-02  0.1213540E+00
         21   -1    0    0  501  502  0.00000000000E+00  0.00000000000E+00  0.52366222151E+03  0.52366222151E+03  0.00000000000E+00 0. -1.
         -4   -1    0    0    0  501 -0.00000000000E+00 -0.00000000000E+00 -0.22171050084E+02  0.22207394305E+02  0.12700000000E+01 0.  1.
         25    2    1    2    0    0  0.57846608179E+02  0.24179461418E+02  0.24773519121E+03  0.28447989370E+03  0.12500083409E+03 0.  0.
    9000005    1    3    3    0    0  0.94313603401E+02  0.26301507521E+02  0.21125877382E+03  0.23284779277E+03  0.10000000000E+01 0.  0.
    9000005    1    3    3    0    0 -0.36466995223E+02 -0.21220461029E+01  0.36476417392E+02  0.51632100926E+02  0.10000000000E+01 0.  0.
         -4    1    1    2    0  502 -0.57846608179E+02 -0.24179461418E+02  0.25375598021E+03  0.26138972211E+03  0.12700000000E+01 0. -1.
<mgrwt>
<rscale>  1 0.13984307E+03</rscale>
<asrwt>0</asrwt>
<pdfrwt beam="1">  1       21 0.80563410E-01 0.13984307E+03</pdfrwt>
<pdfrwt beam="2">  1       -4 0.34138453E-02 0.13984307E+03</pdfrwt>
<totfact> 0.24525770E+04</totfact>
</mgrwt>
</event>
<event>
 6    4  0.3995738E-003  0.1362972E+03  0.7818608E-02  0.1218400E+00
         21   -1    0    0  501  502  0.00000000000E+00  0.00000000000E+00  0.42818839301E+03  0.42818839301E+03  0.00000000000E+00 0. -1.
         -4   -1    0    0    0  501 -0.00000000000E+00 -0.00000000000E+00 -0.23928270215E+02  0.23961949326E+02  0.12700000000E+01 0.  1.
         25    2    1    2    0    0  0.41752006784E+01 -0.54170183311E+02  0.20937450156E+03  0.24982916370E+03  0.12500035228E+03 0.  0.
    9000005    1    3    3    0    0 -0.10314343989E+02 -0.52609091852E+02  0.22329991880E+03  0.22964746019E+03  0.10000000000E+01 0.  0.
    9000005    1    3    3    0    0  0.14489544667E+02 -0.15610914597E+01 -0.13925417238E+02  0.20181703507E+02  0.10000000000E+01 0.  0.
         -4    1    1    2    0  502 -0.41752006784E+01  0.54170183311E+02  0.19488562124E+03  0.20232117864E+03  0.12700000000E+01 0. -1.
<mgrwt>
<rscale>  1 0.13629721E+03</rscale>
<asrwt>0</asrwt>
<pdfrwt beam="1">  1       21 0.65875132E-01 0.13629721E+03</pdfrwt>
<pdfrwt beam="2">  1       -4 0.36840082E-02 0.13629721E+03</pdfrwt>
<totfact> 0.33789398E+04</totfact>
</mgrwt>
</event>
<event>
 6    4  0.3995738E-003  0.1274164E+03  0.7818608E-02  0.1231340E+00
         21   -1    0    0  501  502  0.00000000000E+00  0.00000000000E+00  0.13782457192E+04  0.13782457192E+04  0.00000000000E+00 0. -1.
          4   -1    0    0  502    0 -0.00000000000E+00 -0.00000000000E+00 -0.65946095167E+01  0.67157854848E+01  0.12700000000E+01 0.  1.
         25    2    1    2    0    0 -0.57988792998E+01 -0.24001468256E+02  0.62269308882E+03  0.63559548771E+03  0.12500097462E+03 0.  0.
    9000005    1    3    3    0    0  0.26056642174E+02 -0.25866951715E+02  0.50143052507E+02  0.62156041597E+02  0.10000000000E+01 0.  0.
    9000005    1    3    3    0    0 -0.31855521473E+02  0.18654834587E+01  0.57255003631E+03  0.57343944611E+03  0.10000000000E+01 0.  0.
          4    1    1    2  501    0  0.57988792998E+01  0.24001468256E+02  0.74895802085E+03  0.74936601696E+03  0.12700000000E+01 0. -1.
<mgrwt>
<rscale>  1 0.12741641E+03</rscale>
<asrwt>0</asrwt>
<pdfrwt beam="1">  1       21 0.21203758E+00 0.12741641E+03</pdfrwt>
<pdfrwt beam="2">  1        4 0.10239226E-02 0.12741641E+03</pdfrwt>
<totfact> 0.13406119E+04</totfact>
</mgrwt>
</event>
<event>
 6    4  0.3995738E-003  0.1301309E+03  0.7818608E-02  0.1227262E+00
         21   -1    0    0  501  502  0.00000000000E+00  0.00000000000E+00  0.11876793977E+02  0.11876793977E+02  0.00000000000E+00 0.  1.
          4   -1    0    0  502    0 -0.00000000000E+00 -0.00000000000E+00 -0.58445552783E+03  0.58445690766E+03  0.12700000000E+01 0.  1.
         25    2    1    2    0    0  0.29741300382E+02  0.20603849482E+02 -0.46218124573E+03  0.48015159525E+03  0.12499994780E+03 0.  0.
    9000005    1    3    3    0    0  0.61087470727E+02 -0.27338809812E+02 -0.17611938244E+03  0.18840946492E+03  0.10000000000E+01 0.  0.
    9000005    1    3    3    0    0 -0.31346170345E+02  0.47942659294E+02 -0.28606186330E+03  0.29174213033E+03  0.10000000000E+01 0.  0.
          4    1    1    2  501    0 -0.29741300382E+02 -0.20603849482E+02 -0.11039748812E+03  0.11618210639E+03  0.12700000000E+01 0. -1.
<mgrwt>
<rscale>  1 0.13013090E+03</rscale>
<asrwt>0</asrwt>
<pdfrwt beam="1">  1       21 0.18271992E-02 0.13013090E+03</pdfrwt>
<pdfrwt beam="2">  1        4 0.89921558E-01 0.13013090E+03</pdfrwt>
<totfact> 0.62388651E+04</totfact>
</mgrwt>
</event>
<event>
 6    4  0.3995738E-003  0.1405858E+03  0.7818608E-02  0.1212543E+00
         -4   -1    0    0    0  501 -0.00000000000E+00  0.00000000000E+00  0.21753292732E+03  0.21753663454E+03  0.12700000000E+01 0. -1.
         21   -1    0    0  501  502  0.00000000000E+00 -0.00000000000E+00 -0.52298680972E+02  0.52298680972E+02  0.00000000000E+00 0.  1.
         25    2    1    2    0    0  0.63314932189E+02  0.11414311178E+02  0.14597950684E+03  0.20266817301E+03  0.12500121919E+03 0.  0.
    9000005    1    3    3    0    0 -0.73632347442E+01  0.33220880233E+02  0.11925127045E+03  0.12401495722E+03  0.10000000000E+01 0.  0.
    9000005    1    3    3    0    0  0.70678166933E+02 -0.21806569055E+02  0.26728236388E+02  0.78653215798E+02  0.10000000000E+01 0.  0.
         -4    1    1    2    0  502 -0.63314932189E+02 -0.11414311178E+02  0.19254739506E+02  0.67167142497E+02  0.12700000000E+01 0.  1.
<mgrwt>
<rscale>  1 0.14058582E+03</rscale>
<asrwt>0</asrwt>
<pdfrwt beam="2">  1       21 0.80459510E-02 0.14058582E+03</pdfrwt>
<pdfrwt beam="1">  1       -4 0.33468075E-01 0.14058582E+03</pdfrwt>
<totfact> 0.41647315E+04</totfact>
</mgrwt>
</event>
<event>
 6    4  0.3995738E-003  0.1308944E+03  0.7818608E-02  0.1226135E+00
         -4   -1    0    0    0  501 -0.00000000000E+00  0.00000000000E+00  0.24924234744E+03  0.24924558303E+03  0.12700000000E+01 0. -1.
         21   -1    0    0  501  502  0.00000000000E+00 -0.00000000000E+00 -0.69530231527E+02  0.69530231527E+02  0.00000000000E+00 0.  1.
         25    2    1    2    0    0 -0.35397215943E+02  0.15961317241E+02  0.22426123866E+03  0.25966605409E+03  0.12500251972E+03 0.  0.
    9000005    1    3    3    0    0 -0.72264944755E+02 -0.12771774758E+02  0.82627593226E+02  0.11051542713E+03  0.10000000000E+01 0.  0.
    9000005    1    3    3    0    0  0.36867728812E+02  0.28733091999E+02  0.14163364544E+03  0.14915062696E+03  0.10000000000E+01 0.  0.
         -4    1    1    2    0  502  0.35397215943E+02 -0.15961317241E+02 -0.44549122747E+02  0.59109760464E+02  0.12700000000E+01 0.  1.
<mgrwt>
<rscale>  1 0.13089445E+03</rscale>
<asrwt>0</asrwt>
<pdfrwt beam="2">  1       21 0.10696959E-01 0.13089445E+03</pdfrwt>
<pdfrwt beam="1">  1       -4 0.38346117E-01 0.13089445E+03</pdfrwt>
<totfact> 0.19328844E+04</totfact>
</mgrwt>
</event>
<event>
 6    4  0.3995738E-003  0.1472686E+03  0.7818608E-02  0.1203870E+00
         21   -1    0    0  501  502  0.00000000000E+00  0.00000000000E+00  0.70875365804E+03  0.70875365804E+03  0.00000000000E+00 0.  1.
          4   -1    0    0  502    0 -0.00000000000E+00 -0.00000000000E+00 -0.22479280140E+02  0.22515126818E+02  0.12700000000E+01 0. -1.
         25    2    1    2    0    0 -0.49968969508E+02  0.59724816454E+02  0.26792420433E+03  0.30573096957E+03  0.12499637944E+03 0.  0.
    9000005    1    3    3    0    0 -0.92425430411E+01 -0.17644582262E+02 -0.37840642988E+01  0.20299631221E+02  0.10000000000E+01 0.  0.
    9000005    1    3    3    0    0 -0.40726426467E+02  0.77369398716E+02  0.27170826863E+03  0.28543133835E+03  0.10000000000E+01 0.  0.
          4    1    1    2  501    0  0.49968969508E+02 -0.59724816454E+02  0.41835017357E+03  0.42553781529E+03  0.12700000000E+01 0.  1.
<mgrwt>
<rscale>  1 0.14726862E+03</rscale>
<asrwt>0</asrwt>
<pdfrwt beam="1">  1       21 0.10903901E+00 0.14726862E+03</pdfrwt>
<pdfrwt beam="2">  1        4 0.34611963E-02 0.14726862E+03</pdfrwt>
<totfact> 0.11945134E+04</totfact>
</mgrwt>
</event>
<event>
 6    4  0.3995738E-003  0.1273455E+03  0.7818608E-02  0.1231448E+00
         -4   -1    0    0    0  501 -0.00000000000E+00  0.00000000000E+00  0.32385661534E+02  0.32410553420E+02  0.12700000000E+01 0.  1.
         21   -1    0    0  501  502  0.00000000000E+00 -0.00000000000E+00 -0.26223204211E+03  0.26223204211E+03  0.00000000000E+00 0.  1.
         25    2    1    2    0    0 -0.16647203075E+02  0.17736974414E+02 -0.98332162151E+02  0.16089158739E+03  0.12500063659E+03 0.  0.
    9000005    1    3    3    0    0  0.96353869251E+01  0.53904571447E+02 -0.21371393912E+01  0.54809769830E+02  0.10000000000E+01 0.  0.
    9000005    1    3    3    0    0 -0.26282590001E+02 -0.36167597033E+02 -0.96195022759E+02  0.10608181756E+03  0.10000000000E+01 0.  0.
         -4    1    1    2    0  502  0.16647203075E+02 -0.17736974414E+02 -0.13151421842E+03  0.13375100814E+03  0.12700000000E+01 0. -1.
<mgrwt>
<rscale>  1 0.12734555E+03</rscale>
<asrwt>0</asrwt>
<pdfrwt beam="2">  1       21 0.40343392E-01 0.12734555E+03</pdfrwt>
<pdfrwt beam="1">  1       -4 0.49845607E-02 0.12734555E+03</pdfrwt>
<totfact> 0.57359616E+04</totfact>
</mgrwt>
</event>
<event>
 6    4  0.3995738E-003  0.1267596E+03  0.7818608E-02  0.1232345E+00
         21   -1    0    0  501  502  0.00000000000E+00  0.00000000000E+00  0.12321843465E+03  0.12321843465E+03  0.00000000000E+00 0. -1.
          4   -1    0    0  502    0 -0.00000000000E+00 -0.00000000000E+00 -0.51096237628E+02  0.51112018154E+02  0.12700000000E+01 0. -1.
         25    2    1    2    0    0  0.20918606540E+02 -0.30346055543E+01  0.34850096600E+02  0.13146299078E+03  0.12498476620E+03 0.  0.
    9000005    1    3    3    0    0  0.15465843045E+02 -0.25728856529E+02  0.77343638088E+02  0.82971107694E+02  0.10000000000E+01 0.  0.
    9000005    1    3    3    0    0  0.54527634956E+01  0.22694250974E+02 -0.42493541488E+02  0.48491883086E+02  0.10000000000E+01 0.  0.
          4    1    1    2  501    0 -0.20918606540E+02  0.30346055543E+01  0.37272100419E+02  0.42867462020E+02  0.12700000000E+01 0.  1.
<mgrwt>
<rscale>  1 0.12675957E+03</rscale>
<asrwt>0</asrwt>
<pdfrwt beam="1">  1       21 0.18956682E-01 0.12675957E+03</pdfrwt>
<pdfrwt beam="2">  1        4 0.78626770E-02 0.12675957E+03</pdfrwt>
<totfact> 0.11579335E+05</totfact>
</mgrwt>
</event>
<event>
 6    4  0.3995738E-003  0.1273792E+03  0.7818608E-02  0.1231397E+00
         -4   -1    0    0    0  501 -0.00000000000E+00  0.00000000000E+00  0.12362770409E+03  0.12363422714E+03  0.12700000000E+01 0. -1.
         21   -1    0    0  501  502  0.00000000000E+00 -0.00000000000E+00 -0.55329941874E+02  0.55329941874E+02  0.00000000000E+00 0.  1.
         25    2    1    2    0    0 -0.22900763465E+02  0.87036388922E+01  0.81385933933E+02  0.15115928750E+03  0.12500104662E+03 0.  0.
    9000005    1    3    3    0    0 -0.70392015723E+02  0.20517450519E+02  0.27383831750E+02  0.78274362947E+02  0.10000000000E+01 0.  0.
    9000005    1    3    3    0    0  0.47491252258E+02 -0.11813811627E+02  0.54002102183E+02  0.72884924549E+02  0.10000000000E+01 0.  0.
         -4    1    1    2    0  502  0.22900763465E+02 -0.87036388922E+01 -0.13088171713E+02  0.27804881514E+02  0.12700000000E+01 0.  1.
<mgrwt>
<rscale>  1 0.12737920E+03</rscale>
<asrwt>0</asrwt>
<pdfrwt beam="2">  1       21 0.85122988E-02 0.12737920E+03</pdfrwt>
<pdfrwt beam="1">  1       -4 0.19021270E-01 0.12737920E+03</pdfrwt>
<totfact> 0.10606509E+05</totfact>
</mgrwt>
</event>
<event>
 6    4  0.3995738E-003  0.1269284E+03  0.7818608E-02  0.1232086E+00
         -4   -1    0    0    0  501 -0.00000000000E+00  0.00000000000E+00  0.27798812466E+03  0.27799102567E+03  0.12700000000E+01 0.  1.
         21   -1    0    0  501  502  0.00000000000E+00 -0.00000000000E+00 -0.69335728739E+02  0.69335728739E+02  0.00000000000E+00 0. -1.
         25    2    1    2    0    0  0.17582759147E+02 -0.13297265935E+02  0.26115671421E+03  0.29036811117E+03  0.12499935961E+03 0.  0.
    9000005    1    3    3    0    0 -0.43204669401E+02 -0.36320204613E+02  0.80097399429E+02  0.97991806375E+02  0.10000000000E+01 0.  0.
    9000005    1    3    3    0    0  0.60787428548E+02  0.23022938678E+02  0.18105931479E+03  0.19237630479E+03  0.10000000000E+01 0.  0.
         -4    1    1    2    0  502 -0.17582759147E+02  0.13297265935E+02 -0.52504318292E+02  0.56958643241E+02  0.12700000000E+01 0. -1.
<mgrwt>
<rscale>  1 0.12692837E+03</rscale>
<asrwt>0</asrwt>
<pdfrwt beam="2">  1       21 0.10667035E-01 0.12692837E+03</pdfrwt>
<pdfrwt beam="1">  1       -4 0.42768521E-01 0.12692837E+03</pdfrwt>
<totfact> 0.15616571E+04</totfact>
</mgrwt>
</event>
<event>
 6    4  0.3995738E-003  0.1271761E+03  0.7818608E-02  0.1231707E+00
          4   -1    0    0  502    0 -0.00000000000E+00  0.00000000000E+00  0.27625293072E+03  0.27625584995E+03  0.12700000000E+01 0. -1.
         21   -1    0    0  501  502  0.00000000000E+00 -0.00000000000E+00 -0.45291430520E+02  0.45291430520E+02  0.00000000000E+00 0.  1.
         25    2    1    2    0    0 -0.89091130882E+01 -0.21664889472E+02  0.25684997755E+03  0.28661068232E+03  0.12500013008E+03 0.  0.
    9000005    1    3    3    0    0  0.15301513097E+02 -0.66456182410E+02  0.19447204665E+03  0.20608478210E+03  0.10000000000E+01 0.  0.
    9000005    1    3    3    0    0 -0.24210626185E+02  0.44791292939E+02  0.62377930894E+02  0.80525900219E+02  0.10000000000E+01 0.  0.
          4    1    1    2  501    0  0.89091130882E+01  0.21664889472E+02 -0.25888477341E+02  0.34936598158E+02  0.12700000000E+01 0.  1.
<mgrwt>
<rscale>  1 0.12717615E+03</rscale>
<asrwt>0</asrwt>
<pdfrwt beam="2">  1       21 0.69679126E-02 0.12717615E+03</pdfrwt>
<pdfrwt beam="1">  1        4 0.42502044E-01 0.12717615E+03</pdfrwt>
<totfact> 0.33066833E+04</totfact>
</mgrwt>
</event>
<event>
 6    4  0.3995738E-003  0.1268323E+03  0.7818608E-02  0.1232233E+00
         21   -1    0    0  501  502  0.00000000000E+00  0.00000000000E+00  0.62966876804E+02  0.62966876804E+02  0.00000000000E+00 0. -1.
         -4   -1    0    0    0  501 -0.00000000000E+00 -0.00000000000E+00 -0.19103141808E+03  0.19103563959E+03  0.12700000000E+01 0. -1.
         25    2    1    2    0    0  0.20094686891E+02  0.65288447125E+01 -0.16698939641E+03  0.20969473488E+03  0.12505998988E+03 0.  0.
    9000005    1    3    3    0    0 -0.35136883901E+02  0.46642431379E+02 -0.71781513085E+02  0.92540275751E+02  0.10000000000E+01 0.  0.
    9000005    1    3    3    0    0  0.55231570792E+02 -0.40113586667E+02 -0.95207883326E+02  0.11715445913E+03  0.10000000000E+01 0.  0.
         -4    1    1    2    0  502 -0.20094686891E+02 -0.65288447125E+01  0.38924855138E+02  0.44307781507E+02  0.12700000000E+01 0.  1.
<mgrwt>
<rscale>  1 0.12683226E+03</rscale>
<asrwt>0</asrwt>
<pdfrwt beam="1">  1       21 0.96872118E-02 0.12683226E+03</pdfrwt>
<pdfrwt beam="2">  1       -4 0.29390759E-01 0.12683226E+03</pdfrwt>
<totfact> 0.38150314E+04</totfact>
</mgrwt>
</event>
<event>
 6    4  0.3995738E-003  0.1300018E+03  0.7818608E-02  0.1227453E+00
         -4   -1    0    0    0  501 -0.00000000000E+00  0.00000000000E+00  0.62793458677E+03  0.62793587106E+03  0.12700000000E+01 0.  1.
         21   -1    0    0  501  502  0.00000000000E+00 -0.00000000000E+00 -0.16098918375E+02  0.16098918375E+02  0.00000000000E+00 0.  1.
         25    2    1    2    0    0  0.32958869633E+02 -0.13718896747E+02  0.58522393971E+03  0.59948939439E+03  0.12500391662E+03 0.  0.
    9000005    1    3    3    0    0 -0.39879998390E+02 -0.16330035819E+02  0.10105935933E+03  0.10986845975E+03  0.10000000000E+01 0.  0.
    9000005    1    3    3    0    0  0.72838868023E+02  0.26111390725E+01  0.48416458038E+03  0.48962093464E+03  0.10000000000E+01 0.  0.
         -4    1    1    2    0  502 -0.32958869633E+02  0.13718896747E+02  0.26611728690E+02  0.44545395040E+02  0.12700000000E+01 0. -1.
<mgrwt>
<rscale>  1 0.13000182E+03</rscale>
<asrwt>0</asrwt>
<pdfrwt beam="2">  1       21 0.24767572E-02 0.13000182E+03</pdfrwt>
<pdfrwt beam="1">  1       -4 0.96609254E-01 0.13000182E+03</pdfrwt>
<totfact> 0.32398072E+04</totfact>
</mgrwt>
</event>
<event>
 6    4  0.3995738E-003  0.1274782E+03  0.7818608E-02  0.1231246E+00
         -4   -1    0    0    0  501 -0.00000000000E+00  0.00000000000E+00  0.47352752382E+03  0.47352922689E+03  0.12700000000E+01 0.  1.
         21   -1    0    0  501  502  0.00000000000E+00 -0.00000000000E+00 -0.14900966731E+02  0.14900966731E+02  0.00000000000E+00 0.  1.
         25    2    1    2    0    0  0.24636039048E+02  0.43133657058E+01  0.43741161660E+03  0.45560907018E+03  0.12500065180E+03 0.  0.
    9000005    1    3    3    0    0 -0.27702686608E+02  0.50534099396E+02  0.19542059902E+03  0.20374333012E+03  0.10000000000E+01 0.  0.
    9000005    1    3    3    0    0  0.52338725656E+02 -0.46220733690E+02  0.24199101758E+03  0.25186574006E+03  0.10000000000E+01 0.  0.
         -4    1    1    2    0  502 -0.24636039048E+02 -0.43133657058E+01  0.21214940485E+02  0.32821123434E+02  0.12700000000E+01 0. -1.
<mgrwt>
<rscale>  1 0.12747824E+03</rscale>
<asrwt>0</asrwt>
<pdfrwt beam="2">  1       21 0.22924568E-02 0.12747824E+03</pdfrwt>
<pdfrwt beam="1">  1       -4 0.72854671E-01 0.12747824E+03</pdfrwt>
<totfact> 0.68710240E+04</totfact>
</mgrwt>
</event>
<event>
 6    4  0.3995738E-003  0.1266031E+03  0.7818608E-02  0.1232585E+00
         -4   -1    0    0    0  501 -0.00000000000E+00  0.00000000000E+00  0.53618030619E+02  0.53633069160E+02  0.12700000000E+01 0. -1.
         21   -1    0    0  501  502  0.00000000000E+00 -0.00000000000E+00 -0.13332374933E+03  0.13332374933E+03  0.00000000000E+00 0. -1.
         25    2    1    2    0    0  0.18737578818E+02  0.71699064385E+01 -0.25502862619E+02  0.12914620591E+03  0.12500336828E+03 0.  0.
    9000005    1    3    3    0    0 -0.36913816579E+02 -0.33054398944E+02 -0.33776968031E+02  0.59975884432E+02  0.10000000000E+01 0.  0.
    9000005    1    3    3    0    0  0.55651395397E+02  0.40224305382E+02  0.82741054120E+01  0.69170321479E+02  0.10000000000E+01 0.  0.
         -4    1    1    2    0  502 -0.18737578818E+02 -0.71699064385E+01 -0.54202856091E+02  0.57810612578E+02  0.12700000000E+01 0.  1.
<mgrwt>
<rscale>  1 0.12660311E+03</rscale>
<asrwt>0</asrwt>
<pdfrwt beam="2">  1       21 0.20511346E-01 0.12660311E+03</pdfrwt>
<pdfrwt beam="1">  1       -4 0.82505500E-02 0.12660311E+03</pdfrwt>
<totfact> 0.92430967E+04</totfact>
</mgrwt>
</event>
<event>
 6    4  0.3995738E-003  0.1278417E+03  0.7818608E-02  0.1230694E+00
          4   -1    0    0  502    0 -0.00000000000E+00  0.00000000000E+00  0.29093323981E+03  0.29093601173E+03  0.12700000000E+01 0.  1.
         21   -1    0    0  501  502  0.00000000000E+00 -0.00000000000E+00 -0.20735835969E+02  0.20735835969E+02  0.00000000000E+00 0. -1.
         25    2    1    2    0    0  0.13977657444E+02  0.22963191694E+02  0.23287538609E+03  0.26565849106E+03  0.12498322026E+03 0.  0.
    9000005    1    3    3    0    0  0.68946284345E+02  0.22040991179E+02  0.12101149375E+03  0.14101126564E+03  0.10000000000E+01 0.  0.
    9000005    1    3    3    0    0 -0.54968626901E+02  0.92220051506E+00  0.11186389234E+03  0.12464722543E+03  0.10000000000E+01 0.  0.
          4    1    1    2  501    0 -0.13977657444E+02 -0.22963191694E+02  0.37322017747E+02  0.46013356638E+02  0.12700000000E+01 0. -1.
<mgrwt>
<rscale>  1 0.12784165E+03</rscale>
<asrwt>0</asrwt>
<pdfrwt beam="2">  1       21 0.31901288E-02 0.12784165E+03</pdfrwt>
<pdfrwt beam="1">  1        4 0.44762162E-01 0.12784165E+03</pdfrwt>
<totfact> 0.11045934E+05</totfact>
</mgrwt>
</event>
<event>
 6    4  0.3995738E-003  0.1311342E+03  0.7818608E-02  0.1225782E+00
         -4   -1    0    0    0  501 -0.00000000000E+00  0.00000000000E+00  0.17503466710E+03  0.17503927441E+03  0.12700000000E+01 0. -1.
         21   -1    0    0  501  502  0.00000000000E+00 -0.00000000000E+00 -0.44566675369E+02  0.44566675369E+02  0.00000000000E+00 0. -1.
         25    2    1    2    0    0 -0.31178530682E+02  0.24264084266E+02  0.73681299268E+02  0.15041644262E+03  0.12504129633E+03 0.  0.
    9000005    1    3    3    0    0 -0.77985817454E+02  0.84607406098E+01  0.28515574068E+02  0.83471610863E+02  0.10000000000E+01 0.  0.
    9000005    1    3    3    0    0  0.46807286772E+02  0.15803343656E+02  0.45165725200E+02  0.66944831753E+02  0.10000000000E+01 0.  0.
         -4    1    1    2    0  502  0.31178530682E+02 -0.24264084266E+02  0.56786692462E+02  0.69189507163E+02  0.12700000000E+01 0.  1.
<mgrwt>
<rscale>  1 0.13113418E+03</rscale>
<asrwt>0</asrwt>
<pdfrwt beam="2">  1       21 0.68564117E-02 0.13113418E+03</pdfrwt>
<pdfrwt beam="1">  1       -4 0.26930156E-01 0.13113418E+03</pdfrwt>
<totfact> 0.81967540E+04</totfact>
</mgrwt>
</event>
<event>
 6    4  0.3995738E-003  0.1298708E+03  0.7818608E-02  0.1227648E+00
         -4   -1    0    0    0  501 -0.00000000000E+00  0.00000000000E+00  0.19641703740E+03  0.19642114316E+03  0.12700000000E+01 0.  1.
         21   -1    0    0  501  502  0.00000000000E+00 -0.00000000000E+00 -0.37768714059E+02  0.37768714059E+02  0.00000000000E+00 0.  1.
         25    2    1    2    0    0 -0.20161030478E+02  0.28884781501E+02  0.14898064851E+03  0.19764023904E+03  0.12500253080E+03 0.  0.
    9000005    1    3    3    0    0 -0.43349363748E+02 -0.13385162162E+02  0.14180154682E+03  0.14888589115E+03  0.10000000000E+01 0.  0.
    9000005    1    3    3    0    0  0.23188333270E+02  0.42269943663E+02  0.71791016902E+01  0.48754347890E+02  0.10000000000E+01 0.  0.
         -4    1    1    2    0  502  0.20161030478E+02 -0.28884781501E+02  0.96676748292E+01  0.36549618178E+02  0.12700000000E+01 0. -1.
<mgrwt>
<rscale>  1 0.12987082E+03</rscale>
<asrwt>0</asrwt>
<pdfrwt beam="2">  1       21 0.58105715E-02 0.12987082E+03</pdfrwt>
<pdfrwt beam="1">  1       -4 0.30219963E-01 0.12987082E+03</pdfrwt>
<totfact> 0.87379913E+04</totfact>
</mgrwt>
</event>
<event>
 6    4  0.3995738E-003  0.1327835E+03  0.7818608E-02  0.1223383E+00
         21   -1    0    0  501  502  0.00000000000E+00  0.00000000000E+00  0.12077516309E+03  0.12077516309E+03  0.00000000000E+00 0.  1.
         -4   -1    0    0    0  501 -0.00000000000E+00 -0.00000000000E+00 -0.66546873322E+02  0.66558990744E+02  0.12700000000E+01 0. -1.
         25    2    1    2    0    0  0.37605760167E+02  0.24338861225E+02  0.29019750401E+02  0.13591765142E+03  0.12499955476E+03 0.  0.
    9000005    1    3    3    0    0  0.95576629551E+00  0.49118700814E+02 -0.33391444702E+02  0.59410006212E+02  0.10000000000E+01 0.  0.
    9000005    1    3    3    0    0  0.36649993872E+02 -0.24779839589E+02  0.62411195102E+02  0.76507645206E+02  0.10000000000E+01 0.  0.
         -4    1    1    2    0  502 -0.37605760167E+02 -0.24338861225E+02  0.25208539366E+02  0.51416502414E+02  0.12700000000E+01 0.  1.
<mgrwt>
<rscale>  1 0.13278352E+03</rscale>
<asrwt>0</asrwt>
<pdfrwt beam="1">  1       21 0.18580794E-01 0.13278352E+03</pdfrwt>
<pdfrwt beam="2">  1       -4 0.10239426E-01 0.13278352E+03</pdfrwt>
<totfact> 0.77791327E+04</totfact>
</mgrwt>
</event>
<event>
 6    4  0.3995738E-003  0.1282826E+03  0.7818608E-02  0.1230026E+00
         21   -1    0    0  501  502  0.00000000000E+00  0.00000000000E+00  0.71632920893E+02  0.71632920893E+02  0.00000000000E+00 0. -1.
         -4   -1    0    0    0  501 -0.00000000000E+00 -0.00000000000E+00 -0.10634575413E+03  0.10635333714E+03  0.12700000000E+01 0. -1.
         25    2    1    2    0    0 -0.96113252797E+01  0.27186537670E+02 -0.58110406201E+02  0.14083057577E+03  0.12499978543E+03 0.  0.
    9000005    1    3    3    0    0 -0.20588659529E+02 -0.42763992083E+02 -0.50977006469E+02  0.69658503492E+02  0.10000000000E+01 0.  0.
    9000005    1    3    3    0    0  0.10977334250E+02  0.69950529753E+02 -0.71333997310E+01  0.71172072274E+02  0.10000000000E+01 0.  0.
         -4    1    1    2    0  502  0.96113252797E+01 -0.27186537670E+02  0.23397572967E+02  0.37155682268E+02  0.12700000000E+01 0.  1.
<mgrwt>
<rscale>  1 0.12828262E+03</rscale>
<asrwt>0</asrwt>
<pdfrwt beam="1">  1       21 0.11020449E-01 0.12828262E+03</pdfrwt>
<pdfrwt beam="2">  1       -4 0.16362335E-01 0.12828262E+03</pdfrwt>
<totfact> 0.88343771E+04</totfact>
</mgrwt>
</event>
<event>
 6    4  0.3995738E-003  0.1345023E+03  0.7818608E-02  0.1220924E+00
         -4   -1    0    0    0  501 -0.00000000000E+00  0.00000000000E+00  0.13114339879E+03  0.13114954802E+03  0.12700000000E+01 0.  1.
         21   -1    0    0  501  502  0.00000000000E+00 -0.00000000000E+00 -0.83399399743E+02  0.83399399743E+02  0.00000000000E+00 0. -1.
         25    2    1    2    0    0 -0.34869547149E+02  0.35349734039E+02  0.78880820141E+02  0.15592639628E+03  0.12500147302E+03 0.  0.
    9000005    1    3    3    0    0 -0.12388226497E+02 -0.19500161724E+02 -0.26402973874E+02  0.35097599525E+02  0.10000000000E+01 0.  0.
    9000005    1    3    3    0    0 -0.22481320651E+02  0.54849895762E+02  0.10528379402E+03  0.12082879676E+03  0.10000000000E+01 0.  0.
         -4    1    1    2    0  502  0.34869547149E+02 -0.35349734039E+02 -0.31136821092E+02  0.58622551485E+02  0.12700000000E+01 0. -1.
<mgrwt>
<rscale>  1 0.13450226E+03</rscale>
<asrwt>0</asrwt>
<pdfrwt beam="2">  1       21 0.12830677E-01 0.13450226E+03</pdfrwt>
<pdfrwt beam="1">  1       -4 0.20177124E-01 0.13450226E+03</pdfrwt>
<totfact> 0.46765093E+04</totfact>
</mgrwt>
</event>
<event>
 6    4  0.3995738E-003  0.1270695E+03  0.7818608E-02  0.1231870E+00
          4   -1    0    0  502    0 -0.00000000000E+00  0.00000000000E+00  0.34684614791E+03  0.34684847300E+03  0.12700000000E+01 0.  1.
         21   -1    0    0  501  502  0.00000000000E+00 -0.00000000000E+00 -0.98091024671E+02  0.98091024671E+02  0.00000000000E+00 0. -1.
         25    2    1    2    0    0 -0.46131924293E+01 -0.22359823908E+02  0.33364531936E+03  0.35702361989E+03  0.12500169103E+03 0.  0.
    9000005    1    3    3    0    0 -0.29048153197E+02 -0.58885756166E+02  0.10247011791E+03  0.12170641950E+03  0.10000000000E+01 0.  0.
    9000005    1    3    3    0    0  0.24434960768E+02  0.36525932258E+02  0.23117520144E+03  0.23531720038E+03  0.10000000000E+01 0.  0.
          4    1    1    2  501    0  0.46131924293E+01  0.22359823908E+02 -0.84890196115E+02  0.87915877781E+02  0.12700000000E+01 0. -1.
<mgrwt>
<rscale>  1 0.12706953E+03</rscale>
<asrwt>0</asrwt>
<pdfrwt beam="2">  1       21 0.15090927E-01 0.12706953E+03</pdfrwt>
<pdfrwt beam="1">  1        4 0.53361757E-01 0.12706953E+03</pdfrwt>
<totfact> 0.53890537E+03</totfact>
</mgrwt>
</event>
<event>
 6    4  0.3995738E-003  0.1283479E+03  0.7818608E-02  0.1229928E+00
         21   -1    0    0  501  502  0.00000000000E+00  0.00000000000E+00  0.93263896248E+02  0.93263896248E+02  0.00000000000E+00 0. -1.
          4   -1    0    0  502    0 -0.00000000000E+00 -0.00000000000E+00 -0.78419938847E+02  0.78430221909E+02  0.12700000000E+01 0. -1.
         25    2    1    2    0    0  0.10629480785E+02  0.27119342635E+02 -0.15893741007E+02  0.12932828747E+03  0.12499900131E+03 0.  0.
    9000005    1    3    3    0    0 -0.34740493752E+02 -0.36118847159E+02 -0.13369065659E+01  0.50142400675E+02  0.10000000000E+01 0.  0.
    9000005    1    3    3    0    0  0.45369974538E+02  0.63238189794E+02 -0.14556834441E+02  0.79185886791E+02  0.10000000000E+01 0.  0.
          4    1    1    2  501    0 -0.10629480785E+02 -0.27119342635E+02  0.30737698408E+02  0.42365830691E+02  0.12700000000E+01 0.  1.
<mgrwt>
<rscale>  1 0.12834794E+03</rscale>
<asrwt>0</asrwt>
<pdfrwt beam="1">  1       21 0.14348292E-01 0.12834794E+03</pdfrwt>
<pdfrwt beam="2">  1        4 0.12066062E-01 0.12834794E+03</pdfrwt>
<totfact> 0.93704847E+04</totfact>
</mgrwt>
</event>
<event>
 6    4  0.3995738E-003  0.1271821E+03  0.7818608E-02  0.1231698E+00
         21   -1    0    0  501  502  0.00000000000E+00  0.00000000000E+00  0.23966085042E+03  0.23966085042E+03  0.00000000000E+00 0. -1.
          4   -1    0    0  502    0 -0.00000000000E+00 -0.00000000000E+00 -0.25998460180E+02  0.26029460842E+02  0.12700000000E+01 0. -1.
         25    2    1    2    0    0 -0.16584568927E+02  0.16602144208E+02  0.14376054461E+03  0.19194371784E+03  0.12499847005E+03 0.  0.
    9000005    1    3    3    0    0  0.99537049558E+01 -0.27104951037E+02 -0.94693094501E+01  0.30404316051E+02  0.10000000000E+01 0.  0.
    9000005    1    3    3    0    0 -0.26538273883E+02  0.43707095245E+02  0.15322985406E+03  0.16153940179E+03  0.10000000000E+01 0.  0.
          4    1    1    2  501    0  0.16584568927E+02 -0.16602144208E+02  0.69901845622E+02  0.73746593414E+02  0.12700000000E+01 0.  1.
<mgrwt>
<rscale>  1 0.12718214E+03</rscale>
<asrwt>0</asrwt>
<pdfrwt beam="1">  1       21 0.36870899E-01 0.12718214E+03</pdfrwt>
<pdfrwt beam="2">  1        4 0.40024068E-02 0.12718214E+03</pdfrwt>
<totfact> 0.97346937E+04</totfact>
</mgrwt>
</event>
<event>
 6    4  0.3995738E-003  0.1269082E+03  0.7818608E-02  0.1232117E+00
         21   -1    0    0  501  502  0.00000000000E+00  0.00000000000E+00  0.12060386135E+03  0.12060386135E+03  0.00000000000E+00 0.  1.
          4   -1    0    0  502    0 -0.00000000000E+00 -0.00000000000E+00 -0.17393045396E+03  0.17393509052E+03  0.12700000000E+01 0. -1.
         25    2    1    2    0    0  0.98726544247E+01 -0.19602595789E+02 -0.14937495407E+03  0.19600656275E+03  0.12499585861E+03 0.  0.
    9000005    1    3    3    0    0 -0.56079161933E+02 -0.18598446492E+02 -0.54051930638E+02  0.80083617680E+02  0.10000000000E+01 0.  0.
    9000005    1    3    3    0    0  0.65951816358E+02 -0.10041492966E+01 -0.95323023436E+02  0.11592294507E+03  0.10000000000E+01 0.  0.
          4    1    1    2  501    0 -0.98726544247E+01  0.19602595789E+02  0.96048361465E+02  0.98532389127E+02  0.12700000000E+01 0.  1.
<mgrwt>
<rscale>  1 0.12690822E+03</rscale>
<asrwt>0</asrwt>
<pdfrwt beam="1">  1       21 0.18554440E-01 0.12690822E+03</pdfrwt>
<pdfrwt beam="2">  1        4 0.26759402E-01 0.12690822E+03</pdfrwt>
<totfact> 0.14233405E+04</totfact>
</mgrwt>
</event>
<event>
 6    4  0.3995738E-003  0.1394794E+03  0.7818608E-02  0.1214031E+00
          4   -1    0    0  502    0 -0.00000000000E+00  0.00000000000E+00  0.11620584993E+04  0.11620591932E+04  0.12700000000E+01 0.  1.
         21   -1    0    0  501  502  0.00000000000E+00 -0.00000000000E+00 -0.41482948595E+02  0.41482948595E+02  0.00000000000E+00 0. -1.
         25    2    1    2    0    0  0.55522366782E+02  0.27350573161E+02  0.11320254014E+04  0.11405858153E+04  0.12499482239E+03 0.  0.
    9000005    1    3    3    0    0  0.43971309590E+01  0.47963962055E+02  0.16241753105E+03  0.16941171981E+03  0.10000000000E+01 0.  0.
    9000005    1    3    3    0    0  0.51125235823E+02 -0.20613388894E+02  0.96960787036E+03  0.97117409552E+03  0.10000000000E+01 0.  0.
          4    1    1    2  501    0 -0.55522366782E+02 -0.27350573161E+02 -0.11449850746E+02  0.62956326509E+02  0.12700000000E+01 0. -1.
<mgrwt>
<rscale>  1 0.13947936E+03</rscale>
<asrwt>0</asrwt>
<pdfrwt beam="2">  1       21 0.63819930E-02 0.13947936E+03</pdfrwt>
<pdfrwt beam="1">  1        4 0.17877976E+00 0.13947936E+03</pdfrwt>
<totfact> 0.14735594E+03</totfact>
</mgrwt>
</event>
<event>
 6    4  0.3995738E-003  0.1276056E+03  0.7818608E-02  0.1231052E+00
         21   -1    0    0  501  502  0.00000000000E+00  0.00000000000E+00  0.31026794714E+03  0.31026794714E+03  0.00000000000E+00 0.  1.
         -4   -1    0    0    0  501 -0.00000000000E+00 -0.00000000000E+00 -0.19408071941E+02  0.19449579854E+02  0.12700000000E+01 0.  1.
         25    2    1    2    0    0 -0.23547082079E+02 -0.10142706089E+02  0.21970409615E+03  0.25407298091E+03  0.12500340075E+03 0.  0.
    9000005    1    3    3    0    0 -0.21033423515E+02  0.34741327542E+02  0.20151307699E+03  0.20556722730E+03  0.10000000000E+01 0.  0.
    9000005    1    3    3    0    0 -0.25136585636E+01 -0.44884033631E+02  0.18191019168E+02  0.48505753605E+02  0.10000000000E+01 0.  0.
         -4    1    1    2    0  502  0.23547082079E+02  0.10142706089E+02  0.71155779043E+02  0.75644546086E+02  0.12700000000E+01 0. -1.
<mgrwt>
<rscale>  1 0.12760560E+03</rscale>
<asrwt>0</asrwt>
<pdfrwt beam="1">  1       21 0.47733527E-01 0.12760560E+03</pdfrwt>
<pdfrwt beam="2">  1       -4 0.29892503E-02 0.12760560E+03</pdfrwt>
<totfact> 0.91737075E+04</totfact>
</mgrwt>
</event>
<event>
 6    4  0.3995738E-003  0.1377980E+03  0.7818608E-02  0.1216323E+00
         -4   -1    0    0    0  501 -0.00000000000E+00  0.00000000000E+00  0.67312786664E+03  0.67312906470E+03  0.12700000000E+01 0.  1.
         21   -1    0    0  501  502  0.00000000000E+00 -0.00000000000E+00 -0.83045720024E+02  0.83045720024E+02  0.00000000000E+00 0. -1.
         25    2    1    2    0    0 -0.16628664804E+02 -0.55559771767E+02  0.65487088595E+03  0.66921160645E+03  0.12499958483E+03 0.  0.
    9000005    1    3    3    0    0 -0.13360876555E+02 -0.11550793045E+02  0.59270072118E+03  0.59296465218E+03  0.10000000000E+01 0.  0.
    9000005    1    3    3    0    0 -0.32677882480E+01 -0.44008978722E+02  0.62170164767E+02  0.76246954270E+02  0.10000000000E+01 0.  0.
         -4    1    1    2    0  502  0.16628664804E+02  0.55559771767E+02 -0.64788739333E+02  0.86963178279E+02  0.12700000000E+01 0. -1.
<mgrwt>
<rscale>  1 0.13779803E+03</rscale>
<asrwt>0</asrwt>
<pdfrwt beam="2">  1       21 0.12776265E-01 0.13779803E+03</pdfrwt>
<pdfrwt beam="1">  1       -4 0.10355897E+00 0.13779803E+03</pdfrwt>
<totfact> 0.17159589E+03</totfact>
</mgrwt>
</event>
<event>
 6    4  0.3995738E-003  0.1280224E+03  0.7818608E-02  0.1230420E+00
         -4   -1    0    0    0  501 -0.00000000000E+00  0.00000000000E+00  0.28712201152E+02  0.28740274789E+02  0.12700000000E+01 0.  1.
         21   -1    0    0  501  502  0.00000000000E+00 -0.00000000000E+00 -0.27196467186E+03  0.27196467186E+03  0.00000000000E+00 0.  1.
         25    2    1    2    0    0 -0.27516368165E+02  0.60780105710E+00 -0.12370780771E+03  0.17802626354E+03  0.12502883220E+03 0.  0.
    9000005    1    3    3    0    0 -0.62832608252E+02  0.17362726611E+02 -0.21588136360E+02  0.68676404730E+02  0.10000000000E+01 0.  0.
    9000005    1    3    3    0    0  0.35316240087E+02 -0.16754925554E+02 -0.10211967135E+03  0.10934985881E+03  0.10000000000E+01 0.  0.
         -4    1    1    2    0  502  0.27516368165E+02 -0.60780105710E+00 -0.11954466300E+03  0.12267868312E+03  0.12700000000E+01 0. -1.
<mgrwt>
<rscale>  1 0.12802238E+03</rscale>
<asrwt>0</asrwt>
<pdfrwt beam="2">  1       21 0.41840720E-01 0.12802238E+03</pdfrwt>
<pdfrwt beam="1">  1       -4 0.44196492E-02 0.12802238E+03</pdfrwt>
<totfact> 0.64671351E+04</totfact>
</mgrwt>
</event>
<event>
 6    4  0.3995738E-003  0.1274434E+03  0.7818608E-02  0.1231299E+00
          4   -1    0    0  502    0 -0.00000000000E+00  0.00000000000E+00  0.36318057046E+03  0.36318279097E+03  0.12700000000E+01 0. -1.
         21   -1    0    0  501  502  0.00000000000E+00 -0.00000000000E+00 -0.22234735164E+02  0.22234735164E+02  0.00000000000E+00 0. -1.
         25    2    1    2    0    0 -0.39627769309E+01 -0.24521202161E+02  0.33692538915E+03  0.36022288695E+03  0.12499926989E+03 0.  0.
    9000005    1    3    3    0    0 -0.16098376917E+02 -0.65863243027E+02  0.10984841007E+03  0.12909220626E+03  0.10000000000E+01 0.  0.
    9000005    1    3    3    0    0  0.12135599986E+02  0.41342040865E+02  0.22707697909E+03  0.23113068070E+03  0.10000000000E+01 0.  0.
          4    1    1    2  501    0  0.39627769309E+01  0.24521202161E+02  0.40204461423E+01  0.25194639184E+02  0.12700000000E+01 0.  1.
<mgrwt>
<rscale>  1 0.12744336E+03</rscale>
<asrwt>0</asrwt>
<pdfrwt beam="2">  1       21 0.34207288E-02 0.12744336E+03</pdfrwt>
<pdfrwt beam="1">  1        4 0.55876890E-01 0.12744336E+03</pdfrwt>
<totfact> 0.62676611E+04</totfact>
</mgrwt>
</event>
<event>
 6    4  0.3995738E-003  0.1267365E+03  0.7818608E-02  0.1232380E+00
          4   -1    0    0  502    0 -0.00000000000E+00  0.00000000000E+00  0.40576774045E+02  0.40596643850E+02  0.12700000000E+01 0. -1.
         21   -1    0    0  501  502  0.00000000000E+00 -0.00000000000E+00 -0.31821102323E+03  0.31821102323E+03  0.00000000000E+00 0.  1.
         25    2    1    2    0    0 -0.18881930212E+02 -0.89315171990E+01 -0.60091818312E+02  0.14026105553E+03  0.12500335109E+03 0.  0.
    9000005    1    3    3    0    0 -0.30292807250E+02 -0.49080283193E+02 -0.76147073922E+02  0.95529603978E+02  0.10000000000E+01 0.  0.
    9000005    1    3    3    0    0  0.11410877038E+02  0.40148765994E+02  0.16055255610E+02  0.44731451556E+02  0.10000000000E+01 0.  0.
          4    1    1    2  501    0  0.18881930212E+02  0.89315171990E+01 -0.21754243088E+03  0.21854661155E+03  0.12700000000E+01 0.  1.
<mgrwt>
<rscale>  1 0.12673649E+03</rscale>
<asrwt>0</asrwt>
<pdfrwt beam="2">  1       21 0.48955541E-01 0.12673649E+03</pdfrwt>
<pdfrwt beam="1">  1        4 0.62443041E-02 0.12673649E+03</pdfrwt>
<totfact> 0.26907088E+04</totfact>
</mgrwt>
</event>
<event>
 6    4  0.3995738E-003  0.1294641E+03  0.7818608E-02  0.1228253E+00
         -4   -1    0    0    0  501 -0.00000000000E+00  0.00000000000E+00  0.56432114073E+03  0.56432256979E+03  0.12700000000E+01 0.  1.
         21   -1    0    0  501  502  0.00000000000E+00 -0.00000000000E+00 -0.12049301411E+02  0.12049301411E+02  0.00000000000E+00 0.  1.
         25    2    1    2    0    0  0.33047553237E+02 -0.66125390459E+01  0.46868918987E+03  0.48624119587E+03  0.12500030963E+03 0.  0.
    9000005    1    3    3    0    0  0.31288026859E+01  0.13359628435E+02  0.44000922905E+03  0.44022425050E+03  0.10000000000E+01 0.  0.
    9000005    1    3    3    0    0  0.29918750551E+02 -0.19972167481E+02  0.28679960828E+02  0.46016945373E+02  0.10000000000E+01 0.  0.
         -4    1    1    2    0  502 -0.33047553237E+02  0.66125390459E+01  0.83582649441E+02  0.90130675328E+02  0.12700000000E+01 0. -1.
<mgrwt>
<rscale>  1 0.12946406E+03</rscale>
<asrwt>0</asrwt>
<pdfrwt beam="2">  1       21 0.18537391E-02 0.12946406E+03</pdfrwt>
<pdfrwt beam="1">  1       -4 0.86823875E-01 0.12946406E+03</pdfrwt>
<totfact> 0.65911514E+04</totfact>
</mgrwt>
</event>
<event>
 6    4  0.3995738E-003  0.1273263E+03  0.7818608E-02  0.1231478E+00
         -4   -1    0    0    0  501 -0.00000000000E+00  0.00000000000E+00  0.77298835691E+02  0.77309267874E+02  0.12700000000E+01 0.  1.
         21   -1    0    0  501  502  0.00000000000E+00 -0.00000000000E+00 -0.93711219366E+02  0.93711219366E+02  0.00000000000E+00 0.  1.
         25    2    1    2    0    0  0.23629098355E+02  0.53701795951E+01  0.18334639185E+02  0.12863957626E+03  0.12499923387E+03 0.  0.
    9000005    1    3    3    0    0  0.15348642962E+02  0.55725724235E+02 -0.23737685898E+02  0.62493318955E+02  0.10000000000E+01 0.  0.
    9000005    1    3    3    0    0  0.82804553931E+01 -0.50355544640E+02  0.42072325082E+02  0.66146257304E+02  0.10000000000E+01 0.  0.
         -4    1    1    2    0  502 -0.23629098355E+02 -0.53701795951E+01 -0.34747022859E+02  0.42380910981E+02  0.12700000000E+01 0. -1.
<mgrwt>
<rscale>  1 0.12732628E+03</rscale>
<asrwt>0</asrwt>
<pdfrwt beam="2">  1       21 0.14417111E-01 0.12732628E+03</pdfrwt>
<pdfrwt beam="1">  1       -4 0.11893593E-01 0.12732628E+03</pdfrwt>
<totfact> 0.95109933E+04</totfact>
</mgrwt>
</event>
<event>
 6    4  0.3995738E-003  0.1328391E+03  0.7818608E-02  0.1223303E+00
         21   -1    0    0  501  502  0.00000000000E+00  0.00000000000E+00  0.24966285971E+03  0.24966285971E+03  0.00000000000E+00 0.  1.
          4   -1    0    0  502    0 -0.00000000000E+00 -0.00000000000E+00 -0.56958706449E+02  0.56972863193E+02  0.12700000000E+01 0. -1.
         25    2    1    2    0    0  0.24961032651E+02 -0.37383882607E+02  0.27809055030E+02  0.13571874262E+03  0.12500250288E+03 0.  0.
    9000005    1    3    3    0    0  0.71038830104E+02 -0.79321754521E+01  0.36615792166E+02  0.80319057676E+02  0.10000000000E+01 0.  0.
    9000005    1    3    3    0    0 -0.46077797453E+02 -0.29451707155E+02 -0.88067371367E+01  0.55399684940E+02  0.10000000000E+01 0.  0.
          4    1    1    2  501    0 -0.24961032651E+02  0.37383882607E+02  0.16489509823E+03  0.17091698029E+03  0.12700000000E+01 0.  1.
<mgrwt>
<rscale>  1 0.13283913E+03</rscale>
<asrwt>0</asrwt>
<pdfrwt beam="1">  1       21 0.38409670E-01 0.13283913E+03</pdfrwt>
<pdfrwt beam="2">  1        4 0.87642155E-02 0.13283913E+03</pdfrwt>
<totfact> 0.25266247E+04</totfact>
</mgrwt>
</event>
<event>
 6    4  0.3995738E-003  0.1285555E+03  0.7818608E-02  0.1229615E+00
         21   -1    0    0  501  502  0.00000000000E+00  0.00000000000E+00  0.19107639449E+04  0.19107639449E+04  0.00000000000E+00 0.  1.
          4   -1    0    0  502    0 -0.00000000000E+00 -0.00000000000E+00 -0.61333229234E+01  0.62634295783E+01  0.12700000000E+01 0. -1.
         25    2    1    2    0    0  0.18243195548E+02  0.23847247033E+02  0.68100090909E+03  0.69302868472E+03  0.12500005714E+03 0.  0.
    9000005    1    3    3    0    0  0.45696534060E+02  0.41678564678E+02  0.62575171185E+03  0.62880162282E+03  0.10000000000E+01 0.  0.
    9000005    1    3    3    0    0 -0.27453338512E+02 -0.17831317645E+02  0.55249197242E+02  0.64227061899E+02  0.10000000000E+01 0.  0.
          4    1    1    2  501    0 -0.18243195548E+02 -0.23847247033E+02  0.12236297129E+04  0.12239986898E+04  0.12700000000E+01 0.  1.
<mgrwt>
<rscale>  1 0.12855551E+03</rscale>
<asrwt>0</asrwt>
<pdfrwt beam="1">  1       21 0.29396322E+00 0.12855551E+03</pdfrwt>
<pdfrwt beam="2">  1        4 0.95363033E-03 0.12855551E+03</pdfrwt>
<totfact> 0.50286744E+03</totfact>
</mgrwt>
</event>
<event>
 6    4  0.3995738E-003  0.1289011E+03  0.7818608E-02  0.1229095E+00
          4   -1    0    0  502    0 -0.00000000000E+00  0.00000000000E+00  0.36886956618E+03  0.36887175245E+03  0.12700000000E+01 0.  1.
         21   -1    0    0  501  502  0.00000000000E+00 -0.00000000000E+00 -0.20227220294E+02  0.20227220294E+02  0.00000000000E+00 0.  1.
         25    2    1    2    0    0 -0.28519412495E+02  0.13290485102E+02  0.20586804616E+03  0.24289327023E+03  0.12500197763E+03 0.  0.
    9000005    1    3    3    0    0 -0.49945381122E+02 -0.18654237322E+02  0.19606396882E+03  0.20318612535E+03  0.10000000000E+01 0.  0.
    9000005    1    3    3    0    0  0.21425968627E+02  0.31944722424E+02  0.98040773407E+01  0.39707144884E+02  0.10000000000E+01 0.  0.
          4    1    1    2  501    0  0.28519412495E+02 -0.13290485102E+02  0.14277429973E+03  0.14620570251E+03  0.12700000000E+01 0. -1.
<mgrwt>
<rscale>  1 0.12890108E+03</rscale>
<asrwt>0</asrwt>
<pdfrwt beam="2">  1       21 0.31118803E-02 0.12890108E+03</pdfrwt>
<pdfrwt beam="1">  1        4 0.56752394E-01 0.12890108E+03</pdfrwt>
<totfact> 0.71028137E+04</totfact>
</mgrwt>
</event>
<event>
 6    4  0.3995738E-003  0.1270365E+03  0.7818608E-02  0.1231920E+00
         -4   -1    0    0    0  501 -0.00000000000E+00  0.00000000000E+00  0.56231504778E+02  0.56245844554E+02  0.12700000000E+01 0.  1.
         21   -1    0    0  501  502  0.00000000000E+00 -0.00000000000E+00 -0.16830425476E+03  0.16830425476E+03  0.00000000000E+00 0. -1.
         25    2    1    2    0    0 -0.20434262660E+02 -0.97488324947E+01 -0.18630072382E+02  0.12839529848E+03  0.12500269697E+03 0.  0.
    9000005    1    3    3    0    0  0.17138425785E+02  0.36306538491E+02  0.31176926865E+02  0.50841824754E+02  0.10000000000E+01 0.  0.
    9000005    1    3    3    0    0 -0.37572688445E+02 -0.46055370985E+02 -0.49806999247E+02  0.77553473730E+02  0.10000000000E+01 0.  0.
         -4    1    1    2    0  502  0.20434262660E+02  0.97488324947E+01 -0.93442677604E+02  0.96154800833E+02  0.12700000000E+01 0. -1.
<mgrwt>
<rscale>  1 0.12703650E+03</rscale>
<asrwt>0</asrwt>
<pdfrwt beam="2">  1       21 0.25892962E-01 0.12703650E+03</pdfrwt>
<pdfrwt beam="1">  1       -4 0.86524724E-02 0.12703650E+03</pdfrwt>
<totfact> 0.55222124E+04</totfact>
</mgrwt>
</event>
<event>
 6    4  0.3995738E-003  0.1268454E+03  0.7818608E-02  0.1232213E+00
         21   -1    0    0  501  502  0.00000000000E+00  0.00000000000E+00  0.65152745657E+03  0.65152745657E+03  0.00000000000E+00 0.  1.
         -4   -1    0    0    0  501 -0.00000000000E+00 -0.00000000000E+00 -0.90180217361E+01  0.91070091705E+01  0.12700000000E+01 0.  1.
         25    2    1    2    0    0  0.12037989065E+02 -0.17880296397E+02  0.47138820715E+03  0.48815633482E+03  0.12500058884E+03 0.  0.
    9000005    1    3    3    0    0  0.16022352597E+02 -0.27462780952E+02  0.47578068798E+03  0.47684293344E+03  0.10000000000E+01 0.  0.
    9000005    1    3    3    0    0 -0.39843635321E+01  0.95824845554E+01 -0.43924808291E+01  0.11313401383E+02  0.10000000000E+01 0.  0.
         -4    1    1    2    0  502 -0.12037989065E+02  0.17880296397E+02  0.17112122769E+03  0.17247813092E+03  0.12700000000E+01 0. -1.
<mgrwt>
<rscale>  1 0.12684544E+03</rscale>
<asrwt>0</asrwt>
<pdfrwt beam="1">  1       21 0.10023496E+00 0.12684544E+03</pdfrwt>
<pdfrwt beam="2">  1       -4 0.13943289E-02 0.12684544E+03</pdfrwt>
<totfact> 0.58852854E+04</totfact>
</mgrwt>
</event>
<event>
 6    4  0.3995738E-003  0.1322563E+03  0.7818608E-02  0.1224146E+00
         21   -1    0    0  501  502  0.00000000000E+00  0.00000000000E+00  0.24921374434E+03  0.24921374434E+03  0.00000000000E+00 0.  1.
          4   -1    0    0  502    0 -0.00000000000E+00 -0.00000000000E+00 -0.20422885507E+03  0.20423280379E+03  0.12700000000E+01 0. -1.
         25    2    1    2    0    0  0.29744467317E+02  0.31327186587E+02 -0.18055015782E+03  0.22380814471E+03  0.12500240075E+03 0.  0.
    9000005    1    3    3    0    0  0.51179827224E+01 -0.21798525428E+02 -0.16027293672E+03  0.16183257923E+03  0.10000000000E+01 0.  0.
    9000005    1    3    3    0    0  0.24626484595E+02  0.53125712015E+02 -0.20277221107E+02  0.61975565479E+02  0.10000000000E+01 0.  0.
          4    1    1    2  501    0 -0.29744467317E+02 -0.31327186587E+02  0.22553504709E+03  0.22963840341E+03  0.12700000000E+01 0.  1.
<mgrwt>
<rscale>  1 0.13225629E+03</rscale>
<asrwt>0</asrwt>
<pdfrwt beam="1">  1       21 0.38340576E-01 0.13225629E+03</pdfrwt>
<pdfrwt beam="2">  1        4 0.31420377E-01 0.13225629E+03</pdfrwt>
<totfact> 0.26464314E+03</totfact>
</mgrwt>
</event>
<event>
 6    4  0.3995738E-003  0.1289783E+03  0.7818608E-02  0.1228980E+00
          4   -1    0    0  502    0 -0.00000000000E+00  0.00000000000E+00  0.16516117429E+03  0.16516605703E+03  0.12700000000E+01 0. -1.
         21   -1    0    0  501  502  0.00000000000E+00 -0.00000000000E+00 -0.11982006889E+03  0.11982006889E+03  0.00000000000E+00 0.  1.
         25    2    1    2    0    0  0.23957403099E+02 -0.20899190495E+02  0.13688122088E+03  0.18807410928E+03  0.12499867450E+03 0.  0.
    9000005    1    3    3    0    0  0.28521663305E+02 -0.25577935118E-02 -0.16660633240E+02  0.33046361134E+02  0.10000000000E+01 0.  0.
    9000005    1    3    3    0    0 -0.45642602062E+01 -0.20896632702E+02  0.15354185412E+03  0.15502774815E+03  0.10000000000E+01 0.  0.
          4    1    1    2  501    0 -0.23957403099E+02  0.20899190495E+02 -0.91540115477E+02  0.96912016634E+02  0.12700000000E+01 0.  1.
<mgrwt>
<rscale>  1 0.12897830E+03</rscale>
<asrwt>0</asrwt>
<pdfrwt beam="2">  1       21 0.18433857E-01 0.12897830E+03</pdfrwt>
<pdfrwt beam="1">  1        4 0.25410305E-01 0.12897830E+03</pdfrwt>
<totfact> 0.15879136E+04</totfact>
</mgrwt>
</event>
<event>
 6    4  0.3995738E-003  0.1297841E+03  0.7818608E-02  0.1227776E+00
         21   -1    0    0  501  502  0.00000000000E+00  0.00000000000E+00  0.29634338015E+02  0.29634338015E+02  0.00000000000E+00 0. -1.
         -4   -1    0    0    0  501 -0.00000000000E+00 -0.00000000000E+00 -0.23025787990E+03  0.23026138225E+03  0.12700000000E+01 0. -1.
         25    2    1    2    0    0 -0.26230375312E+02 -0.23038323918E+02 -0.14948519314E+03  0.19796397905E+03  0.12500046830E+03 0.  0.
    9000005    1    3    3    0    0 -0.33762965695E+02 -0.61835934673E+02 -0.38814284820E+02  0.80443578833E+02  0.10000000000E+01 0.  0.
    9000005    1    3    3    0    0  0.75325903829E+01  0.38797610755E+02 -0.11067090832E+03  0.11752040021E+03  0.10000000000E+01 0.  0.
         -4    1    1    2    0  502  0.26230375312E+02  0.23038323918E+02 -0.51138348745E+02  0.61931741218E+02  0.12700000000E+01 0.  1.
<mgrwt>
<rscale>  1 0.12978411E+03</rscale>
<asrwt>0</asrwt>
<pdfrwt beam="1">  1       21 0.45591291E-02 0.12978411E+03</pdfrwt>
<pdfrwt beam="2">  1       -4 0.35426651E-01 0.12978411E+03</pdfrwt>
<totfact> 0.96982495E+04</totfact>
</mgrwt>
</event>
<event>
 6    4  0.3995738E-003  0.1316219E+03  0.7818608E-02  0.1225069E+00
         21   -1    0    0  501  502  0.00000000000E+00  0.00000000000E+00  0.80314934071E+02  0.80314934071E+02  0.00000000000E+00 0. -1.
          4   -1    0    0  502    0 -0.00000000000E+00 -0.00000000000E+00 -0.12300836866E+03  0.12301492454E+03  0.12700000000E+01 0. -1.
         25    2    1    2    0    0  0.86885048995E+01  0.40339946820E+02 -0.74473192784E+02  0.15123026785E+03  0.12498614340E+03 0.  0.
    9000005    1    3    3    0    0 -0.36144104917E+02 -0.24480786457E+02 -0.13075848132E+01  0.43685409508E+02  0.10000000000E+01 0.  0.
    9000005    1    3    3    0    0  0.44832609817E+02  0.64820733278E+02 -0.73165607971E+02  0.10754485834E+03  0.10000000000E+01 0.  0.
          4    1    1    2  501    0 -0.86885048995E+01 -0.40339946820E+02  0.31779758197E+02  0.52099590765E+02  0.12700000000E+01 0.  1.
<mgrwt>
<rscale>  1 0.13162195E+03</rscale>
<asrwt>0</asrwt>
<pdfrwt beam="1">  1       21 0.12356144E-01 0.13162195E+03</pdfrwt>
<pdfrwt beam="2">  1        4 0.18925641E-01 0.13162195E+03</pdfrwt>
<totfact> 0.55948006E+04</totfact>
</mgrwt>
</event>
<event>
 6    4  0.3995738E-003  0.1307770E+03  0.7818608E-02  0.1226307E+00
         -4   -1    0    0    0  501 -0.00000000000E+00  0.00000000000E+00  0.15961150825E+03  0.15961656075E+03  0.12700000000E+01 0.  1.
         21   -1    0    0  501  502  0.00000000000E+00 -0.00000000000E+00 -0.60127896496E+02  0.60127896496E+02  0.00000000000E+00 0. -1.
         25    2    1    2    0    0 -0.33916666795E+02  0.18122431842E+02  0.11881024291E+03  0.17668758330E+03  0.12499546171E+03 0.  0.
    9000005    1    3    3    0    0 -0.22934473236E+02  0.10479622373E+02 -0.23059911848E+02  0.34184383601E+02  0.10000000000E+01 0.  0.
    9000005    1    3    3    0    0 -0.10982193559E+02  0.76428094685E+01  0.14187015476E+03  0.14250319970E+03  0.10000000000E+01 0.  0.
         -4    1    1    2    0  502  0.33916666795E+02 -0.18122431842E+02 -0.19326631159E+02  0.43056873950E+02  0.12700000000E+01 0. -1.
<mgrwt>
<rscale>  1 0.13077702E+03</rscale>
<asrwt>0</asrwt>
<pdfrwt beam="2">  1       21 0.92504457E-02 0.13077702E+03</pdfrwt>
<pdfrwt beam="1">  1       -4 0.24557037E-01 0.13077702E+03</pdfrwt>
<totfact> 0.57988156E+04</totfact>
</mgrwt>
</event>
<event>
 6    4  0.3995738E-003  0.1360051E+03  0.7818608E-02  0.1218808E+00
         -4   -1    0    0    0  501 -0.00000000000E+00  0.00000000000E+00  0.59614578829E+03  0.59614714106E+03  0.12700000000E+01 0.  1.
         21   -1    0    0  501  502  0.00000000000E+00 -0.00000000000E+00 -0.36126477320E+02  0.36126477320E+02  0.00000000000E+00 0. -1.
         25    2    1    2    0    0 -0.22361010409E+02 -0.48709001050E+02  0.56239792067E+03  0.57860936348E+03  0.12499917105E+03 0.  0.
    9000005    1    3    3    0    0 -0.25240644701E+02  0.96245637300E+01  0.45944549746E+03  0.46024003249E+03  0.10000000000E+01 0.  0.
    9000005    1    3    3    0    0  0.28796342917E+01 -0.58333564780E+02  0.10295242321E+03  0.11836933099E+03  0.10000000000E+01 0.  0.
         -4    1    1    2    0  502  0.22361010409E+02  0.48709001050E+02 -0.23786097032E+01  0.53664254900E+02  0.12700000000E+01 0. -1.
<mgrwt>
<rscale>  1 0.13600505E+03</rscale>
<asrwt>0</asrwt>
<pdfrwt beam="2">  1       21 0.55579200E-02 0.13600505E+03</pdfrwt>
<pdfrwt beam="1">  1       -4 0.91716551E-01 0.13600505E+03</pdfrwt>
<totfact> 0.95985766E+03</totfact>
</mgrwt>
</event>
<event>
 6    4  0.3995738E-003  0.1371140E+03  0.7818608E-02  0.1217266E+00
         -4   -1    0    0    0  501 -0.00000000000E+00  0.00000000000E+00  0.74980351219E+03  0.74980458774E+03  0.12700000000E+01 0.  1.
         21   -1    0    0  501  502  0.00000000000E+00 -0.00000000000E+00 -0.17054244984E+02  0.17054244984E+02  0.00000000000E+00 0. -1.
         25    2    1    2    0    0  0.51732007810E+02  0.22579248408E+02  0.66345725367E+03  0.67747751962E+03  0.12495694884E+03 0.  0.
    9000005    1    3    3    0    0  0.59882644222E+02  0.57657948268E+02  0.58814708060E+03  0.59399356772E+03  0.10000000000E+01 0.  0.
    9000005    1    3    3    0    0 -0.81506364121E+01 -0.35078699860E+02  0.75310173067E+02  0.83483951902E+02  0.10000000000E+01 0.  0.
         -4    1    1    2    0  502 -0.51732007810E+02 -0.22579248408E+02  0.69292013540E+02  0.89381313098E+02  0.12700000000E+01 0. -1.
<mgrwt>
<rscale>  1 0.13711405E+03</rscale>
<asrwt>0</asrwt>
<pdfrwt beam="2">  1       21 0.26237306E-02 0.13711405E+03</pdfrwt>
<pdfrwt beam="1">  1       -4 0.11535808E+00 0.13711405E+03</pdfrwt>
<totfact> 0.19601542E+04</totfact>
</mgrwt>
</event>
<event>
 6    4  0.3995738E-003  0.1278603E+03  0.7818608E-02  0.1230666E+00
         -4   -1    0    0    0  501 -0.00000000000E+00  0.00000000000E+00  0.13610861526E+03  0.13611454018E+03  0.12700000000E+01 0. -1.
         21   -1    0    0  501  502  0.00000000000E+00 -0.00000000000E+00 -0.73767031122E+02  0.73767031122E+02  0.00000000000E+00 0. -1.
         25    2    1    2    0    0  0.26503417085E+02  0.44196047403E+01  0.10089303140E+03  0.16287315706E+03  0.12500518983E+03 0.  0.
    9000005    1    3    3    0    0  0.52875940184E+02 -0.21448458253E+02  0.11078231016E+03  0.12461790263E+03  0.10000000000E+01 0.  0.
    9000005    1    3    3    0    0 -0.26372523098E+02  0.25868062993E+02 -0.98892787588E+01  0.38255254436E+02  0.10000000000E+01 0.  0.
         -4    1    1    2    0  502 -0.26503417085E+02 -0.44196047403E+01 -0.38551447259E+02  0.47008414237E+02  0.12700000000E+01 0.  1.
<mgrwt>
<rscale>  1 0.12786032E+03</rscale>
<asrwt>0</asrwt>
<pdfrwt beam="2">  1       21 0.11348774E-01 0.12786032E+03</pdfrwt>
<pdfrwt beam="1">  1       -4 0.20941084E-01 0.12786032E+03</pdfrwt>
<totfact> 0.54023885E+04</totfact>
</mgrwt>
</event>
<event>
 6    4  0.3995738E-003  0.1279397E+03  0.7818608E-02  0.1230545E+00
         -4   -1    0    0    0  501 -0.00000000000E+00  0.00000000000E+00  0.14224291037E+03  0.14224857978E+03  0.12700000000E+01 0.  1.
         21   -1    0    0  501  502  0.00000000000E+00 -0.00000000000E+00 -0.17772237460E+03  0.17772237460E+03  0.00000000000E+00 0. -1.
         25    2    1    2    0    0 -0.14688181889E+02  0.22979666595E+02  0.11196869235E+03  0.17001636278E+03  0.12499907112E+03 0.  0.
    9000005    1    3    3    0    0  0.25409231625E+02 -0.43417629171E+02  0.46421483360E+02  0.68459284922E+02  0.10000000000E+01 0.  0.
    9000005    1    3    3    0    0 -0.40097413514E+02  0.66397295767E+02  0.65547208992E+02  0.10155707785E+03  0.10000000000E+01 0.  0.
         -4    1    1    2    0  502  0.14688181889E+02 -0.22979666595E+02 -0.14744815658E+03  0.14995459161E+03  0.12700000000E+01 0. -1.
<mgrwt>
<rscale>  1 0.12793973E+03</rscale>
<asrwt>0</asrwt>
<pdfrwt beam="2">  1       21 0.27341904E-01 0.12793973E+03</pdfrwt>
<pdfrwt beam="1">  1       -4 0.21884310E-01 0.12793973E+03</pdfrwt>
<totfact> 0.99806923E+03</totfact>
</mgrwt>
</event>
<event>
 6    4  0.3995738E-003  0.1290208E+03  0.7818608E-02  0.1228916E+00
          4   -1    0    0  502    0 -0.00000000000E+00  0.00000000000E+00  0.76483400402E+02  0.76493943793E+02  0.12700000000E+01 0.  1.
         21   -1    0    0  501  502  0.00000000000E+00 -0.00000000000E+00 -0.84751972591E+02  0.84751972591E+02  0.00000000000E+00 0.  1.
         25    2    1    2    0    0 -0.15922845201E+02  0.27705115662E+02 -0.53239265544E+01  0.12913058872E+03  0.12500101726E+03 0.  0.
    9000005    1    3    3    0    0 -0.65670231578E+02  0.41072251280E+02 -0.46944496494E+01  0.77605070699E+02  0.10000000000E+01 0.  0.
    9000005    1    3    3    0    0  0.49747386377E+02 -0.13367135618E+02 -0.62947690499E+00  0.51525518019E+02  0.10000000000E+01 0.  0.
          4    1    1    2  501    0  0.15922845201E+02 -0.27705115662E+02 -0.29446456349E+01  0.32115327665E+02  0.12700000000E+01 0. -1.
<mgrwt>
<rscale>  1 0.12902079E+03</rscale>
<asrwt>0</asrwt>
<pdfrwt beam="2">  1       21 0.13038765E-01 0.12902079E+03</pdfrwt>
<pdfrwt beam="1">  1        4 0.11768220E-01 0.12902079E+03</pdfrwt>
<totfact> 0.11614548E+05</totfact>
</mgrwt>
</event>
<event>
 6    4  0.3995738E-003  0.1343549E+03  0.7818608E-02  0.1221133E+00
         -4   -1    0    0    0  501 -0.00000000000E+00  0.00000000000E+00  0.45625036131E+02  0.45642708311E+02  0.12700000000E+01 0. -1.
         21   -1    0    0  501  502  0.00000000000E+00 -0.00000000000E+00 -0.21635911246E+03  0.21635911246E+03  0.00000000000E+00 0. -1.
         25    2    1    2    0    0 -0.12187231792E+02  0.47716961790E+02 -0.73854946419E+02  0.15331596257E+03  0.12500317678E+03 0.  0.
    9000005    1    3    3    0    0 -0.36371111262E+02  0.82236120530E+02 -0.36720411685E+02  0.97134061423E+02  0.10000000000E+01 0.  0.
    9000005    1    3    3    0    0  0.24183879470E+02 -0.34519158740E+02 -0.37134534734E+02  0.56181901145E+02  0.10000000000E+01 0.  0.
         -4    1    1    2    0  502  0.12187231792E+02 -0.47716961790E+02 -0.96879129914E+02  0.10868585821E+03  0.12700000000E+01 0.  1.
<mgrwt>
<rscale>  1 0.13435487E+03</rscale>
<asrwt>0</asrwt>
<pdfrwt beam="2">  1       21 0.33286017E-01 0.13435487E+03</pdfrwt>
<pdfrwt beam="1">  1       -4 0.70208824E-02 0.13435487E+03</pdfrwt>
<totfact> 0.48410120E+04</totfact>
</mgrwt>
</event>
<event>
 6    4  0.3995738E-003  0.1283120E+03  0.7818608E-02  0.1229982E+00
         -4   -1    0    0    0  501 -0.00000000000E+00  0.00000000000E+00  0.13937821081E+03  0.13938399674E+03  0.12700000000E+01 0. -1.
         21   -1    0    0  501  502  0.00000000000E+00 -0.00000000000E+00 -0.45031015267E+02  0.45031015267E+02  0.00000000000E+00 0. -1.
         25    2    1    2    0    0 -0.62851116362E+01 -0.28274448856E+02  0.67891296716E+02  0.14516613216E+03  0.12500012269E+03 0.  0.
    9000005    1    3    3    0    0  0.53035247278E+01  0.46382027954E+02  0.48148187735E+02  0.67072109508E+02  0.10000000000E+01 0.  0.
    9000005    1    3    3    0    0 -0.11588636364E+02 -0.74656476810E+02  0.19743108981E+02  0.78094022656E+02  0.10000000000E+01 0.  0.
         -4    1    1    2    0  502  0.62851116362E+01  0.28274448856E+02  0.26455898823E+02  0.39248879843E+02  0.12700000000E+01 0.  1.
<mgrwt>
<rscale>  1 0.12831203E+03</rscale>
<asrwt>0</asrwt>
<pdfrwt beam="2">  1       21 0.69278486E-02 0.12831203E+03</pdfrwt>
<pdfrwt beam="1">  1       -4 0.21444624E-01 0.12831203E+03</pdfrwt>
<totfact> 0.12194808E+05</totfact>
</mgrwt>
</event>
<event>
 6    4  0.3995738E-003  0.1268150E+03  0.7818608E-02  0.1232260E+00
         -4   -1    0    0    0  501 -0.00000000000E+00  0.00000000000E+00  0.20734957086E+02  0.20773813934E+02  0.12700000000E+01 0. -1.
         21   -1    0    0  501  502  0.00000000000E+00 -0.00000000000E+00 -0.46377670924E+03  0.46377670924E+03  0.00000000000E+00 0.  1.
         25    2    1    2    0    0  0.20229175183E+02  0.68448782901E+01 -0.17749478630E+03  0.21814317369E+03  0.12500389264E+03 0.  0.
    9000005    1    3    3    0    0  0.34595581125E+02 -0.11891044921E+02  0.24269882168E+01  0.36676170118E+02  0.10000000000E+01 0.  0.
    9000005    1    3    3    0    0 -0.14366405942E+02  0.18735923212E+02 -0.17992177452E+03  0.18146700357E+03  0.10000000000E+01 0.  0.
         -4    1    1    2    0  502 -0.20229175183E+02 -0.68448782901E+01 -0.26554696585E+03  0.26640734948E+03  0.12700000000E+01 0.  1.
<mgrwt>
<rscale>  1 0.12681500E+03</rscale>
<asrwt>0</asrwt>
<pdfrwt beam="2">  1       21 0.71350268E-01 0.12681500E+03</pdfrwt>
<pdfrwt beam="1">  1       -4 0.31931159E-02 0.12681500E+03</pdfrwt>
<totfact> 0.35337687E+04</totfact>
</mgrwt>
</event>
<event>
 6    4  0.3995738E-003  0.1278654E+03  0.7818608E-02  0.1230658E+00
         -4   -1    0    0    0  501 -0.00000000000E+00  0.00000000000E+00  0.33332992162E+02  0.33357177136E+02  0.12700000000E+01 0.  1.
         21   -1    0    0  501  502  0.00000000000E+00 -0.00000000000E+00 -0.25880776436E+03  0.25880776436E+03  0.00000000000E+00 0.  1.
         25    2    1    2    0    0  0.16604287395E+02  0.21187350184E+02 -0.95939158605E+02  0.15985585543E+03  0.12499986477E+03 0.  0.
    9000005    1    3    3    0    0 -0.30941067413E+01 -0.27276559051E+01  0.29928053891E+02  0.30227504247E+02  0.10000000000E+01 0.  0.
    9000005    1    3    3    0    0  0.19698394137E+02  0.23915006089E+02 -0.12586721250E+03  0.12962835118E+03  0.10000000000E+01 0.  0.
         -4    1    1    2    0  502 -0.16604287395E+02 -0.21187350184E+02 -0.12953561359E+03  0.13230908607E+03  0.12700000000E+01 0. -1.
<mgrwt>
<rscale>  1 0.12786545E+03</rscale>
<asrwt>0</asrwt>
<pdfrwt beam="2">  1       21 0.39816579E-01 0.12786545E+03</pdfrwt>
<pdfrwt beam="1">  1       -4 0.51302527E-02 0.12786545E+03</pdfrwt>
<totfact> 0.56250333E+04</totfact>
</mgrwt>
</event>
<event>
 6    4  0.3995738E-003  0.1293022E+03  0.7818608E-02  0.1228495E+00
         21   -1    0    0  501  502  0.00000000000E+00  0.00000000000E+00  0.16100422824E+03  0.16100422824E+03  0.00000000000E+00 0. -1.
          4   -1    0    0  502    0 -0.00000000000E+00 -0.00000000000E+00 -0.54571237778E+02  0.54586013709E+02  0.12700000000E+01 0. -1.
         25    2    1    2    0    0 -0.34041307522E+01 -0.32867258418E+02  0.30618261654E+02  0.13287790438E+03  0.12500885866E+03 0.  0.
    9000005    1    3    3    0    0  0.44947835612E+02 -0.69299802355E+01 -0.27329451405E+02  0.53068177530E+02  0.10000000000E+01 0.  0.
    9000005    1    3    3    0    0 -0.48351966364E+02 -0.25937278183E+02  0.57947713059E+02  0.79809726848E+02  0.10000000000E+01 0.  0.
          4    1    1    2  501    0  0.34041307522E+01  0.32867258418E+02  0.75814728811E+02  0.82712337573E+02  0.12700000000E+01 0.  1.
<mgrwt>
<rscale>  1 0.12930220E+03</rscale>
<asrwt>0</asrwt>
<pdfrwt beam="1">  1       21 0.24769881E-01 0.12930220E+03</pdfrwt>
<pdfrwt beam="2">  1        4 0.83970970E-02 0.12930220E+03</pdfrwt>
<totfact> 0.63258747E+04</totfact>
</mgrwt>
</event>
<event>
 6    4  0.3995738E-003  0.1296367E+03  0.7818608E-02  0.1227996E+00
         21   -1    0    0  501  502  0.00000000000E+00  0.00000000000E+00  0.12158586169E+02  0.12158586169E+02  0.00000000000E+00 0. -1.
         -4   -1    0    0    0  501 -0.00000000000E+00 -0.00000000000E+00 -0.58538574172E+03  0.58538711936E+03  0.12700000000E+01 0. -1.
         25    2    1    2    0    0 -0.16517114854E+02 -0.30132115566E+02 -0.38601054158E+03  0.40719751688E+03  0.12499968030E+03 0.  0.
    9000005    1    3    3    0    0  0.51716189002E+02 -0.13786746926E+02 -0.22975730844E+03  0.23591112602E+03  0.10000000000E+01 0.  0.
    9000005    1    3    3    0    0 -0.68233303856E+02 -0.16345368640E+02 -0.15625323313E+03  0.17128639087E+03  0.10000000000E+01 0.  0.
         -4    1    1    2    0  502  0.16517114854E+02  0.30132115566E+02 -0.18721661397E+03  0.19034818864E+03  0.12700000000E+01 0.  1.
<mgrwt>
<rscale>  1 0.12963672E+03</rscale>
<asrwt>0</asrwt>
<pdfrwt beam="1">  1       21 0.18705515E-02 0.12963672E+03</pdfrwt>
<pdfrwt beam="2">  1       -4 0.90064562E-01 0.12963672E+03</pdfrwt>
<totfact> 0.59831672E+04</totfact>
</mgrwt>
</event>
<event>
 6    4  0.3995738E-003  0.1300040E+03  0.7818608E-02  0.1227450E+00
          4   -1    0    0  502    0 -0.00000000000E+00  0.00000000000E+00  0.17230268308E+03  0.17230736344E+03  0.12700000000E+01 0. -1.
         21   -1    0    0  501  502  0.00000000000E+00 -0.00000000000E+00 -0.20369709419E+03  0.20369709419E+03  0.00000000000E+00 0.  1.
         25    2    1    2    0    0 -0.26097463101E+02 -0.24411175717E+02  0.14573959364E+03  0.19529736973E+03  0.12499620149E+03 0.  0.
    9000005    1    3    3    0    0  0.38541292429E+02 -0.44153527743E+02  0.91344607889E+02  0.10853479914E+03  0.10000000000E+01 0.  0.
    9000005    1    3    3    0    0 -0.64638755530E+02  0.19742352026E+02  0.54394985753E+02  0.86762570588E+02  0.10000000000E+01 0.  0.
          4    1    1    2  501    0  0.26097463101E+02  0.24411175717E+02 -0.17713400475E+03  0.18070708791E+03  0.12700000000E+01 0.  1.
<mgrwt>
<rscale>  1 0.13000397E+03</rscale>
<asrwt>0</asrwt>
<pdfrwt beam="2">  1       21 0.31338015E-01 0.13000397E+03</pdfrwt>
<pdfrwt beam="1">  1        4 0.26508770E-01 0.13000397E+03</pdfrwt>
<totfact> 0.54059416E+03</totfact>
</mgrwt>
</event>
<event>
 6    4  0.3995738E-003  0.1267734E+03  0.7818608E-02  0.1232324E+00
         21   -1    0    0  501  502  0.00000000000E+00  0.00000000000E+00  0.44755306369E+02  0.44755306369E+02  0.00000000000E+00 0. -1.
         -4   -1    0    0    0  501 -0.00000000000E+00 -0.00000000000E+00 -0.21014616801E+03  0.21015000554E+03  0.12700000000E+01 0.  1.
         25    2    1    2    0    0 -0.21074895680E+02  0.18911215345E+01 -0.18616140382E+03  0.22522778015E+03  0.12499502834E+03 0.  0.
    9000005    1    3    3    0    0 -0.11105806000E+02  0.16924808471E+02  0.13756319029E+02  0.24495395117E+02  0.10000000000E+01 0.  0.
    9000005    1    3    3    0    0 -0.99690896797E+01 -0.15033686936E+02 -0.19991772285E+03  0.20073238504E+03  0.10000000000E+01 0.  0.
         -4    1    1    2    0  502  0.21074895680E+02 -0.18911215345E+01  0.20770542184E+02  0.29677531757E+02  0.12700000000E+01 0. -1.
<mgrwt>
<rscale>  1 0.12677336E+03</rscale>
<asrwt>0</asrwt>
<pdfrwt beam="1">  1       21 0.68854317E-02 0.12677336E+03</pdfrwt>
<pdfrwt beam="2">  1       -4 0.32331861E-01 0.12677336E+03</pdfrwt>
<totfact> 0.57400693E+04</totfact>
</mgrwt>
</event>
<event>
 6    4  0.3995738E-003  0.1278698E+03  0.7818608E-02  0.1230651E+00
          4   -1    0    0  502    0 -0.00000000000E+00  0.00000000000E+00  0.26569925884E+03  0.26570229402E+03  0.12700000000E+01 0. -1.
         21   -1    0    0  501  502  0.00000000000E+00 -0.00000000000E+00 -0.55312027788E+02  0.55312027788E+02  0.00000000000E+00 0.  1.
         25    2    1    2    0    0 -0.32472702986E+01  0.26748366907E+02  0.24545920194E+03  0.27676868994E+03  0.12499867206E+03 0.  0.
    9000005    1    3    3    0    0 -0.47998466154E+02 -0.18360436092E+02  0.17259155373E+03  0.18008276649E+03  0.10000000000E+01 0.  0.
    9000005    1    3    3    0    0  0.44751195855E+02  0.45108802999E+02  0.72867648212E+02  0.96685923455E+02  0.10000000000E+01 0.  0.
          4    1    1    2  501    0  0.32472702986E+01 -0.26748366907E+02 -0.35071970894E+02  0.44245631863E+02  0.12700000000E+01 0.  1.
<mgrwt>
<rscale>  1 0.12786981E+03</rscale>
<asrwt>0</asrwt>
<pdfrwt beam="2">  1       21 0.85095429E-02 0.12786981E+03</pdfrwt>
<pdfrwt beam="1">  1        4 0.40878163E-01 0.12786981E+03</pdfrwt>
<totfact> 0.25342505E+04</totfact>
</mgrwt>
</event>
<event>
 6    4  0.3995738E-003  0.1296308E+03  0.7818608E-02  0.1228005E+00
         21   -1    0    0  501  502  0.00000000000E+00  0.00000000000E+00  0.22698898848E+03  0.22698898848E+03  0.00000000000E+00 0. -1.
         -4   -1    0    0    0  501 -0.00000000000E+00 -0.00000000000E+00 -0.15451594990E+03  0.15452116901E+03  0.12700000000E+01 0.  1.
         25    2    1    2    0    0 -0.14960696559E+02  0.30931551906E+02 -0.12558637567E+03  0.18048844767E+03  0.12499423445E+03 0.  0.
    9000005    1    3    3    0    0 -0.11198104213E+02 -0.10725843614E+02 -0.13639395293E+03  0.13727618750E+03  0.10000000000E+01 0.  0.
    9000005    1    3    3    0    0 -0.37625923453E+01  0.41657395519E+02  0.10807577263E+02  0.43212260169E+02  0.10000000000E+01 0.  0.
         -4    1    1    2    0  502  0.14960696559E+02 -0.30931551906E+02  0.19805941426E+03  0.20102170982E+03  0.12700000000E+01 0. -1.
<mgrwt>
<rscale>  1 0.12963079E+03</rscale>
<asrwt>0</asrwt>
<pdfrwt beam="1">  1       21 0.34921383E-01 0.12963079E+03</pdfrwt>
<pdfrwt beam="2">  1       -4 0.23772359E-01 0.12963079E+03</pdfrwt>
<totfact> 0.53499230E+03</totfact>
</mgrwt>
</event>
<event>
 6    4  0.3995738E-003  0.1291745E+03  0.7818608E-02  0.1228686E+00
         21   -1    0    0  501  502  0.00000000000E+00  0.00000000000E+00  0.33532366343E+03  0.33532366343E+03  0.00000000000E+00 0. -1.
          4   -1    0    0  502    0 -0.00000000000E+00 -0.00000000000E+00 -0.44974221717E+02  0.44992149527E+02  0.12700000000E+01 0.  1.
         25    2    1    2    0    0 -0.26941538622E+02 -0.18288739701E+02  0.51192029638E+02  0.13894844740E+03  0.12500289050E+03 0.  0.
    9000005    1    3    3    0    0  0.26873079740E+02  0.34056145599E+02  0.46678758808E+02  0.63732958441E+02  0.10000000000E+01 0.  0.
    9000005    1    3    3    0    0 -0.53814618362E+02 -0.52344885299E+02  0.45132708295E+01  0.75215488964E+02  0.10000000000E+01 0.  0.
          4    1    1    2  501    0  0.26941538622E+02  0.18288739701E+02  0.23915741207E+03  0.24136736555E+03  0.12700000000E+01 0. -1.
<mgrwt>
<rscale>  1 0.12917448E+03</rscale>
<asrwt>0</asrwt>
<pdfrwt beam="1">  1       21 0.51588254E-01 0.12917448E+03</pdfrwt>
<pdfrwt beam="2">  1        4 0.69206753E-02 0.12917448E+03</pdfrwt>
<totfact> 0.20453515E+04</totfact>
</mgrwt>
</event>
<event>
 6    4  0.3995738E-003  0.1266112E+03  0.7818608E-02  0.1232572E+00
          4   -1    0    0  502    0 -0.00000000000E+00  0.00000000000E+00  0.24378187838E+03  0.24378518644E+03  0.12700000000E+01 0.  1.
         21   -1    0    0  501  502  0.00000000000E+00 -0.00000000000E+00 -0.10262992170E+03  0.10262992170E+03  0.00000000000E+00 0. -1.
         25    2    1    2    0    0  0.20005757703E+02 -0.21577596095E+01  0.22608424714E+03  0.25912253611E+03  0.12500206258E+03 0.  0.
    9000005    1    3    3    0    0  0.10871543187E+02  0.54869060746E+02  0.16856390627E+03  0.17760516540E+03  0.10000000000E+01 0.  0.
    9000005    1    3    3    0    0  0.91342145160E+01 -0.57026820355E+02  0.57520340866E+02  0.81517370713E+02  0.10000000000E+01 0.  0.
          4    1    1    2  501    0 -0.20005757703E+02  0.21577596095E+01 -0.84932290464E+02  0.87292572028E+02  0.12700000000E+01 0. -1.
<mgrwt>
<rscale>  1 0.12661122E+03</rscale>
<asrwt>0</asrwt>
<pdfrwt beam="2">  1       21 0.15789219E-01 0.12661122E+03</pdfrwt>
<pdfrwt beam="1">  1        4 0.37505763E-01 0.12661122E+03</pdfrwt>
<totfact> 0.10047991E+04</totfact>
</mgrwt>
</event>
<event>
 6    4  0.3995738E-003  0.1266102E+03  0.7818608E-02  0.1232574E+00
         21   -1    0    0  501  502  0.00000000000E+00  0.00000000000E+00  0.33733349041E+03  0.33733349041E+03  0.00000000000E+00 0. -1.
          4   -1    0    0  502    0 -0.00000000000E+00 -0.00000000000E+00 -0.21321992830E+02  0.21359781793E+02  0.12700000000E+01 0. -1.
         25    2    1    2    0    0  0.13794539389E+02  0.14668355603E+02  0.17363072418E+03  0.21489011679E+03  0.12499873576E+03 0.  0.
    9000005    1    3    3    0    0 -0.25367510728E+02  0.55805993009E+02  0.12836377143E+03  0.14225356682E+03  0.10000000000E+01 0.  0.
    9000005    1    3    3    0    0  0.39162050116E+02 -0.41137637407E+02  0.45266952750E+02  0.72636549973E+02  0.10000000000E+01 0.  0.
          4    1    1    2  501    0 -0.13794539389E+02 -0.14668355603E+02  0.14238077340E+03  0.14380315541E+03  0.12700000000E+01 0.  1.
<mgrwt>
<rscale>  1 0.12661017E+03</rscale>
<asrwt>0</asrwt>
<pdfrwt beam="1">  1       21 0.51897456E-01 0.12661017E+03</pdfrwt>
<pdfrwt beam="2">  1        4 0.32833976E-02 0.12661017E+03</pdfrwt>
<totfact> 0.66586283E+04</totfact>
</mgrwt>
</event>
<event>
 6    4  0.3995738E-003  0.1302860E+03  0.7818608E-02  0.1227032E+00
          4   -1    0    0  502    0 -0.00000000000E+00  0.00000000000E+00  0.14721409432E+04  0.14721414910E+04  0.12700000000E+01 0.  1.
         21   -1    0    0  501  502  0.00000000000E+00 -0.00000000000E+00 -0.86621443518E+01  0.86621443518E+01  0.00000000000E+00 0. -1.
         25    2    1    2    0    0  0.35970014335E+02 -0.74347599367E+01  0.14094545092E+04  0.14154633388E+04  0.12500132927E+03 0.  0.
    9000005    1    3    3    0    0  0.12595279476E+02 -0.29942688638E+02  0.13182920194E+04  0.13186925548E+04  0.10000000000E+01 0.  0.
    9000005    1    3    3    0    0  0.23374734859E+02  0.22507928701E+02  0.91162489765E+02  0.96770783940E+02  0.10000000000E+01 0.  0.
          4    1    1    2  501    0 -0.35970014335E+02  0.74347599367E+01  0.54024289675E+02  0.65340296613E+02  0.12700000000E+01 0. -1.
<mgrwt>
<rscale>  1 0.13028603E+03</rscale>
<asrwt>0</asrwt>
<pdfrwt beam="2">  1       21 0.13326388E-02 0.13028603E+03</pdfrwt>
<pdfrwt beam="1">  1        4 0.22649023E+00 0.13028603E+03</pdfrwt>
<totfact> 0.97369842E+03</totfact>
</mgrwt>
</event>
<event>
 6    4  0.3995738E-003  0.1384932E+03  0.7818608E-02  0.1215371E+00
          4   -1    0    0  502    0 -0.00000000000E+00  0.00000000000E+00  0.29582403262E+03  0.29582675872E+03  0.12700000000E+01 0. -1.
         21   -1    0    0  501  502  0.00000000000E+00 -0.00000000000E+00 -0.33471953937E+02  0.33471953937E+02  0.00000000000E+00 0.  1.
         25    2    1    2    0    0 -0.50567503074E+02  0.31594289313E+02  0.16865787996E+03  0.21823347391E+03  0.12500038871E+03 0.  0.
    9000005    1    3    3    0    0 -0.66917246805E+02  0.50779545125E+02  0.51825197128E+02  0.98708313634E+02  0.10000000000E+01 0.  0.
    9000005    1    3    3    0    0  0.16349743731E+02 -0.19185255812E+02  0.11683268284E+03  0.11952516028E+03  0.10000000000E+01 0.  0.
          4    1    1    2  501    0  0.50567503074E+02 -0.31594289313E+02  0.93694198714E+02  0.11106523874E+03  0.12700000000E+01 0.  1.
<mgrwt>
<rscale>  1 0.13849321E+03</rscale>
<asrwt>0</asrwt>
<pdfrwt beam="2">  1       21 0.51495316E-02 0.13849321E+03</pdfrwt>
<pdfrwt beam="1">  1        4 0.45513451E-01 0.13849321E+03</pdfrwt>
<totfact> 0.48692258E+04</totfact>
</mgrwt>
</event>
<event>
 6    4  0.3995738E-003  0.1274729E+03  0.7818608E-02  0.1231254E+00
         -4   -1    0    0    0  501 -0.00000000000E+00  0.00000000000E+00  0.55425417551E+02  0.55439965825E+02  0.12700000000E+01 0.  1.
         21   -1    0    0  501  502  0.00000000000E+00 -0.00000000000E+00 -0.27557825930E+03  0.27557825930E+03  0.00000000000E+00 0. -1.
         25    2    1    2    0    0  0.17380868581E+02  0.17951197773E+02 -0.19671477938E+02  0.12898176745E+03  0.12499995679E+03 0.  0.
    9000005    1    3    3    0    0  0.32076528152E+01 -0.24404367674E+01 -0.71437766475E+02  0.71558362524E+02  0.10000000000E+01 0.  0.
    9000005    1    3    3    0    0  0.14173215765E+02  0.20391634540E+02  0.51766288537E+02  0.57423404926E+02  0.10000000000E+01 0.  0.
         -4    1    1    2    0  502 -0.17380868581E+02 -0.17951197773E+02 -0.20048136381E+03  0.20203645767E+03  0.12700000000E+01 0. -1.
<mgrwt>
<rscale>  1 0.12747286E+03</rscale>
<asrwt>0</asrwt>
<pdfrwt beam="2">  1       21 0.42396656E-01 0.12747286E+03</pdfrwt>
<pdfrwt beam="1">  1       -4 0.85283314E-02 0.12747286E+03</pdfrwt>
<totfact> 0.21609689E+04</totfact>
</mgrwt>
</event>
<event>
 6    4  0.3995738E-003  0.1394606E+03  0.7818608E-02  0.1214057E+00
         21   -1    0    0  501  502  0.00000000000E+00  0.00000000000E+00  0.77341752851E+03  0.77341752851E+03  0.00000000000E+00 0.  1.
          4   -1    0    0  502    0 -0.00000000000E+00 -0.00000000000E+00 -0.27370051305E+02  0.27399500149E+02  0.12700000000E+01 0. -1.
         25    2    1    2    0    0  0.25192415209E+02 -0.56484718461E+02  0.16309245871E+03  0.21458896067E+03  0.12499636295E+03 0.  0.
    9000005    1    3    3    0    0 -0.33482188096E+02  0.16139025968E+02  0.16255628617E+02  0.40580420656E+02  0.10000000000E+01 0.  0.
    9000005    1    3    3    0    0  0.58674603304E+02 -0.72623744429E+02  0.14683683009E+03  0.17400854002E+03  0.10000000000E+01 0.  0.
          4    1    1    2  501    0 -0.25192415209E+02  0.56484718461E+02  0.58295501850E+03  0.58622806799E+03  0.12700000000E+01 0.  1.
<mgrwt>
<rscale>  1 0.13946065E+03</rscale>
<asrwt>0</asrwt>
<pdfrwt beam="1">  1       21 0.11898730E+00 0.13946065E+03</pdfrwt>
<pdfrwt beam="2">  1        4 0.42131232E-02 0.13946065E+03</pdfrwt>
<totfact> 0.70640556E+03</totfact>
</mgrwt>
</event>
<event>
 6    4  0.3995738E-003  0.1271740E+03  0.7818608E-02  0.1231710E+00
          4   -1    0    0  502    0 -0.00000000000E+00  0.00000000000E+00  0.32665943513E+03  0.32666190390E+03  0.12700000000E+01 0. -1.
         21   -1    0    0  501  502  0.00000000000E+00 -0.00000000000E+00 -0.24576283922E+02  0.24576283922E+02  0.00000000000E+00 0. -1.
         25    2    1    2    0    0 -0.23342312252E+02 -0.12231223908E+01  0.30215690370E+03  0.32782925985E+03  0.12500747813E+03 0.  0.
    9000005    1    3    3    0    0 -0.20443553315E+02  0.17738735650E+02  0.30686052877E+03  0.30805354361E+03  0.10000000000E+01 0.  0.
    9000005    1    3    3    0    0 -0.28987589378E+01 -0.18961858040E+02 -0.47036250709E+01  0.19775716233E+02  0.10000000000E+01 0.  0.
          4    1    1    2  501    0  0.23342312252E+02  0.12231223908E+01 -0.73752489643E-01  0.23408927979E+02  0.12700000000E+01 0.  1.
<mgrwt>
<rscale>  1 0.12717401E+03</rscale>
<asrwt>0</asrwt>
<pdfrwt beam="2">  1       21 0.37809670E-02 0.12717401E+03</pdfrwt>
<pdfrwt beam="1">  1        4 0.50258009E-01 0.12717401E+03</pdfrwt>
<totfact> 0.66014798E+04</totfact>
</mgrwt>
</event>
<event>
 6    4  0.3995738E-003  0.1267628E+03  0.7818608E-02  0.1232340E+00
         21   -1    0    0  501  502  0.00000000000E+00  0.00000000000E+00  0.92469748673E+03  0.92469748673E+03  0.00000000000E+00 0.  1.
         -4   -1    0    0    0  501 -0.00000000000E+00 -0.00000000000E+00 -0.62162321079E+01  0.63446388092E+01  0.12700000000E+01 0.  1.
         25    2    1    2    0    0  0.16601193646E+02 -0.12965624009E+02  0.68668456428E+03  0.69828683432E+03  0.12500042052E+03 0.  0.
    9000005    1    3    3    0    0 -0.48788632156E+02 -0.62419233815E+01  0.15672371764E+03  0.16426386062E+03  0.10000000000E+01 0.  0.
    9000005    1    3    3    0    0  0.65389825801E+02 -0.67237006273E+01  0.52996084665E+03  0.53402297371E+03  0.10000000000E+01 0.  0.
         -4    1    1    2    0  502 -0.16601193646E+02  0.12965624009E+02  0.23179669034E+03  0.23275529121E+03  0.12700000000E+01 0. -1.
<mgrwt>
<rscale>  1 0.12676282E+03</rscale>
<asrwt>0</asrwt>
<pdfrwt beam="1">  1       21 0.14226104E+00 0.12676282E+03</pdfrwt>
<pdfrwt beam="2">  1       -4 0.96628866E-03 0.12676282E+03</pdfrwt>
<totfact> 0.43600591E+04</totfact>
</mgrwt>
</event>
<event>
 6    4  0.3995738E-003  0.1270416E+03  0.7818608E-02  0.1231913E+00
         21   -1    0    0  501  502  0.00000000000E+00  0.00000000000E+00  0.19709546613E+02  0.19709546613E+02  0.00000000000E+00 0. -1.
         -4   -1    0    0    0  501 -0.00000000000E+00 -0.00000000000E+00 -0.59984234992E+03  0.59984369436E+03  0.12700000000E+01 0.  1.
         25    2    1    2    0    0  0.21581053685E+02 -0.70554822870E+01 -0.58295578467E+03  0.59663809680E+03  0.12499619983E+03 0.  0.
    9000005    1    3    3    0    0 -0.17989817778E+02  0.64327288801E+01 -0.89682261488E+01  0.21129188929E+02  0.10000000000E+01 0.  0.
    9000005    1    3    3    0    0  0.39570871463E+02 -0.13488211167E+02 -0.57398755852E+03  0.57550890788E+03  0.10000000000E+01 0.  0.
         -4    1    1    2    0  502 -0.21581053685E+02  0.70554822870E+01  0.28229813571E+01  0.22915144167E+02  0.12700000000E+01 0. -1.
<mgrwt>
<rscale>  1 0.12704161E+03</rscale>
<asrwt>0</asrwt>
<pdfrwt beam="1">  1       21 0.30322384E-02 0.12704161E+03</pdfrwt>
<pdfrwt beam="2">  1       -4 0.92286676E-01 0.12704161E+03</pdfrwt>
<totfact> 0.25765436E+04</totfact>
</mgrwt>
</event>
<event>
 6    4  0.3995738E-003  0.1305249E+03  0.7818608E-02  0.1226679E+00
         21   -1    0    0  501  502  0.00000000000E+00  0.00000000000E+00  0.64507190649E+02  0.64507190649E+02  0.00000000000E+00 0. -1.
          4   -1    0    0  502    0 -0.00000000000E+00 -0.00000000000E+00 -0.18558498889E+03  0.18558933428E+03  0.12700000000E+01 0. -1.
         25    2    1    2    0    0 -0.21211480342E+02  0.31026949896E+02 -0.15275636210E+03  0.20092597657E+03  0.12499657346E+03 0.  0.
    9000005    1    3    3    0    0 -0.10015121356E+02  0.33210434322E+02  0.11280800402E+02  0.36489615801E+02  0.10000000000E+01 0.  0.
    9000005    1    3    3    0    0 -0.11196358986E+02 -0.21834844257E+01 -0.16403716251E+03  0.16443636077E+03  0.10000000000E+01 0.  0.
          4    1    1    2  501    0  0.21211480342E+02 -0.31026949896E+02  0.31678563865E+02  0.49170548367E+02  0.12700000000E+01 0.  1.
<mgrwt>
<rscale>  1 0.13052487E+03</rscale>
<asrwt>0</asrwt>
<pdfrwt beam="1">  1       21 0.99241833E-02 0.13052487E+03</pdfrwt>
<pdfrwt beam="2">  1        4 0.28552832E-01 0.13052487E+03</pdfrwt>
<totfact> 0.38752418E+04</totfact>
</mgrwt>
</event>
<event>
 6    4  0.3995738E-003  0.1352206E+03  0.7818608E-02  0.1219909E+00
         21   -1    0    0  501  502  0.00000000000E+00  0.00000000000E+00  0.22333055947E+02  0.22333055947E+02  0.00000000000E+00 0. -1.
          4   -1    0    0  502    0 -0.00000000000E+00 -0.00000000000E+00 -0.52102895501E+03  0.52103050281E+03  0.12700000000E+01 0.  1.
         25    2    1    2    0    0  0.50416592784E+02 -0.11005604676E+02 -0.45825494309E+03  0.47778886866E+03  0.12498661520E+03 0.  0.
    9000005    1    3    3    0    0  0.54370664510E+02  0.42948560946E+02 -0.15555843774E+03  0.17029437923E+03  0.10000000000E+01 0.  0.
    9000005    1    3    3    0    0 -0.39540717261E+01 -0.53954165622E+02 -0.30269650535E+03  0.30749448942E+03  0.10000000000E+01 0.  0.
          4    1    1    2  501    0 -0.50416592784E+02  0.11005604676E+02 -0.40440955969E+02  0.65574690101E+02  0.12700000000E+01 0. -1.
<mgrwt>
<rscale>  1 0.13522060E+03</rscale>
<asrwt>0</asrwt>
<pdfrwt beam="1">  1       21 0.34358546E-02 0.13522060E+03</pdfrwt>
<pdfrwt beam="2">  1        4 0.80161201E-01 0.13522060E+03</pdfrwt>
<totfact> 0.28964308E+04</totfact>
</mgrwt>
</event>
<event>
 6    4  0.3995738E-003  0.1381294E+03  0.7818608E-02  0.1215868E+00
         21   -1    0    0  501  502  0.00000000000E+00  0.00000000000E+00  0.98833616330E+02  0.98833616330E+02  0.00000000000E+00 0. -1.
         -4   -1    0    0    0  501 -0.00000000000E+00 -0.00000000000E+00 -0.12921382177E+03  0.12922006283E+03  0.12700000000E+01 0.  1.
         25    2    1    2    0    0  0.57781244090E+02 -0.10821331769E+02 -0.72236778671E+02  0.15587778975E+03  0.12499583894E+03 0.  0.
    9000005    1    3    3    0    0  0.69525029933E+02 -0.42755169439E+02 -0.86534203724E+02  0.11895756687E+03  0.10000000000E+01 0.  0.
    9000005    1    3    3    0    0 -0.11743785843E+02  0.31933837669E+02  0.14297425053E+02  0.36920222878E+02  0.10000000000E+01 0.  0.
         -4    1    1    2    0  502 -0.57781244090E+02  0.10821331769E+02  0.41856573228E+02  0.72175889411E+02  0.12700000000E+01 0. -1.
<mgrwt>
<rscale>  1 0.13812941E+03</rscale>
<asrwt>0</asrwt>
<pdfrwt beam="1">  1       21 0.15205172E-01 0.13812941E+03</pdfrwt>
<pdfrwt beam="2">  1       -4 0.19880157E-01 0.13812941E+03</pdfrwt>
<totfact> 0.35515827E+04</totfact>
</mgrwt>
</event>
<event>
 6    4  0.3995738E-003  0.1292377E+03  0.7818608E-02  0.1228591E+00
         21   -1    0    0  501  502  0.00000000000E+00  0.00000000000E+00  0.16423205881E+02  0.16423205881E+02  0.00000000000E+00 0. -1.
         -4   -1    0    0    0  501 -0.00000000000E+00 -0.00000000000E+00 -0.52314950189E+03  0.52315104342E+03  0.12700000000E+01 0. -1.
         25    2    1    2    0    0  0.26467266347E+02 -0.19361370987E+02 -0.48046434760E+03  0.49754233632E+03  0.12500803271E+03 0.  0.
    9000005    1    3    3    0    0  0.82643292706E+01 -0.15510367230E+02 -0.47848065077E+03  0.47880434813E+03  0.10000000000E+01 0.  0.
    9000005    1    3    3    0    0  0.18202937076E+02 -0.38510037576E+01 -0.19836968268E+01  0.18737988185E+02  0.10000000000E+01 0.  0.
         -4    1    1    2    0  502 -0.26467266347E+02  0.19361370987E+02 -0.26261948414E+02  0.42031912981E+02  0.12700000000E+01 0.  1.
<mgrwt>
<rscale>  1 0.12923772E+03</rscale>
<asrwt>0</asrwt>
<pdfrwt beam="1">  1       21 0.25266472E-02 0.12923772E+03</pdfrwt>
<pdfrwt beam="2">  1       -4 0.80488430E-01 0.12923772E+03</pdfrwt>
<totfact> 0.47250463E+04</totfact>
</mgrwt>
</event>
<event>
 6    4  0.3995738E-003  0.1373820E+03  0.7818608E-02  0.1216896E+00
         -4   -1    0    0    0  501 -0.00000000000E+00  0.00000000000E+00  0.43590291903E+02  0.43608788657E+02  0.12700000000E+01 0. -1.
         21   -1    0    0  501  502  0.00000000000E+00 -0.00000000000E+00 -0.35970809766E+03  0.35970809766E+03  0.00000000000E+00 0.  1.
         25    2    1    2    0    0  0.33933400016E+02  0.45804580684E+02 -0.76988112338E+02  0.15748328727E+03  0.12499712428E+03 0.  0.
    9000005    1    3    3    0    0  0.64400223413E+02  0.43391210408E+02 -0.33322256361E+01  0.77732166083E+02  0.10000000000E+01 0.  0.
    9000005    1    3    3    0    0 -0.30466823397E+02  0.24133702761E+01 -0.73655886702E+02  0.79751121182E+02  0.10000000000E+01 0.  0.
         -4    1    1    2    0  502 -0.33933400016E+02 -0.45804580684E+02 -0.23912969342E+03  0.24583359905E+03  0.12700000000E+01 0.  1.
<mgrwt>
<rscale>  1 0.13738201E+03</rscale>
<asrwt>0</asrwt>
<pdfrwt beam="2">  1       21 0.55339707E-01 0.13738201E+03</pdfrwt>
<pdfrwt beam="1">  1       -4 0.67077941E-02 0.13738201E+03</pdfrwt>
<totfact> 0.18695220E+04</totfact>
</mgrwt>
</event>
<event>
 6    4  0.3995738E-003  0.1276767E+03  0.7818608E-02  0.1230944E+00
          4   -1    0    0  502    0 -0.00000000000E+00  0.00000000000E+00  0.50898190090E+03  0.50898348534E+03  0.12700000000E+01 0.  1.
         21   -1    0    0  501  502  0.00000000000E+00 -0.00000000000E+00 -0.13602782677E+02  0.13602782677E+02  0.00000000000E+00 0. -1.
         25    2    1    2    0    0  0.37077269661E+01  0.25714960243E+02  0.46678253221E+03  0.48392900413E+03  0.12500536884E+03 0.  0.
    9000005    1    3    3    0    0  0.42591525576E+02 -0.21067065814E+02  0.33998288669E+03  0.34328883255E+03  0.10000000000E+01 0.  0.
    9000005    1    3    3    0    0 -0.38883798610E+02  0.46782026057E+02  0.12679964552E+03  0.14064017157E+03  0.10000000000E+01 0.  0.
          4    1    1    2  501    0 -0.37077269661E+01 -0.25714960243E+02  0.28596586016E+02  0.38657263888E+02  0.12700000000E+01 0. -1.
<mgrwt>
<rscale>  1 0.12767673E+03</rscale>
<asrwt>0</asrwt>
<pdfrwt beam="2">  1       21 0.20927362E-02 0.12767673E+03</pdfrwt>
<pdfrwt beam="1">  1        4 0.78309575E-01 0.12767673E+03</pdfrwt>
<totfact> 0.68029890E+04</totfact>
</mgrwt>
</event>
<event>
 6    4  0.3995738E-003  0.1328296E+03  0.7818608E-02  0.1223316E+00
          4   -1    0    0  502    0 -0.00000000000E+00  0.00000000000E+00  0.43481978738E+02  0.43500521549E+02  0.12700000000E+01 0.  1.
         21   -1    0    0  501  502  0.00000000000E+00 -0.00000000000E+00 -0.18410548852E+03  0.18410548852E+03  0.00000000000E+00 0.  1.
         25    2    1    2    0    0  0.45827202315E+01 -0.44689454014E+02 -0.93165163472E+02  0.16224504191E+03  0.12500222923E+03 0.  0.
    9000005    1    3    3    0    0  0.31660406993E+02 -0.21721856748E+02  0.20234350687E+02  0.43412548638E+02  0.10000000000E+01 0.  0.
    9000005    1    3    3    0    0 -0.27077686761E+02 -0.22967597266E+02 -0.11339951416E+03  0.11883249327E+03  0.10000000000E+01 0.  0.
          4    1    1    2  501    0 -0.45827202315E+01  0.44689454014E+02 -0.47458346310E+02  0.65360968164E+02  0.12700000000E+01 0. -1.
<mgrwt>
<rscale>  1 0.13282961E+03</rscale>
<asrwt>0</asrwt>
<pdfrwt beam="2">  1       21 0.28323921E-01 0.13282961E+03</pdfrwt>
<pdfrwt beam="1">  1        4 0.66912986E-02 0.13282961E+03</pdfrwt>
<totfact> 0.71502875E+04</totfact>
</mgrwt>
</event>
<event>
 6    4  0.3995738E-003  0.1394420E+03  0.7818608E-02  0.1214082E+00
          4   -1    0    0  502    0 -0.00000000000E+00  0.00000000000E+00  0.19318498764E+03  0.19318916209E+03  0.12700000000E+01 0. -1.
         21   -1    0    0  501  502  0.00000000000E+00 -0.00000000000E+00 -0.86917840197E+02  0.86917840197E+02  0.00000000000E+00 0. -1.
         25    2    1    2    0    0  0.13394426373E+02  0.60345632454E+02  0.14967395648E+03  0.20456383592E+03  0.12499225458E+03 0.  0.
    9000005    1    3    3    0    0 -0.38658608512E+02  0.69633309416E+02  0.11969004841E+03  0.14377062802E+03  0.10000000000E+01 0.  0.
    9000005    1    3    3    0    0  0.52053034885E+02 -0.92876769620E+01  0.29983908071E+02  0.60793207904E+02  0.10000000000E+01 0.  0.
          4    1    1    2  501    0 -0.13394426373E+02 -0.60345632454E+02 -0.43406809037E+02  0.75543166368E+02  0.12700000000E+01 0.  1.
<mgrwt>
<rscale>  1 0.13944199E+03</rscale>
<asrwt>0</asrwt>
<pdfrwt beam="2">  1       21 0.13371976E-01 0.13944199E+03</pdfrwt>
<pdfrwt beam="1">  1        4 0.29721802E-01 0.13944199E+03</pdfrwt>
<totfact> 0.21357827E+04</totfact>
</mgrwt>
</event>
<event>
 6    4  0.3995738E-003  0.1267059E+03  0.7818608E-02  0.1232427E+00
         -4   -1    0    0    0  501 -0.00000000000E+00  0.00000000000E+00  0.28374495566E+02  0.28402902996E+02  0.12700000000E+01 0. -1.
         21   -1    0    0  501  502  0.00000000000E+00 -0.00000000000E+00 -0.19403666353E+03  0.19403666353E+03  0.00000000000E+00 0. -1.
         25    2    1    2    0    0  0.71545502392E+01  0.19483884318E+02 -0.15032205841E+03  0.19659887772E+03  0.12499435242E+03 0.  0.
    9000005    1    3    3    0    0 -0.44313194860E+02  0.28784537201E+02 -0.13025903896E+03  0.14057249394E+03  0.10000000000E+01 0.  0.
    9000005    1    3    3    0    0  0.51467745100E+02 -0.93006528835E+01 -0.20063019452E+02  0.56026383778E+02  0.10000000000E+01 0.  0.
         -4    1    1    2    0  502 -0.71545502392E+01 -0.19483884318E+02 -0.15340109553E+02  0.25840688813E+02  0.12700000000E+01 0.  1.
<mgrwt>
<rscale>  1 0.12670595E+03</rscale>
<asrwt>0</asrwt>
<pdfrwt beam="2">  1       21 0.29851794E-01 0.12670595E+03</pdfrwt>
<pdfrwt beam="1">  1       -4 0.43678119E-02 0.12670595E+03</pdfrwt>
<totfact> 0.12785752E+05</totfact>
</mgrwt>
</event>
<event>
 6    4  0.3995738E-003  0.1351620E+03  0.7818608E-02  0.1219991E+00
         -4   -1    0    0    0  501 -0.00000000000E+00  0.00000000000E+00  0.21693960823E+03  0.21694332559E+03  0.12700000000E+01 0. -1.
         21   -1    0    0  501  502  0.00000000000E+00 -0.00000000000E+00 -0.40121687349E+02  0.40121687349E+02  0.00000000000E+00 0.  1.
         25    2    1    2    0    0  0.42848316842E+02  0.28404940350E+02  0.12693346578E+03  0.18542081811E+03  0.12500382458E+03 0.  0.
    9000005    1    3    3    0    0  0.72833165359E+02  0.50716907912E+02  0.11677352174E+03  0.14667627656E+03  0.10000000000E+01 0.  0.
    9000005    1    3    3    0    0 -0.29984848517E+02 -0.22311967562E+02  0.10159944035E+02  0.38744541550E+02  0.10000000000E+01 0.  0.
         -4    1    1    2    0  502 -0.42848316842E+02 -0.28404940350E+02  0.49884455104E+02  0.71644194835E+02  0.12700000000E+01 0.  1.
<mgrwt>
<rscale>  1 0.13516203E+03</rscale>
<asrwt>0</asrwt>
<pdfrwt beam="2">  1       21 0.61725674E-02 0.13516203E+03</pdfrwt>
<pdfrwt beam="1">  1       -4 0.33377156E-01 0.13516203E+03</pdfrwt>
<totfact> 0.65629538E+04</totfact>
</mgrwt>
</event>
<event>
 6    4  0.3995738E-003  0.1268845E+03  0.7818608E-02  0.1232153E+00
         21   -1    0    0  501  502  0.00000000000E+00  0.00000000000E+00  0.74741737010E+02  0.74741737010E+02  0.00000000000E+00 0. -1.
         -4   -1    0    0    0  501 -0.00000000000E+00 -0.00000000000E+00 -0.23687510526E+03  0.23687850977E+03  0.12700000000E+01 0.  1.
         25    2    1    2    0    0  0.19993401910E+02 -0.86678270868E+01 -0.21766756802E+03  0.25195009017E+03  0.12499924170E+03 0.  0.
    9000005    1    3    3    0    0 -0.10567823820E+02  0.19749122365E+02  0.69601767460E+01  0.23476601006E+02  0.10000000000E+01 0.  0.
    9000005    1    3    3    0    0  0.30561225729E+02 -0.28416949452E+02 -0.22462774476E+03  0.22847348917E+03  0.10000000000E+01 0.  0.
         -4    1    1    2    0  502 -0.19993401910E+02  0.86678270868E+01  0.55534199767E+02  0.59670156612E+02  0.12700000000E+01 0. -1.
<mgrwt>
<rscale>  1 0.12688451E+03</rscale>
<asrwt>0</asrwt>
<pdfrwt beam="1">  1       21 0.11498729E-01 0.12688451E+03</pdfrwt>
<pdfrwt beam="2">  1       -4 0.36443416E-01 0.12688451E+03</pdfrwt>
<totfact> 0.18727350E+04</totfact>
</mgrwt>
</event>
<event>
 6    4  0.3995738E-003  0.1754273E+03  0.7818608E-02  0.1172303E+00
         21   -1    0    0  501  502  0.00000000000E+00  0.00000000000E+00  0.81642340223E+03  0.81642340223E+03  0.00000000000E+00 0.  1.
         -4   -1    0    0    0  501 -0.00000000000E+00 -0.00000000000E+00 -0.29307015245E+02  0.29334519641E+02  0.12700000000E+01 0. -1.
         25    2    1    2    0    0 -0.10526273499E+03  0.63891903138E+02  0.34820717060E+03  0.38990122093E+03  0.12494922874E+03 0.  0.
    9000005    1    3    3    0    0  0.17839419108E+02  0.44157716723E+02  0.66147000637E+02  0.81514259572E+02  0.10000000000E+01 0.  0.
    9000005    1    3    3    0    0 -0.12310215410E+03  0.19734186415E+02  0.28206016997E+03  0.30838696136E+03  0.10000000000E+01 0.  0.
         -4    1    1    2    0  502  0.10526273499E+03 -0.63891903138E+02  0.43890921638E+03  0.45585670093E+03  0.12700000000E+01 0.  1.
<mgrwt>
<rscale>  1 0.17542727E+03</rscale>
<asrwt>0</asrwt>
<pdfrwt beam="1">  1       21 0.12560358E+00 0.17542727E+03</pdfrwt>
<pdfrwt beam="2">  1       -4 0.45109639E-02 0.17542727E+03</pdfrwt>
<totfact> 0.55854212E+03</totfact>
</mgrwt>
</event>
<event>
 6    4  0.3995738E-003  0.1276471E+03  0.7818608E-02  0.1230989E+00
          4   -1    0    0  502    0 -0.00000000000E+00  0.00000000000E+00  0.19447733263E+03  0.19448147934E+03  0.12700000000E+01 0.  1.
         21   -1    0    0  501  502  0.00000000000E+00 -0.00000000000E+00 -0.32552730742E+02  0.32552730742E+02  0.00000000000E+00 0.  1.
         25    2    1    2    0    0  0.26411346568E+00  0.26028489396E+02  0.15351250699E+03  0.19964939209E+03  0.12496494685E+03 0.  0.
    9000005    1    3    3    0    0  0.20894380193E+02  0.72440974187E+02  0.10608086736E+03  0.13014768644E+03  0.10000000000E+01 0.  0.
    9000005    1    3    3    0    0 -0.20630266728E+02 -0.46412484791E+02  0.47431639632E+02  0.69501705648E+02  0.10000000000E+01 0.  0.
          4    1    1    2  501    0 -0.26411346568E+00 -0.26028489396E+02  0.84120948896E+01  0.27384817994E+02  0.12700000000E+01 0. -1.
<mgrwt>
<rscale>  1 0.12764713E+03</rscale>
<asrwt>0</asrwt>
<pdfrwt beam="2">  1       21 0.50081126E-02 0.12764713E+03</pdfrwt>
<pdfrwt beam="1">  1        4 0.29921813E-01 0.12764713E+03</pdfrwt>
<totfact> 0.11409281E+05</totfact>
</mgrwt>
</event>
<event>
 6    4  0.3995738E-003  0.1311401E+03  0.7818608E-02  0.1225774E+00
         21   -1    0    0  501  502  0.00000000000E+00  0.00000000000E+00  0.23917974339E+03  0.23917974339E+03  0.00000000000E+00 0.  1.
         -4   -1    0    0    0  501 -0.00000000000E+00 -0.00000000000E+00 -0.37508417762E+02  0.37529912110E+02  0.12700000000E+01 0. -1.
         25    2    1    2    0    0  0.38636052487E+02  0.89499332714E+01  0.92306191338E+02  0.16036881420E+03  0.12499951100E+03 0.  0.
    9000005    1    3    3    0    0  0.53335235271E+02  0.44782997328E+02  0.11282243589E+02  0.70558154677E+02  0.10000000000E+01 0.  0.
    9000005    1    3    3    0    0 -0.14699182784E+02 -0.35833064056E+02  0.81023947749E+02  0.89810659518E+02  0.10000000000E+01 0.  0.
         -4    1    1    2    0  502 -0.38636052487E+02 -0.89499332714E+01  0.10936513429E+03  0.11634084131E+03  0.12700000000E+01 0.  1.
<mgrwt>
<rscale>  1 0.13114009E+03</rscale>
<asrwt>0</asrwt>
<pdfrwt beam="1">  1       21 0.36796883E-01 0.13114009E+03</pdfrwt>
<pdfrwt beam="2">  1       -4 0.57724387E-02 0.13114009E+03</pdfrwt>
<totfact> 0.54550637E+04</totfact>
</mgrwt>
</event>
<event>
 6    4  0.3995738E-003  0.1276191E+03  0.7818608E-02  0.1231032E+00
         21   -1    0    0  501  502  0.00000000000E+00  0.00000000000E+00  0.15459641683E+03  0.15459641683E+03  0.00000000000E+00 0.  1.
         -4   -1    0    0    0  501 -0.00000000000E+00 -0.00000000000E+00 -0.57756873971E+02  0.57770835124E+02  0.12700000000E+01 0. -1.
         25    2    1    2    0    0  0.18926849940E+02  0.17411541203E+02  0.17327662705E+02  0.12879010555E+03  0.12500102390E+03 0.  0.
    9000005    1    3    3    0    0  0.64424513482E+02  0.35043389542E+02  0.28559206998E+02  0.78709500013E+02  0.10000000000E+01 0.  0.
    9000005    1    3    3    0    0 -0.45497663541E+02 -0.17631848338E+02 -0.11231544293E+02  0.50080605535E+02  0.10000000000E+01 0.  0.
         -4    1    1    2    0  502 -0.18926849940E+02 -0.17411541203E+02  0.79511880150E+02  0.83577146402E+02  0.12700000000E+01 0.  1.
<mgrwt>
<rscale>  1 0.12761913E+03</rscale>
<asrwt>0</asrwt>
<pdfrwt beam="1">  1       21 0.23784064E-01 0.12761913E+03</pdfrwt>
<pdfrwt beam="2">  1       -4 0.88871482E-02 0.12761913E+03</pdfrwt>
<totfact> 0.62036770E+04</totfact>
</mgrwt>
</event>
<event>
 6    4  0.3995738E-003  0.1382189E+03  0.7818608E-02  0.1215746E+00
         21   -1    0    0  501  502  0.00000000000E+00  0.00000000000E+00  0.37079694950E+03  0.37079694950E+03  0.00000000000E+00 0.  1.
          4   -1    0    0  502    0 -0.00000000000E+00 -0.00000000000E+00 -0.29514800928E+02  0.29542111872E+02  0.12700000000E+01 0. -1.
         25    2    1    2    0    0  0.11934509725E+02  0.57740453128E+02  0.29357037005E+03  0.32448117345E+03  0.12501230861E+03 0.  0.
    9000005    1    3    3    0    0  0.20218254400E+02 -0.34077063318E+02  0.13863357772E+03  0.14418839387E+03  0.10000000000E+01 0.  0.
    9000005    1    3    3    0    0 -0.82837446745E+01  0.91817516446E+02  0.15493679233E+03  0.18029277959E+03  0.10000000000E+01 0.  0.
          4    1    1    2  501    0 -0.11934509725E+02 -0.57740453128E+02  0.47711778520E+02  0.75857887917E+02  0.12700000000E+01 0.  1.
<mgrwt>
<rscale>  1 0.13821892E+03</rscale>
<asrwt>0</asrwt>
<pdfrwt beam="1">  1       21 0.57045681E-01 0.13821892E+03</pdfrwt>
<pdfrwt beam="2">  1        4 0.45430070E-02 0.13821892E+03</pdfrwt>
<totfact> 0.32962629E+04</totfact>
</mgrwt>
</event>
<event>
 6    4  0.3995738E-003  0.1426395E+03  0.7818608E-02  0.1209821E+00
         21   -1    0    0  501  502  0.00000000000E+00  0.00000000000E+00  0.11365858272E+03  0.11365858272E+03  0.00000000000E+00 0. -1.
          4   -1    0    0  502    0 -0.00000000000E+00 -0.00000000000E+00 -0.15584630335E+03  0.15585147792E+03  0.12700000000E+01 0.  1.
         25    2    1    2    0    0 -0.58425916291E+02 -0.36165611751E+02 -0.10443577043E+03  0.17678481181E+03  0.12499800148E+03 0.  0.
    9000005    1    3    3    0    0 -0.14375711175E+02 -0.75086474513E+02 -0.86221527508E+02  0.11523797782E+03  0.10000000000E+01 0.  0.
    9000005    1    3    3    0    0 -0.44050205116E+02  0.38920862762E+02 -0.18214242919E+02  0.61546833988E+02  0.10000000000E+01 0.  0.
          4    1    1    2  501    0  0.58425916291E+02  0.36165611751E+02  0.62248049797E+02  0.92725248833E+02  0.12700000000E+01 0. -1.
<mgrwt>
<rscale>  1 0.14263954E+03</rscale>
<asrwt>0</asrwt>
<pdfrwt beam="1">  1       21 0.17485936E-01 0.14263954E+03</pdfrwt>
<pdfrwt beam="2">  1        4 0.23977298E-01 0.14263954E+03</pdfrwt>
<totfact> 0.19654028E+04</totfact>
</mgrwt>
</event>
<event>
 6    4  0.3995738E-003  0.1329816E+03  0.7818608E-02  0.1223097E+00
         21   -1    0    0  501  502  0.00000000000E+00  0.00000000000E+00  0.30032576063E+03  0.30032576063E+03  0.00000000000E+00 0.  1.
         -4   -1    0    0    0  501 -0.00000000000E+00 -0.00000000000E+00 -0.31082842738E+02  0.31108777100E+02  0.12700000000E+01 0.  1.
         25    2    1    2    0    0 -0.43331835568E+02  0.13483181083E+02  0.24779742266E+03  0.28122531236E+03  0.12499867796E+03 0.  0.
    9000005    1    3    3    0    0 -0.18227678118E+02  0.67198738676E+02  0.98913208379E+02  0.12096586924E+03  0.10000000000E+01 0.  0.
    9000005    1    3    3    0    0 -0.25104157451E+02 -0.53715557592E+02  0.14888421428E+03  0.16025944312E+03  0.10000000000E+01 0.  0.
         -4    1    1    2    0  502  0.43331835568E+02 -0.13483181083E+02  0.21445495229E+02  0.50209225362E+02  0.12700000000E+01 0. -1.
<mgrwt>
<rscale>  1 0.13298163E+03</rscale>
<asrwt>0</asrwt>
<pdfrwt beam="1">  1       21 0.46203961E-01 0.13298163E+03</pdfrwt>
<pdfrwt beam="2">  1       -4 0.47841775E-02 0.13298163E+03</pdfrwt>
<totfact> 0.46803100E+04</totfact>
</mgrwt>
</event>
<event>
 6    4  0.3995738E-003  0.1269110E+03  0.7818608E-02  0.1232113E+00
          4   -1    0    0  502    0 -0.00000000000E+00  0.00000000000E+00  0.62226892246E+03  0.62227021844E+03  0.12700000000E+01 0. -1.
         21   -1    0    0  501  502  0.00000000000E+00 -0.00000000000E+00 -0.68718131798E+02  0.68718131798E+02  0.00000000000E+00 0.  1.
         25    2    1    2    0    0  0.16127587748E+02 -0.14881287160E+02  0.61383738083E+03  0.62681952877E+03  0.12499935898E+03 0.  0.
    9000005    1    3    3    0    0 -0.40735472868E+02 -0.16696008784E+01  0.46733798285E+03  0.46911401230E+03  0.10000000000E+01 0.  0.
    9000005    1    3    3    0    0  0.56863060616E+02 -0.13211686281E+02  0.14649939798E+03  0.15770551647E+03  0.10000000000E+01 0.  0.
          4    1    1    2  501    0 -0.16127587748E+02  0.14881287160E+02 -0.60286590172E+02  0.64168821469E+02  0.12700000000E+01 0.  1.
<mgrwt>
<rscale>  1 0.12691096E+03</rscale>
<asrwt>0</asrwt>
<pdfrwt beam="2">  1       21 0.10572021E-01 0.12691096E+03</pdfrwt>
<pdfrwt beam="1">  1        4 0.95734679E-01 0.12691096E+03</pdfrwt>
<totfact> 0.28628567E+03</totfact>
</mgrwt>
</event>
<event>
 6    4  0.3995738E-003  0.1275105E+03  0.7818608E-02  0.1231197E+00
          4   -1    0    0  502    0 -0.00000000000E+00  0.00000000000E+00  0.21924663654E+02  0.21961415627E+02  0.12700000000E+01 0. -1.
         21   -1    0    0  501  502  0.00000000000E+00 -0.00000000000E+00 -0.32086261697E+03  0.32086261697E+03  0.00000000000E+00 0. -1.
         25    2    1    2    0    0 -0.24034516171E+02  0.75188331580E+01 -0.17605375710E+03  0.21737950541E+03  0.12499893266E+03 0.  0.
    9000005    1    3    3    0    0  0.45455885767E+02  0.29966475797E+02 -0.77273264803E+02  0.94532453030E+02  0.10000000000E+01 0.  0.
    9000005    1    3    3    0    0 -0.69490401938E+02 -0.22447642639E+02 -0.98780492295E+02  0.12284705238E+03  0.10000000000E+01 0.  0.
          4    1    1    2  501    0  0.24034516171E+02 -0.75188331580E+01 -0.12288419622E+03  0.12544452718E+03  0.12700000000E+01 0.  1.
<mgrwt>
<rscale>  1 0.12751049E+03</rscale>
<asrwt>0</asrwt>
<pdfrwt beam="2">  1       21 0.49363475E-01 0.12751049E+03</pdfrwt>
<pdfrwt beam="1">  1        4 0.33760459E-02 0.12751049E+03</pdfrwt>
<totfact> 0.70739912E+04</totfact>
</mgrwt>
</event>
<event>
 6    4  0.3995738E-003  0.1298008E+03  0.7818608E-02  0.1227752E+00
         21   -1    0    0  501  502  0.00000000000E+00  0.00000000000E+00  0.71284515229E+03  0.71284515229E+03  0.00000000000E+00 0.  1.
         -4   -1    0    0    0  501 -0.00000000000E+00 -0.00000000000E+00 -0.10640478017E+02  0.10716000767E+02  0.12700000000E+01 0.  1.
         25    2    1    2    0    0  0.33808966066E+02  0.89095131733E+01  0.43135825403E+03  0.45046442684E+03  0.12500332363E+03 0.  0.
    9000005    1    3    3    0    0  0.61064667928E+02 -0.14029408946E+02  0.39354920851E+03  0.39850683495E+03  0.10000000000E+01 0.  0.
    9000005    1    3    3    0    0 -0.27255701862E+02  0.22938922119E+02  0.37809045527E+02  0.51957591896E+02  0.10000000000E+01 0.  0.
         -4    1    1    2    0  502 -0.33808966066E+02 -0.89095131733E+01  0.27084642024E+03  0.27309672621E+03  0.12700000000E+01 0. -1.
<mgrwt>
<rscale>  1 0.12980083E+03</rscale>
<asrwt>0</asrwt>
<pdfrwt beam="1">  1       21 0.10966845E+00 0.12980083E+03</pdfrwt>
<pdfrwt beam="2">  1       -4 0.16428937E-02 0.12980083E+03</pdfrwt>
<totfact> 0.37122595E+04</totfact>
</mgrwt>
</event>
<event>
 6    4  0.3995738E-003  0.1401819E+03  0.7818608E-02  0.1213084E+00
         -4   -1    0    0    0  501 -0.00000000000E+00  0.00000000000E+00  0.60218764989E+02  0.60232155506E+02  0.12700000000E+01 0. -1.
         21   -1    0    0  501  502  0.00000000000E+00 -0.00000000000E+00 -0.23748404794E+03  0.23748404794E+03  0.00000000000E+00 0.  1.
         25    2    1    2    0    0  0.52974588967E+02  0.35024884696E+02 -0.38917887212E+02  0.14548393212E+03  0.12497168854E+03 0.  0.
    9000005    1    3    3    0    0  0.82197416398E+02 -0.11277219807E+02 -0.36561084167E+02  0.90671405771E+02  0.10000000000E+01 0.  0.
    9000005    1    3    3    0    0 -0.29222827431E+02  0.46302104504E+02 -0.23568030451E+01  0.54812526352E+02  0.10000000000E+01 0.  0.
         -4    1    1    2    0  502 -0.52974588967E+02 -0.35024884696E+02 -0.13834739573E+03  0.15223227132E+03  0.12700000000E+01 0.  1.
<mgrwt>
<rscale>  1 0.14018193E+03</rscale>
<asrwt>0</asrwt>
<pdfrwt beam="2">  1       21 0.36536008E-01 0.14018193E+03</pdfrwt>
<pdfrwt beam="1">  1       -4 0.92657166E-02 0.14018193E+03</pdfrwt>
<totfact> 0.25552093E+04</totfact>
</mgrwt>
</event>
<event>
 6    4  0.3995738E-003  0.1287292E+03  0.7818608E-02  0.1229354E+00
         -4   -1    0    0    0  501 -0.00000000000E+00  0.00000000000E+00  0.68552230401E+03  0.68552348041E+03  0.12700000000E+01 0.  1.
         21   -1    0    0  501  502  0.00000000000E+00 -0.00000000000E+00 -0.20236415609E+02  0.20236415609E+02  0.00000000000E+00 0. -1.
         25    2    1    2    0    0  0.10299397134E+02  0.28986878503E+02  0.66244942133E+03  0.67484104818E+03  0.12499955110E+03 0.  0.
    9000005    1    3    3    0    0 -0.50305971420E+02  0.24706125548E+02  0.17857082938E+03  0.18716202741E+03  0.10000000000E+01 0.  0.
    9000005    1    3    3    0    0  0.60605368553E+02  0.42807529549E+01  0.48387859195E+03  0.48767902077E+03  0.10000000000E+01 0.  0.
         -4    1    1    2    0  502 -0.10299397134E+02 -0.28986878503E+02  0.28364670723E+01  0.30918847846E+02  0.12700000000E+01 0. -1.
<mgrwt>
<rscale>  1 0.12872919E+03</rscale>
<asrwt>0</asrwt>
<pdfrwt beam="2">  1       21 0.31132952E-02 0.12872919E+03</pdfrwt>
<pdfrwt beam="1">  1       -4 0.10546811E+00 0.12872919E+03</pdfrwt>
<totfact> 0.18171522E+04</totfact>
</mgrwt>
</event>
<event>
 6    4  0.3995738E-003  0.1279991E+03  0.7818608E-02  0.1230455E+00
          4   -1    0    0  502    0 -0.00000000000E+00  0.00000000000E+00  0.69799239911E+02  0.69810792806E+02  0.12700000000E+01 0. -1.
         21   -1    0    0  501  502  0.00000000000E+00 -0.00000000000E+00 -0.18900882349E+03  0.18900882349E+03  0.00000000000E+00 0. -1.
         25    2    1    2    0    0  0.19418035178E+02 -0.19536390541E+02  0.83908257376E+01  0.12827380823E+03  0.12500013310E+03 0.  0.
    9000005    1    3    3    0    0 -0.25575384661E+02  0.31261431319E+02 -0.29980483342E+02  0.50311099870E+02  0.10000000000E+01 0.  0.
    9000005    1    3    3    0    0  0.44993419839E+02 -0.50797821860E+02  0.38371309080E+02  0.77962708361E+02  0.10000000000E+01 0.  0.
          4    1    1    2  501    0 -0.19418035178E+02  0.19536390541E+02 -0.12760040932E+03  0.13054580807E+03  0.12700000000E+01 0.  1.
<mgrwt>
<rscale>  1 0.12799908E+03</rscale>
<asrwt>0</asrwt>
<pdfrwt beam="2">  1       21 0.29078280E-01 0.12799908E+03</pdfrwt>
<pdfrwt beam="1">  1        4 0.10739562E-01 0.12799908E+03</pdfrwt>
<totfact> 0.30820812E+04</totfact>
</mgrwt>
</event>
<event>
 6    4  0.3995738E-003  0.1275222E+03  0.7818608E-02  0.1231179E+00
         21   -1    0    0  501  502  0.00000000000E+00  0.00000000000E+00  0.14981400705E+03  0.14981400705E+03  0.00000000000E+00 0.  1.
         -4   -1    0    0    0  501 -0.00000000000E+00 -0.00000000000E+00 -0.76446160957E+02  0.76456709484E+02  0.12700000000E+01 0.  1.
         25    2    1    2    0    0 -0.21789079827E+02  0.12688281684E+02 -0.20417884691E+02  0.12914640088E+03  0.12500458533E+03 0.  0.
    9000005    1    3    3    0    0 -0.23870027414E+02  0.27629341039E+02 -0.69105920217E+02  0.78165125881E+02  0.10000000000E+01 0.  0.
    9000005    1    3    3    0    0  0.20809475865E+01 -0.14941059354E+02  0.48688035526E+02  0.50981275002E+02  0.10000000000E+01 0.  0.
         -4    1    1    2    0  502  0.21789079827E+02 -0.12688281684E+02  0.93785730785E+02  0.97124315652E+02  0.12700000000E+01 0. -1.
<mgrwt>
<rscale>  1 0.12752217E+03</rscale>
<asrwt>0</asrwt>
<pdfrwt beam="1">  1       21 0.23048309E-01 0.12752217E+03</pdfrwt>
<pdfrwt beam="2">  1       -4 0.11762173E-01 0.12752217E+03</pdfrwt>
<totfact> 0.41020464E+04</totfact>
</mgrwt>
</event>
<event>
 6    4  0.3995738E-003  0.1290495E+03  0.7818608E-02  0.1228873E+00
         21   -1    0    0  501  502  0.00000000000E+00  0.00000000000E+00  0.18753871317E+02  0.18753871317E+02  0.00000000000E+00 0.  1.
          4   -1    0    0  502    0 -0.00000000000E+00 -0.00000000000E+00 -0.38467634239E+03  0.38467843883E+03  0.12700000000E+01 0.  1.
         25    2    1    2    0    0  0.29937377255E+02 -0.11491829614E+02 -0.33444695761E+03  0.35848089690E+03  0.12500190911E+03 0.  0.
    9000005    1    3    3    0    0 -0.57514503476E+01 -0.60406163286E+02 -0.10599685899E+03  0.12214056599E+03  0.10000000000E+01 0.  0.
    9000005    1    3    3    0    0  0.35688827603E+02  0.48914333672E+02 -0.22845009862E+03  0.23634033091E+03  0.10000000000E+01 0.  0.
          4    1    1    2  501    0 -0.29937377255E+02  0.11491829614E+02 -0.31475513464E+02  0.44951413244E+02  0.12700000000E+01 0. -1.
<mgrwt>
<rscale>  1 0.12904955E+03</rscale>
<asrwt>0</asrwt>
<pdfrwt beam="1">  1       21 0.28852113E-02 0.12904955E+03</pdfrwt>
<pdfrwt beam="2">  1        4 0.59184438E-01 0.12904955E+03</pdfrwt>
<totfact> 0.73683479E+04</totfact>
</mgrwt>
</event>
<event>
 6    4  0.3995738E-003  0.1269195E+03  0.7818608E-02  0.1232100E+00
          4   -1    0    0  502    0 -0.00000000000E+00  0.00000000000E+00  0.14760243047E+03  0.14760789403E+03  0.12700000000E+01 0.  1.
         21   -1    0    0  501  502  0.00000000000E+00 -0.00000000000E+00 -0.46216843330E+02  0.46216843330E+02  0.00000000000E+00 0.  1.
         25    2    1    2    0    0  0.12020712260E+02  0.18417641117E+02  0.11209140534E+03  0.16933117758E+03  0.12499943008E+03 0.  0.
    9000005    1    3    3    0    0  0.43291050257E+02  0.28690832987E+02 -0.57800699736E+00  0.51948176310E+02  0.10000000000E+01 0.  0.
    9000005    1    3    3    0    0 -0.31270337997E+02 -0.10273191870E+02  0.11266941234E+03  0.11738300127E+03  0.10000000000E+01 0.  0.
          4    1    1    2  501    0 -0.12020712260E+02 -0.18417641117E+02 -0.10705818203E+02  0.24493559785E+02  0.12700000000E+01 0. -1.
<mgrwt>
<rscale>  1 0.12691952E+03</rscale>
<asrwt>0</asrwt>
<pdfrwt beam="2">  1       21 0.71102837E-02 0.12691952E+03</pdfrwt>
<pdfrwt beam="1">  1        4 0.22709828E-01 0.12691952E+03</pdfrwt>
<totfact> 0.10493841E+05</totfact>
</mgrwt>
</event>
<event>
 6    4  0.3995738E-003  0.1274426E+03  0.7818608E-02  0.1231301E+00
         21   -1    0    0  501  502  0.00000000000E+00  0.00000000000E+00  0.30244940431E+02  0.30244940431E+02  0.00000000000E+00 0. -1.
         -4   -1    0    0    0  501 -0.00000000000E+00 -0.00000000000E+00 -0.19213166950E+03  0.19213586684E+03  0.12700000000E+01 0. -1.
         25    2    1    2    0    0 -0.22795545054E+02  0.98440048949E+01 -0.13912163825E+03  0.18867022189E+03  0.12500032436E+03 0.  0.
    9000005    1    3    3    0    0 -0.13007676960E+02 -0.80456540231E+01 -0.15925817520E+03  0.15999405794E+03  0.10000000000E+01 0.  0.
    9000005    1    3    3    0    0 -0.97878680931E+01  0.17889658918E+02  0.20136536953E+02  0.28676163943E+02  0.10000000000E+01 0.  0.
         -4    1    1    2    0  502  0.22795545054E+02 -0.98440048949E+01 -0.22765090819E+02  0.33710585380E+02  0.12700000000E+01 0.  1.
<mgrwt>
<rscale>  1 0.12744262E+03</rscale>
<asrwt>0</asrwt>
<pdfrwt beam="1">  1       21 0.46530678E-02 0.12744262E+03</pdfrwt>
<pdfrwt beam="2">  1       -4 0.29561092E-01 0.12744262E+03</pdfrwt>
<totfact> 0.13201115E+05</totfact>
</mgrwt>
</event>
<event>
 6    4  0.3995738E-003  0.1396447E+03  0.7818608E-02  0.1213808E+00
         21   -1    0    0  501  502  0.00000000000E+00  0.00000000000E+00  0.26984630789E+03  0.26984630789E+03  0.00000000000E+00 0.  1.
         -4   -1    0    0    0  501 -0.00000000000E+00 -0.00000000000E+00 -0.49464946674E+02  0.49481247452E+02  0.12700000000E+01 0. -1.
         25    2    1    2    0    0  0.61373691526E+02 -0.10327769960E+02  0.69237998150E+02  0.15586709547E+03  0.12500903254E+03 0.  0.
    9000005    1    3    3    0    0 -0.29467787760E+02 -0.12639457393E+02  0.55295620974E+02  0.63927397081E+02  0.10000000000E+01 0.  0.
    9000005    1    3    3    0    0  0.90841479287E+02  0.23116874331E+01  0.13942377176E+02  0.91939698385E+02  0.10000000000E+01 0.  0.
         -4    1    1    2    0  502 -0.61373691526E+02  0.10327769960E+02  0.15114336306E+03  0.16346045987E+03  0.12700000000E+01 0.  1.
<mgrwt>
<rscale>  1 0.13964473E+03</rscale>
<asrwt>0</asrwt>
<pdfrwt beam="1">  1       21 0.41514816E-01 0.13964473E+03</pdfrwt>
<pdfrwt beam="2">  1       -4 0.76114757E-02 0.13964473E+03</pdfrwt>
<totfact> 0.27454587E+04</totfact>
</mgrwt>
</event>
<event>
 6    4  0.3995738E-003  0.1302280E+03  0.7818608E-02  0.1227118E+00
         21   -1    0    0  501  502  0.00000000000E+00  0.00000000000E+00  0.19742598528E+03  0.19742598528E+03  0.00000000000E+00 0.  1.
          4   -1    0    0  502    0 -0.00000000000E+00 -0.00000000000E+00 -0.35826529948E+02  0.35849032736E+02  0.12700000000E+01 0.  1.
         25    2    1    2    0    0  0.25004525317E+02  0.26626316704E+02  0.13812921431E+03  0.18983940888E+03  0.12500053716E+03 0.  0.
    9000005    1    3    3    0    0 -0.17585910068E+02 -0.12648656017E+02  0.12944468722E+03  0.13124854202E+03  0.10000000000E+01 0.  0.
    9000005    1    3    3    0    0  0.42590435385E+02  0.39274972721E+02  0.86845270831E+01  0.58590866858E+02  0.10000000000E+01 0.  0.
          4    1    1    2  501    0 -0.25004525317E+02 -0.26626316704E+02  0.23470241028E+02  0.43435609141E+02  0.12700000000E+01 0. -1.
<mgrwt>
<rscale>  1 0.13022796E+03</rscale>
<asrwt>0</asrwt>
<pdfrwt beam="1">  1       21 0.30373228E-01 0.13022796E+03</pdfrwt>
<pdfrwt beam="2">  1        4 0.55138192E-02 0.13022796E+03</pdfrwt>
<totfact> 0.85402626E+04</totfact>
</mgrwt>
</event>
<event>
 6    4  0.3995738E-003  0.1296681E+03  0.7818608E-02  0.1227949E+00
         21   -1    0    0  501  502  0.00000000000E+00  0.00000000000E+00  0.10612882047E+04  0.10612882047E+04  0.00000000000E+00 0. -1.
          4   -1    0    0  502    0 -0.00000000000E+00 -0.00000000000E+00 -0.15435828356E+02  0.15487985570E+02  0.12700000000E+01 0.  1.
         25    2    1    2    0    0 -0.16104846462E+02 -0.30481684970E+02  0.26362998083E+03  0.29379343941E+03  0.12500127620E+03 0.  0.
    9000005    1    3    3    0    0 -0.31519023211E+02 -0.16699289235E+02  0.26983328802E+03  0.27218250937E+03  0.10000000000E+01 0.  0.
    9000005    1    3    3    0    0  0.15414176748E+02 -0.13782395735E+02 -0.62033071900E+01  0.21610930038E+02  0.10000000000E+01 0.  0.
          4    1    1    2  501    0  0.16104846462E+02  0.30481684970E+02  0.78222239550E+03  0.78298275084E+03  0.12700000000E+01 0. -1.
<mgrwt>
<rscale>  1 0.12966811E+03</rscale>
<asrwt>0</asrwt>
<pdfrwt beam="1">  1       21 0.16327505E+00 0.12966811E+03</pdfrwt>
<pdfrwt beam="2">  1        4 0.23788142E-02 0.12966811E+03</pdfrwt>
<totfact> 0.77224653E+03</totfact>
</mgrwt>
</event>
<event>
 6    4  0.3995738E-003  0.1277658E+03  0.7818608E-02  0.1230809E+00
         21   -1    0    0  501  502  0.00000000000E+00  0.00000000000E+00  0.10828785385E+02  0.10828785385E+02  0.00000000000E+00 0.  1.
          4   -1    0    0  502    0 -0.00000000000E+00 -0.00000000000E+00 -0.61243664066E+03  0.61243795744E+03  0.12700000000E+01 0.  1.
         25    2    1    2    0    0 -0.25436530249E+02 -0.71512002674E+01 -0.55646419563E+03  0.57094352005E+03  0.12500378127E+03 0.  0.
    9000005    1    3    3    0    0 -0.12765999853E+02 -0.24351675197E+02 -0.19905727688E+02  0.33958987499E+02  0.10000000000E+01 0.  0.
    9000005    1    3    3    0    0 -0.12670530396E+02  0.17200474930E+02 -0.53655846794E+03  0.53698453255E+03  0.10000000000E+01 0.  0.
          4    1    1    2  501    0  0.25436530249E+02  0.71512002674E+01 -0.45143659645E+02  0.52323222784E+02  0.12700000000E+01 0. -1.
<mgrwt>
<rscale>  1 0.12776581E+03</rscale>
<asrwt>0</asrwt>
<pdfrwt beam="1">  1       21 0.16659674E-02 0.12776581E+03</pdfrwt>
<pdfrwt beam="2">  1        4 0.94226829E-01 0.12776581E+03</pdfrwt>
<totfact> 0.64914461E+04</totfact>
</mgrwt>
</event>
<event>
 6    4  0.3995738E-003  0.1279916E+03  0.7818608E-02  0.1230467E+00
         21   -1    0    0  501  502  0.00000000000E+00  0.00000000000E+00  0.21913993462E+03  0.21913993462E+03  0.00000000000E+00 0. -1.
         -4   -1    0    0    0  501 -0.00000000000E+00 -0.00000000000E+00 -0.35145575596E+02  0.35168514100E+02  0.12700000000E+01 0.  1.
         25    2    1    2    0    0  0.63874674408E+01 -0.26818541567E+02  0.90314172319E+02  0.15664768795E+03  0.12498725738E+03 0.  0.
    9000005    1    3    3    0    0  0.53217152587E+02 -0.12137827850E+02  0.92613773099E+02  0.10750675868E+03  0.10000000000E+01 0.  0.
    9000005    1    3    3    0    0 -0.46829685146E+02 -0.14680713718E+02 -0.22996007802E+01  0.49140929274E+02  0.10000000000E+01 0.  0.
         -4    1    1    2    0  502 -0.63874674408E+01  0.26818541567E+02  0.93680186705E+02  0.97660760765E+02  0.12700000000E+01 0. -1.
<mgrwt>
<rscale>  1 0.12799160E+03</rscale>
<asrwt>0</asrwt>
<pdfrwt beam="1">  1       21 0.33713835E-01 0.12799160E+03</pdfrwt>
<pdfrwt beam="2">  1       -4 0.54090593E-02 0.12799160E+03</pdfrwt>
<totfact> 0.71762028E+04</totfact>
</mgrwt>
</event>
<event>
 6    4  0.3995738E-003  0.1282392E+03  0.7818608E-02  0.1230092E+00
         21   -1    0    0  501  502  0.00000000000E+00  0.00000000000E+00  0.92731229719E+02  0.92731229719E+02  0.00000000000E+00 0. -1.
         -4   -1    0    0    0  501 -0.00000000000E+00 -0.00000000000E+00 -0.81905302486E+02  0.81915148021E+02  0.12700000000E+01 0.  1.
         25    2    1    2    0    0  0.23810025503E+02 -0.15947989935E+02 -0.23009939289E+02  0.13028722467E+03  0.12499619158E+03 0.  0.
    9000005    1    3    3    0    0 -0.40707540605E+02  0.66452208591E+01 -0.42463900870E+02  0.59206804503E+02  0.10000000000E+01 0.  0.
    9000005    1    3    3    0    0  0.64517566108E+02 -0.22593210794E+02  0.19453961580E+02  0.71080420171E+02  0.10000000000E+01 0.  0.
         -4    1    1    2    0  502 -0.23810025503E+02  0.15947989935E+02  0.33835866523E+02  0.44359153067E+02  0.12700000000E+01 0. -1.
<mgrwt>
<rscale>  1 0.12823924E+03</rscale>
<asrwt>0</asrwt>
<pdfrwt beam="1">  1       21 0.14266343E-01 0.12823924E+03</pdfrwt>
<pdfrwt beam="2">  1       -4 0.12602242E-01 0.12823924E+03</pdfrwt>
<totfact> 0.87870719E+04</totfact>
</mgrwt>
</event>
<event>
 6    4  0.3995738E-003  0.1271042E+03  0.7818608E-02  0.1231817E+00
         21   -1    0    0  501  502  0.00000000000E+00  0.00000000000E+00  0.25921845029E+03  0.25921845029E+03  0.00000000000E+00 0. -1.
          4   -1    0    0  502    0 -0.00000000000E+00 -0.00000000000E+00 -0.65569961341E+02  0.65582259265E+02  0.12700000000E+01 0.  1.
         25    2    1    2    0    0 -0.22783528062E+02 -0.33568681908E+01 -0.26697814652E+01  0.12713221456E+03  0.12500045812E+03 0.  0.
    9000005    1    3    3    0    0  0.23392292526E+02 -0.22120444397E+02  0.46856832411E+02  0.56860145564E+02  0.10000000000E+01 0.  0.
    9000005    1    3    3    0    0 -0.46175820588E+02  0.18763576207E+02 -0.49526613877E+02  0.70272068997E+02  0.10000000000E+01 0.  0.
          4    1    1    2  501    0  0.22783528062E+02  0.33568681908E+01  0.19631827042E+03  0.19766849500E+03  0.12700000000E+01 0. -1.
<mgrwt>
<rscale>  1 0.12710418E+03</rscale>
<asrwt>0</asrwt>
<pdfrwt beam="1">  1       21 0.39879761E-01 0.12710418E+03</pdfrwt>
<pdfrwt beam="2">  1        4 0.10088872E-01 0.12710418E+03</pdfrwt>
<totfact> 0.18440419E+04</totfact>
</mgrwt>
</event>
<event>
 6    4  0.3995738E-003  0.1292297E+03  0.7818608E-02  0.1228603E+00
         21   -1    0    0  501  502  0.00000000000E+00  0.00000000000E+00  0.85029616105E+02  0.85029616105E+02  0.00000000000E+00 0.  1.
          4   -1    0    0  502    0 -0.00000000000E+00 -0.00000000000E+00 -0.16956300320E+03  0.16956775918E+03  0.12700000000E+01 0. -1.
         25    2    1    2    0    0  0.14337824970E+02 -0.29498139343E+02 -0.13976195029E+03  0.19035159299E+03  0.12499845101E+03 0.  0.
    9000005    1    3    3    0    0 -0.33617904124E+02  0.10596767073E+01  0.57344998107E+01  0.34134599463E+02  0.10000000000E+01 0.  0.
    9000005    1    3    3    0    0  0.47955729094E+02 -0.30557816050E+02 -0.14549645010E+03  0.15621699353E+03  0.10000000000E+01 0.  0.
          4    1    1    2  501    0 -0.14337824970E+02  0.29498139343E+02  0.55228563198E+02  0.64245782294E+02  0.12700000000E+01 0.  1.
<mgrwt>
<rscale>  1 0.12922974E+03</rscale>
<asrwt>0</asrwt>
<pdfrwt beam="1">  1       21 0.13081480E-01 0.12922974E+03</pdfrwt>
<pdfrwt beam="2">  1        4 0.26087711E-01 0.12922974E+03</pdfrwt>
<totfact> 0.28126644E+04</totfact>
</mgrwt>
</event>
<event>
 6    4  0.3995738E-003  0.1268468E+03  0.7818608E-02  0.1232211E+00
         -4   -1    0    0    0  501 -0.00000000000E+00  0.00000000000E+00  0.97081756602E+03  0.97081839671E+03  0.12700000000E+01 0.  1.
         21   -1    0    0  501  502  0.00000000000E+00 -0.00000000000E+00 -0.91625678081E+01  0.91625678081E+01  0.00000000000E+00 0. -1.
         25    2    1    2    0    0 -0.19455851892E+02  0.92924914780E+01  0.94284633362E+03  0.95134079457E+03  0.12500087211E+03 0.  0.
    9000005    1    3    3    0    0  0.51135571611E+02 -0.35471766561E+01  0.51193663065E+03  0.51449736923E+03  0.10000000000E+01 0.  0.
    9000005    1    3    3    0    0 -0.70591423503E+02  0.12839668134E+02  0.43090970297E+03  0.43684342535E+03  0.10000000000E+01 0.  0.
         -4    1    1    2    0  502  0.19455851892E+02 -0.92924914780E+01  0.18808664588E+02  0.28640169942E+02  0.12700000000E+01 0. -1.
<mgrwt>
<rscale>  1 0.12684675E+03</rscale>
<asrwt>0</asrwt>
<pdfrwt beam="2">  1       21 0.14096266E-02 0.12684675E+03</pdfrwt>
<pdfrwt beam="1">  1       -4 0.14936330E+00 0.12684675E+03</pdfrwt>
<totfact> 0.28056969E+04</totfact>
</mgrwt>
</event>
<event>
 6    4  0.3995738E-003  0.1431657E+03  0.7818608E-02  0.1209132E+00
         21   -1    0    0  501  502  0.00000000000E+00  0.00000000000E+00  0.22690520104E+03  0.22690520104E+03  0.00000000000E+00 0. -1.
         -4   -1    0    0    0  501 -0.00000000000E+00 -0.00000000000E+00 -0.60948201144E+02  0.60961431436E+02  0.12700000000E+01 0.  1.
         25    2    1    2    0    0 -0.24545907523E+02 -0.65335520745E+02  0.48362164398E+02  0.15111360661E+03  0.12500076524E+03 0.  0.
    9000005    1    3    3    0    0 -0.15530073340E+02 -0.18030548130E+01  0.78617045783E+02  0.80162797308E+02  0.10000000000E+01 0.  0.
    9000005    1    3    3    0    0 -0.90158341834E+01 -0.63532465932E+02 -0.30254881384E+02  0.70950809305E+02  0.10000000000E+01 0.  0.
         -4    1    1    2    0  502  0.24545907523E+02  0.65335520745E+02  0.11759483550E+03  0.13675302586E+03  0.12700000000E+01 0. -1.
<mgrwt>
<rscale>  1 0.14316572E+03</rscale>
<asrwt>0</asrwt>
<pdfrwt beam="1">  1       21 0.34908492E-01 0.14316572E+03</pdfrwt>
<pdfrwt beam="2">  1       -4 0.93779375E-02 0.14316572E+03</pdfrwt>
<totfact> 0.27452864E+04</totfact>
</mgrwt>
</event>
<event>
 6    4  0.3995738E-003  0.1291260E+03  0.7818608E-02  0.1228758E+00
          4   -1    0    0  502    0 -0.00000000000E+00  0.00000000000E+00  0.72545769343E+02  0.72556884922E+02  0.12700000000E+01 0.  1.
         21   -1    0    0  501  502  0.00000000000E+00 -0.00000000000E+00 -0.11680133523E+03  0.11680133523E+03  0.00000000000E+00 0.  1.
         25    2    1    2    0    0  0.16183798210E+02 -0.28045034316E+02  0.63329772908E+01  0.12928116234E+03  0.12500029224E+03 0.  0.
    9000005    1    3    3    0    0 -0.26150615364E+02  0.60215279968E+01 -0.46364328981E+02  0.53579515537E+02  0.10000000000E+01 0.  0.
    9000005    1    3    3    0    0  0.42334413574E+02 -0.34066562313E+02  0.52697306272E+02  0.75701646804E+02  0.10000000000E+01 0.  0.
          4    1    1    2  501    0 -0.16183798210E+02  0.28045034316E+02 -0.50588543179E+02  0.60077057811E+02  0.12700000000E+01 0. -1.
<mgrwt>
<rscale>  1 0.12912596E+03</rscale>
<asrwt>0</asrwt>
<pdfrwt beam="2">  1       21 0.17969436E-01 0.12912596E+03</pdfrwt>
<pdfrwt beam="1">  1        4 0.11162274E-01 0.12912596E+03</pdfrwt>
<totfact> 0.71211051E+04</totfact>
</mgrwt>
</event>
<event>
 6    4  0.3995738E-003  0.1310357E+03  0.7818608E-02  0.1225927E+00
         21   -1    0    0  501  502  0.00000000000E+00  0.00000000000E+00  0.26660405468E+03  0.26660405468E+03  0.00000000000E+00 0. -1.
          4   -1    0    0  502    0 -0.00000000000E+00 -0.00000000000E+00 -0.44951333218E+02  0.44969270152E+02  0.12700000000E+01 0.  1.
         25    2    1    2    0    0  0.15100631728E+02  0.36259539051E+02  0.58052705238E+02  0.14331946467E+03  0.12501027605E+03 0.  0.
    9000005    1    3    3    0    0  0.20457951224E+02 -0.42278345432E+02  0.26517677826E+01  0.47053354112E+02  0.10000000000E+01 0.  0.
    9000005    1    3    3    0    0 -0.53573194968E+01  0.78537884483E+02  0.55400937456E+02  0.96266110559E+02  0.10000000000E+01 0.  0.
          4    1    1    2  501    0 -0.15100631728E+02 -0.36259539051E+02  0.16360001623E+03  0.16825386017E+03  0.12700000000E+01 0. -1.
<mgrwt>
<rscale>  1 0.13103569E+03</rscale>
<asrwt>0</asrwt>
<pdfrwt beam="1">  1       21 0.41016008E-01 0.13103569E+03</pdfrwt>
<pdfrwt beam="2">  1        4 0.69172023E-02 0.13103569E+03</pdfrwt>
<totfact> 0.32721195E+04</totfact>
</mgrwt>
</event>
<event>
 6    4  0.3995738E-003  0.1285125E+03  0.7818608E-02  0.1229680E+00
         -4   -1    0    0    0  501 -0.00000000000E+00  0.00000000000E+00  0.14813490063E+02  0.14867830637E+02  0.12700000000E+01 0. -1.
         21   -1    0    0  501  502  0.00000000000E+00 -0.00000000000E+00 -0.50562952683E+03  0.50562952683E+03  0.00000000000E+00 0.  1.
         25    2    1    2    0    0  0.27770184199E+02  0.10921368435E+02 -0.28640854701E+03  0.31391929913E+03  0.12500004458E+03 0.  0.
    9000005    1    3    3    0    0  0.31352684821E+02 -0.18155775537E+02 -0.28194776449E+03  0.28426776978E+03  0.10000000000E+01 0.  0.
    9000005    1    3    3    0    0 -0.35825006220E+01  0.29077143973E+02 -0.44607825203E+01  0.29651529354E+02  0.10000000000E+01 0.  0.
         -4    1    1    2    0  502 -0.27770184199E+02 -0.10921368435E+02 -0.20440748976E+03  0.20657805834E+03  0.12700000000E+01 0.  1.
<mgrwt>
<rscale>  1 0.12851253E+03</rscale>
<asrwt>0</asrwt>
<pdfrwt beam="2">  1       21 0.77789152E-01 0.12851253E+03</pdfrwt>
<pdfrwt beam="1">  1       -4 0.22833014E-02 0.12851253E+03</pdfrwt>
<totfact> 0.49310886E+04</totfact>
</mgrwt>
</event>
<event>
 6    4  0.3995738E-003  0.1353892E+03  0.7818608E-02  0.1219671E+00
         21   -1    0    0  501  502  0.00000000000E+00  0.00000000000E+00  0.52431515236E+02  0.52431515236E+02  0.00000000000E+00 0.  1.
          4   -1    0    0  502    0 -0.00000000000E+00 -0.00000000000E+00 -0.38281287221E+03  0.38281497884E+03  0.12700000000E+01 0. -1.
         25    2    1    2    0    0 -0.97354531368E+01  0.51100759323E+02 -0.35332568383E+03  0.37837715536E+03  0.12499666473E+03 0.  0.
    9000005    1    3    3    0    0  0.57313682259E+02  0.15482904343E+02 -0.14848111450E+03  0.15991316351E+03  0.10000000000E+01 0.  0.
    9000005    1    3    3    0    0 -0.67049135395E+02  0.35617854980E+02 -0.20484456934E+03  0.21846399186E+03  0.10000000000E+01 0.  0.
          4    1    1    2  501    0  0.97354531368E+01 -0.51100759323E+02  0.22944326861E+02  0.56869338718E+02  0.12700000000E+01 0.  1.
<mgrwt>
<rscale>  1 0.13538919E+03</rscale>
<asrwt>0</asrwt>
<pdfrwt beam="1">  1       21 0.80663871E-02 0.13538919E+03</pdfrwt>
<pdfrwt beam="2">  1        4 0.58895632E-01 0.13538919E+03</pdfrwt>
<totfact> 0.13322626E+04</totfact>
</mgrwt>
</event>
<event>
 6    4  0.3995738E-003  0.1677747E+03  0.7818608E-02  0.1180188E+00
         21   -1    0    0  501  502  0.00000000000E+00  0.00000000000E+00  0.84227721838E+03  0.84227721838E+03  0.00000000000E+00 0.  1.
          4   -1    0    0  502    0 -0.00000000000E+00 -0.00000000000E+00 -0.30852743783E+02  0.30878871400E+02  0.12700000000E+01 0. -1.
         25    2    1    2    0    0  0.10958956528E+03 -0.22687742010E+02  0.25264664492E+03  0.30327989069E+03  0.12499503370E+03 0.  0.
    9000005    1    3    3    0    0  0.87937576691E+01 -0.34288730479E+02  0.16635429064E+03  0.17008173689E+03  0.10000000000E+01 0.  0.
    9000005    1    3    3    0    0  0.10079580761E+03  0.11600988469E+02  0.86292354284E+02  0.13319815379E+03  0.10000000000E+01 0.  0.
          4    1    1    2  501    0 -0.10958956528E+03  0.22687742010E+02  0.55877782968E+03  0.56987619910E+03  0.12700000000E+01 0.  1.
<mgrwt>
<rscale>  1 0.16777474E+03</rscale>
<asrwt>0</asrwt>
<pdfrwt beam="1">  1       21 0.12958109E+00 0.16777474E+03</pdfrwt>
<pdfrwt beam="2">  1        4 0.47486601E-02 0.16777474E+03</pdfrwt>
<totfact> 0.47516862E+03</totfact>
</mgrwt>
</event>
<event>
 6    4  0.3995738E-003  0.1295560E+03  0.7818608E-02  0.1228116E+00
         -4   -1    0    0    0  501 -0.00000000000E+00  0.00000000000E+00  0.24122124788E+03  0.24122459106E+03  0.12700000000E+01 0.  1.
         21   -1    0    0  501  502  0.00000000000E+00 -0.00000000000E+00 -0.59526668290E+02  0.59526668290E+02  0.00000000000E+00 0. -1.
         25    2    1    2    0    0  0.25406281616E+02 -0.22677067169E+02  0.21633257969E+03  0.25215977376E+03  0.12500015179E+03 0.  0.
    9000005    1    3    3    0    0  0.58156641914E+02 -0.52180437142E+02  0.17530876350E+03  0.19193529009E+03  0.10000000000E+01 0.  0.
    9000005    1    3    3    0    0 -0.32750360298E+02  0.29503369974E+02  0.41023816185E+02  0.60224483674E+02  0.10000000000E+01 0.  0.
         -4    1    1    2    0  502 -0.25406281616E+02  0.22677067169E+02 -0.34638000095E+02  0.48591485587E+02  0.12700000000E+01 0. -1.
<mgrwt>
<rscale>  1 0.12955604E+03</rscale>
<asrwt>0</asrwt>
<pdfrwt beam="2">  1       21 0.91579491E-02 0.12955604E+03</pdfrwt>
<pdfrwt beam="1">  1       -4 0.37112260E-01 0.12955604E+03</pdfrwt>
<totfact> 0.26999791E+04</totfact>
</mgrwt>
</event>
<event>
 6    4  0.3995738E-003  0.1271322E+03  0.7818608E-02  0.1231774E+00
         -4   -1    0    0    0  501 -0.00000000000E+00  0.00000000000E+00  0.85861613676E+01  0.86795775837E+01  0.12700000000E+01 0. -1.
         21   -1    0    0  501  502  0.00000000000E+00 -0.00000000000E+00 -0.80838461419E+03  0.80838461419E+03  0.00000000000E+00 0. -1.
         25    2    1    2    0    0 -0.12561738878E+02  0.19492026354E+02 -0.48418183411E+03  0.50059428912E+03  0.12499942979E+03 0.  0.
    9000005    1    3    3    0    0 -0.61259091324E+02  0.23868660713E+02 -0.16384839968E+03  0.17654939057E+03  0.10000000000E+01 0.  0.
    9000005    1    3    3    0    0  0.48697352446E+02 -0.43766343592E+01 -0.32033343443E+03  0.32404489855E+03  0.10000000000E+01 0.  0.
         -4    1    1    2    0  502  0.12561738878E+02 -0.19492026354E+02 -0.31561661871E+03  0.31646990265E+03  0.12700000000E+01 0. -1.
<mgrwt>
<rscale>  1 0.12713219E+03</rscale>
<asrwt>0</asrwt>
<pdfrwt beam="2">  1       21 0.12436683E+00 0.12713219E+03</pdfrwt>
<pdfrwt beam="1">  1       -4 0.13282109E-02 0.12713219E+03</pdfrwt>
<totfact> 0.37773096E+04</totfact>
</mgrwt>
</event>
<event>
 6    4  0.3995738E-003  0.1289263E+03  0.7818608E-02  0.1229058E+00
         -4   -1    0    0    0  501 -0.00000000000E+00  0.00000000000E+00  0.32481239105E+03  0.32481487386E+03  0.12700000000E+01 0. -1.
         21   -1    0    0  501  502  0.00000000000E+00 -0.00000000000E+00 -0.36336676158E+02  0.36336676158E+02  0.00000000000E+00 0.  1.
         25    2    1    2    0    0 -0.18450494790E+02  0.25630965622E+02  0.30077014879E+03  0.32723793680E+03  0.12499847088E+03 0.  0.
    9000005    1    3    3    0    0 -0.55669337648E+02  0.57369933871E+02  0.19122075740E+03  0.20726013251E+03  0.10000000000E+01 0.  0.
    9000005    1    3    3    0    0  0.37218842858E+02 -0.31738968249E+02  0.10954939138E+03  0.11997780429E+03  0.10000000000E+01 0.  0.
         -4    1    1    2    0  502  0.18450494790E+02 -0.25630965622E+02 -0.12294433895E+02  0.33913613218E+02  0.12700000000E+01 0.  1.
<mgrwt>
<rscale>  1 0.12892628E+03</rscale>
<asrwt>0</asrwt>
<pdfrwt beam="2">  1       21 0.55902581E-02 0.12892628E+03</pdfrwt>
<pdfrwt beam="1">  1       -4 0.49973033E-01 0.12892628E+03</pdfrwt>
<totfact> 0.34789029E+04</totfact>
</mgrwt>
</event>
<event>
 6    4  0.3995738E-003  0.1276294E+03  0.7818608E-02  0.1231016E+00
         21   -1    0    0  501  502  0.00000000000E+00  0.00000000000E+00  0.82580879673E+02  0.82580879673E+02  0.00000000000E+00 0.  1.
         -4   -1    0    0    0  501 -0.00000000000E+00 -0.00000000000E+00 -0.17730301911E+03  0.17730756748E+03  0.12700000000E+01 0.  1.
         25    2    1    2    0    0  0.25431462581E+02 -0.37000026773E+01 -0.15117619200E+03  0.19784715235E+03  0.12501522050E+03 0.  0.
    9000005    1    3    3    0    0 -0.41067675842E+02  0.31504994252E+02 -0.52255385097E+02  0.73557759166E+02  0.10000000000E+01 0.  0.
    9000005    1    3    3    0    0  0.66499138423E+02 -0.35204996930E+02 -0.98920806905E+02  0.12428939319E+03  0.10000000000E+01 0.  0.
         -4    1    1    2    0  502 -0.25431462581E+02  0.37000026773E+01  0.56454052568E+02  0.62041294797E+02  0.12700000000E+01 0. -1.
<mgrwt>
<rscale>  1 0.12762936E+03</rscale>
<asrwt>0</asrwt>
<pdfrwt beam="1">  1       21 0.12704751E-01 0.12762936E+03</pdfrwt>
<pdfrwt beam="2">  1       -4 0.27278489E-01 0.12762936E+03</pdfrwt>
<totfact> 0.27231526E+04</totfact>
</mgrwt>
</event>
<event>
 6    4  0.3995738E-003  0.1280838E+03  0.7818608E-02  0.1230327E+00
         21   -1    0    0  501  502  0.00000000000E+00  0.00000000000E+00  0.41443310231E+01  0.41443310231E+01  0.00000000000E+00 0. -1.
         -4   -1    0    0    0  501 -0.00000000000E+00 -0.00000000000E+00 -0.14757203307E+04  0.14757208772E+04  0.12700000000E+01 0. -1.
         25    2    1    2    0    0 -0.24289846349E+02  0.13805863167E+02 -0.12442830527E+04  0.12508580137E+04  0.12499942672E+03 0.  0.
    9000005    1    3    3    0    0  0.34082997550E+01  0.56301172693E+02 -0.98754652652E+03  0.98915649954E+03  0.10000000000E+01 0.  0.
    9000005    1    3    3    0    0 -0.27698146104E+02 -0.42495309526E+02 -0.25673652619E+03  0.26170151415E+03  0.10000000000E+01 0.  0.
         -4    1    1    2    0  502  0.24289846349E+02 -0.13805863167E+02 -0.22729294702E+03  0.22900719456E+03  0.12700000000E+01 0.  1.
<mgrwt>
<rscale>  1 0.12808378E+03</rscale>
<asrwt>0</asrwt>
<pdfrwt beam="1">  1       21 0.63759026E-03 0.12808378E+03</pdfrwt>
<pdfrwt beam="2">  1       -4 0.22704860E+00 0.12808378E+03</pdfrwt>
<totfact> 0.30749926E+04</totfact>
</mgrwt>
</event>
<event>
 6    4  0.3995738E-003  0.1290877E+03  0.7818608E-02  0.1228816E+00
          4   -1    0    0  502    0 -0.00000000000E+00  0.00000000000E+00  0.12358389655E+04  0.12358396180E+04  0.12700000000E+01 0. -1.
         21   -1    0    0  501  502  0.00000000000E+00 -0.00000000000E+00 -0.17419086015E+02  0.17419086015E+02  0.00000000000E+00 0.  1.
         25    2    1    2    0    0  0.29951144753E+02  0.11879583959E+02  0.12138450447E+04  0.12206897372E+04  0.12500178601E+03 0.  0.
    9000005    1    3    3    0    0 -0.12629238061E+02  0.30634236133E+02  0.10456395730E+04  0.10461649347E+04  0.10000000000E+01 0.  0.
    9000005    1    3    3    0    0  0.42580382814E+02 -0.18754652175E+02  0.16820547169E+03  0.17452480249E+03  0.10000000000E+01 0.  0.
          4    1    1    2  501    0 -0.29951144753E+02 -0.11879583959E+02  0.45748348043E+01  0.32568966833E+02  0.12700000000E+01 0.  1.
<mgrwt>
<rscale>  1 0.12908773E+03</rscale>
<asrwt>0</asrwt>
<pdfrwt beam="2">  1       21 0.26798604E-02 0.12908773E+03</pdfrwt>
<pdfrwt beam="1">  1        4 0.19013261E+00 0.12908773E+03</pdfrwt>
<totfact> 0.52615813E+03</totfact>
</mgrwt>
</event>
<event>
 6    4  0.3995738E-003  0.1299593E+03  0.7818608E-02  0.1227516E+00
         21   -1    0    0  501  502  0.00000000000E+00  0.00000000000E+00  0.12468670469E+03  0.12468670469E+03  0.00000000000E+00 0.  1.
          4   -1    0    0  502    0 -0.00000000000E+00 -0.00000000000E+00 -0.92962734755E+02  0.92971409331E+02  0.12700000000E+01 0.  1.
         25    2    1    2    0    0 -0.73287986353E+01 -0.34841268709E+02 -0.41335911120E+02  0.13637475524E+03  0.12498716344E+03 0.  0.
    9000005    1    3    3    0    0 -0.55002899664E+02  0.14481078588E+02 -0.36524477166E+02  0.67602204407E+02  0.10000000000E+01 0.  0.
    9000005    1    3    3    0    0  0.47674101028E+02 -0.49322347297E+02 -0.48114339539E+01  0.68772550836E+02  0.10000000000E+01 0.  0.
          4    1    1    2  501    0  0.73287986353E+01  0.34841268709E+02  0.73059881059E+02  0.81283358783E+02  0.12700000000E+01 0. -1.
<mgrwt>
<rscale>  1 0.12995929E+03</rscale>
<asrwt>0</asrwt>
<pdfrwt beam="1">  1       21 0.19182570E-01 0.12995929E+03</pdfrwt>
<pdfrwt beam="2">  1        4 0.14303124E-01 0.12995929E+03</pdfrwt>
<totfact> 0.41298419E+04</totfact>
</mgrwt>
</event>
<event>
 6    4  0.3995738E-003  0.1297074E+03  0.7818608E-02  0.1227891E+00
         21   -1    0    0  501  502  0.00000000000E+00  0.00000000000E+00  0.99622730987E+03  0.99622730987E+03  0.00000000000E+00 0.  1.
          4   -1    0    0  502    0 -0.00000000000E+00 -0.00000000000E+00 -0.14127608408E+02  0.14184576812E+02  0.12700000000E+01 0. -1.
         25    2    1    2    0    0  0.34320699234E+02  0.45821903555E+01  0.29281776596E+03  0.32025965248E+03  0.12500037632E+03 0.  0.
    9000005    1    3    3    0    0  0.57340548379E+02 -0.14739547064E+02  0.55866651154E+02  0.81408079742E+02  0.10000000000E+01 0.  0.
    9000005    1    3    3    0    0 -0.23019849145E+02  0.19321737420E+02  0.23695111481E+03  0.23885157274E+03  0.10000000000E+01 0.  0.
          4    1    1    2  501    0 -0.34320699234E+02 -0.45821903555E+01  0.68928193550E+03  0.69015223420E+03  0.12700000000E+01 0.  1.
<mgrwt>
<rscale>  1 0.12970737E+03</rscale>
<asrwt>0</asrwt>
<pdfrwt beam="1">  1       21 0.15326568E+00 0.12970737E+03</pdfrwt>
<pdfrwt beam="2">  1        4 0.21779235E-02 0.12970737E+03</pdfrwt>
<totfact> 0.10460767E+04</totfact>
</mgrwt>
</event>
<event>
 6    4  0.3995738E-003  0.1728898E+03  0.7818608E-02  0.1174867E+00
         21   -1    0    0  501  502  0.00000000000E+00  0.00000000000E+00  0.20133399040E+03  0.20133399040E+03  0.00000000000E+00 0.  1.
         -4   -1    0    0    0  501 -0.00000000000E+00 -0.00000000000E+00 -0.11282473619E+03  0.11283188378E+03  0.12700000000E+01 0. -1.
         25    2    1    2    0    0 -0.63315748382E+02  0.10128091781E+03  0.14163503382E+02  0.17346899479E+03  0.12499671604E+03 0.  0.
    9000005    1    3    3    0    0 -0.90416842097E+02  0.30763512536E+02 -0.45945647830E+01  0.95622743445E+02  0.10000000000E+01 0.  0.
    9000005    1    3    3    0    0  0.27101093716E+02  0.70517405272E+02  0.18758068165E+02  0.77846251343E+02  0.10000000000E+01 0.  0.
         -4    1    1    2    0  502  0.63315748382E+02 -0.10128091781E+03  0.74345750825E+02  0.14069687939E+03  0.12700000000E+01 0.  1.
<mgrwt>
<rscale>  1 0.17288981E+03</rscale>
<asrwt>0</asrwt>
<pdfrwt beam="1">  1       21 0.30974460E-01 0.17288981E+03</pdfrwt>
<pdfrwt beam="2">  1       -4 0.17358510E-01 0.17288981E+03</pdfrwt>
<totfact> 0.12169603E+04</totfact>
</mgrwt>
</event>
<event>
 6    4  0.3995738E-003  0.1271435E+03  0.7818608E-02  0.1231757E+00
         21   -1    0    0  501  502  0.00000000000E+00  0.00000000000E+00  0.75760522543E+02  0.75760522543E+02  0.00000000000E+00 0.  1.
         -4   -1    0    0    0  501 -0.00000000000E+00 -0.00000000000E+00 -0.76607540747E+02  0.76618067055E+02  0.12700000000E+01 0.  1.
         25    2    1    2    0    0  0.22562395255E+02  0.58952528353E+01 -0.94400417937E+01  0.12749348080E+03  0.12498662957E+03 0.  0.
    9000005    1    3    3    0    0 -0.37686575221E+02 -0.22565599015E+02 -0.34944549933E+02  0.56139164411E+02  0.10000000000E+01 0.  0.
    9000005    1    3    3    0    0  0.60248970476E+02  0.28460851850E+02  0.25504508139E+02  0.71354316385E+02  0.10000000000E+01 0.  0.
         -4    1    1    2    0  502 -0.22562395255E+02 -0.58952528353E+01  0.85930235898E+01  0.24885108801E+02  0.12700000000E+01 0. -1.
<mgrwt>
<rscale>  1 0.12714351E+03</rscale>
<asrwt>0</asrwt>
<pdfrwt beam="1">  1       21 0.11655465E-01 0.12714351E+03</pdfrwt>
<pdfrwt beam="2">  1       -4 0.11787404E-01 0.12714351E+03</pdfrwt>
<totfact> 0.14102706E+05</totfact>
</mgrwt>
</event>
<event>
 6    4  0.3995738E-003  0.1315867E+03  0.7818608E-02  0.1225120E+00
         21   -1    0    0  501  502  0.00000000000E+00  0.00000000000E+00  0.28823576067E+02  0.28823576067E+02  0.00000000000E+00 0. -1.
         -4   -1    0    0    0  501 -0.00000000000E+00 -0.00000000000E+00 -0.45847159926E+03  0.45847335825E+03  0.12700000000E+01 0. -1.
         25    2    1    2    0    0  0.27270077433E+02 -0.30770788587E+02 -0.42616144939E+03  0.44601415764E+03  0.12499819726E+03 0.  0.
    9000005    1    3    3    0    0 -0.74448625141E+01  0.34069535685E+02 -0.40740580220E+02  0.53637245607E+02  0.10000000000E+01 0.  0.
    9000005    1    3    3    0    0  0.34714939947E+02 -0.64840324272E+02 -0.38542086917E+03  0.39237691203E+03  0.10000000000E+01 0.  0.
         -4    1    1    2    0  502 -0.27270077433E+02  0.30770788587E+02 -0.34865738038E+01  0.41282776679E+02  0.12700000000E+01 0.  1.
<mgrwt>
<rscale>  1 0.13158666E+03</rscale>
<asrwt>0</asrwt>
<pdfrwt beam="1">  1       21 0.44343965E-02 0.13158666E+03</pdfrwt>
<pdfrwt beam="2">  1       -4 0.70536377E-01 0.13158666E+03</pdfrwt>
<totfact> 0.24997801E+04</totfact>
</mgrwt>
</event>
<event>
 6    4  0.3995738E-003  0.1339525E+03  0.7818608E-02  0.1221706E+00
         21   -1    0    0  501  502  0.00000000000E+00  0.00000000000E+00  0.25413755664E+03  0.25413755664E+03  0.00000000000E+00 0.  1.
          4   -1    0    0  502    0 -0.00000000000E+00 -0.00000000000E+00 -0.38854076601E+02  0.38874826925E+02  0.12700000000E+01 0. -1.
         25    2    1    2    0    0 -0.32338669742E+02 -0.35712863720E+02  0.97289995160E+02  0.16555543566E+03  0.12498824314E+03 0.  0.
    9000005    1    3    3    0    0 -0.12811423282E+02 -0.72363457207E+02  0.99797095482E+02  0.12393975461E+03  0.10000000000E+01 0.  0.
    9000005    1    3    3    0    0 -0.19527246460E+02  0.36650593488E+02 -0.25071003221E+01  0.41615681051E+02  0.10000000000E+01 0.  0.
          4    1    1    2  501    0  0.32338669742E+02  0.35712863720E+02  0.11799348488E+03  0.12745694791E+03  0.12700000000E+01 0.  1.
<mgrwt>
<rscale>  1 0.13395245E+03</rscale>
<asrwt>0</asrwt>
<pdfrwt beam="1">  1       21 0.39098085E-01 0.13395245E+03</pdfrwt>
<pdfrwt beam="2">  1        4 0.59793907E-02 0.13395245E+03</pdfrwt>
<totfact> 0.45782341E+04</totfact>
</mgrwt>
</event>
<event>
 6    4  0.3995738E-003  0.1342199E+03  0.7818608E-02  0.1221325E+00
         21   -1    0    0  501  502  0.00000000000E+00  0.00000000000E+00  0.61881669978E+02  0.61881669978E+02  0.00000000000E+00 0.  1.
          4   -1    0    0  502    0 -0.00000000000E+00 -0.00000000000E+00 -0.16368462423E+03  0.16368955100E+03  0.12700000000E+01 0. -1.
         25    2    1    2    0    0 -0.24709131091E+02  0.42180229191E+02 -0.11294332475E+03  0.17541712196E+03  0.12500103671E+03 0.  0.
    9000005    1    3    3    0    0  0.45667861864E+02  0.20263829316E+02 -0.13746433983E+02  0.51827992755E+02  0.10000000000E+01 0.  0.
    9000005    1    3    3    0    0 -0.70376992955E+02  0.21916399876E+02 -0.99196890762E+02  0.12358912921E+03  0.10000000000E+01 0.  0.
          4    1    1    2  501    0  0.24709131091E+02 -0.42180229191E+02  0.11140370496E+02  0.50154099022E+02  0.12700000000E+01 0.  1.
<mgrwt>
<rscale>  1 0.13421986E+03</rscale>
<asrwt>0</asrwt>
<pdfrwt beam="1">  1       21 0.95202570E-02 0.13421986E+03</pdfrwt>
<pdfrwt beam="2">  1        4 0.25183631E-01 0.13421986E+03</pdfrwt>
<totfact> 0.52822878E+04</totfact>
</mgrwt>
</event>
<event>
 6    4  0.3995738E-003  0.1358257E+03  0.7818608E-02  0.1219059E+00
         21   -1    0    0  501  502  0.00000000000E+00  0.00000000000E+00  0.63501166197E+01  0.63501166197E+01  0.00000000000E+00 0.  1.
          4   -1    0    0  502    0 -0.00000000000E+00 -0.00000000000E+00 -0.16072721390E+04  0.16072726407E+04  0.12700000000E+01 0. -1.
         25    2    1    2    0    0 -0.46540702716E+02  0.25643164799E+02 -0.13673325573E+04  0.13740622014E+04  0.12500000792E+03 0.  0.
    9000005    1    3    3    0    0  0.23864681020E+02  0.24907987128E+02 -0.12330046600E+03  0.12803880560E+03  0.10000000000E+01 0.  0.
    9000005    1    3    3    0    0 -0.70405383737E+02  0.73517767139E+00 -0.12440320913E+04  0.12460233958E+04  0.10000000000E+01 0.  0.
          4    1    1    2  501    0  0.46540702716E+02 -0.25643164799E+02 -0.23358946504E+03  0.23956055599E+03  0.12700000000E+01 0.  1.
<mgrwt>
<rscale>  1 0.13582566E+03</rscale>
<asrwt>0</asrwt>
<pdfrwt beam="1">  1       21 0.97694031E-03 0.13582566E+03</pdfrwt>
<pdfrwt beam="2">  1        4 0.24728262E+00 0.13582566E+03</pdfrwt>
<totfact> 0.12077971E+04</totfact>
</mgrwt>
</event>
<event>
 6    4  0.3995738E-003  0.1272450E+03  0.7818608E-02  0.1231602E+00
         21   -1    0    0  501  502  0.00000000000E+00  0.00000000000E+00  0.73698901595E+01  0.73698901595E+01  0.00000000000E+00 0.  1.
         -4   -1    0    0    0  501 -0.00000000000E+00 -0.00000000000E+00 -0.91525627513E+03  0.91525715624E+03  0.12700000000E+01 0. -1.
         25    2    1    2    0    0  0.18242990702E+02  0.15279774505E+02 -0.85749854108E+03  0.86688813782E+03  0.12500006928E+03 0.  0.
    9000005    1    3    3    0    0  0.31901145891E+02  0.59566405174E+02 -0.68307876126E+03  0.68641345690E+03  0.10000000000E+01 0.  0.
    9000005    1    3    3    0    0 -0.13658155188E+02 -0.44286630670E+02 -0.17441977982E+03  0.18047468091E+03  0.10000000000E+01 0.  0.
         -4    1    1    2    0  502 -0.18242990702E+02 -0.15279774505E+02 -0.50387843889E+02  0.55738908587E+02  0.12700000000E+01 0.  1.
<mgrwt>
<rscale>  1 0.12724502E+03</rscale>
<asrwt>0</asrwt>
<pdfrwt beam="1">  1       21 0.11338294E-02 0.12724502E+03</pdfrwt>
<pdfrwt beam="2">  1       -4 0.14081712E+00 0.12724502E+03</pdfrwt>
<totfact> 0.45997117E+04</totfact>
</mgrwt>
</event>
<event>
 6    4  0.3995738E-003  0.1461166E+03  0.7818608E-02  0.1205328E+00
         -4   -1    0    0    0  501 -0.00000000000E+00  0.00000000000E+00  0.29982922906E+02  0.30009807830E+02  0.12700000000E+01 0. -1.
         21   -1    0    0  501  502  0.00000000000E+00 -0.00000000000E+00 -0.41434639811E+03  0.41434639811E+03  0.00000000000E+00 0.  1.
         25    2    1    2    0    0  0.16906279942E+02 -0.73768088456E+02 -0.23103749184E+03  0.27336491010E+03  0.12498999267E+03 0.  0.
    9000005    1    3    3    0    0 -0.44798688597E+02 -0.61090799365E+02 -0.16774666851E+03  0.18406236188E+03  0.10000000000E+01 0.  0.
    9000005    1    3    3    0    0  0.61704968539E+02 -0.12677289091E+02 -0.63290823329E+02  0.89302548220E+02  0.10000000000E+01 0.  0.
         -4    1    1    2    0  502 -0.16906279942E+02  0.73768088456E+02 -0.15332598337E+03  0.17099129583E+03  0.12700000000E+01 0.  1.
<mgrwt>
<rscale>  1 0.14611657E+03</rscale>
<asrwt>0</asrwt>
<pdfrwt beam="2">  1       21 0.63745594E-01 0.14611657E+03</pdfrwt>
<pdfrwt beam="1">  1       -4 0.46149756E-02 0.14611657E+03</pdfrwt>
<totfact> 0.25495186E+04</totfact>
</mgrwt>
</event>
<event>
 6    4  0.3995738E-003  0.1292043E+03  0.7818608E-02  0.1228641E+00
          4   -1    0    0  502    0 -0.00000000000E+00  0.00000000000E+00  0.12506488037E+03  0.12507132845E+03  0.12700000000E+01 0.  1.
         21   -1    0    0  501  502  0.00000000000E+00 -0.00000000000E+00 -0.19535536397E+03  0.19535536397E+03  0.00000000000E+00 0. -1.
         25    2    1    2    0    0  0.13826030762E+02  0.29587292343E+02  0.89598692284E+02  0.15723132343E+03  0.12500878534E+03 0.  0.
    9000005    1    3    3    0    0 -0.43688888990E+02  0.25179632895E+02 -0.27239083092E+00  0.50436168874E+02  0.10000000000E+01 0.  0.
    9000005    1    3    3    0    0  0.57514919752E+02  0.44076594488E+01  0.89871083115E+02  0.10679515455E+03  0.10000000000E+01 0.  0.
          4    1    1    2  501    0 -0.13826030762E+02 -0.29587292343E+02 -0.15988917588E+03  0.16319536899E+03  0.12700000000E+01 0. -1.
<mgrwt>
<rscale>  1 0.12920435E+03</rscale>
<asrwt>0</asrwt>
<pdfrwt beam="2">  1       21 0.30054672E-01 0.12920435E+03</pdfrwt>
<pdfrwt beam="1">  1        4 0.19241564E-01 0.12920435E+03</pdfrwt>
<totfact> 0.10505455E+04</totfact>
</mgrwt>
</event>
<event>
 6    4  0.3995738E-003  0.1269266E+03  0.7818608E-02  0.1232089E+00
         -4   -1    0    0    0  501 -0.00000000000E+00  0.00000000000E+00  0.89824130580E+01  0.90717497951E+01  0.12700000000E+01 0.  1.
         21   -1    0    0  501  502  0.00000000000E+00 -0.00000000000E+00 -0.70224857676E+03  0.70224857676E+03  0.00000000000E+00 0. -1.
         25    2    1    2    0    0  0.17929635239E+02 -0.12812526903E+02 -0.46573293400E+03  0.48271889134E+03  0.12499891830E+03 0.  0.
    9000005    1    3    3    0    0  0.32797834796E+02 -0.59137509379E+02 -0.36036761450E+03  0.36665891584E+03  0.10000000000E+01 0.  0.
    9000005    1    3    3    0    0 -0.14868199557E+02  0.46324982475E+02 -0.10536531950E+03  0.11605997550E+03  0.10000000000E+01 0.  0.
         -4    1    1    2    0  502 -0.17929635239E+02  0.12812526903E+02 -0.22753322970E+03  0.22860143522E+03  0.12700000000E+01 0. -1.
<mgrwt>
<rscale>  1 0.12692660E+03</rscale>
<asrwt>0</asrwt>
<pdfrwt beam="2">  1       21 0.10803824E+00 0.12692660E+03</pdfrwt>
<pdfrwt beam="1">  1       -4 0.13888702E-02 0.12692660E+03</pdfrwt>
<totfact> 0.49589964E+04</totfact>
</mgrwt>
</event>
<event>
 6    4  0.3995738E-003  0.1287783E+03  0.7818608E-02  0.1229280E+00
         21   -1    0    0  501  502  0.00000000000E+00  0.00000000000E+00  0.15614157997E+03  0.15614157997E+03  0.00000000000E+00 0.  1.
         -4   -1    0    0    0  501 -0.00000000000E+00 -0.00000000000E+00 -0.54800558845E+02  0.54815272961E+02  0.12700000000E+01 0.  1.
         25    2    1    2    0    0 -0.19155968223E+02 -0.24313141374E+02  0.28631350399E+02  0.13192275220E+03  0.12500311340E+03 0.  0.
    9000005    1    3    3    0    0 -0.37801994509E+02  0.14634427195E+02  0.64225045763E+02  0.75954023932E+02  0.10000000000E+01 0.  0.
    9000005    1    3    3    0    0  0.18646026286E+02 -0.38947568570E+02 -0.35593695364E+02  0.55968728263E+02  0.10000000000E+01 0.  0.
         -4    1    1    2    0  502  0.19155968223E+02  0.24313141374E+02  0.72709670727E+02  0.79034100737E+02  0.12700000000E+01 0. -1.
<mgrwt>
<rscale>  1 0.12877833E+03</rscale>
<asrwt>0</asrwt>
<pdfrwt beam="1">  1       21 0.24021781E-01 0.12877833E+03</pdfrwt>
<pdfrwt beam="2">  1       -4 0.84323844E-02 0.12877833E+03</pdfrwt>
<totfact> 0.66524241E+04</totfact>
</mgrwt>
</event>
<event>
 6    4  0.3995738E-003  0.1268595E+03  0.7818608E-02  0.1232192E+00
         -4   -1    0    0    0  501 -0.00000000000E+00  0.00000000000E+00  0.18289668338E+04  0.18289672748E+04  0.12700000000E+01 0.  1.
         21   -1    0    0  501  502  0.00000000000E+00 -0.00000000000E+00 -0.76489782714E+01  0.76489782714E+01  0.00000000000E+00 0. -1.
         25    2    1    2    0    0 -0.13339514138E+02 -0.17041753258E+02  0.18050751693E+04  0.18095274777E+04  0.12499984689E+03 0.  0.
    9000005    1    3    3    0    0  0.12623101270E+02  0.28595905464E+02  0.13298652715E+03  0.13661436564E+03  0.10000000000E+01 0.  0.
    9000005    1    3    3    0    0 -0.25962615408E+02 -0.45637658722E+02  0.16720886422E+04  0.16729131121E+04  0.10000000000E+01 0.  0.
         -4    1    1    2    0  502  0.13339514138E+02  0.17041753258E+02  0.16242686220E+02  0.27088775298E+02  0.12700000000E+01 0. -1.
<mgrwt>
<rscale>  1 0.12685947E+03</rscale>
<asrwt>0</asrwt>
<pdfrwt beam="2">  1       21 0.11767673E-02 0.12685947E+03</pdfrwt>
<pdfrwt beam="1">  1       -4 0.28138731E+00 0.12685947E+03</pdfrwt>
<totfact> 0.57121059E+03</totfact>
</mgrwt>
</event>
<event>
 6    4  0.3995738E-003  0.1371325E+03  0.7818608E-02  0.1217240E+00
         21   -1    0    0  501  502  0.00000000000E+00  0.00000000000E+00  0.24774317268E+02  0.24774317268E+02  0.00000000000E+00 0.  1.
         -4   -1    0    0    0  501 -0.00000000000E+00 -0.00000000000E+00 -0.42202645192E+03  0.42202836282E+03  0.12700000000E+01 0. -1.
         25    2    1    2    0    0  0.53105641032E+02  0.18986277919E+02 -0.20651831004E+03  0.24790146689E+03  0.12499854817E+03 0.  0.
    9000005    1    3    3    0    0  0.14262023905E+01  0.44061432479E+02 -0.17871945471E+03  0.18407902482E+03  0.10000000000E+01 0.  0.
    9000005    1    3    3    0    0  0.51679438641E+02 -0.25075154560E+02 -0.27798855330E+02  0.63822442073E+02  0.10000000000E+01 0.  0.
         -4    1    1    2    0  502 -0.53105641032E+02 -0.18986277919E+02 -0.19073382461E+03  0.19890121319E+03  0.12700000000E+01 0.  1.
<mgrwt>
<rscale>  1 0.13713251E+03</rscale>
<asrwt>0</asrwt>
<pdfrwt beam="1">  1       21 0.38114338E-02 0.13713251E+03</pdfrwt>
<pdfrwt beam="2">  1       -4 0.64929791E-01 0.13713251E+03</pdfrwt>
<totfact> 0.38597814E+04</totfact>
</mgrwt>
</event>
<event>
 6    4  0.3995738E-003  0.1287786E+03  0.7818608E-02  0.1229279E+00
         -4   -1    0    0    0  501 -0.00000000000E+00  0.00000000000E+00  0.35456712086E+03  0.35456939531E+03  0.12700000000E+01 0.  1.
         21   -1    0    0  501  502  0.00000000000E+00 -0.00000000000E+00 -0.90763072549E+02  0.90763072549E+02  0.00000000000E+00 0. -1.
         25    2    1    2    0    0 -0.84885961397E+00  0.30952810612E+02  0.33973364998E+03  0.36332201513E+03  0.12500054682E+03 0.  0.
    9000005    1    3    3    0    0 -0.21417932227E+02 -0.43015939854E+02  0.17657450449E+03  0.18299905611E+03  0.10000000000E+01 0.  0.
    9000005    1    3    3    0    0  0.20569072613E+02  0.73968750466E+02  0.16315914548E+03  0.18032295902E+03  0.10000000000E+01 0.  0.
         -4    1    1    2    0  502  0.84885961397E+00 -0.30952810612E+02 -0.75929601668E+02  0.82010452729E+02  0.12700000000E+01 0. -1.
<mgrwt>
<rscale>  1 0.12877862E+03</rscale>
<asrwt>0</asrwt>
<pdfrwt beam="2">  1       21 0.13963550E-01 0.12877862E+03</pdfrwt>
<pdfrwt beam="1">  1       -4 0.54549646E-01 0.12877862E+03</pdfrwt>
<totfact> 0.59277657E+03</totfact>
</mgrwt>
</event>
<event>
 6    4  0.3995738E-003  0.1272010E+03  0.7818608E-02  0.1231669E+00
          4   -1    0    0  502    0 -0.00000000000E+00  0.00000000000E+00  0.77221990757E+02  0.77232433320E+02  0.12700000000E+01 0.  1.
         21   -1    0    0  501  502  0.00000000000E+00 -0.00000000000E+00 -0.79054742075E+02  0.79054742075E+02  0.00000000000E+00 0.  1.
         25    2    1    2    0    0 -0.23558038633E+02 -0.60268467524E+00 -0.16853383050E+02  0.12831260318E+03  0.12499897280E+03 0.  0.
    9000005    1    3    3    0    0 -0.33834401716E+02  0.58242041738E+02 -0.11384264095E+02  0.68319130807E+02  0.10000000000E+01 0.  0.
    9000005    1    3    3    0    0  0.10276363082E+02 -0.58844726413E+02 -0.54691189555E+01  0.59993472370E+02  0.10000000000E+01 0.  0.
          4    1    1    2  501    0  0.23558038633E+02  0.60268467524E+00  0.15020631733E+02  0.27974572217E+02  0.12700000000E+01 0. -1.
<mgrwt>
<rscale>  1 0.12720097E+03</rscale>
<asrwt>0</asrwt>
<pdfrwt beam="2">  1       21 0.12162268E-01 0.12720097E+03</pdfrwt>
<pdfrwt beam="1">  1        4 0.11881894E-01 0.12720097E+03</pdfrwt>
<totfact> 0.12903295E+05</totfact>
</mgrwt>
</event>
<event>
 6    4  0.3995738E-003  0.1285430E+03  0.7818608E-02  0.1229634E+00
         -4   -1    0    0    0  501 -0.00000000000E+00  0.00000000000E+00  0.35551558707E+02  0.35574235431E+02  0.12700000000E+01 0. -1.
         21   -1    0    0  501  502  0.00000000000E+00 -0.00000000000E+00 -0.33422213117E+03  0.33422213117E+03  0.00000000000E+00 0.  1.
         25    2    1    2    0    0  0.59198788785E+01  0.29385172301E+02 -0.85171485012E+02  0.15419950540E+03  0.12499908915E+03 0.  0.
    9000005    1    3    3    0    0 -0.37424618198E+02  0.19816541957E+01 -0.94862138884E+02  0.10200173721E+03  0.10000000000E+01 0.  0.
    9000005    1    3    3    0    0  0.43344497077E+02  0.27403518105E+02  0.96906538721E+01  0.52197768188E+02  0.10000000000E+01 0.  0.
         -4    1    1    2    0  502 -0.59198788785E+01 -0.29385172301E+02 -0.21349908745E+03  0.21559686120E+03  0.12700000000E+01 0.  1.
<mgrwt>
<rscale>  1 0.12854301E+03</rscale>
<asrwt>0</asrwt>
<pdfrwt beam="2">  1       21 0.51418790E-01 0.12854301E+03</pdfrwt>
<pdfrwt beam="1">  1       -4 0.54714005E-02 0.12854301E+03</pdfrwt>
<totfact> 0.30162971E+04</totfact>
</mgrwt>
</event>
<event>
 6    4  0.3995738E-003  0.1301231E+03  0.7818608E-02  0.1227273E+00
         21   -1    0    0  501  502  0.00000000000E+00  0.00000000000E+00  0.39330975266E+02  0.39330975266E+02  0.00000000000E+00 0.  1.
         -4   -1    0    0    0  501 -0.00000000000E+00 -0.00000000000E+00 -0.24212402539E+03  0.24212735610E+03  0.12700000000E+01 0. -1.
         25    2    1    2    0    0  0.18568017181E+02  0.31024642415E+02 -0.20755064713E+03  0.24496795827E+03  0.12499891903E+03 0.  0.
    9000005    1    3    3    0    0  0.15181503760E+02  0.16459339117E+02  0.11646372111E+02  0.25259174253E+02  0.10000000000E+01 0.  0.
    9000005    1    3    3    0    0  0.33865134207E+01  0.14565303298E+02 -0.21919701924E+03  0.21970878402E+03  0.10000000000E+01 0.  0.
         -4    1    1    2    0  502 -0.18568017181E+02 -0.31024642415E+02  0.47575970033E+01  0.36490373090E+02  0.12700000000E+01 0.  1.
<mgrwt>
<rscale>  1 0.13012313E+03</rscale>
<asrwt>0</asrwt>
<pdfrwt beam="1">  1       21 0.60509193E-02 0.13012313E+03</pdfrwt>
<pdfrwt beam="2">  1       -4 0.37251684E-01 0.13012313E+03</pdfrwt>
<totfact> 0.54640757E+04</totfact>
</mgrwt>
</event>
<event>
 6    4  0.3995738E-003  0.1399772E+03  0.7818608E-02  0.1213360E+00
         -4   -1    0    0    0  501 -0.00000000000E+00  0.00000000000E+00  0.31147133101E+03  0.31147392016E+03  0.12700000000E+01 0.  1.
         21   -1    0    0  501  502  0.00000000000E+00 -0.00000000000E+00 -0.51941397305E+02  0.51941397305E+02  0.00000000000E+00 0.  1.
         25    2    1    2    0    0  0.24354793354E+02  0.58092434775E+02  0.26548917092E+03  0.30013015060E+03  0.12500288190E+03 0.  0.
    9000005    1    3    3    0    0  0.22953403618E+02 -0.35104748160E+02  0.12209433323E+03  0.12910162000E+03  0.10000000000E+01 0.  0.
    9000005    1    3    3    0    0  0.14013897359E+01  0.93197182935E+02  0.14339483769E+03  0.17102853059E+03  0.10000000000E+01 0.  0.
         -4    1    1    2    0  502 -0.24354793354E+02 -0.58092434775E+02 -0.59592372159E+01  0.63285166869E+02  0.12700000000E+01 0. -1.
<mgrwt>
<rscale>  1 0.13997717E+03</rscale>
<asrwt>0</asrwt>
<pdfrwt beam="2">  1       21 0.79909844E-02 0.13997717E+03</pdfrwt>
<pdfrwt beam="1">  1       -4 0.47920059E-01 0.13997717E+03</pdfrwt>
<totfact> 0.20767514E+04</totfact>
</mgrwt>
</event>
<event>
 6    4  0.3995738E-003  0.1324186E+03  0.7818608E-02  0.1223910E+00
         21   -1    0    0  501  502  0.00000000000E+00  0.00000000000E+00  0.13913603024E+03  0.13913603024E+03  0.00000000000E+00 0.  1.
         -4   -1    0    0    0  501 -0.00000000000E+00 -0.00000000000E+00 -0.70680048055E+02  0.70691457002E+02  0.12700000000E+01 0. -1.
         25    2    1    2    0    0 -0.27645285967E+02  0.33849418154E+02  0.46775197755E+01  0.13250122965E+03  0.12499860688E+03 0.  0.
    9000005    1    3    3    0    0  0.96541629328E+01  0.74293536865E+01  0.59713973588E+02  0.60952086099E+02  0.10000000000E+01 0.  0.
    9000005    1    3    3    0    0 -0.37299448900E+02  0.26420064468E+02 -0.55036453812E+02  0.71549143552E+02  0.10000000000E+01 0.  0.
         -4    1    1    2    0  502  0.27645285967E+02 -0.33849418154E+02  0.63778462407E+02  0.77326257589E+02  0.12700000000E+01 0.  1.
<mgrwt>
<rscale>  1 0.13241864E+03</rscale>
<asrwt>0</asrwt>
<pdfrwt beam="1">  1       21 0.21405543E-01 0.13241864E+03</pdfrwt>
<pdfrwt beam="2">  1       -4 0.10875177E-01 0.13241864E+03</pdfrwt>
<totfact> 0.54055364E+04</totfact>
</mgrwt>
</event>
<event>
 6    4  0.3995738E-003  0.1559676E+03  0.7818608E-02  0.1193326E+00
         21   -1    0    0  501  502  0.00000000000E+00  0.00000000000E+00  0.15574883154E+03  0.15574883154E+03  0.00000000000E+00 0. -1.
          4   -1    0    0  502    0 -0.00000000000E+00 -0.00000000000E+00 -0.15844294283E+03  0.15844803259E+03  0.12700000000E+01 0.  1.
         25    2    1    2    0    0 -0.76469001456E+02 -0.53413655028E+02 -0.95277621771E+02  0.18276685980E+03  0.12500149240E+03 0.  0.
    9000005    1    3    3    0    0 -0.24575104874E+02  0.40642871903E+02 -0.19754860829E+02  0.51449327911E+02  0.10000000000E+01 0.  0.
    9000005    1    3    3    0    0 -0.51893896581E+02 -0.94056526931E+02 -0.75522760943E+02  0.13131753189E+03  0.10000000000E+01 0.  0.
          4    1    1    2  501    0  0.76469001456E+02  0.53413655028E+02  0.92583510484E+02  0.13143000434E+03  0.12700000000E+01 0. -1.
<mgrwt>
<rscale>  1 0.15596762E+03</rscale>
<asrwt>0</asrwt>
<pdfrwt beam="1">  1       21 0.23961359E-01 0.15596762E+03</pdfrwt>
<pdfrwt beam="2">  1        4 0.24376627E-01 0.15596762E+03</pdfrwt>
<totfact> 0.10692447E+04</totfact>
</mgrwt>
</event>
<event>
 6    4  0.3995738E-003  0.1314603E+03  0.7818608E-02  0.1225305E+00
         21   -1    0    0  501  502  0.00000000000E+00  0.00000000000E+00  0.61830002048E+02  0.61830002048E+02  0.00000000000E+00 0.  1.
         -4   -1    0    0    0  501 -0.00000000000E+00 -0.00000000000E+00 -0.19289426180E+03  0.19289844254E+03  0.12700000000E+01 0.  1.
         25    2    1    2    0    0 -0.18329439494E+02  0.36156739949E+02 -0.15838003809E+03  0.20583015380E+03  0.12505413848E+03 0.  0.
    9000005    1    3    3    0    0  0.51322958767E+02  0.22519267269E+02 -0.44199858099E+02  0.71384808965E+02  0.10000000000E+01 0.  0.
    9000005    1    3    3    0    0 -0.69652398261E+02  0.13637472680E+02 -0.11418017999E+03  0.13444534484E+03  0.10000000000E+01 0.  0.
         -4    1    1    2    0  502  0.18329439494E+02 -0.36156739949E+02  0.27315778341E+02  0.48898290791E+02  0.12700000000E+01 0. -1.
<mgrwt>
<rscale>  1 0.13146032E+03</rscale>
<asrwt>0</asrwt>
<pdfrwt beam="1">  1       21 0.95123080E-02 0.13146032E+03</pdfrwt>
<pdfrwt beam="2">  1       -4 0.29677365E-01 0.13146032E+03</pdfrwt>
<totfact> 0.38839994E+04</totfact>
</mgrwt>
</event>
<event>
 6    4  0.3995738E-003  0.1297638E+03  0.7818608E-02  0.1227807E+00
         21   -1    0    0  501  502  0.00000000000E+00  0.00000000000E+00  0.44942710798E+02  0.44942710798E+02  0.00000000000E+00 0.  1.
         -4   -1    0    0    0  501 -0.00000000000E+00 -0.00000000000E+00 -0.18851962402E+03  0.18852390177E+03  0.12700000000E+01 0.  1.
         25    2    1    2    0    0 -0.30140474540E+02  0.17473495054E+02 -0.14965443207E+03  0.19807847373E+03  0.12499944594E+03 0.  0.
    9000005    1    3    3    0    0 -0.36736678451E+02 -0.44917879643E+02 -0.10847822700E+03  0.12302733513E+03  0.10000000000E+01 0.  0.
    9000005    1    3    3    0    0  0.65962039112E+01  0.62391374696E+02 -0.41176205063E+02  0.75051138605E+02  0.10000000000E+01 0.  0.
         -4    1    1    2    0  502  0.30140474540E+02 -0.17473495054E+02  0.60775188468E+01  0.35388138835E+02  0.12700000000E+01 0. -1.
<mgrwt>
<rscale>  1 0.12976376E+03</rscale>
<asrwt>0</asrwt>
<pdfrwt beam="1">  1       21 0.69142632E-02 0.12976376E+03</pdfrwt>
<pdfrwt beam="2">  1       -4 0.29004729E-01 0.12976376E+03</pdfrwt>
<totfact> 0.70220769E+04</totfact>
</mgrwt>
</event>
<event>
 6    4  0.3995738E-003  0.1268556E+03  0.7818608E-02  0.1232197E+00
         -4   -1    0    0    0  501 -0.00000000000E+00  0.00000000000E+00  0.49019055179E+02  0.49035504184E+02  0.12700000000E+01 0.  1.
         21   -1    0    0  501  502  0.00000000000E+00 -0.00000000000E+00 -0.29481576832E+03  0.29481576832E+03  0.00000000000E+00 0. -1.
         25    2    1    2    0    0 -0.18147147022E+02 -0.11769435157E+02 -0.34522808120E+02  0.13146927140E+03  0.12499802596E+03 0.  0.
    9000005    1    3    3    0    0 -0.63995089404E+02 -0.37374071428E+02 -0.23980544565E+02  0.77899032090E+02  0.10000000000E+01 0.  0.
    9000005    1    3    3    0    0  0.45847942382E+02  0.25604636270E+02 -0.10542263555E+02  0.53570239313E+02  0.10000000000E+01 0.  0.
         -4    1    1    2    0  502  0.18147147022E+02  0.11769435157E+02 -0.21127390502E+03  0.21238200110E+03  0.12700000000E+01 0. -1.
<mgrwt>
<rscale>  1 0.12685561E+03</rscale>
<asrwt>0</asrwt>
<pdfrwt beam="2">  1       21 0.45356271E-01 0.12685561E+03</pdfrwt>
<pdfrwt beam="1">  1       -4 0.75428690E-02 0.12685561E+03</pdfrwt>
<totfact> 0.23087336E+04</totfact>
</mgrwt>
</event>
<event>
 6    4  0.3995738E-003  0.1271389E+03  0.7818608E-02  0.1231764E+00
         21   -1    0    0  501  502  0.00000000000E+00  0.00000000000E+00  0.58580956430E+03  0.58580956430E+03  0.00000000000E+00 0. -1.
          4   -1    0    0  502    0 -0.00000000000E+00 -0.00000000000E+00 -0.18245872335E+02  0.18290017968E+02  0.12700000000E+01 0.  1.
         25    2    1    2    0    0 -0.20703274202E+02 -0.10542126290E+02  0.20796776759E+03  0.24375168965E+03  0.12499812743E+03 0.  0.
    9000005    1    3    3    0    0 -0.60729766502E+02  0.26225480152E+01  0.45580880073E+02  0.75984201816E+02  0.10000000000E+01 0.  0.
    9000005    1    3    3    0    0  0.40026492300E+02 -0.13164674305E+02  0.16238688752E+03  0.16776748783E+03  0.10000000000E+01 0.  0.
          4    1    1    2  501    0  0.20703274202E+02  0.10542126290E+02  0.35959592437E+03  0.36034789262E+03  0.12700000000E+01 0. -1.
<mgrwt>
<rscale>  1 0.12713888E+03</rscale>
<asrwt>0</asrwt>
<pdfrwt beam="1">  1       21 0.90124534E-01 0.12713888E+03</pdfrwt>
<pdfrwt beam="2">  1        4 0.28105594E-02 0.12713888E+03</pdfrwt>
<totfact> 0.25604346E+04</totfact>
</mgrwt>
</event>
<event>
 6    4  0.3995738E-003  0.1353353E+03  0.7818608E-02  0.1219747E+00
         -4   -1    0    0    0  501 -0.00000000000E+00  0.00000000000E+00  0.18119934221E+02  0.18164385928E+02  0.12700000000E+01 0. -1.
         21   -1    0    0  501  502  0.00000000000E+00 -0.00000000000E+00 -0.48691933660E+03  0.48691933660E+03  0.00000000000E+00 0.  1.
         25    2    1    2    0    0 -0.36326389769E+02  0.37027886867E+02 -0.31773267647E+03  0.34535445290E+03  0.12499989376E+03 0.  0.
    9000005    1    3    3    0    0  0.21601130935E+02  0.26416924686E+02 -0.15600259420E+02  0.37534395712E+02  0.10000000000E+01 0.  0.
    9000005    1    3    3    0    0 -0.57927520704E+02  0.10610962181E+02 -0.30213241705E+03  0.30782005719E+03  0.10000000000E+01 0.  0.
         -4    1    1    2    0  502  0.36326389769E+02 -0.37027886867E+02 -0.15106672591E+03  0.15972926963E+03  0.12700000000E+01 0.  1.
<mgrwt>
<rscale>  1 0.13533530E+03</rscale>
<asrwt>0</asrwt>
<pdfrwt beam="2">  1       21 0.74910663E-01 0.13533530E+03</pdfrwt>
<pdfrwt beam="1">  1       -4 0.27912291E-02 0.13533530E+03</pdfrwt>
<totfact> 0.39437664E+04</totfact>
</mgrwt>
</event>
<event>
 6    4  0.3995738E-003  0.1538132E+03  0.7818608E-02  0.1195864E+00
          4   -1    0    0  502    0 -0.00000000000E+00  0.00000000000E+00  0.24812738789E+02  0.24845218981E+02  0.12700000000E+01 0. -1.
         21   -1    0    0  501  502  0.00000000000E+00 -0.00000000000E+00 -0.65728807212E+03  0.65728807212E+03  0.00000000000E+00 0. -1.
         25    2    1    2    0    0 -0.89429036872E+02 -0.59003780870E+01 -0.29171725190E+03  0.32978396151E+03  0.12500455640E+03 0.  0.
    9000005    1    3    3    0    0 -0.18998666509E+02  0.43373667800E+02 -0.19372718921E+03  0.19943281632E+03  0.10000000000E+01 0.  0.
    9000005    1    3    3    0    0 -0.70430370363E+02 -0.49274045887E+02 -0.97990062690E+02  0.13035114519E+03  0.10000000000E+01 0.  0.
          4    1    1    2  501    0  0.89429036872E+02  0.59003780870E+01 -0.34075808144E+03  0.35234932959E+03  0.12700000000E+01 0.  1.
<mgrwt>
<rscale>  1 0.15381322E+03</rscale>
<asrwt>0</asrwt>
<pdfrwt beam="2">  1       21 0.10112124E+00 0.15381322E+03</pdfrwt>
<pdfrwt beam="1">  1        4 0.38199373E-02 0.15381322E+03</pdfrwt>
<totfact> 0.12258298E+04</totfact>
</mgrwt>
</event>
<event>
 6    4  0.3995738E-003  0.1296163E+03  0.7818608E-02  0.1228026E+00
         21   -1    0    0  501  502  0.00000000000E+00  0.00000000000E+00  0.48129482169E+02  0.48129482169E+02  0.00000000000E+00 0. -1.
         -4   -1    0    0    0  501 -0.00000000000E+00 -0.00000000000E+00 -0.15254035295E+03  0.15254563966E+03  0.12700000000E+01 0. -1.
         25    2    1    2    0    0 -0.10350279333E+02  0.32721301110E+02 -0.10423977615E+03  0.16633194198E+03  0.12499028827E+03 0.  0.
    9000005    1    3    3    0    0 -0.35117742575E+01 -0.24597302521E+02 -0.10569402715E+03  0.10857986565E+03  0.10000000000E+01 0.  0.
    9000005    1    3    3    0    0 -0.68385050755E+01  0.57318603632E+02  0.14542510012E+01  0.57752076326E+02  0.10000000000E+01 0.  0.
         -4    1    1    2    0  502  0.10350279333E+02 -0.32721301110E+02 -0.17109463192E+00  0.34343179847E+02  0.12700000000E+01 0.  1.
<mgrwt>
<rscale>  1 0.12961630E+03</rscale>
<asrwt>0</asrwt>
<pdfrwt beam="1">  1       21 0.74045357E-02 0.12961630E+03</pdfrwt>
<pdfrwt beam="2">  1       -4 0.23469442E-01 0.12961630E+03</pdfrwt>
<totfact> 0.92465112E+04</totfact>
</mgrwt>
</event>
<event>
 6    4  0.3995738E-003  0.1387831E+03  0.7818608E-02  0.1214976E+00
         -4   -1    0    0    0  501 -0.00000000000E+00  0.00000000000E+00  0.24469251314E+02  0.24502186839E+02  0.12700000000E+01 0.  1.
         21   -1    0    0  501  502  0.00000000000E+00 -0.00000000000E+00 -0.62036278852E+03  0.62036278852E+03  0.00000000000E+00 0. -1.
         25    2    1    2    0    0 -0.27451160982E+01  0.60233337624E+02 -0.19433571506E+03  0.23880354152E+03  0.12500068268E+03 0.  0.
    9000005    1    3    3    0    0  0.17165387062E+01  0.56949358088E+02 -0.21238500848E+03  0.21989672057E+03  0.10000000000E+01 0.  0.
    9000005    1    3    3    0    0 -0.44616548044E+01  0.32839795366E+01  0.18049293423E+02  0.18906820945E+02  0.10000000000E+01 0.  0.
         -4    1    1    2    0  502  0.27451160982E+01 -0.60233337624E+02 -0.40155782215E+03  0.40606143384E+03  0.12700000000E+01 0. -1.
<mgrwt>
<rscale>  1 0.13878314E+03</rscale>
<asrwt>0</asrwt>
<pdfrwt beam="2">  1       21 0.95440424E-01 0.13878314E+03</pdfrwt>
<pdfrwt beam="1">  1       -4 0.37671339E-02 0.13878314E+03</pdfrwt>
<totfact> 0.14254719E+04</totfact>
</mgrwt>
</event>
<event>
 6    4  0.3995738E-003  0.1273930E+03  0.7818608E-02  0.1231376E+00
         21   -1    0    0  501  502  0.00000000000E+00  0.00000000000E+00  0.21278395872E+02  0.21278395872E+02  0.00000000000E+00 0. -1.
         -4   -1    0    0    0  501 -0.00000000000E+00 -0.00000000000E+00 -0.28941742088E+03  0.28942020732E+03  0.12700000000E+01 0. -1.
         25    2    1    2    0    0  0.44077202150E+01 -0.24237330035E+02 -0.24818455904E+03  0.27897054343E+03  0.12498844982E+03 0.  0.
    9000005    1    3    3    0    0 -0.30512235009E+02 -0.50978569995E+02 -0.55435372048E+02  0.81264331401E+02  0.10000000000E+01 0.  0.
    9000005    1    3    3    0    0  0.34919955224E+02  0.26741239961E+02 -0.19274918699E+03  0.19770621203E+03  0.10000000000E+01 0.  0.
         -4    1    1    2    0  502 -0.44077202150E+01  0.24237330035E+02 -0.19954465964E+02  0.31728059768E+02  0.12700000000E+01 0.  1.
<mgrwt>
<rscale>  1 0.12739305E+03</rscale>
<asrwt>0</asrwt>
<pdfrwt beam="1">  1       21 0.32735992E-02 0.12739305E+03</pdfrwt>
<pdfrwt beam="2">  1       -4 0.44528889E-01 0.12739305E+03</pdfrwt>
<totfact> 0.10691856E+05</totfact>
</mgrwt>
</event>
<event>
 6    4  0.3995738E-003  0.1309133E+03  0.7818608E-02  0.1226107E+00
         -4   -1    0    0    0  501 -0.00000000000E+00  0.00000000000E+00  0.27916100502E+02  0.27944973917E+02  0.12700000000E+01 0. -1.
         21   -1    0    0  501  502  0.00000000000E+00 -0.00000000000E+00 -0.27566664597E+03  0.27566664597E+03  0.00000000000E+00 0. -1.
         25    2    1    2    0    0  0.29982165485E+02 -0.24787076898E+02 -0.15413628194E+03  0.20222832410E+03  0.12499988892E+03 0.  0.
    9000005    1    3    3    0    0  0.10241723175E+02  0.49536911568E+02 -0.39516463942E+02  0.64197736905E+02  0.10000000000E+01 0.  0.
    9000005    1    3    3    0    0  0.19740442310E+02 -0.74323988465E+02 -0.11461981800E+03  0.13803058720E+03  0.10000000000E+01 0.  0.
         -4    1    1    2    0  502 -0.29982165485E+02  0.24787076898E+02 -0.93614263523E+02  0.10138329578E+03  0.12700000000E+01 0.  1.
<mgrwt>
<rscale>  1 0.13091334E+03</rscale>
<asrwt>0</asrwt>
<pdfrwt beam="2">  1       21 0.42410254E-01 0.13091334E+03</pdfrwt>
<pdfrwt beam="1">  1       -4 0.42972306E-02 0.13091334E+03</pdfrwt>
<totfact> 0.65991511E+04</totfact>
</mgrwt>
</event>
<event>
 6    4  0.3995738E-003  0.1333273E+03  0.7818608E-02  0.1222600E+00
         21   -1    0    0  501  502  0.00000000000E+00  0.00000000000E+00  0.72550678286E+02  0.72550678286E+02  0.00000000000E+00 0.  1.
          4   -1    0    0  502    0 -0.00000000000E+00 -0.00000000000E+00 -0.19673790313E+03  0.19674200219E+03  0.12700000000E+01 0.  1.
         25    2    1    2    0    0  0.46258542568E+02 -0.31628186219E+01 -0.16174264620E+03  0.20961120299E+03  0.12500526644E+03 0.  0.
    9000005    1    3    3    0    0  0.58230481085E+02 -0.53213606051E+02 -0.75617974910E+02  0.10927742185E+03  0.10000000000E+01 0.  0.
    9000005    1    3    3    0    0 -0.11971938517E+02  0.50050787429E+02 -0.86124671286E+02  0.10033378114E+03  0.10000000000E+01 0.  0.
          4    1    1    2  501    0 -0.46258542568E+02  0.31628186219E+01  0.37555421355E+02  0.59681477489E+02  0.12700000000E+01 0. -1.
<mgrwt>
<rscale>  1 0.13332731E+03</rscale>
<asrwt>0</asrwt>
<pdfrwt beam="1">  1       21 0.11161643E-01 0.13332731E+03</pdfrwt>
<pdfrwt beam="2">  1        4 0.30268540E-01 0.13332731E+03</pdfrwt>
<totfact> 0.28313873E+04</totfact>
</mgrwt>
</event>
<event>
 6    4  0.3995738E-003  0.1512257E+03  0.7818608E-02  0.1198975E+00
         21   -1    0    0  501  502  0.00000000000E+00  0.00000000000E+00  0.31225606398E+02  0.31225606398E+02  0.00000000000E+00 0. -1.
          4   -1    0    0  502    0 -0.00000000000E+00 -0.00000000000E+00 -0.50763589013E+03  0.50763747876E+03  0.12700000000E+01 0.  1.
         25    2    1    2    0    0  0.71380427997E+02 -0.46354576336E+02 -0.38659409918E+03  0.41511951097E+03  0.12500119445E+03 0.  0.
    9000005    1    3    3    0    0  0.33211997612E+02 -0.38403705987E+02 -0.35725919515E+02  0.62090440038E+02  0.10000000000E+01 0.  0.
    9000005    1    3    3    0    0  0.38168430384E+02 -0.79508703487E+01 -0.35086817967E+03  0.35302907093E+03  0.10000000000E+01 0.  0.
          4    1    1    2  501    0 -0.71380427997E+02  0.46354576336E+02 -0.89816184548E+02  0.12374357420E+03  0.12700000000E+01 0. -1.
<mgrwt>
<rscale>  1 0.15122570E+03</rscale>
<asrwt>0</asrwt>
<pdfrwt beam="1">  1       21 0.48039393E-02 0.15122570E+03</pdfrwt>
<pdfrwt beam="2">  1        4 0.78099940E-01 0.15122570E+03</pdfrwt>
<totfact> 0.17759069E+04</totfact>
</mgrwt>
</event>
<event>
 6    4  0.3995738E-003  0.1266590E+03  0.7818608E-02  0.1232499E+00
         -4   -1    0    0    0  501 -0.00000000000E+00  0.00000000000E+00  0.26194943879E+02  0.26225712284E+02  0.12700000000E+01 0.  1.
         21   -1    0    0  501  502  0.00000000000E+00 -0.00000000000E+00 -0.32587077843E+03  0.32587077843E+03  0.00000000000E+00 0. -1.
         25    2    1    2    0    0  0.17614357735E+02 -0.10456073321E+02 -0.13115202831E+03  0.18232758532E+03  0.12499159480E+03 0.  0.
    9000005    1    3    3    0    0  0.44843500880E+02 -0.51007053481E+02 -0.39782076378E+02  0.78716406657E+02  0.10000000000E+01 0.  0.
    9000005    1    3    3    0    0 -0.27229143145E+02  0.40550980160E+02 -0.91369951927E+02  0.10361117866E+03  0.10000000000E+01 0.  0.
         -4    1    1    2    0  502 -0.17614357735E+02  0.10456073321E+02 -0.16852380625E+03  0.16976890540E+03  0.12700000000E+01 0. -1.
<mgrwt>
<rscale>  1 0.12665897E+03</rscale>
<asrwt>0</asrwt>
<pdfrwt beam="2">  1       21 0.50133966E-01 0.12665897E+03</pdfrwt>
<pdfrwt beam="1">  1       -4 0.40325486E-02 0.12665897E+03</pdfrwt>
<totfact> 0.51708421E+04</totfact>
</mgrwt>
</event>
<event>
 6    4  0.3995738E-003  0.1285371E+03  0.7818608E-02  0.1229643E+00
         -4   -1    0    0    0  501 -0.00000000000E+00  0.00000000000E+00  0.18222527491E+02  0.18266729542E+02  0.12700000000E+01 0.  1.
         21   -1    0    0  501  502  0.00000000000E+00 -0.00000000000E+00 -0.11558153160E+04  0.11558153160E+04  0.00000000000E+00 0. -1.
         25    2    1    2    0    0  0.18152666227E+02 -0.23800817574E+02 -0.21143626058E+03  0.24744105501E+03  0.12500314079E+03 0.  0.
    9000005    1    3    3    0    0  0.47656757159E+02  0.34920898476E+02 -0.12993863749E+03  0.14274342425E+03  0.10000000000E+01 0.  0.
    9000005    1    3    3    0    0 -0.29504090931E+02 -0.58721716050E+02 -0.81497623084E+02  0.10469763076E+03  0.10000000000E+01 0.  0.
         -4    1    1    2    0  502 -0.18152666227E+02  0.23800817574E+02 -0.92615652789E+03  0.92664099049E+03  0.12700000000E+01 0. -1.
<mgrwt>
<rscale>  1 0.12853709E+03</rscale>
<asrwt>0</asrwt>
<pdfrwt beam="2">  1       21 0.17781771E+00 0.12853709E+03</pdfrwt>
<pdfrwt beam="1">  1       -4 0.28069201E-02 0.12853709E+03</pdfrwt>
<totfact> 0.47378992E+03</totfact>
</mgrwt>
</event>
<event>
 6    4  0.3995738E-003  0.1282457E+03  0.7818608E-02  0.1230082E+00
         21   -1    0    0  501  502  0.00000000000E+00  0.00000000000E+00  0.19545363383E+02  0.19545363383E+02  0.00000000000E+00 0. -1.
         -4   -1    0    0    0  501 -0.00000000000E+00 -0.00000000000E+00 -0.40458241977E+03  0.40458441306E+03  0.12700000000E+01 0.  1.
         25    2    1    2    0    0 -0.52539663347E+01 -0.28197225214E+02 -0.37025674245E+03  0.39183800888E+03  0.12499712878E+03 0.  0.
    9000005    1    3    3    0    0  0.54994264343E+02 -0.35707205944E+02 -0.22600418783E+03  0.23532587318E+03  0.10000000000E+01 0.  0.
    9000005    1    3    3    0    0 -0.60248230678E+02  0.75099807297E+01 -0.14425255461E+03  0.15651213570E+03  0.10000000000E+01 0.  0.
         -4    1    1    2    0  502  0.52539663347E+01  0.28197225214E+02 -0.14780313942E+02  0.32291767562E+02  0.12700000000E+01 0. -1.
<mgrwt>
<rscale>  1 0.12824574E+03</rscale>
<asrwt>0</asrwt>
<pdfrwt beam="1">  1       21 0.30069791E-02 0.12824574E+03</pdfrwt>
<pdfrwt beam="2">  1       -4 0.62246774E-01 0.12824574E+03</pdfrwt>
<totfact> 0.61875828E+04</totfact>
</mgrwt>
</event>
<event>
 6    4  0.3995738E-003  0.1381693E+03  0.7818608E-02  0.1215814E+00
         21   -1    0    0  501  502  0.00000000000E+00  0.00000000000E+00  0.13013513009E+03  0.13013513009E+03  0.00000000000E+00 0. -1.
          4   -1    0    0  502    0 -0.00000000000E+00 -0.00000000000E+00 -0.12235914500E+03  0.12236573567E+03  0.12700000000E+01 0.  1.
         25    2    1    2    0    0 -0.39453661771E+02  0.43721336694E+02 -0.70037422836E+02  0.15490636765E+03  0.12499038135E+03 0.  0.
    9000005    1    3    3    0    0 -0.79237070542E+02  0.26540365643E+02 -0.15092385560E+02  0.84921637163E+02  0.10000000000E+01 0.  0.
    9000005    1    3    3    0    0  0.39783408771E+02  0.17180971052E+02 -0.54945037276E+02  0.69984730484E+02  0.10000000000E+01 0.  0.
          4    1    1    2  501    0  0.39453661771E+02 -0.43721336694E+02  0.77813407925E+02  0.97594498116E+02  0.12700000000E+01 0. -1.
<mgrwt>
<rscale>  1 0.13816925E+03</rscale>
<asrwt>0</asrwt>
<pdfrwt beam="1">  1       21 0.20020789E-01 0.13816925E+03</pdfrwt>
<pdfrwt beam="2">  1        4 0.18825468E-01 0.13816925E+03</pdfrwt>
<totfact> 0.23675934E+04</totfact>
</mgrwt>
</event>
<event>
 6    4  0.3995738E-003  0.1301027E+03  0.7818608E-02  0.1227303E+00
         21   -1    0    0  501  502  0.00000000000E+00  0.00000000000E+00  0.67297034378E+02  0.67297034378E+02  0.00000000000E+00 0. -1.
         -4   -1    0    0    0  501 -0.00000000000E+00 -0.00000000000E+00 -0.11240735532E+03  0.11241452944E+03  0.12700000000E+01 0. -1.
         25    2    1    2    0    0 -0.24220862540E+02  0.26743115494E+02 -0.56518402083E+02  0.14184863177E+03  0.12499944060E+03 0.  0.
    9000005    1    3    3    0    0 -0.34190807438E+02 -0.28605606648E+02  0.18338509659E+02  0.48214033034E+02  0.10000000000E+01 0.  0.
    9000005    1    3    3    0    0  0.99699448979E+01  0.55348722141E+02 -0.74856911742E+02  0.93634598731E+02  0.10000000000E+01 0.  0.
         -4    1    1    2    0  502  0.24220862540E+02 -0.26743115494E+02  0.11408081142E+02  0.37862932055E+02  0.12700000000E+01 0.  1.
<mgrwt>
<rscale>  1 0.13010267E+03</rscale>
<asrwt>0</asrwt>
<pdfrwt beam="1">  1       21 0.10353390E-01 0.13010267E+03</pdfrwt>
<pdfrwt beam="2">  1       -4 0.17294913E-01 0.13010267E+03</pdfrwt>
<totfact> 0.89581309E+04</totfact>
</mgrwt>
</event>
<event>
 6    4  0.3995738E-003  0.1279731E+03  0.7818608E-02  0.1230495E+00
         -4   -1    0    0    0  501 -0.00000000000E+00  0.00000000000E+00  0.32474411278E+02  0.32499235189E+02  0.12700000000E+01 0.  1.
         21   -1    0    0  501  502  0.00000000000E+00 -0.00000000000E+00 -0.67691952710E+03  0.67691952710E+03  0.00000000000E+00 0. -1.
         25    2    1    2    0    0 -0.14256257025E+02 -0.23428652328E+02 -0.95229318130E+02  0.15951718205E+03  0.12499986289E+03 0.  0.
    9000005    1    3    3    0    0  0.23873226571E+02  0.43875354917E+02 -0.29613878446E+02  0.58077185819E+02  0.10000000000E+01 0.  0.
    9000005    1    3    3    0    0 -0.38129483596E+02 -0.67304007245E+02 -0.65615439684E+02  0.10143999623E+03  0.10000000000E+01 0.  0.
         -4    1    1    2    0  502  0.14256257025E+02  0.23428652328E+02 -0.54921579769E+03  0.54990158024E+03  0.12700000000E+01 0. -1.
<mgrwt>
<rscale>  1 0.12797308E+03</rscale>
<asrwt>0</asrwt>
<pdfrwt beam="2">  1       21 0.10414145E+00 0.12797308E+03</pdfrwt>
<pdfrwt beam="1">  1       -4 0.49980651E-02 0.12797308E+03</pdfrwt>
<totfact> 0.73652953E+03</totfact>
</mgrwt>
</event>
<event>
 6    4  0.3995738E-003  0.1336087E+03  0.7818608E-02  0.1222197E+00
          4   -1    0    0  502    0 -0.00000000000E+00  0.00000000000E+00  0.29967320214E+02  0.29994219123E+02  0.12700000000E+01 0.  1.
         21   -1    0    0  501  502  0.00000000000E+00 -0.00000000000E+00 -0.33861832724E+03  0.33861832724E+03  0.00000000000E+00 0. -1.
         25    2    1    2    0    0  0.16080153120E+02 -0.44358249678E+02 -0.14017637189E+03  0.19365100424E+03  0.12500028227E+03 0.  0.
    9000005    1    3    3    0    0 -0.41953940042E+02  0.19328268602E+02 -0.36770604889E+02  0.59049068038E+02  0.10000000000E+01 0.  0.
    9000005    1    3    3    0    0  0.58034093162E+02 -0.63686518280E+02 -0.10340576700E+03  0.13460193620E+03  0.10000000000E+01 0.  0.
          4    1    1    2  501    0 -0.16080153120E+02  0.44358249678E+02 -0.16847463513E+03  0.17496154212E+03  0.12700000000E+01 0. -1.
<mgrwt>
<rscale>  1 0.13360874E+03</rscale>
<asrwt>0</asrwt>
<pdfrwt beam="2">  1       21 0.52095125E-01 0.13360874E+03</pdfrwt>
<pdfrwt beam="1">  1        4 0.46126095E-02 0.13360874E+03</pdfrwt>
<totfact> 0.38775670E+04</totfact>
</mgrwt>
</event>
<event>
 6    4  0.3995738E-003  0.1288716E+03  0.7818608E-02  0.1229140E+00
         21   -1    0    0  501  502  0.00000000000E+00  0.00000000000E+00  0.15149703376E+04  0.15149703376E+04  0.00000000000E+00 0. -1.
         -4   -1    0    0    0  501 -0.00000000000E+00 -0.00000000000E+00 -0.89179159600E+01  0.90078923767E+01  0.12700000000E+01 0.  1.
         25    2    1    2    0    0  0.21870070230E+02  0.22452213472E+02  0.46708004058E+03  0.48453240485E+03  0.12500194072E+03 0.  0.
    9000005    1    3    3    0    0  0.33046641028E+02 -0.43951135844E+02  0.13651590668E+03  0.14717804049E+03  0.10000000000E+01 0.  0.
    9000005    1    3    3    0    0 -0.11176570798E+02  0.66403349316E+02  0.33056413389E+03  0.33735436436E+03  0.10000000000E+01 0.  0.
         -4    1    1    2    0  502 -0.21870070230E+02 -0.22452213472E+02  0.10389723811E+04  0.10394458251E+04  0.12700000000E+01 0. -1.
<mgrwt>
<rscale>  1 0.12887159E+03</rscale>
<asrwt>0</asrwt>
<pdfrwt beam="1">  1       21 0.23307216E+00 0.12887159E+03</pdfrwt>
<pdfrwt beam="2">  1       -4 0.13789505E-02 0.12887159E+03</pdfrwt>
<totfact> 0.64013190E+03</totfact>
</mgrwt>
</event>
<event>
 6    4  0.3995738E-003  0.1356364E+03  0.7818608E-02  0.1219324E+00
         21   -1    0    0  501  502  0.00000000000E+00  0.00000000000E+00  0.12760240012E+02  0.12760240012E+02  0.00000000000E+00 0. -1.
          4   -1    0    0  502    0 -0.00000000000E+00 -0.00000000000E+00 -0.11543953122E+04  0.11543960107E+04  0.12700000000E+01 0.  1.
         25    2    1    2    0    0 -0.52633048975E+02  0.16524939156E+01 -0.10682350384E+04  0.10768116525E+04  0.12499707641E+03 0.  0.
    9000005    1    3    3    0    0 -0.54056202870E+02 -0.65155931000E+00 -0.16624010703E+03  0.17481210137E+03  0.10000000000E+01 0.  0.
    9000005    1    3    3    0    0  0.14231538945E+01  0.23040532256E+01 -0.90199493139E+03  0.90199955116E+03  0.10000000000E+01 0.  0.
          4    1    1    2  501    0  0.52633048975E+02 -0.16524939156E+01 -0.73400033720E+02  0.90344598237E+02  0.12700000000E+01 0. -1.
<mgrwt>
<rscale>  1 0.13563642E+03</rscale>
<asrwt>0</asrwt>
<pdfrwt beam="1">  1       21 0.19631138E-02 0.13563642E+03</pdfrwt>
<pdfrwt beam="2">  1        4 0.17760420E+00 0.13563642E+03</pdfrwt>
<totfact> 0.10553538E+04</totfact>
</mgrwt>
</event>
<event>
 6    4  0.3995738E-003  0.1280140E+03  0.7818608E-02  0.1230433E+00
          4   -1    0    0  502    0 -0.00000000000E+00  0.00000000000E+00  0.39806537662E+02  0.39826791744E+02  0.12700000000E+01 0. -1.
         21   -1    0    0  501  502  0.00000000000E+00 -0.00000000000E+00 -0.17707933075E+03  0.17707933075E+03  0.00000000000E+00 0. -1.
         25    2    1    2    0    0  0.27351392717E+02 -0.37872854903E+01 -0.13930299208E+03  0.18919011948E+03  0.12500054196E+03 0.  0.
    9000005    1    3    3    0    0  0.51561649896E+02  0.30690067175E+02 -0.20958720637E+02  0.63566909111E+02  0.10000000000E+01 0.  0.
    9000005    1    3    3    0    0 -0.24210257179E+02 -0.34477352666E+02 -0.11834427145E+03  0.12562321037E+03  0.10000000000E+01 0.  0.
          4    1    1    2  501    0 -0.27351392717E+02  0.37872854903E+01  0.20301989957E+01  0.27716003011E+02  0.12700000000E+01 0.  1.
<mgrwt>
<rscale>  1 0.12801397E+03</rscale>
<asrwt>0</asrwt>
<pdfrwt beam="2">  1       21 0.27242975E-01 0.12801397E+03</pdfrwt>
<pdfrwt beam="1">  1        4 0.61259909E-02 0.12801397E+03</pdfrwt>
<totfact> 0.88534125E+04</totfact>
</mgrwt>
</event>
<event>
 6    4  0.3995738E-003  0.1280767E+03  0.7818608E-02  0.1230338E+00
         -4   -1    0    0    0  501 -0.00000000000E+00  0.00000000000E+00  0.39892656248E+03  0.39892858403E+03  0.12700000000E+01 0.  1.
         21   -1    0    0  501  502  0.00000000000E+00 -0.00000000000E+00 -0.28665514855E+02  0.28665514855E+02  0.00000000000E+00 0. -1.
         25    2    1    2    0    0  0.22505502041E+02  0.16497443570E+02  0.37758578896E+03  0.39871628729E+03  0.12499994583E+03 0.  0.
    9000005    1    3    3    0    0  0.63673869848E+02  0.67721533135E+01  0.32485622601E+03  0.33110842837E+03  0.10000000000E+01 0.  0.
    9000005    1    3    3    0    0 -0.41168367807E+02  0.97252902562E+01  0.52729562956E+02  0.67607858921E+02  0.10000000000E+01 0.  0.
         -4    1    1    2    0  502 -0.22505502041E+02 -0.16497443570E+02 -0.73247413375E+01  0.28877811588E+02  0.12700000000E+01 0. -1.
<mgrwt>
<rscale>  1 0.12807673E+03</rscale>
<asrwt>0</asrwt>
<pdfrwt beam="2">  1       21 0.44100795E-02 0.12807673E+03</pdfrwt>
<pdfrwt beam="1">  1       -4 0.61375633E-01 0.12807673E+03</pdfrwt>
<totfact> 0.33827372E+04</totfact>
</mgrwt>
</event>
<event>
 6    4  0.3995738E-003  0.1280970E+03  0.7818608E-02  0.1230307E+00
         -4   -1    0    0    0  501 -0.00000000000E+00  0.00000000000E+00  0.16547204633E+03  0.16547691990E+03  0.12700000000E+01 0.  1.
         21   -1    0    0  501  502  0.00000000000E+00 -0.00000000000E+00 -0.37278465915E+02  0.37278465915E+02  0.00000000000E+00 0.  1.
         25    2    1    2    0    0  0.27895120439E+02  0.23545428920E+01  0.11333375293E+03  0.17103616467E+03  0.12500059382E+03 0.  0.
    9000005    1    3    3    0    0  0.98156919522E+01  0.23030972449E+02 -0.21753634330E+02  0.33181231247E+02  0.10000000000E+01 0.  0.
    9000005    1    3    3    0    0  0.18079428487E+02 -0.20676429557E+02  0.13508738726E+03  0.13785493343E+03  0.10000000000E+01 0.  0.
         -4    1    1    2    0  502 -0.27895120439E+02 -0.23545428920E+01  0.14859827491E+02  0.31719221138E+02  0.12700000000E+01 0. -1.
<mgrwt>
<rscale>  1 0.12809696E+03</rscale>
<asrwt>0</asrwt>
<pdfrwt beam="2">  1       21 0.57351487E-02 0.12809696E+03</pdfrwt>
<pdfrwt beam="1">  1       -4 0.25459276E-01 0.12809696E+03</pdfrwt>
<totfact> 0.12281463E+05</totfact>
</mgrwt>
</event>
<event>
 6    4  0.3995738E-003  0.1279865E+03  0.7818608E-02  0.1230474E+00
         21   -1    0    0  501  502  0.00000000000E+00  0.00000000000E+00  0.75672510124E+01  0.75672510124E+01  0.00000000000E+00 0. -1.
         -4   -1    0    0    0  501 -0.00000000000E+00 -0.00000000000E+00 -0.82445962035E+03  0.82446059850E+03  0.12700000000E+01 0. -1.
         25    2    1    2    0    0 -0.26938062952E+02 -0.54382264589E+01 -0.72081412173E+03  0.73208848737E+03  0.12500128686E+03 0.  0.
    9000005    1    3    3    0    0  0.13745877440E+02  0.15099897678E+02 -0.16421939342E+02  0.26222817321E+02  0.10000000000E+01 0.  0.
    9000005    1    3    3    0    0 -0.40683940392E+02 -0.20538124137E+02 -0.70439218238E+03  0.70586567005E+03  0.10000000000E+01 0.  0.
         -4    1    1    2    0  502  0.26938062952E+02  0.54382264589E+01 -0.96078247606E+02  0.99939362143E+02  0.12700000000E+01 0.  1.
<mgrwt>
<rscale>  1 0.12798654E+03</rscale>
<asrwt>0</asrwt>
<pdfrwt beam="1">  1       21 0.11641928E-02 0.12798654E+03</pdfrwt>
<pdfrwt beam="2">  1       -4 0.12684818E+00 0.12798654E+03</pdfrwt>
<totfact> 0.57092208E+04</totfact>
</mgrwt>
</event>
<event>
 6    4  0.3995738E-003  0.1352330E+03  0.7818608E-02  0.1219891E+00
          4   -1    0    0  502    0 -0.00000000000E+00  0.00000000000E+00  0.16796512601E+04  0.16796517403E+04  0.12700000000E+01 0. -1.
         21   -1    0    0  501  502  0.00000000000E+00 -0.00000000000E+00 -0.68701591068E+01  0.68701591068E+01  0.00000000000E+00 0.  1.
         25    2    1    2    0    0  0.80257105049E+01  0.50979422564E+02  0.15028617320E+04  0.15089338412E+04  0.12499855152E+03 0.  0.
    9000005    1    3    3    0    0 -0.11610694336E+02  0.19490627733E+02  0.13887452787E+04  0.13889309349E+04  0.10000000000E+01 0.  0.
    9000005    1    3    3    0    0  0.19636404840E+02  0.31488794830E+02  0.11411645333E+03  0.12000290628E+03  0.10000000000E+01 0.  0.
          4    1    1    2  501    0 -0.80257105049E+01 -0.50979422564E+02  0.16991936901E+03  0.17758805821E+03  0.12700000000E+01 0.  1.
<mgrwt>
<rscale>  1 0.13523295E+03</rscale>
<asrwt>0</asrwt>
<pdfrwt beam="2">  1       21 0.10569489E-02 0.13523295E+03</pdfrwt>
<pdfrwt beam="1">  1        4 0.25841663E+00 0.13523295E+03</pdfrwt>
<totfact> 0.91984852E+03</totfact>
</mgrwt>
</event>
<event>
 6    4  0.3995738E-003  0.1365688E+03  0.7818608E-02  0.1218022E+00
         -4   -1    0    0    0  501 -0.00000000000E+00  0.00000000000E+00  0.31495669731E+03  0.31495925781E+03  0.12700000000E+01 0. -1.
         21   -1    0    0  501  502  0.00000000000E+00 -0.00000000000E+00 -0.40792466368E+02  0.40792466368E+02  0.00000000000E+00 0.  1.
         25    2    1    2    0    0  0.16554705377E+02  0.52451446181E+02  0.26748404810E+03  0.30033105819E+03  0.12500326415E+03 0.  0.
    9000005    1    3    3    0    0 -0.22996215789E+02  0.17521006836E+02  0.23824718990E+03  0.23999694814E+03  0.10000000000E+01 0.  0.
    9000005    1    3    3    0    0  0.39550921166E+02  0.34930439345E+02  0.29236858197E+02  0.60334110047E+02  0.10000000000E+01 0.  0.
         -4    1    1    2    0  502 -0.16554705377E+02 -0.52451446181E+02  0.66801828490E+01  0.55420665996E+02  0.12700000000E+01 0.  1.
<mgrwt>
<rscale>  1 0.13656877E+03</rscale>
<asrwt>0</asrwt>
<pdfrwt beam="2">  1       21 0.62757643E-02 0.13656877E+03</pdfrwt>
<pdfrwt beam="1">  1       -4 0.48456593E-01 0.13656877E+03</pdfrwt>
<totfact> 0.30647249E+04</totfact>
</mgrwt>
</event>
<event>
 6    4  0.3995738E-003  0.1442760E+03  0.7818608E-02  0.1207688E+00
         -4   -1    0    0    0  501 -0.00000000000E+00  0.00000000000E+00  0.65980696368E+03  0.65980818593E+03  0.12700000000E+01 0. -1.
         21   -1    0    0  501  502  0.00000000000E+00 -0.00000000000E+00 -0.18599842234E+02  0.18599842234E+02  0.00000000000E+00 0. -1.
         25    2    1    2    0    0  0.67213191300E+02  0.25947475123E+02  0.35337329725E+03  0.38169131512E+03  0.12499875310E+03 0.  0.
    9000005    1    3    3    0    0  0.45181003480E+02  0.18810760921E+02  0.35508894286E+03  0.35844710230E+03  0.10000000000E+01 0.  0.
    9000005    1    3    3    0    0  0.22032187820E+02  0.71367142026E+01 -0.17156456137E+01  0.23244212820E+02  0.10000000000E+01 0.  0.
         -4    1    1    2    0  502 -0.67213191300E+02 -0.25947475123E+02  0.28783382420E+03  0.29671671305E+03  0.12700000000E+01 0.  1.
<mgrwt>
<rscale>  1 0.14427603E+03</rscale>
<asrwt>0</asrwt>
<pdfrwt beam="2">  1       21 0.28615147E-02 0.14427603E+03</pdfrwt>
<pdfrwt beam="1">  1       -4 0.10151218E+00 0.14427603E+03</pdfrwt>
<totfact> 0.23097017E+04</totfact>
</mgrwt>
</event>
<event>
 6    4  0.3995738E-003  0.1414773E+03  0.7818608E-02  0.1211355E+00
         -4   -1    0    0    0  501 -0.00000000000E+00  0.00000000000E+00  0.17143144157E+03  0.17143614572E+03  0.12700000000E+01 0. -1.
         21   -1    0    0  501  502  0.00000000000E+00 -0.00000000000E+00 -0.87103867528E+02  0.87103867528E+02  0.00000000000E+00 0.  1.
         25    2    1    2    0    0 -0.45925477846E+01  0.66136850997E+02  0.11794897173E+03  0.18419496743E+03  0.12498260494E+03 0.  0.
    9000005    1    3    3    0    0 -0.61492720387E+02  0.56796598568E+02  0.66561815652E+02  0.10695178153E+03  0.10000000000E+01 0.  0.
    9000005    1    3    3    0    0  0.56900172603E+02  0.93402524288E+01  0.51387156082E+02  0.77243185899E+02  0.10000000000E+01 0.  0.
         -4    1    1    2    0  502  0.45925477846E+01 -0.66136850997E+02 -0.33621397691E+02  0.74345045818E+02  0.12700000000E+01 0.  1.
<mgrwt>
<rscale>  1 0.14147730E+03</rscale>
<asrwt>0</asrwt>
<pdfrwt beam="2">  1       21 0.13400595E-01 0.14147730E+03</pdfrwt>
<pdfrwt beam="1">  1       -4 0.26375142E-01 0.14147730E+03</pdfrwt>
<totfact> 0.26654367E+04</totfact>
</mgrwt>
</event>
<event>
 6    4  0.3995738E-003  0.1286760E+03  0.7818608E-02  0.1229434E+00
         21   -1    0    0  501  502  0.00000000000E+00  0.00000000000E+00  0.12338075403E+02  0.12338075403E+02  0.00000000000E+00 0.  1.
          4   -1    0    0  502    0 -0.00000000000E+00 -0.00000000000E+00 -0.51616076619E+03  0.51616232859E+03  0.12700000000E+01 0.  1.
         25    2    1    2    0    0 -0.25868144070E+02  0.16255244065E+02 -0.42031098792E+03  0.43956665757E+03  0.12499650412E+03 0.  0.
    9000005    1    3    3    0    0 -0.55915354834E+02 -0.45004787366E+01 -0.38393369504E+03  0.38801142174E+03  0.10000000000E+01 0.  0.
    9000005    1    3    3    0    0  0.30047210765E+02  0.20755722802E+02 -0.36377292879E+02  0.51555235825E+02  0.10000000000E+01 0.  0.
          4    1    1    2  501    0  0.25868144070E+02 -0.16255244065E+02 -0.83511702868E+02  0.88933746425E+02  0.12700000000E+01 0. -1.
<mgrwt>
<rscale>  1 0.12867603E+03</rscale>
<asrwt>0</asrwt>
<pdfrwt beam="1">  1       21 0.18981661E-02 0.12867603E+03</pdfrwt>
<pdfrwt beam="2">  1        4 0.79414470E-01 0.12867603E+03</pdfrwt>
<totfact> 0.77294846E+04</totfact>
</mgrwt>
</event>
<event>
 6    4  0.3995738E-003  0.1398115E+03  0.7818608E-02  0.1213583E+00
          4   -1    0    0  502    0 -0.00000000000E+00  0.00000000000E+00  0.23494687808E+03  0.23495031053E+03  0.12700000000E+01 0.  1.
         21   -1    0    0  501  502  0.00000000000E+00 -0.00000000000E+00 -0.10225332985E+03  0.10225332985E+03  0.00000000000E+00 0. -1.
         25    2    1    2    0    0 -0.43062934467E+02 -0.45468855586E+02  0.20079597461E+03  0.24467587951E+03  0.12500171774E+03 0.  0.
    9000005    1    3    3    0    0 -0.60932916748E+02  0.39159624634E+01  0.17656743154E+03  0.18682936864E+03  0.10000000000E+01 0.  0.
    9000005    1    3    3    0    0  0.17869982281E+02 -0.49384818050E+02  0.24228543076E+02  0.57846510872E+02  0.10000000000E+01 0.  0.
          4    1    1    2  501    0  0.43062934467E+02  0.45468855586E+02 -0.68102426377E+02  0.92527760870E+02  0.12700000000E+01 0. -1.
<mgrwt>
<rscale>  1 0.13981153E+03</rscale>
<asrwt>0</asrwt>
<pdfrwt beam="2">  1       21 0.15731282E-01 0.13981153E+03</pdfrwt>
<pdfrwt beam="1">  1        4 0.36146544E-01 0.13981153E+03</pdfrwt>
<totfact> 0.10961112E+04</totfact>
</mgrwt>
</event>
<event>
 6    4  0.3995738E-003  0.1281346E+03  0.7818608E-02  0.1230250E+00
         21   -1    0    0  501  502  0.00000000000E+00  0.00000000000E+00  0.65760526448E+02  0.65760526448E+02  0.00000000000E+00 0.  1.
          4   -1    0    0  502    0 -0.00000000000E+00 -0.00000000000E+00 -0.99271222669E+02  0.99279346040E+02  0.12700000000E+01 0.  1.
         25    2    1    2    0    0 -0.24968713651E+02 -0.13057047849E+02 -0.43193442784E+02  0.13521887920E+03  0.12499819451E+03 0.  0.
    9000005    1    3    3    0    0 -0.11797669985E+02  0.41178520608E+02 -0.62826322227E+02  0.76046054080E+02  0.10000000000E+01 0.  0.
    9000005    1    3    3    0    0 -0.13171043666E+02 -0.54235568457E+02  0.19632879443E+02  0.59172825117E+02  0.10000000000E+01 0.  0.
          4    1    1    2  501    0  0.24968713651E+02  0.13057047849E+02  0.96827465639E+01  0.29820993292E+02  0.12700000000E+01 0. -1.
<mgrwt>
<rscale>  1 0.12813458E+03</rscale>
<asrwt>0</asrwt>
<pdfrwt beam="1">  1       21 0.10117004E-01 0.12813458E+03</pdfrwt>
<pdfrwt beam="2">  1        4 0.15274064E-01 0.12813458E+03</pdfrwt>
<totfact> 0.11580059E+05</totfact>
</mgrwt>
</event>
<event>
 6    4  0.3995738E-003  0.1308745E+03  0.7818608E-02  0.1226164E+00
         21   -1    0    0  501  502  0.00000000000E+00  0.00000000000E+00  0.29895063444E+03  0.29895063444E+03  0.00000000000E+00 0. -1.
          4   -1    0    0  502    0 -0.00000000000E+00 -0.00000000000E+00 -0.24324644317E+02  0.24357775374E+02  0.12700000000E+01 0. -1.
         25    2    1    2    0    0  0.32236537351E+02  0.21555697316E+02  0.22526440237E+03  0.26052288861E+03  0.12499712832E+03 0.  0.
    9000005    1    3    3    0    0  0.57664491389E+02 -0.48449225638E+01  0.21469846216E+03  0.22236253393E+03  0.10000000000E+01 0.  0.
    9000005    1    3    3    0    0 -0.25427954038E+02  0.26400619880E+02  0.10565940204E+02  0.38160354676E+02  0.10000000000E+01 0.  0.
          4    1    1    2  501    0 -0.32236537351E+02 -0.21555697316E+02  0.49361587755E+02  0.62785521204E+02  0.12700000000E+01 0.  1.
<mgrwt>
<rscale>  1 0.13087446E+03</rscale>
<asrwt>0</asrwt>
<pdfrwt beam="1">  1       21 0.45992403E-01 0.13087446E+03</pdfrwt>
<pdfrwt beam="2">  1        4 0.37450092E-02 0.13087446E+03</pdfrwt>
<totfact> 0.69645106E+04</totfact>
</mgrwt>
</event>
<event>
 6    4  0.3995738E-003  0.1279159E+03  0.7818608E-02  0.1230581E+00
          4   -1    0    0  502    0 -0.00000000000E+00  0.00000000000E+00  0.75996723235E+02  0.76007334136E+02  0.12700000000E+01 0.  1.
         21   -1    0    0  501  502  0.00000000000E+00 -0.00000000000E+00 -0.11521394783E+03  0.11521394783E+03  0.00000000000E+00 0.  1.
         25    2    1    2    0    0 -0.25639409354E+02  0.89612770149E+01  0.16741251607E+02  0.12900675186E+03  0.12499915488E+03 0.  0.
    9000005    1    3    3    0    0  0.40384965951E+02  0.35775092707E+02  0.20290657995E+02  0.57649922246E+02  0.10000000000E+01 0.  0.
    9000005    1    3    3    0    0 -0.66024375305E+02 -0.26813815693E+02 -0.35494063883E+01  0.71356829611E+02  0.10000000000E+01 0.  0.
          4    1    1    2  501    0  0.25639409354E+02 -0.89612770149E+01 -0.55958476207E+02  0.62214530113E+02  0.12700000000E+01 0. -1.
<mgrwt>
<rscale>  1 0.12791588E+03</rscale>
<asrwt>0</asrwt>
<pdfrwt beam="2">  1       21 0.17725223E-01 0.12791588E+03</pdfrwt>
<pdfrwt beam="1">  1        4 0.11693158E-01 0.12791588E+03</pdfrwt>
<totfact> 0.67383206E+04</totfact>
</mgrwt>
</event>
<event>
 6    4  0.3995738E-003  0.1348595E+03  0.7818608E-02  0.1220418E+00
         -4   -1    0    0    0  501 -0.00000000000E+00  0.00000000000E+00  0.13379996088E+02  0.13440133754E+02  0.12700000000E+01 0.  1.
         21   -1    0    0  501  502  0.00000000000E+00 -0.00000000000E+00 -0.66581112633E+03  0.66581112633E+03  0.00000000000E+00 0. -1.
         25    2    1    2    0    0 -0.82701693163E+01 -0.49925546693E+02 -0.52720625482E+03  0.54418150685E+03  0.12500448539E+03 0.  0.
    9000005    1    3    3    0    0 -0.56131539620E+02 -0.63193456718E+02 -0.30554330751E+03  0.31702030767E+03  0.10000000000E+01 0.  0.
    9000005    1    3    3    0    0  0.47861370303E+02  0.13267910025E+02 -0.22166294731E+03  0.22716119918E+03  0.10000000000E+01 0.  0.
         -4    1    1    2    0  502  0.82701693163E+01  0.49925546693E+02 -0.12522487543E+03  0.13506975323E+03  0.12700000000E+01 0. -1.
<mgrwt>
<rscale>  1 0.13485947E+03</rscale>
<asrwt>0</asrwt>
<pdfrwt beam="2">  1       21 0.10243252E+00 0.13485947E+03</pdfrwt>
<pdfrwt beam="1">  1       -4 0.20631794E-02 0.13485947E+03</pdfrwt>
<totfact> 0.30876840E+04</totfact>
</mgrwt>
</event>
<event>
 6    4  0.3995738E-003  0.1279881E+03  0.7818608E-02  0.1230472E+00
         21   -1    0    0  501  502  0.00000000000E+00  0.00000000000E+00  0.12114706557E+02  0.12114706557E+02  0.00000000000E+00 0. -1.
         -4   -1    0    0    0  501 -0.00000000000E+00 -0.00000000000E+00 -0.50433382210E+03  0.50433542114E+03  0.12700000000E+01 0. -1.
         25    2    1    2    0    0 -0.19370589958E+02 -0.19519258457E+02 -0.38319498206E+03  0.40400415939E+03  0.12499898129E+03 0.  0.
    9000005    1    3    3    0    0 -0.58089280919E+02 -0.33866604191E+02 -0.11974448821E+03  0.13733555218E+03  0.10000000000E+01 0.  0.
    9000005    1    3    3    0    0  0.38718690960E+02  0.14347345733E+02 -0.26345049385E+03  0.26666860721E+03  0.10000000000E+01 0.  0.
         -4    1    1    2    0  502  0.19370589958E+02  0.19519258457E+02 -0.10902413349E+03  0.11244596831E+03  0.12700000000E+01 0.  1.
<mgrwt>
<rscale>  1 0.12798815E+03</rscale>
<asrwt>0</asrwt>
<pdfrwt beam="1">  1       21 0.18638007E-02 0.12798815E+03</pdfrwt>
<pdfrwt beam="2">  1       -4 0.77595076E-01 0.12798815E+03</pdfrwt>
<totfact> 0.83700658E+04</totfact>
</mgrwt>
</event>
<event>
 6    4  0.3995738E-003  0.1326680E+03  0.7818608E-02  0.1223550E+00
         21   -1    0    0  501  502  0.00000000000E+00  0.00000000000E+00  0.32859484653E+03  0.32859484653E+03  0.00000000000E+00 0.  1.
          4   -1    0    0  502    0 -0.00000000000E+00 -0.00000000000E+00 -0.35694451496E+02  0.35717037497E+02  0.12700000000E+01 0. -1.
         25    2    1    2    0    0 -0.49739209652E+01  0.44171154779E+02  0.99418227164E+02  0.16578532916E+03  0.12499984267E+03 0.  0.
    9000005    1    3    3    0    0 -0.59841048788E+02  0.48397596131E+02  0.49741601665E+02  0.91643359648E+02  0.10000000000E+01 0.  0.
    9000005    1    3    3    0    0  0.54867127823E+02 -0.42264413528E+01  0.49676625499E+02  0.74141969511E+02  0.10000000000E+01 0.  0.
          4    1    1    2  501    0  0.49739209652E+01 -0.44171154779E+02  0.19348216787E+03  0.19852655487E+03  0.12700000000E+01 0.  1.
<mgrwt>
<rscale>  1 0.13266797E+03</rscale>
<asrwt>0</asrwt>
<pdfrwt beam="1">  1       21 0.50553051E-01 0.13266797E+03</pdfrwt>
<pdfrwt beam="2">  1        4 0.54933805E-02 0.13266797E+03</pdfrwt>
<totfact> 0.31138374E+04</totfact>
</mgrwt>
</event>
<event>
 6    4  0.3995738E-003  0.1277545E+03  0.7818608E-02  0.1230826E+00
          4   -1    0    0  502    0 -0.00000000000E+00  0.00000000000E+00  0.98018720822E+02  0.98026947987E+02  0.12700000000E+01 0.  1.
         21   -1    0    0  501  502  0.00000000000E+00 -0.00000000000E+00 -0.92319553680E+02  0.92319553680E+02  0.00000000000E+00 0.  1.
         25    2    1    2    0    0 -0.61696248219E+01 -0.25666926977E+02  0.51276709418E+02  0.13766082363E+03  0.12499738406E+03 0.  0.
    9000005    1    3    3    0    0 -0.19835852795E+02  0.42070846310E+02  0.50338306230E+02  0.68544600367E+02  0.10000000000E+01 0.  0.
    9000005    1    3    3    0    0  0.13666227973E+02 -0.67737773287E+02  0.93840318787E+00  0.69116223258E+02  0.10000000000E+01 0.  0.
          4    1    1    2  501    0  0.61696248219E+01  0.25666926977E+02 -0.45577542275E+02  0.52685678042E+02  0.12700000000E+01 0. -1.
<mgrwt>
<rscale>  1 0.12775446E+03</rscale>
<asrwt>0</asrwt>
<pdfrwt beam="2">  1       21 0.14203008E-01 0.12775446E+03</pdfrwt>
<pdfrwt beam="1">  1        4 0.15081108E-01 0.12775446E+03</pdfrwt>
<totfact> 0.64888378E+04</totfact>
</mgrwt>
</event>
<event>
 6    4  0.3995738E-003  0.1270538E+03  0.7818608E-02  0.1231894E+00
          4   -1    0    0  502    0 -0.00000000000E+00  0.00000000000E+00  0.10442867562E+03  0.10443639783E+03  0.12700000000E+01 0. -1.
         21   -1    0    0  501  502  0.00000000000E+00 -0.00000000000E+00 -0.55542820907E+02  0.55542820907E+02  0.00000000000E+00 0.  1.
         25    2    1    2    0    0 -0.21674752837E+02  0.69271137539E+01  0.51387132277E+02  0.13705218001E+03  0.12499953147E+03 0.  0.
    9000005    1    3    3    0    0  0.15775266207E+02  0.40091324474E+02  0.71209938944E+02  0.83234780750E+02  0.10000000000E+01 0.  0.
    9000005    1    3    3    0    0 -0.37450019044E+02 -0.33164210720E+02 -0.19822806667E+02  0.53817399262E+02  0.10000000000E+01 0.  0.
          4    1    1    2  501    0  0.21674752837E+02 -0.69271137539E+01 -0.25012775599E+01  0.22927038731E+02  0.12700000000E+01 0.  1.
<mgrwt>
<rscale>  1 0.12705378E+03</rscale>
<asrwt>0</asrwt>
<pdfrwt beam="2">  1       21 0.85450495E-02 0.12705378E+03</pdfrwt>
<pdfrwt beam="1">  1        4 0.16067661E-01 0.12705378E+03</pdfrwt>
<totfact> 0.14199739E+05</totfact>
</mgrwt>
</event>
<event>
 6    4  0.3995738E-003  0.1273506E+03  0.7818608E-02  0.1231441E+00
         -4   -1    0    0    0  501 -0.00000000000E+00  0.00000000000E+00  0.11352193016E+03  0.11352903385E+03  0.12700000000E+01 0.  1.
         21   -1    0    0  501  502  0.00000000000E+00 -0.00000000000E+00 -0.51979997313E+02  0.51979997313E+02  0.00000000000E+00 0.  1.
         25    2    1    2    0    0 -0.23250787472E+02 -0.72577387337E+01  0.60769030878E+02  0.14110648689E+03  0.12499956655E+03 0.  0.
    9000005    1    3    3    0    0 -0.59192026127E+02 -0.11731475573E+02  0.79901562797E+02  0.10013282785E+03  0.10000000000E+01 0.  0.
    9000005    1    3    3    0    0  0.35941238654E+02  0.44737368390E+01 -0.19132531919E+02  0.40973659038E+02  0.10000000000E+01 0.  0.
         -4    1    1    2    0  502  0.23250787472E+02  0.72577387337E+01  0.77290196875E+00  0.24402544275E+02  0.12700000000E+01 0. -1.
<mgrwt>
<rscale>  1 0.12735056E+03</rscale>
<asrwt>0</asrwt>
<pdfrwt beam="2">  1       21 0.79969227E-02 0.12735056E+03</pdfrwt>
<pdfrwt beam="1">  1       -4 0.17466652E-01 0.12735056E+03</pdfrwt>
<totfact> 0.13748098E+05</totfact>
</mgrwt>
</event>
<event>
 6    4  0.3995738E-003  0.1319238E+03  0.7818608E-02  0.1224629E+00
         -4   -1    0    0    0  501 -0.00000000000E+00  0.00000000000E+00  0.47696358386E+03  0.47696527466E+03  0.12700000000E+01 0.  1.
         21   -1    0    0  501  502  0.00000000000E+00 -0.00000000000E+00 -0.24841209679E+02  0.24841209679E+02  0.00000000000E+00 0. -1.
         25    2    1    2    0    0  0.33022816654E+02  0.26234080381E+02  0.43780486501E+03  0.45724935963E+03  0.12500057464E+03 0.  0.
    9000005    1    3    3    0    0  0.92325849597E+01  0.62208841440E+02  0.37973034869E+03  0.38490429758E+03  0.10000000000E+01 0.  0.
    9000005    1    3    3    0    0  0.23790231694E+02 -0.35974761059E+02  0.58074516326E+02  0.72345062055E+02  0.10000000000E+01 0.  0.
         -4    1    1    2    0  502 -0.33022816654E+02 -0.26234080381E+02  0.14317509167E+02  0.44557124704E+02  0.12700000000E+01 0. -1.
<mgrwt>
<rscale>  1 0.13192375E+03</rscale>
<asrwt>0</asrwt>
<pdfrwt beam="2">  1       21 0.38217249E-02 0.13192375E+03</pdfrwt>
<pdfrwt beam="1">  1       -4 0.73381633E-01 0.13192375E+03</pdfrwt>
<totfact> 0.29396343E+04</totfact>
</mgrwt>
</event>
<event>
 6    4  0.3995738E-003  0.1285144E+03  0.7818608E-02  0.1229677E+00
          4   -1    0    0  502    0 -0.00000000000E+00  0.00000000000E+00  0.57305506262E+03  0.57305646990E+03  0.12700000000E+01 0.  1.
         21   -1    0    0  501  502  0.00000000000E+00 -0.00000000000E+00 -0.24429815233E+02  0.24429815233E+02  0.00000000000E+00 0. -1.
         25    2    1    2    0    0 -0.84278287340E+01 -0.28849750408E+02  0.55241430892E+03  0.56716622110E+03  0.12495045922E+03 0.  0.
    9000005    1    3    3    0    0  0.43001490167E+02 -0.38112809959E+02  0.13827903521E+03  0.14974580467E+03  0.10000000000E+01 0.  0.
    9000005    1    3    3    0    0 -0.51429318901E+02  0.92630595508E+01  0.41413527371E+03  0.41742041642E+03  0.10000000000E+01 0.  0.
          4    1    1    2  501    0  0.84278287340E+01  0.28849750408E+02 -0.37890615336E+01  0.30320064035E+02  0.12700000000E+01 0. -1.
<mgrwt>
<rscale>  1 0.12851441E+03</rscale>
<asrwt>0</asrwt>
<pdfrwt beam="2">  1       21 0.37584336E-02 0.12851441E+03</pdfrwt>
<pdfrwt beam="1">  1        4 0.88164954E-01 0.12851441E+03</pdfrwt>
<totfact> 0.20078936E+04</totfact>
</mgrwt>
</event>
<event>
 6    4  0.3995738E-003  0.1286323E+03  0.7818608E-02  0.1229499E+00
         21   -1    0    0  501  502  0.00000000000E+00  0.00000000000E+00  0.15727961758E+03  0.15727961758E+03  0.00000000000E+00 0.  1.
         -4   -1    0    0    0  501 -0.00000000000E+00 -0.00000000000E+00 -0.61448953242E+02  0.61462075742E+02  0.12700000000E+01 0. -1.
         25    2    1    2    0    0  0.18077386984E+02 -0.24379319236E+02  0.11545317105E+02  0.12914941807E+03  0.12500053886E+03 0.  0.
    9000005    1    3    3    0    0  0.34513295978E+02  0.17546457886E+02 -0.43355296938E+02  0.58135424280E+02  0.10000000000E+01 0.  0.
    9000005    1    3    3    0    0 -0.16435908994E+02 -0.41925777123E+02  0.54900614043E+02  0.71013993791E+02  0.10000000000E+01 0.  0.
         -4    1    1    2    0  502 -0.18077386984E+02  0.24379319236E+02  0.84285347230E+02  0.89592275249E+02  0.12700000000E+01 0.  1.
<mgrwt>
<rscale>  1 0.12863234E+03</rscale>
<asrwt>0</asrwt>
<pdfrwt beam="1">  1       21 0.24196864E-01 0.12863234E+03</pdfrwt>
<pdfrwt beam="2">  1       -4 0.94550890E-02 0.12863234E+03</pdfrwt>
<totfact> 0.54205310E+04</totfact>
</mgrwt>
</event>
<event>
 6    4  0.3995738E-003  0.1275117E+03  0.7818608E-02  0.1231195E+00
          4   -1    0    0  502    0 -0.00000000000E+00  0.00000000000E+00  0.47231854516E+02  0.47248925713E+02  0.12700000000E+01 0.  1.
         21   -1    0    0  501  502  0.00000000000E+00 -0.00000000000E+00 -0.27694863453E+03  0.27694863453E+03  0.00000000000E+00 0.  1.
         25    2    1    2    0    0  0.24784325652E+02  0.40472339220E+01 -0.41187163879E+02  0.13399852775E+03  0.12501431946E+03 0.  0.
    9000005    1    3    3    0    0  0.25919368614E+02  0.50068680540E+02 -0.61703555914E+02  0.83588367928E+02  0.10000000000E+01 0.  0.
    9000005    1    3    3    0    0 -0.11350429621E+01 -0.46021446618E+02  0.20516392036E+02  0.50410159824E+02  0.10000000000E+01 0.  0.
          4    1    1    2  501    0 -0.24784325652E+02 -0.40472339220E+01 -0.18852961613E+03  0.19019903249E+03  0.12700000000E+01 0. -1.
<mgrwt>
<rscale>  1 0.12751166E+03</rscale>
<asrwt>0</asrwt>
<pdfrwt beam="2">  1       21 0.42607483E-01 0.12751166E+03</pdfrwt>
<pdfrwt beam="1">  1        4 0.72679762E-02 0.12751166E+03</pdfrwt>
<totfact> 0.27867384E+04</totfact>
</mgrwt>
</event>
<event>
 6    4  0.3995738E-003  0.1278588E+03  0.7818608E-02  0.1230668E+00
         21   -1    0    0  501  502  0.00000000000E+00  0.00000000000E+00  0.11210903727E+03  0.11210903727E+03  0.00000000000E+00 0.  1.
          4   -1    0    0  502    0 -0.00000000000E+00 -0.00000000000E+00 -0.11566221848E+03  0.11566919073E+03  0.12700000000E+01 0. -1.
         25    2    1    2    0    0 -0.17053637664E+02  0.20778951895E+02 -0.77207587318E+02  0.14936154714E+03  0.12500107529E+03 0.  0.
    9000005    1    3    3    0    0  0.45375906828E+01 -0.51541190482E+02 -0.38735558004E+02  0.64641530764E+02  0.10000000000E+01 0.  0.
    9000005    1    3    3    0    0 -0.21591228347E+02  0.72320142377E+02 -0.38472029313E+02  0.84720016374E+02  0.10000000000E+01 0.  0.
          4    1    1    2  501    0  0.17053637664E+02 -0.20778951895E+02  0.73654406100E+02  0.78416680861E+02  0.12700000000E+01 0.  1.
<mgrwt>
<rscale>  1 0.12785875E+03</rscale>
<asrwt>0</asrwt>
<pdfrwt beam="1">  1       21 0.17247544E-01 0.12785875E+03</pdfrwt>
<pdfrwt beam="2">  1        4 0.17795277E-01 0.12785875E+03</pdfrwt>
<totfact> 0.34137767E+04</totfact>
</mgrwt>
</event>
<event>
 6    4  0.3995738E-003  0.1268867E+03  0.7818608E-02  0.1232150E+00
          4   -1    0    0  502    0 -0.00000000000E+00  0.00000000000E+00  0.50099650276E+02  0.50115744610E+02  0.12700000000E+01 0. -1.
         21   -1    0    0  501  502  0.00000000000E+00 -0.00000000000E+00 -0.53819857764E+03  0.53819857764E+03  0.00000000000E+00 0.  1.
         25    2    1    2    0    0  0.18284320004E+02 -0.11860796367E+02 -0.30900708462E+02  0.13059517352E+03  0.12500100285E+03 0.  0.
    9000005    1    3    3    0    0  0.21034678030E+02 -0.30736367182E+02 -0.74333152247E+02  0.83148057526E+02  0.10000000000E+01 0.  0.
    9000005    1    3    3    0    0 -0.27503580259E+01  0.18875570815E+02  0.43432443785E+02  0.47447115992E+02  0.10000000000E+01 0.  0.
          4    1    1    2  501    0 -0.18284320004E+02  0.11860796367E+02 -0.45719821890E+03  0.45771914873E+03  0.12700000000E+01 0.  1.
<mgrwt>
<rscale>  1 0.12688674E+03</rscale>
<asrwt>0</asrwt>
<pdfrwt beam="2">  1       21 0.82799784E-01 0.12688674E+03</pdfrwt>
<pdfrwt beam="1">  1        4 0.77089915E-02 0.12688674E+03</pdfrwt>
<totfact> 0.61680541E+03</totfact>
</mgrwt>
</event>
<event>
 6    4  0.3995738E-003  0.1275425E+03  0.7818608E-02  0.1231148E+00
         21   -1    0    0  501  502  0.00000000000E+00  0.00000000000E+00  0.67625705988E+03  0.67625705988E+03  0.00000000000E+00 0. -1.
         -4   -1    0    0    0  501 -0.00000000000E+00 -0.00000000000E+00 -0.30866040122E+02  0.30892156494E+02  0.12700000000E+01 0.  1.
         25    2    1    2    0    0 -0.83201669815E+01  0.23866648670E+02  0.10238444207E+03  0.16355322815E+03  0.12501296878E+03 0.  0.
    9000005    1    3    3    0    0 -0.63184363559E+02  0.21268637331E+02  0.80230739363E+02  0.10431965429E+03  0.10000000000E+01 0.  0.
    9000005    1    3    3    0    0  0.54864196577E+02  0.25980113395E+01  0.22153702706E+02  0.59233573863E+02  0.10000000000E+01 0.  0.
         -4    1    1    2    0  502  0.83201669815E+01 -0.23866648670E+02  0.54300657769E+03  0.54359598822E+03  0.12700000000E+01 0. -1.
<mgrwt>
<rscale>  1 0.12754248E+03</rscale>
<asrwt>0</asrwt>
<pdfrwt beam="1">  1       21 0.10403954E+00 0.12754248E+03</pdfrwt>
<pdfrwt beam="2">  1       -4 0.47507227E-02 0.12754248E+03</pdfrwt>
<totfact> 0.80067114E+03</totfact>
</mgrwt>
</event>
<event>
 6    4  0.3995738E-003  0.1360311E+03  0.7818608E-02  0.1218771E+00
          4   -1    0    0  502    0 -0.00000000000E+00  0.00000000000E+00  0.48631400404E+02  0.48647980484E+02  0.12700000000E+01 0.  1.
         21   -1    0    0  501  502  0.00000000000E+00 -0.00000000000E+00 -0.21073197569E+03  0.21073197569E+03  0.00000000000E+00 0. -1.
         25    2    1    2    0    0 -0.10820797324E+02  0.52561898245E+02 -0.70512102366E+02  0.15322015176E+03  0.12499846208E+03 0.  0.
    9000005    1    3    3    0    0 -0.41790998117E+02  0.71243316588E+02 -0.10667708672E+02  0.83288040500E+02  0.10000000000E+01 0.  0.
    9000005    1    3    3    0    0  0.30970200793E+02 -0.18681418343E+02 -0.59844393695E+02  0.69932111259E+02  0.10000000000E+01 0.  0.
          4    1    1    2  501    0  0.10820797324E+02 -0.52561898245E+02 -0.91588472924E+02  0.10615980442E+03  0.12700000000E+01 0. -1.
<mgrwt>
<rscale>  1 0.13603109E+03</rscale>
<asrwt>0</asrwt>
<pdfrwt beam="2">  1       21 0.32420304E-01 0.13603109E+03</pdfrwt>
<pdfrwt beam="1">  1        4 0.74833237E-02 0.13603109E+03</pdfrwt>
<totfact> 0.45949268E+04</totfact>
</mgrwt>
</event>
<event>
 6    4  0.3995738E-003  0.1277255E+03  0.7818608E-02  0.1230870E+00
         -4   -1    0    0    0  501 -0.00000000000E+00  0.00000000000E+00  0.44887434402E+03  0.44887614063E+03  0.12700000000E+01 0.  1.
         21   -1    0    0  501  502  0.00000000000E+00 -0.00000000000E+00 -0.14929721862E+02  0.14929721862E+02  0.00000000000E+00 0.  1.
         25    2    1    2    0    0  0.10191416050E+02  0.24189363733E+02  0.28161630355E+03  0.30922733930E+03  0.12499925867E+03 0.  0.
    9000005    1    3    3    0    0 -0.56683073348E+02  0.53144192362E+00  0.11940118320E+03  0.13217751618E+03  0.10000000000E+01 0.  0.
    9000005    1    3    3    0    0  0.66874489397E+02  0.23657921809E+02  0.16221512035E+03  0.17704982312E+03  0.10000000000E+01 0.  0.
         -4    1    1    2    0  502 -0.10191416050E+02 -0.24189363733E+02  0.15232831862E+03  0.15457852319E+03  0.12700000000E+01 0. -1.
<mgrwt>
<rscale>  1 0.12772551E+03</rscale>
<asrwt>0</asrwt>
<pdfrwt beam="2">  1       21 0.22968806E-02 0.12772551E+03</pdfrwt>
<pdfrwt beam="1">  1       -4 0.69061874E-01 0.12772551E+03</pdfrwt>
<totfact> 0.76901356E+04</totfact>
</mgrwt>
</event>
<event>
 6    4  0.3995738E-003  0.1285553E+03  0.7818608E-02  0.1229615E+00
         21   -1    0    0  501  502  0.00000000000E+00  0.00000000000E+00  0.25588592543E+03  0.25588592543E+03  0.00000000000E+00 0. -1.
         -4   -1    0    0    0  501 -0.00000000000E+00 -0.00000000000E+00 -0.24589122219E+02  0.24621897399E+02  0.12700000000E+01 0. -1.
         25    2    1    2    0    0  0.28978405800E+02 -0.78766601437E+01  0.18367395255E+03  0.22419318368E+03  0.12499869193E+03 0.  0.
    9000005    1    3    3    0    0 -0.45003326605E+02  0.15805443929E+02  0.94970533888E+02  0.10628035458E+03  0.10000000000E+01 0.  0.
    9000005    1    3    3    0    0  0.73981732405E+02 -0.23682104072E+02  0.88703418661E+02  0.11791282909E+03  0.10000000000E+01 0.  0.
         -4    1    1    2    0  502 -0.28978405800E+02  0.78766601437E+01  0.47622850665E+02  0.56314639155E+02  0.12700000000E+01 0.  1.
<mgrwt>
<rscale>  1 0.12855529E+03</rscale>
<asrwt>0</asrwt>
<pdfrwt beam="1">  1       21 0.39367064E-01 0.12855529E+03</pdfrwt>
<pdfrwt beam="2">  1       -4 0.37857057E-02 0.12855529E+03</pdfrwt>
<totfact> 0.93485780E+04</totfact>
</mgrwt>
</event>
<event>
 6    4  0.3995738E-003  0.1286551E+03  0.7818608E-02  0.1229465E+00
         -4   -1    0    0    0  501 -0.00000000000E+00  0.00000000000E+00  0.16373833079E+02  0.16423011591E+02  0.12700000000E+01 0.  1.
         21   -1    0    0  501  502  0.00000000000E+00 -0.00000000000E+00 -0.56530373882E+03  0.56530373882E+03  0.00000000000E+00 0. -1.
         25    2    1    2    0    0  0.44539092633E+01  0.30356905683E+02 -0.24941792445E+03  0.28064467046E+03  0.12494299096E+03 0.  0.
    9000005    1    3    3    0    0  0.48352973289E+02 -0.21925962121E+02 -0.15703257192E+03  0.16576786928E+03  0.10000000000E+01 0.  0.
    9000005    1    3    3    0    0 -0.43899064026E+02  0.52282867804E+02 -0.92385352534E+02  0.11487680119E+03  0.10000000000E+01 0.  0.
         -4    1    1    2    0  502 -0.44539092633E+01 -0.30356905683E+02 -0.29951198129E+03  0.30108207995E+03  0.12700000000E+01 0. -1.
<mgrwt>
<rscale>  1 0.12865508E+03</rscale>
<asrwt>0</asrwt>
<pdfrwt beam="2">  1       21 0.86969824E-01 0.12865508E+03</pdfrwt>
<pdfrwt beam="1">  1       -4 0.25229434E-02 0.12865508E+03</pdfrwt>
<totfact> 0.32884783E+04</totfact>
</mgrwt>
</event>
<event>
 6    4  0.3995738E-003  0.1271283E+03  0.7818608E-02  0.1231780E+00
         -4   -1    0    0    0  501 -0.00000000000E+00  0.00000000000E+00  0.38870576997E+02  0.38891318518E+02  0.12700000000E+01 0.  1.
         21   -1    0    0  501  502  0.00000000000E+00 -0.00000000000E+00 -0.14948104657E+03  0.14948104657E+03  0.00000000000E+00 0.  1.
         25    2    1    2    0    0  0.20649368231E+02 -0.10465327370E+02 -0.80900818439E+02  0.15068688040E+03  0.12500269604E+03 0.  0.
    9000005    1    3    3    0    0  0.20819318281E+02  0.42769907697E+02 -0.84867525231E+02  0.97294428704E+02  0.10000000000E+01 0.  0.
    9000005    1    3    3    0    0 -0.16995004959E+00 -0.53235235068E+02  0.39667067918E+01  0.53392451700E+02  0.10000000000E+01 0.  0.
         -4    1    1    2    0  502 -0.20649368231E+02  0.10465327370E+02 -0.29709651129E+02  0.37685484679E+02  0.12700000000E+01 0. -1.
<mgrwt>
<rscale>  1 0.12712826E+03</rscale>
<asrwt>0</asrwt>
<pdfrwt beam="2">  1       21 0.22997084E-01 0.12712826E+03</pdfrwt>
<pdfrwt beam="1">  1       -4 0.59820992E-02 0.12712826E+03</pdfrwt>
<totfact> 0.12661903E+05</totfact>
</mgrwt>
</event>
<event>
 6    4  0.3995738E-003  0.1266388E+03  0.7818608E-02  0.1232530E+00
         21   -1    0    0  501  502  0.00000000000E+00  0.00000000000E+00  0.34475391004E+02  0.34475391004E+02  0.00000000000E+00 0.  1.
          4   -1    0    0  502    0 -0.00000000000E+00 -0.00000000000E+00 -0.15623222483E+03  0.15623738661E+03  0.12700000000E+01 0.  1.
         25    2    1    2    0    0 -0.19093589766E+02 -0.62426855872E+01 -0.10614645151E+03  0.16524057258E+03  0.12503536046E+03 0.  0.
    9000005    1    3    3    0    0 -0.24152108717E+02  0.16015932550E+02  0.21162075454E+02  0.35898020675E+02  0.10000000000E+01 0.  0.
    9000005    1    3    3    0    0  0.50585189509E+01 -0.22258618137E+02 -0.12730852696E+03  0.12934255190E+03  0.10000000000E+01 0.  0.
          4    1    1    2  501    0  0.19093589766E+02  0.62426855872E+01 -0.15610382323E+02  0.25472205043E+02  0.12700000000E+01 0. -1.
<mgrwt>
<rscale>  1 0.12663877E+03</rscale>
<asrwt>0</asrwt>
<pdfrwt beam="1">  1       21 0.53039062E-02 0.12663877E+03</pdfrwt>
<pdfrwt beam="2">  1        4 0.24037924E-01 0.12663877E+03</pdfrwt>
<totfact> 0.15549178E+05</totfact>
</mgrwt>
</event>
<event>
 6    4  0.3995738E-003  0.1314077E+03  0.7818608E-02  0.1225382E+00
         21   -1    0    0  501  502  0.00000000000E+00  0.00000000000E+00  0.12976880853E+03  0.12976880853E+03  0.00000000000E+00 0.  1.
          4   -1    0    0  502    0 -0.00000000000E+00 -0.00000000000E+00 -0.18840424463E+03  0.18840852501E+03  0.12700000000E+01 0. -1.
         25    2    1    2    0    0  0.36886043510E+02 -0.16822973193E+02 -0.16114668089E+03  0.20793323691E+03  0.12499754245E+03 0.  0.
    9000005    1    3    3    0    0  0.38594892047E+02  0.37521954715E+02 -0.21322139990E+02  0.57905927430E+02  0.10000000000E+01 0.  0.
    9000005    1    3    3    0    0 -0.17088485367E+01 -0.54344927909E+02 -0.13982454090E+03  0.15002730948E+03  0.10000000000E+01 0.  0.
          4    1    1    2  501    0 -0.36886043510E+02  0.16822973193E+02  0.10251124478E+03  0.11024409662E+03  0.12700000000E+01 0.  1.
<mgrwt>
<rscale>  1 0.13140768E+03</rscale>
<asrwt>0</asrwt>
<pdfrwt beam="1">  1       21 0.19964432E-01 0.13140768E+03</pdfrwt>
<pdfrwt beam="2">  1        4 0.28986076E-01 0.13140768E+03</pdfrwt>
<totfact> 0.10744957E+04</totfact>
</mgrwt>
</event>
<event>
 6    4  0.3995738E-003  0.1329412E+03  0.7818608E-02  0.1223156E+00
         -4   -1    0    0    0  501 -0.00000000000E+00  0.00000000000E+00  0.40185986687E+03  0.40186187366E+03  0.12700000000E+01 0. -1.
         21   -1    0    0  501  502  0.00000000000E+00 -0.00000000000E+00 -0.23941768021E+02  0.23941768021E+02  0.00000000000E+00 0. -1.
         25    2    1    2    0    0 -0.10023114604E+02 -0.44130130556E+02  0.34529333234E+03  0.37000113690E+03  0.12500169881E+03 0.  0.
    9000005    1    3    3    0    0 -0.53295732572E+02 -0.42654803794E+02  0.29863957549E+03  0.30634370149E+03  0.10000000000E+01 0.  0.
    9000005    1    3    3    0    0  0.43272617968E+02 -0.14753267626E+01  0.46653756848E+02  0.63657435409E+02  0.10000000000E+01 0.  0.
         -4    1    1    2    0  502  0.10023114604E+02  0.44130130556E+02  0.32624766509E+02  0.55802504774E+02  0.12700000000E+01 0.  1.
<mgrwt>
<rscale>  1 0.13294117E+03</rscale>
<asrwt>0</asrwt>
<pdfrwt beam="2">  1       21 0.36833492E-02 0.13294117E+03</pdfrwt>
<pdfrwt beam="1">  1       -4 0.61827335E-01 0.13294117E+03</pdfrwt>
<totfact> 0.45145956E+04</totfact>
</mgrwt>
</event>
<event>
 6    4  0.3995738E-003  0.1266214E+03  0.7818608E-02  0.1232557E+00
         21   -1    0    0  501  502  0.00000000000E+00  0.00000000000E+00  0.15962092052E+03  0.15962092052E+03  0.00000000000E+00 0.  1.
          4   -1    0    0  502    0 -0.00000000000E+00 -0.00000000000E+00 -0.55787471315E+02  0.55801925198E+02  0.12700000000E+01 0. -1.
         25    2    1    2    0    0 -0.45516422543E+01  0.19673496179E+02  0.18792843656E+02  0.12800842247E+03  0.12500088541E+03 0.  0.
    9000005    1    3    3    0    0  0.23668610186E+02  0.47508577372E+02 -0.33205800589E+02  0.62617036219E+02  0.10000000000E+01 0.  0.
    9000005    1    3    3    0    0 -0.28220252441E+02 -0.27835081193E+02  0.51998644246E+02  0.65391386254E+02  0.10000000000E+01 0.  0.
          4    1    1    2  501    0  0.45516422543E+01 -0.19673496179E+02  0.85040605550E+02  0.87414423246E+02  0.12700000000E+01 0.  1.
<mgrwt>
<rscale>  1 0.12662142E+03</rscale>
<asrwt>0</asrwt>
<pdfrwt beam="1">  1       21 0.24557065E-01 0.12662142E+03</pdfrwt>
<pdfrwt beam="2">  1        4 0.85841884E-02 0.12662142E+03</pdfrwt>
<totfact> 0.61823400E+04</totfact>
</mgrwt>
</event>
<event>
 6    4  0.3995738E-003  0.1274756E+03  0.7818608E-02  0.1231250E+00
         21   -1    0    0  501  502  0.00000000000E+00  0.00000000000E+00  0.45180130358E+03  0.45180130358E+03  0.00000000000E+00 0.  1.
          4   -1    0    0  502    0 -0.00000000000E+00 -0.00000000000E+00 -0.12875910480E+02  0.12938391348E+02  0.12700000000E+01 0.  1.
         25    2    1    2    0    0 -0.24999256366E+02 -0.18228635052E+00  0.37581037456E+03  0.39684187087E+03  0.12500014719E+03 0.  0.
    9000005    1    3    3    0    0  0.71707259137E+01  0.53796629060E+02  0.98172483238E+02  0.11217991386E+03  0.10000000000E+01 0.  0.
    9000005    1    3    3    0    0 -0.32169982280E+02 -0.53978915411E+02  0.27763789132E+03  0.28466195701E+03  0.10000000000E+01 0.  0.
          4    1    1    2  501    0  0.24999256366E+02  0.18228635052E+00  0.63115018541E+02  0.67897824064E+02  0.12700000000E+01 0. -1.
<mgrwt>
<rscale>  1 0.12747562E+03</rscale>
<asrwt>0</asrwt>
<pdfrwt beam="1">  1       21 0.69507881E-01 0.12747562E+03</pdfrwt>
<pdfrwt beam="2">  1        4 0.19858532E-02 0.12747562E+03</pdfrwt>
<totfact> 0.78263535E+04</totfact>
</mgrwt>
</event>
<event>
 6    4  0.3995738E-003  0.1458239E+03  0.7818608E-02  0.1205701E+00
         21   -1    0    0  501  502  0.00000000000E+00  0.00000000000E+00  0.10370386926E+03  0.10370386926E+03  0.00000000000E+00 0. -1.
         -4   -1    0    0    0  501 -0.00000000000E+00 -0.00000000000E+00 -0.20165884060E+03  0.20166283964E+03  0.12700000000E+01 0.  1.
         25    2    1    2    0    0  0.49600903532E+02 -0.56375768513E+02 -0.15367693344E+03  0.21185186052E+03  0.12500453603E+03 0.  0.
    9000005    1    3    3    0    0  0.80964546576E+01 -0.87349167016E+02 -0.65111802786E+02  0.10925189435E+03  0.10000000000E+01 0.  0.
    9000005    1    3    3    0    0  0.41504448874E+02  0.30973398503E+02 -0.88565130659E+02  0.10259996618E+03  0.10000000000E+01 0.  0.
         -4    1    1    2    0  502 -0.49600903532E+02  0.56375768513E+02  0.55721962100E+02  0.93514848377E+02  0.12700000000E+01 0. -1.
<mgrwt>
<rscale>  1 0.14582390E+03</rscale>
<asrwt>0</asrwt>
<pdfrwt beam="1">  1       21 0.15954442E-01 0.14582390E+03</pdfrwt>
<pdfrwt beam="2">  1       -4 0.31025342E-01 0.14582390E+03</pdfrwt>
<totfact> 0.14379333E+04</totfact>
</mgrwt>
</event>
<event>
 6    4  0.3995738E-003  0.1304827E+03  0.7818608E-02  0.1226741E+00
         21   -1    0    0  501  502  0.00000000000E+00  0.00000000000E+00  0.43679614769E+02  0.43679614769E+02  0.00000000000E+00 0. -1.
          4   -1    0    0  502    0 -0.00000000000E+00 -0.00000000000E+00 -0.16255389605E+03  0.16255885710E+03  0.12700000000E+01 0. -1.
         25    2    1    2    0    0 -0.36518043869E+02 -0.82259994546E+01 -0.99350241573E+02  0.16400062602E+03  0.12499800095E+03 0.  0.
    9000005    1    3    3    0    0 -0.14249764630E+01  0.32787921336E+02 -0.10471982427E+03  0.10974661698E+03  0.10000000000E+01 0.  0.
    9000005    1    3    3    0    0 -0.35093067406E+02 -0.41013920791E+02  0.53695827004E+01  0.54254009041E+02  0.10000000000E+01 0.  0.
          4    1    1    2  501    0  0.36518043869E+02  0.82259994546E+01 -0.19524039710E+02  0.42237845846E+02  0.12700000000E+01 0.  1.
<mgrwt>
<rscale>  1 0.13048270E+03</rscale>
<asrwt>0</asrwt>
<pdfrwt beam="1">  1       21 0.67199407E-02 0.13048270E+03</pdfrwt>
<pdfrwt beam="2">  1        4 0.25010094E-01 0.13048270E+03</pdfrwt>
<totfact> 0.97225270E+04</totfact>
</mgrwt>
</event>
<event>
 6    4  0.3995738E-003  0.1270826E+03  0.7818608E-02  0.1231850E+00
         21   -1    0    0  501  502  0.00000000000E+00  0.00000000000E+00  0.37212872023E+02  0.37212872023E+02  0.00000000000E+00 0. -1.
         -4   -1    0    0    0  501 -0.00000000000E+00 -0.00000000000E+00 -0.33124171692E+03  0.33124415154E+03  0.12700000000E+01 0.  1.
         25    2    1    2    0    0 -0.56797580579E+01 -0.22185233188E+02 -0.31355870114E+03  0.33833274086E+03  0.12500216100E+03 0.  0.
    9000005    1    3    3    0    0  0.56414677910E+02 -0.14148557988E+02 -0.99024401773E+02  0.11484611323E+03  0.10000000000E+01 0.  0.
    9000005    1    3    3    0    0 -0.62094435968E+02 -0.80366751999E+01 -0.21453429937E+03  0.22348662763E+03  0.10000000000E+01 0.  0.
         -4    1    1    2    0  502  0.56797580579E+01  0.22185233188E+02  0.19529856244E+02  0.30124282699E+02  0.12700000000E+01 0. -1.
<mgrwt>
<rscale>  1 0.12708259E+03</rscale>
<asrwt>0</asrwt>
<pdfrwt beam="1">  1       21 0.57250574E-02 0.12708259E+03</pdfrwt>
<pdfrwt beam="2">  1       -4 0.50962117E-01 0.12708259E+03</pdfrwt>
<totfact> 0.32050837E+04</totfact>
</mgrwt>
</event>
<event>
 6    4  0.3995738E-003  0.1538296E+03  0.7818608E-02  0.1195845E+00
         -4   -1    0    0    0  501 -0.00000000000E+00  0.00000000000E+00  0.20072573877E+02  0.20112710460E+02  0.12700000000E+01 0.  1.
         21   -1    0    0  501  502  0.00000000000E+00 -0.00000000000E+00 -0.74164792543E+03  0.74164792543E+03  0.00000000000E+00 0. -1.
         25    2    1    2    0    0 -0.12865142875E+02 -0.88731715892E+02 -0.48214540938E+03  0.50609065444E+03  0.12499890167E+03 0.  0.
    9000005    1    3    3    0    0  0.23543352522E+02 -0.10284632489E+03 -0.26097026999E+03  0.28149269583E+03  0.10000000000E+01 0.  0.
    9000005    1    3    3    0    0 -0.36408495397E+02  0.14114608994E+02 -0.22117513939E+03  0.22459795860E+03  0.10000000000E+01 0.  0.
         -4    1    1    2    0  502  0.12865142875E+02  0.88731715892E+02 -0.23942994217E+03  0.25566998145E+03  0.12700000000E+01 0. -1.
<mgrwt>
<rscale>  1 0.15382963E+03</rscale>
<asrwt>0</asrwt>
<pdfrwt beam="2">  1       21 0.11409968E+00 0.15382963E+03</pdfrwt>
<pdfrwt beam="1">  1       -4 0.30912593E-02 0.15382963E+03</pdfrwt>
<totfact> 0.12830358E+04</totfact>
</mgrwt>
</event>
<event>
 6    4  0.3995738E-003  0.1288008E+03  0.7818608E-02  0.1229246E+00
         -4   -1    0    0    0  501 -0.00000000000E+00  0.00000000000E+00  0.80290922519E+02  0.80300965990E+02  0.12700000000E+01 0. -1.
         21   -1    0    0  501  502  0.00000000000E+00 -0.00000000000E+00 -0.81148078514E+02  0.81148078514E+02  0.00000000000E+00 0. -1.
         25    2    1    2    0    0  0.30898695602E+02  0.31782399847E+01  0.82212072303E+01  0.12906293362E+03  0.12499928795E+03 0.  0.
    9000005    1    3    3    0    0 -0.31121354618E+02  0.41673058946E+02  0.18767397951E+02  0.55302782760E+02  0.10000000000E+01 0.  0.
    9000005    1    3    3    0    0  0.62020050220E+02 -0.38494818962E+02 -0.10546190720E+02  0.73760150860E+02  0.10000000000E+01 0.  0.
         -4    1    1    2    0  502 -0.30898695602E+02 -0.31782399847E+01 -0.90783632247E+01  0.32386110883E+02  0.12700000000E+01 0.  1.
<mgrwt>
<rscale>  1 0.12880083E+03</rscale>
<asrwt>0</asrwt>
<pdfrwt beam="2">  1       21 0.12484320E-01 0.12880083E+03</pdfrwt>
<pdfrwt beam="1">  1       -4 0.12353987E-01 0.12880083E+03</pdfrwt>
<totfact> 0.11545699E+05</totfact>
</mgrwt>
</event>
<event>
 6    4  0.3995738E-003  0.1307815E+03  0.7818608E-02  0.1226301E+00
         21   -1    0    0  501  502  0.00000000000E+00  0.00000000000E+00  0.12454110354E+03  0.12454110354E+03  0.00000000000E+00 0. -1.
         -4   -1    0    0    0  501 -0.00000000000E+00 -0.00000000000E+00 -0.68409676446E+02  0.68421463968E+02  0.12700000000E+01 0.  1.
         25    2    1    2    0    0 -0.10575667926E+01 -0.38434629785E+02  0.75572318028E+01  0.13099963857E+03  0.12500181734E+03 0.  0.
    9000005    1    3    3    0    0  0.22786990945E+02 -0.79332165455E+02 -0.25333778433E+01  0.82584849915E+02  0.10000000000E+01 0.  0.
    9000005    1    3    3    0    0 -0.23844557737E+02  0.40897535670E+02  0.10090609646E+02  0.48414788656E+02  0.10000000000E+01 0.  0.
         -4    1    1    2    0  502  0.10575667926E+01  0.38434629785E+02  0.48574195288E+02  0.61962928935E+02  0.12700000000E+01 0. -1.
<mgrwt>
<rscale>  1 0.13078147E+03</rscale>
<asrwt>0</asrwt>
<pdfrwt beam="1">  1       21 0.19160170E-01 0.13078147E+03</pdfrwt>
<pdfrwt beam="2">  1       -4 0.10525970E-01 0.13078147E+03</pdfrwt>
<totfact> 0.70031780E+04</totfact>
</mgrwt>
</event>
<event>
 6    4  0.3995738E-003  0.1385455E+03  0.7818608E-02  0.1215300E+00
         21   -1    0    0  501  502  0.00000000000E+00  0.00000000000E+00  0.88906312322E+02  0.88906312322E+02  0.00000000000E+00 0. -1.
         -4   -1    0    0    0  501 -0.00000000000E+00 -0.00000000000E+00 -0.11070971167E+03  0.11071699580E+03  0.12700000000E+01 0. -1.
         25    2    1    2    0    0 -0.40850435782E+02  0.43608018786E+02 -0.18373013408E+02  0.13975847827E+03  0.12499778886E+03 0.  0.
    9000005    1    3    3    0    0  0.69182676408E+01  0.57016191093E+02 -0.53865306473E+02  0.78747569584E+02  0.10000000000E+01 0.  0.
    9000005    1    3    3    0    0 -0.47768703422E+02 -0.13408172306E+02  0.35492293065E+02  0.61010908683E+02  0.10000000000E+01 0.  0.
         -4    1    1    2    0  502  0.40850435782E+02 -0.43608018786E+02 -0.34303859439E+01  0.59864829857E+02  0.12700000000E+01 0.  1.
<mgrwt>
<rscale>  1 0.13854553E+03</rscale>
<asrwt>0</asrwt>
<pdfrwt beam="1">  1       21 0.13677894E-01 0.13854553E+03</pdfrwt>
<pdfrwt beam="2">  1       -4 0.17033521E-01 0.13854553E+03</pdfrwt>
<totfact> 0.56628168E+04</totfact>
</mgrwt>
</event>
<event>
 6    4  0.3995738E-003  0.1307814E+03  0.7818608E-02  0.1226301E+00
         -4   -1    0    0    0  501 -0.00000000000E+00  0.00000000000E+00  0.11888483979E+02  0.11956126100E+02  0.12700000000E+01 0. -1.
         21   -1    0    0  501  502  0.00000000000E+00 -0.00000000000E+00 -0.63535729157E+03  0.63535729157E+03  0.00000000000E+00 0. -1.
         25    2    1    2    0    0 -0.26613352273E+02 -0.27791732353E+02 -0.53638936503E+03  0.55210263508E+03  0.12499247109E+03 0.  0.
    9000005    1    3    3    0    0 -0.72411302995E+02 -0.38550577270E+02 -0.38158765525E+03  0.39030716423E+03  0.10000000000E+01 0.  0.
    9000005    1    3    3    0    0  0.45797950722E+02  0.10758844917E+02 -0.15480170978E+03  0.16179547084E+03  0.10000000000E+01 0.  0.
         -4    1    1    2    0  502  0.26613352273E+02  0.27791732353E+02 -0.87079442553E+02  0.95210782591E+02  0.12700000000E+01 0.  1.
<mgrwt>
<rscale>  1 0.13078138E+03</rscale>
<asrwt>0</asrwt>
<pdfrwt beam="2">  1       21 0.97747300E-01 0.13078138E+03</pdfrwt>
<pdfrwt beam="1">  1       -4 0.18342980E-02 0.13078138E+03</pdfrwt>
<totfact> 0.41181511E+04</totfact>
</mgrwt>
</event>
<event>
 6    4  0.3995738E-003  0.1614155E+03  0.7818608E-02  0.1187108E+00
         21   -1    0    0  501  502  0.00000000000E+00  0.00000000000E+00  0.21809184113E+03  0.21809184113E+03  0.00000000000E+00 0. -1.
          4   -1    0    0  502    0 -0.00000000000E+00 -0.00000000000E+00 -0.95746877043E+02  0.95755299402E+02  0.12700000000E+01 0.  1.
         25    2    1    2    0    0 -0.65288145253E+02 -0.78533742440E+02  0.95739937973E+01  0.16169920183E+03  0.12499951961E+03 0.  0.
    9000005    1    3    3    0    0 -0.50574579931E+02  0.25272657677E+02  0.21287370230E+01  0.56586454939E+02  0.10000000000E+01 0.  0.
    9000005    1    3    3    0    0 -0.14713565321E+02 -0.10380640012E+03  0.74452567744E+01  0.10511274689E+03  0.10000000000E+01 0.  0.
          4    1    1    2  501    0  0.65288145253E+02  0.78533742440E+02  0.11277097029E+03  0.15214793871E+03  0.12700000000E+01 0. -1.
<mgrwt>
<rscale>  1 0.16141552E+03</rscale>
<asrwt>0</asrwt>
<pdfrwt beam="1">  1       21 0.33552591E-01 0.16141552E+03</pdfrwt>
<pdfrwt beam="2">  1        4 0.14731221E-01 0.16141552E+03</pdfrwt>
<totfact> 0.13838523E+04</totfact>
</mgrwt>
</event>
<event>
 6    4  0.3995738E-003  0.1273257E+03  0.7818608E-02  0.1231479E+00
         21   -1    0    0  501  502  0.00000000000E+00  0.00000000000E+00  0.43871975133E+02  0.43871975133E+02  0.00000000000E+00 0.  1.
         -4   -1    0    0    0  501 -0.00000000000E+00 -0.00000000000E+00 -0.14291354319E+03  0.14291918600E+03  0.12700000000E+01 0.  1.
         25    2    1    2    0    0 -0.22553653916E+02 -0.79638160774E+01 -0.10133615471E+03  0.16272941350E+03  0.12505901045E+03 0.  0.
    9000005    1    3    3    0    0 -0.75871414970E+01 -0.34751379352E+02  0.17738706347E+02  0.39760341873E+02  0.10000000000E+01 0.  0.
    9000005    1    3    3    0    0 -0.14966512419E+02  0.26787563275E+02 -0.11907486106E+03  0.12296907163E+03  0.10000000000E+01 0.  0.
         -4    1    1    2    0  502  0.22553653916E+02  0.79638160774E+01  0.22945866519E+01  0.24061747638E+02  0.12700000000E+01 0. -1.
<mgrwt>
<rscale>  1 0.12732575E+03</rscale>
<asrwt>0</asrwt>
<pdfrwt beam="1">  1       21 0.67495347E-02 0.12732575E+03</pdfrwt>
<pdfrwt beam="2">  1       -4 0.21988547E-01 0.12732575E+03</pdfrwt>
<totfact> 0.12169914E+05</totfact>
</mgrwt>
</event>
<event>
 6    4  0.3995738E-003  0.1375642E+03  0.7818608E-02  0.1216645E+00
          4   -1    0    0  502    0 -0.00000000000E+00  0.00000000000E+00  0.28698654423E+03  0.28698935428E+03  0.12700000000E+01 0. -1.
         21   -1    0    0  501  502  0.00000000000E+00 -0.00000000000E+00 -0.66108273708E+02  0.66108273708E+02  0.00000000000E+00 0.  1.
         25    2    1    2    0    0  0.47682155563E+02 -0.32019636533E+02  0.25248431872E+03  0.28752781583E+03  0.12500027437E+03 0.  0.
    9000005    1    3    3    0    0  0.67909072959E+02 -0.67422523125E+02  0.15976770898E+03  0.18623683751E+03  0.10000000000E+01 0.  0.
    9000005    1    3    3    0    0 -0.20226917396E+02  0.35402886591E+02  0.92716609744E+02  0.10129097832E+03  0.10000000000E+01 0.  0.
          4    1    1    2  501    0 -0.47682155563E+02  0.32019636533E+02 -0.31606048202E+02  0.65569812153E+02  0.12700000000E+01 0.  1.
<mgrwt>
<rscale>  1 0.13756422E+03</rscale>
<asrwt>0</asrwt>
<pdfrwt beam="2">  1       21 0.10170504E-01 0.13756422E+03</pdfrwt>
<pdfrwt beam="1">  1        4 0.44152930E-01 0.13756422E+03</pdfrwt>
<totfact> 0.16063581E+04</totfact>
</mgrwt>
</event>
<event>
 6    4  0.3995738E-003  0.1282138E+03  0.7818608E-02  0.1230130E+00
         -4   -1    0    0    0  501 -0.00000000000E+00  0.00000000000E+00  0.21700516100E+03  0.21700887724E+03  0.12700000000E+01 0. -1.
         21   -1    0    0  501  502  0.00000000000E+00 -0.00000000000E+00 -0.21229006887E+03  0.21229006887E+03  0.00000000000E+00 0.  1.
         25    2    1    2    0    0  0.25829372525E+02 -0.12156038446E+02  0.19692003986E+03  0.23498147240E+03  0.12499545798E+03 0.  0.
    9000005    1    3    3    0    0  0.26167432573E+02  0.54920638609E+02  0.85861905651E+02  0.10523439511E+03  0.10000000000E+01 0.  0.
    9000005    1    3    3    0    0 -0.33806004774E+00 -0.67076677055E+02  0.11105813421E+03  0.12974707728E+03  0.10000000000E+01 0.  0.
         -4    1    1    2    0  502 -0.25829372525E+02  0.12156038446E+02 -0.19220494773E+03  0.19431747371E+03  0.12700000000E+01 0.  1.
<mgrwt>
<rscale>  1 0.12821385E+03</rscale>
<asrwt>0</asrwt>
<pdfrwt beam="2">  1       21 0.32660011E-01 0.12821385E+03</pdfrwt>
<pdfrwt beam="1">  1       -4 0.33385987E-01 0.12821385E+03</pdfrwt>
<totfact> 0.32260945E+03</totfact>
</mgrwt>
</event>
<event>
 6    4  0.3995738E-003  0.1319081E+03  0.7818608E-02  0.1224652E+00
         -4   -1    0    0    0  501 -0.00000000000E+00  0.00000000000E+00  0.12574053838E+04  0.12574060252E+04  0.12700000000E+01 0.  1.
         21   -1    0    0  501  502  0.00000000000E+00 -0.00000000000E+00 -0.66572039732E+01  0.66572039732E+01  0.00000000000E+00 0.  1.
         25    2    1    2    0    0  0.14112254398E+02  0.39740484810E+02  0.74748660214E+03  0.75903620973E+03  0.12498514087E+03 0.  0.
    9000005    1    3    3    0    0 -0.18475364257E+02 -0.36016889556E+02  0.13264350123E+03  0.13868617031E+03  0.10000000000E+01 0.  0.
    9000005    1    3    3    0    0  0.32587618656E+02  0.75757374366E+02  0.61484310091E+03  0.62035003941E+03  0.10000000000E+01 0.  0.
         -4    1    1    2    0  502 -0.14112254398E+02 -0.39740484810E+02  0.50326157771E+03  0.50502701943E+03  0.12700000000E+01 0. -1.
<mgrwt>
<rscale>  1 0.13190810E+03</rscale>
<asrwt>0</asrwt>
<pdfrwt beam="2">  1       21 0.10241862E-02 0.13190810E+03</pdfrwt>
<pdfrwt beam="1">  1       -4 0.19345616E+00 0.13190810E+03</pdfrwt>
<totfact> 0.23483924E+04</totfact>
</mgrwt>
</event>
<event>
 6    4  0.3995738E-003  0.1439409E+03  0.7818608E-02  0.1208122E+00
          4   -1    0    0  502    0 -0.00000000000E+00  0.00000000000E+00  0.22692417200E+02  0.22727927718E+02  0.12700000000E+01 0.  1.
         21   -1    0    0  501  502  0.00000000000E+00 -0.00000000000E+00 -0.52890331879E+03  0.52890331879E+03  0.00000000000E+00 0. -1.
         25    2    1    2    0    0  0.53423415515E+01  0.71175978651E+02 -0.28671796011E+03  0.32082109767E+03  0.12499771001E+03 0.  0.
    9000005    1    3    3    0    0 -0.45018755630E+02  0.43772495281E+02 -0.59609723153E+02  0.86585442172E+02  0.10000000000E+01 0.  0.
    9000005    1    3    3    0    0  0.50361097182E+02  0.27403483370E+02 -0.22710823696E+03  0.23423565550E+03  0.10000000000E+01 0.  0.
          4    1    1    2  501    0 -0.53423415515E+01 -0.71175978651E+02 -0.21949294148E+03  0.23081014884E+03  0.12700000000E+01 0. -1.
<mgrwt>
<rscale>  1 0.14394092E+03</rscale>
<asrwt>0</asrwt>
<pdfrwt beam="2">  1       21 0.81369742E-01 0.14394092E+03</pdfrwt>
<pdfrwt beam="1">  1        4 0.34939899E-02 0.14394092E+03</pdfrwt>
<totfact> 0.23174959E+04</totfact>
</mgrwt>
</event>
<event>
 6    4  0.3995738E-003  0.1289864E+03  0.7818608E-02  0.1228968E+00
          4   -1    0    0  502    0 -0.00000000000E+00  0.00000000000E+00  0.57171573792E+03  0.57171714850E+03  0.12700000000E+01 0. -1.
         21   -1    0    0  501  502  0.00000000000E+00 -0.00000000000E+00 -0.89446620883E+02  0.89446620883E+02  0.00000000000E+00 0.  1.
         25    2    1    2    0    0 -0.27755771155E+02 -0.15476230497E+02  0.56132293205E+03  0.57595217914E+03  0.12501032787E+03 0.  0.
    9000005    1    3    3    0    0  0.31938203067E+02 -0.46968134448E+01  0.43090930008E+03  0.43211796279E+03  0.10000000000E+01 0.  0.
    9000005    1    3    3    0    0 -0.59693974222E+02 -0.10779417052E+02  0.13041363197E+03  0.14383421636E+03  0.10000000000E+01 0.  0.
          4    1    1    2  501    0  0.27755771155E+02  0.15476230497E+02 -0.79053815012E+02  0.85211590237E+02  0.12700000000E+01 0.  1.
<mgrwt>
<rscale>  1 0.12898635E+03</rscale>
<asrwt>0</asrwt>
<pdfrwt beam="2">  1       21 0.13761019E-01 0.12898635E+03</pdfrwt>
<pdfrwt beam="1">  1        4 0.87957067E-01 0.12898635E+03</pdfrwt>
<totfact> 0.21761836E+03</totfact>
</mgrwt>
</event>
<event>
 6    4  0.3995738E-003  0.1266628E+03  0.7818608E-02  0.1232493E+00
          4   -1    0    0  502    0 -0.00000000000E+00  0.00000000000E+00  0.24427986987E+03  0.24428317119E+03  0.12700000000E+01 0. -1.
         21   -1    0    0  501  502  0.00000000000E+00 -0.00000000000E+00 -0.24466328862E+02  0.24466328862E+02  0.00000000000E+00 0. -1.
         25    2    1    2    0    0  0.12250340804E+02 -0.16372155028E+02  0.21173087872E+03  0.24672540779E+03  0.12500137413E+03 0.  0.
    9000005    1    3    3    0    0 -0.74165140645E+01  0.28799623783E+02  0.19093458306E+03  0.19323932835E+03  0.10000000000E+01 0.  0.
    9000005    1    3    3    0    0  0.19666854868E+02 -0.45171778811E+02  0.20796295662E+02  0.53486079447E+02  0.10000000000E+01 0.  0.
          4    1    1    2  501    0 -0.12250340804E+02  0.16372155028E+02  0.80826622893E+01  0.22024092257E+02  0.12700000000E+01 0.  1.
<mgrwt>
<rscale>  1 0.12666279E+03</rscale>
<asrwt>0</asrwt>
<pdfrwt beam="2">  1       21 0.37640508E-02 0.12666279E+03</pdfrwt>
<pdfrwt beam="1">  1        4 0.37584306E-01 0.12666279E+03</pdfrwt>
<totfact> 0.11851774E+05</totfact>
</mgrwt>
</event>
<event>
 6    4  0.3995738E-003  0.1283353E+03  0.7818608E-02  0.1229947E+00
          4   -1    0    0  502    0 -0.00000000000E+00  0.00000000000E+00  0.26596709505E+02  0.26627013661E+02  0.12700000000E+01 0. -1.
         21   -1    0    0  501  502  0.00000000000E+00 -0.00000000000E+00 -0.55217058746E+03  0.55217058746E+03  0.00000000000E+00 0.  1.
         25    2    1    2    0    0 -0.23583690664E+02  0.16991982966E+02 -0.13183371948E+03  0.18398391944E+03  0.12500014027E+03 0.  0.
    9000005    1    3    3    0    0 -0.17205002224E+01  0.38944708562E+02  0.87984941570E+01  0.39975791992E+02  0.10000000000E+01 0.  0.
    9000005    1    3    3    0    0 -0.21863190441E+02 -0.21952725596E+02 -0.14063221364E+03  0.14400812744E+03  0.10000000000E+01 0.  0.
          4    1    1    2  501    0  0.23583690664E+02 -0.16991982966E+02 -0.39374015847E+03  0.39481368169E+03  0.12700000000E+01 0.  1.
<mgrwt>
<rscale>  1 0.12833531E+03</rscale>
<asrwt>0</asrwt>
<pdfrwt beam="2">  1       21 0.84949320E-01 0.12833531E+03</pdfrwt>
<pdfrwt beam="1">  1        4 0.40942450E-02 0.12833531E+03</pdfrwt>
<totfact> 0.16215158E+04</totfact>
</mgrwt>
</event>
<event>
 6    4  0.3995738E-003  0.1303179E+03  0.7818608E-02  0.1226985E+00
          4   -1    0    0  502    0 -0.00000000000E+00  0.00000000000E+00  0.67584234582E+01  0.68767134330E+01  0.12700000000E+01 0.  1.
         21   -1    0    0  501  502  0.00000000000E+00 -0.00000000000E+00 -0.10693844276E+04  0.10693844276E+04  0.00000000000E+00 0.  1.
         25    2    1    2    0    0  0.27780934405E+02  0.24241441986E+02 -0.72435407419E+03  0.73598340253E+03  0.12499326454E+03 0.  0.
    9000005    1    3    3    0    0  0.57594261374E+02  0.51384103896E+02 -0.30202882430E+03  0.31173680531E+03  0.10000000000E+01 0.  0.
    9000005    1    3    3    0    0 -0.29813326969E+02 -0.27142661911E+02 -0.42232524988E+03  0.42424659722E+03  0.10000000000E+01 0.  0.
          4    1    1    2  501    0 -0.27780934405E+02 -0.24241441986E+02 -0.33827192999E+03  0.34027773853E+03  0.12700000000E+01 0. -1.
<mgrwt>
<rscale>  1 0.13031786E+03</rscale>
<asrwt>0</asrwt>
<pdfrwt beam="2">  1       21 0.16452064E+00 0.13031786E+03</pdfrwt>
<pdfrwt beam="1">  1        4 0.10489150E-02 0.13031786E+03</pdfrwt>
<totfact> 0.26422369E+04</totfact>
</mgrwt>
</event>
<event>
 6    4  0.3995738E-003  0.1386011E+03  0.7818608E-02  0.1215224E+00
          4   -1    0    0  502    0 -0.00000000000E+00  0.00000000000E+00  0.33532533208E+03  0.33532773705E+03  0.12700000000E+01 0. -1.
         21   -1    0    0  501  502  0.00000000000E+00 -0.00000000000E+00 -0.45642803534E+02  0.45642803534E+02  0.00000000000E+00 0.  1.
         25    2    1    2    0    0 -0.42771629405E+02  0.41898505812E+02  0.28962741581E+03  0.32108303764E+03  0.12500151999E+03 0.  0.
    9000005    1    3    3    0    0 -0.56404584988E+02 -0.29901516655E+02  0.11053142714E+03  0.12764706926E+03  0.10000000000E+01 0.  0.
    9000005    1    3    3    0    0  0.13632955584E+02  0.71800022467E+02  0.17909598867E+03  0.19343596838E+03  0.10000000000E+01 0.  0.
          4    1    1    2  501    0  0.42771629405E+02 -0.41898505812E+02  0.55112735365E-01  0.59887502942E+02  0.12700000000E+01 0.  1.
<mgrwt>
<rscale>  1 0.13860114E+03</rscale>
<asrwt>0</asrwt>
<pdfrwt beam="2">  1       21 0.70219700E-02 0.13860114E+03</pdfrwt>
<pdfrwt beam="1">  1        4 0.51590055E-01 0.13860114E+03</pdfrwt>
<totfact> 0.22298801E+04</totfact>
</mgrwt>
</event>
<event>
 6    4  0.3995738E-003  0.1288450E+03  0.7818608E-02  0.1229180E+00
         21   -1    0    0  501  502  0.00000000000E+00  0.00000000000E+00  0.69550782577E+02  0.69550782577E+02  0.00000000000E+00 0.  1.
          4   -1    0    0  502    0 -0.00000000000E+00 -0.00000000000E+00 -0.95464408192E+02  0.95472855470E+02  0.12700000000E+01 0.  1.
         25    2    1    2    0    0  0.20600879762E+02  0.23535209852E+02 -0.83168659250E+01  0.12911317716E+03  0.12499095930E+03 0.  0.
    9000005    1    3    3    0    0 -0.42592204623E+02 -0.23644468724E+02 -0.11919801771E+02  0.50162121867E+02  0.10000000000E+01 0.  0.
    9000005    1    3    3    0    0  0.63193084385E+02  0.47179678576E+02  0.36029358456E+01  0.78951055290E+02  0.10000000000E+01 0.  0.
          4    1    1    2  501    0 -0.20600879762E+02 -0.23535209852E+02 -0.17596759691E+02  0.35910460890E+02  0.12700000000E+01 0. -1.
<mgrwt>
<rscale>  1 0.12884503E+03</rscale>
<asrwt>0</asrwt>
<pdfrwt beam="1">  1       21 0.10700120E-01 0.12884503E+03</pdfrwt>
<pdfrwt beam="2">  1        4 0.14688374E-01 0.12884503E+03</pdfrwt>
<totfact> 0.11245753E+05</totfact>
</mgrwt>
</event>
<event>
 6    4  0.3995738E-003  0.1318087E+03  0.7818608E-02  0.1224796E+00
         -4   -1    0    0    0  501 -0.00000000000E+00  0.00000000000E+00  0.45015143898E+03  0.45015323048E+03  0.12700000000E+01 0.  1.
         21   -1    0    0  501  502  0.00000000000E+00 -0.00000000000E+00 -0.34626508558E+02  0.34626508558E+02  0.00000000000E+00 0. -1.
         25    2    1    2    0    0 -0.58208375085E+01  0.41410359288E+02  0.42230520927E+03  0.44239713545E+03  0.12499934269E+03 0.  0.
    9000005    1    3    3    0    0 -0.15196664674E+02 -0.26998005870E+02  0.30274238927E+03  0.30432513074E+03  0.10000000000E+01 0.  0.
    9000005    1    3    3    0    0  0.93758271651E+01  0.68408365158E+02  0.11956282000E+03  0.13807200471E+03  0.10000000000E+01 0.  0.
         -4    1    1    2    0  502  0.58208375085E+01 -0.41410359288E+02 -0.67802788521E+01  0.42382603589E+02  0.12700000000E+01 0. -1.
<mgrwt>
<rscale>  1 0.13180871E+03</rscale>
<asrwt>0</asrwt>
<pdfrwt beam="2">  1       21 0.53271555E-02 0.13180871E+03</pdfrwt>
<pdfrwt beam="1">  1       -4 0.69255993E-01 0.13180871E+03</pdfrwt>
<totfact> 0.19118657E+04</totfact>
</mgrwt>
</event>
<event>
 6    4  0.3995738E-003  0.6496681E+03  0.7818608E-02  0.9807402E-01
         -4   -1    0    0    0  501 -0.00000000000E+00  0.00000000000E+00  0.69207192827E+03  0.69207309354E+03  0.12700000000E+01 0.  1.
         21   -1    0    0  501  502  0.00000000000E+00 -0.00000000000E+00 -0.60441101803E+03  0.60441101803E+03  0.00000000000E+00 0. -1.
         25    2    1    2    0    0 -0.56046021676E+03  0.30385458558E+03 -0.19752935968E+02  0.64996836466E+03  0.12500173133E+03 0.  0.
    9000005    1    3    3    0    0 -0.53963355604E+02 -0.62786239722E+01 -0.13682198398E+02  0.56032735254E+02  0.10000000000E+01 0.  0.
    9000005    1    3    3    0    0 -0.50649686115E+03  0.31013320955E+03 -0.60707375692E+01  0.59393562941E+03  0.10000000000E+01 0.  0.
         -4    1    1    2    0  502  0.56046021676E+03 -0.30385458558E+03  0.10741384621E+03  0.64651574691E+03  0.12700000000E+01 0. -1.
<mgrwt>
<rscale>  1 0.64966814E+03</rscale>
<asrwt>0</asrwt>
<pdfrwt beam="2">  1       21 0.92986311E-01 0.64966814E+03</pdfrwt>
<pdfrwt beam="1">  1       -4 0.10647280E+00 0.64966814E+03</pdfrwt>
<totfact> 0.27162320E+01</totfact>
</mgrwt>
</event>
<event>
 6    4  0.3995738E-003  0.1537437E+03  0.7818608E-02  0.1195947E+00
         -4   -1    0    0    0  501 -0.00000000000E+00  0.00000000000E+00  0.14178778000E+04  0.14178783688E+04  0.12700000000E+01 0. -1.
         21   -1    0    0  501  502  0.00000000000E+00 -0.00000000000E+00 -0.70464048712E+02  0.70464048712E+02  0.00000000000E+00 0.  1.
         25    2    1    2    0    0  0.85680474470E+02 -0.25908421254E+02  0.13833577636E+04  0.13918749364E+04  0.12499898509E+03 0.  0.
    9000005    1    3    3    0    0 -0.31025025557E+02  0.59485959811E+01  0.22324714985E+03  0.22547334193E+03  0.10000000000E+01 0.  0.
    9000005    1    3    3    0    0  0.11670550003E+03 -0.31857017235E+02  0.11601106138E+04  0.11664015944E+04  0.10000000000E+01 0.  0.
         -4    1    1    2    0  502 -0.85680474470E+02  0.25908421254E+02 -0.35944012319E+02  0.96467481147E+02  0.12700000000E+01 0.  1.
<mgrwt>
<rscale>  1 0.15374374E+03</rscale>
<asrwt>0</asrwt>
<pdfrwt beam="2">  1       21 0.10840624E-01 0.15374374E+03</pdfrwt>
<pdfrwt beam="1">  1       -4 0.21813595E+00 0.15374374E+03</pdfrwt>
<totfact> 0.33345849E+02</totfact>
</mgrwt>
</event>
<event>
 6    4  0.3995738E-003  0.1266311E+03  0.7818608E-02  0.1232542E+00
         -4   -1    0    0    0  501 -0.00000000000E+00  0.00000000000E+00  0.48819495233E+02  0.48836011455E+02  0.12700000000E+01 0.  1.
         21   -1    0    0  501  502  0.00000000000E+00 -0.00000000000E+00 -0.13102513312E+03  0.13102513312E+03  0.00000000000E+00 0.  1.
         25    2    1    2    0    0 -0.45399929710E+01  0.20103837878E+02 -0.39872085140E+02  0.13275999361E+03  0.12494261442E+03 0.  0.
    9000005    1    3    3    0    0 -0.54847948983E+02  0.44498684939E+02 -0.19973473908E+02  0.73405518381E+02  0.10000000000E+01 0.  0.
    9000005    1    3    3    0    0  0.50307956012E+02 -0.24394847060E+02 -0.19898611231E+02  0.59354475232E+02  0.10000000000E+01 0.  0.
         -4    1    1    2    0  502  0.45399929710E+01 -0.20103837878E+02 -0.42333552750E+02  0.47101150963E+02  0.12700000000E+01 0. -1.
<mgrwt>
<rscale>  1 0.12663109E+03</rscale>
<asrwt>0</asrwt>
<pdfrwt beam="2">  1       21 0.20157713E-01 0.12663109E+03</pdfrwt>
<pdfrwt beam="1">  1       -4 0.75124355E-02 0.12663109E+03</pdfrwt>
<totfact> 0.11144599E+05</totfact>
</mgrwt>
</event>
<event>
 6    4  0.3995738E-003  0.1348466E+03  0.7818608E-02  0.1220436E+00
          4   -1    0    0  502    0 -0.00000000000E+00  0.00000000000E+00  0.20173199263E+03  0.20173599022E+03  0.12700000000E+01 0.  1.
         21   -1    0    0  501  502  0.00000000000E+00 -0.00000000000E+00 -0.46361780086E+02  0.46361780086E+02  0.00000000000E+00 0. -1.
         25    2    1    2    0    0 -0.43711600314E+02 -0.25461028086E+02  0.78392767988E+02  0.15597769745E+03  0.12499859229E+03 0.  0.
    9000005    1    3    3    0    0 -0.72773896829E+02 -0.56009859111E+02  0.45497264964E+02  0.10248973361E+03  0.10000000000E+01 0.  0.
    9000005    1    3    3    0    0  0.29062296515E+02  0.30548831024E+02  0.32895503025E+02  0.53487963832E+02  0.10000000000E+01 0.  0.
          4    1    1    2  501    0  0.43711600314E+02  0.25461028086E+02  0.76977444552E+02  0.92120072856E+02  0.12700000000E+01 0. -1.
<mgrwt>
<rscale>  1 0.13484664E+03</rscale>
<asrwt>0</asrwt>
<pdfrwt beam="2">  1       21 0.71325817E-02 0.13484664E+03</pdfrwt>
<pdfrwt beam="1">  1        4 0.31037336E-01 0.13484664E+03</pdfrwt>
<totfact> 0.58882758E+04</totfact>
</mgrwt>
</event>
<event>
 6    4  0.3995738E-003  0.1602034E+03  0.7818608E-02  0.1188467E+00
         21   -1    0    0  501  502  0.00000000000E+00  0.00000000000E+00  0.10398368188E+03  0.10398368188E+03  0.00000000000E+00 0. -1.
         -4   -1    0    0    0  501 -0.00000000000E+00 -0.00000000000E+00 -0.19632050625E+03  0.19632461403E+03  0.12700000000E+01 0.  1.
         25    2    1    2    0    0  0.66431106946E+02 -0.75014189930E+02 -0.11544970637E+03  0.19746842585E+03  0.12499969537E+03 0.  0.
    9000005    1    3    3    0    0  0.87756903400E+02 -0.51632280110E+02 -0.12786822990E+03  0.16345779474E+03  0.10000000000E+01 0.  0.
    9000005    1    3    3    0    0 -0.21325796454E+02 -0.23381909819E+02  0.12418523532E+02  0.34010631102E+02  0.10000000000E+01 0.  0.
         -4    1    1    2    0  502 -0.66431106946E+02  0.75014189930E+02  0.23112882002E+02  0.10283987007E+03  0.12700000000E+01 0. -1.
<mgrwt>
<rscale>  1 0.16020345E+03</rscale>
<asrwt>0</asrwt>
<pdfrwt beam="1">  1       21 0.15997490E-01 0.16020345E+03</pdfrwt>
<pdfrwt beam="2">  1       -4 0.30204067E-01 0.16020345E+03</pdfrwt>
<totfact> 0.15183163E+04</totfact>
</mgrwt>
</event>
<event>
 6    4  0.3995738E-003  0.1270745E+03  0.7818608E-02  0.1231862E+00
         -4   -1    0    0    0  501 -0.00000000000E+00  0.00000000000E+00  0.27821291489E+03  0.27821581355E+03  0.12700000000E+01 0. -1.
         21   -1    0    0  501  502  0.00000000000E+00 -0.00000000000E+00 -0.88214781549E+02  0.88214781549E+02  0.00000000000E+00 0.  1.
         25    2    1    2    0    0 -0.13009831548E+02  0.18804204792E+02  0.26182935085E+03  0.29103702413E+03  0.12500034643E+03 0.  0.
    9000005    1    3    3    0    0  0.33255416902E+02  0.55506285790E+02  0.10368367331E+03  0.12222182549E+03  0.10000000000E+01 0.  0.
    9000005    1    3    3    0    0 -0.46265248450E+02 -0.36702080998E+02  0.15814567755E+03  0.16881519864E+03  0.10000000000E+01 0.  0.
         -4    1    1    2    0  502  0.13009831548E+02 -0.18804204792E+02 -0.71831217515E+02  0.75393570976E+02  0.12700000000E+01 0.  1.
<mgrwt>
<rscale>  1 0.12707455E+03</rscale>
<asrwt>0</asrwt>
<pdfrwt beam="2">  1       21 0.13571505E-01 0.12707455E+03</pdfrwt>
<pdfrwt beam="1">  1       -4 0.42802913E-01 0.12707455E+03</pdfrwt>
<totfact> 0.10178260E+04</totfact>
</mgrwt>
</event>
<event>
 6    4  0.3995738E-003  0.1315994E+03  0.7818608E-02  0.1225102E+00
         -4   -1    0    0    0  501 -0.00000000000E+00  0.00000000000E+00  0.75722239941E+03  0.75722346442E+03  0.12700000000E+01 0.  1.
         21   -1    0    0  501  502  0.00000000000E+00 -0.00000000000E+00 -0.36855168066E+02  0.36855168066E+02  0.00000000000E+00 0. -1.
         25    2    1    2    0    0  0.23971177019E+02  0.33455248962E+02  0.73774142432E+03  0.74938694991E+03  0.12499808204E+03 0.  0.
    9000005    1    3    3    0    0  0.66008824253E+02 -0.80186150877E+01  0.27676858634E+03  0.28464594403E+03  0.10000000000E+01 0.  0.
    9000005    1    3    3    0    0 -0.42037647234E+02  0.41473864049E+02  0.46097283798E+03  0.46474100587E+03  0.10000000000E+01 0.  0.
         -4    1    1    2    0  502 -0.23971177019E+02 -0.33455248962E+02 -0.17374192976E+02  0.44691682586E+02  0.12700000000E+01 0. -1.
<mgrwt>
<rscale>  1 0.13159936E+03</rscale>
<asrwt>0</asrwt>
<pdfrwt beam="2">  1       21 0.56700264E-02 0.13159936E+03</pdfrwt>
<pdfrwt beam="1">  1       -4 0.11649751E+00 0.13159936E+03</pdfrwt>
<totfact> 0.53058776E+03</totfact>
</mgrwt>
</event>
<event>
 6    4  0.3995738E-003  0.1272692E+03  0.7818608E-02  0.1231565E+00
          4   -1    0    0  502    0 -0.00000000000E+00  0.00000000000E+00  0.33184279155E+03  0.33184522176E+03  0.12700000000E+01 0.  1.
         21   -1    0    0  501  502  0.00000000000E+00 -0.00000000000E+00 -0.22205286797E+02  0.22205286797E+02  0.00000000000E+00 0. -1.
         25    2    1    2    0    0 -0.16408643217E+02  0.17386552255E+02  0.30384005479E+03  0.32941802801E+03  0.12500369001E+03 0.  0.
    9000005    1    3    3    0    0 -0.40551492823E+02 -0.43425409114E+02  0.17673541392E+03  0.18645802814E+03  0.10000000000E+01 0.  0.
    9000005    1    3    3    0    0  0.24142849606E+02  0.60811961369E+02  0.12710464087E+03  0.14295999987E+03  0.10000000000E+01 0.  0.
          4    1    1    2  501    0  0.16408643217E+02 -0.17386552255E+02  0.57974499700E+01  0.24632480543E+02  0.12700000000E+01 0. -1.
<mgrwt>
<rscale>  1 0.12726924E+03</rscale>
<asrwt>0</asrwt>
<pdfrwt beam="2">  1       21 0.34161982E-02 0.12726924E+03</pdfrwt>
<pdfrwt beam="1">  1        4 0.51055714E-01 0.12726924E+03</pdfrwt>
<totfact> 0.75605572E+04</totfact>
</mgrwt>
</event>
<event>
 6    4  0.3995738E-003  0.1266242E+03  0.7818608E-02  0.1232553E+00
          4   -1    0    0  502    0 -0.00000000000E+00  0.00000000000E+00  0.86835500174E+01  0.87759296319E+01  0.12700000000E+01 0. -1.
         21   -1    0    0  501  502  0.00000000000E+00 -0.00000000000E+00 -0.62609326644E+03  0.62609326644E+03  0.00000000000E+00 0. -1.
         25    2    1    2    0    0 -0.18650970831E+02  0.78209299308E+01 -0.50398351113E+03  0.51964705148E+03  0.12499861183E+03 0.  0.
    9000005    1    3    3    0    0 -0.53996253074E+01 -0.24029260254E+02 -0.47184580285E+03  0.47248917762E+03  0.10000000000E+01 0.  0.
    9000005    1    3    3    0    0 -0.13251345524E+02  0.31850190185E+02 -0.32137708274E+02  0.47157873851E+02  0.10000000000E+01 0.  0.
          4    1    1    2  501    0  0.18650970831E+02 -0.78209299308E+01 -0.11342620529E+03  0.11522214459E+03  0.12700000000E+01 0.  1.
<mgrwt>
<rscale>  1 0.12662416E+03</rscale>
<asrwt>0</asrwt>
<pdfrwt beam="2">  1       21 0.96322090E-01 0.12662416E+03</pdfrwt>
<pdfrwt beam="1">  1        4 0.13431353E-02 0.12662416E+03</pdfrwt>
<totfact> 0.68330336E+04</totfact>
</mgrwt>
</event>
<event>
 6    4  0.3995738E-003  0.1483966E+03  0.7818608E-02  0.1202457E+00
         21   -1    0    0  501  502  0.00000000000E+00  0.00000000000E+00  0.49353505932E+03  0.49353505932E+03  0.00000000000E+00 0. -1.
         -4   -1    0    0    0  501 -0.00000000000E+00 -0.00000000000E+00 -0.30692194740E+02  0.30718458913E+02  0.12700000000E+01 0.  1.
         25    2    1    2    0    0  0.24622618057E+02 -0.76094530472E+02  0.19700661289E+03  0.24664376246E+03  0.12499955660E+03 0.  0.
    9000005    1    3    3    0    0 -0.27320933425E+01  0.99500543079E+01  0.13886212658E+03  0.13924854798E+03  0.10000000000E+01 0.  0.
    9000005    1    3    3    0    0  0.27354711400E+02 -0.86044584780E+02  0.58144486307E+02  0.10739521448E+03  0.10000000000E+01 0.  0.
         -4    1    1    2    0  502 -0.24622618057E+02  0.76094530472E+02  0.26583625169E+03  0.27760975578E+03  0.12700000000E+01 0. -1.
<mgrwt>
<rscale>  1 0.14839656E+03</rscale>
<asrwt>0</asrwt>
<pdfrwt beam="1">  1       21 0.75928465E-01 0.14839656E+03</pdfrwt>
<pdfrwt beam="2">  1       -4 0.47240225E-02 0.14839656E+03</pdfrwt>
<totfact> 0.16774337E+04</totfact>
</mgrwt>
</event>
<event>
 6    4  0.3995738E-003  0.1579951E+03  0.7818608E-02  0.1190979E+00
          4   -1    0    0  502    0 -0.00000000000E+00  0.00000000000E+00  0.32753182144E+03  0.32753428363E+03  0.12700000000E+01 0.  1.
         21   -1    0    0  501  502  0.00000000000E+00 -0.00000000000E+00 -0.78742133102E+02  0.78742133102E+02  0.00000000000E+00 0. -1.
         25    2    1    2    0    0 -0.87731933307E+02 -0.40537357194E+02  0.26475458513E+03  0.30831387145E+03  0.12498913365E+03 0.  0.
    9000005    1    3    3    0    0 -0.10436352956E+03 -0.22652638502E+02  0.11644777149E+03  0.15800623981E+03  0.10000000000E+01 0.  0.
    9000005    1    3    3    0    0  0.16631596254E+02 -0.17884718692E+02  0.14830681364E+03  0.15030763164E+03  0.10000000000E+01 0.  0.
          4    1    1    2  501    0  0.87731933307E+02  0.40537357194E+02 -0.15964896791E+02  0.97962545289E+02  0.12700000000E+01 0. -1.
<mgrwt>
<rscale>  1 0.15799510E+03</rscale>
<asrwt>0</asrwt>
<pdfrwt beam="2">  1       21 0.12114174E-01 0.15799510E+03</pdfrwt>
<pdfrwt beam="1">  1        4 0.50390488E-01 0.15799510E+03</pdfrwt>
<totfact> 0.91376909E+03</totfact>
</mgrwt>
</event>
<event>
 6    4  0.3995738E-003  0.1274688E+03  0.7818608E-02  0.1231261E+00
         21   -1    0    0  501  502  0.00000000000E+00  0.00000000000E+00  0.10109905889E+04  0.10109905889E+04  0.00000000000E+00 0. -1.
          4   -1    0    0  502    0 -0.00000000000E+00 -0.00000000000E+00 -0.57959990778E+01  0.59335069992E+01  0.12700000000E+01 0. -1.
         25    2    1    2    0    0  0.10420488287E+02  0.22691012834E+02  0.88715876372E+03  0.89626947401E+03  0.12499931743E+03 0.  0.
    9000005    1    3    3    0    0  0.63011907845E+02  0.13652392673E+02  0.30922665463E+03  0.31587816052E+03  0.10000000000E+01 0.  0.
    9000005    1    3    3    0    0 -0.52591419558E+02  0.90386201606E+01  0.57793210909E+03  0.58039131350E+03  0.10000000000E+01 0.  0.
          4    1    1    2  501    0 -0.10420488287E+02 -0.22691012834E+02  0.11803582613E+03  0.12065462192E+03  0.12700000000E+01 0.  1.
<mgrwt>
<rscale>  1 0.12746881E+03</rscale>
<asrwt>0</asrwt>
<pdfrwt beam="1">  1       21 0.15553688E+00 0.12746881E+03</pdfrwt>
<pdfrwt beam="2">  1        4 0.90233186E-03 0.12746881E+03</pdfrwt>
<totfact> 0.38391231E+04</totfact>
</mgrwt>
</event>
<event>
 6    4  0.3995738E-003  0.1280066E+03  0.7818608E-02  0.1230444E+00
         21   -1    0    0  501  502  0.00000000000E+00  0.00000000000E+00  0.11141889867E+04  0.11141889867E+04  0.00000000000E+00 0.  1.
         -4   -1    0    0    0  501 -0.00000000000E+00 -0.00000000000E+00 -0.10542698854E+02  0.10618917041E+02  0.12700000000E+01 0.  1.
         25    2    1    2    0    0 -0.23544113979E+02  0.14359128186E+02  0.38681343112E+03  0.40744365370E+03  0.12500076230E+03 0.  0.
    9000005    1    3    3    0    0 -0.69183468496E+02 -0.18639710325E+02  0.22022003163E+03  0.23158508900E+03  0.10000000000E+01 0.  0.
    9000005    1    3    3    0    0  0.45639354518E+02  0.32998838511E+02  0.16659339949E+03  0.17585856470E+03  0.10000000000E+01 0.  0.
         -4    1    1    2    0  502  0.23544113979E+02 -0.14359128186E+02  0.71683285677E+03  0.71736425009E+03  0.12700000000E+01 0. -1.
<mgrwt>
<rscale>  1 0.12800664E+03</rscale>
<asrwt>0</asrwt>
<pdfrwt beam="1">  1       21 0.17141360E+00 0.12800664E+03</pdfrwt>
<pdfrwt beam="2">  1       -4 0.16278732E-02 0.12800664E+03</pdfrwt>
<totfact> 0.12137493E+04</totfact>
</mgrwt>
</event>
<event>
 6    4  0.3995738E-003  0.1661576E+03  0.7818608E-02  0.1181915E+00
         -4   -1    0    0    0  501 -0.00000000000E+00  0.00000000000E+00  0.76203789875E+02  0.76214371948E+02  0.12700000000E+01 0. -1.
         21   -1    0    0  501  502  0.00000000000E+00 -0.00000000000E+00 -0.45997079908E+03  0.45997079908E+03  0.00000000000E+00 0.  1.
         25    2    1    2    0    0  0.87467143602E+02 -0.65823940902E+02 -0.33887171591E+02  0.16957801606E+03  0.12500028291E+03 0.  0.
    9000005    1    3    3    0    0  0.24355258498E+02 -0.12817612961E+02  0.46756543208E+02  0.54264575473E+02  0.10000000000E+01 0.  0.
    9000005    1    3    3    0    0  0.63111885104E+02 -0.53006327940E+02 -0.80643714799E+02  0.11531344059E+03  0.10000000000E+01 0.  0.
         -4    1    1    2    0  502 -0.87467143602E+02  0.65823940902E+02 -0.34987983762E+03  0.36660715497E+03  0.12700000000E+01 0.  1.
<mgrwt>
<rscale>  1 0.16615765E+03</rscale>
<asrwt>0</asrwt>
<pdfrwt beam="2">  1       21 0.70764739E-01 0.16615765E+03</pdfrwt>
<pdfrwt beam="1">  1       -4 0.11724609E-01 0.16615765E+03</pdfrwt>
<totfact> 0.43794428E+03</totfact>
</mgrwt>
</event>
<event>
 6    4  0.3995738E-003  0.1352759E+03  0.7818608E-02  0.1219831E+00
         -4   -1    0    0    0  501 -0.00000000000E+00  0.00000000000E+00  0.66989903833E+02  0.67001941133E+02  0.12700000000E+01 0.  1.
         21   -1    0    0  501  502  0.00000000000E+00 -0.00000000000E+00 -0.17658698976E+03  0.17658698976E+03  0.00000000000E+00 0.  1.
         25    2    1    2    0    0 -0.83440356324E+01 -0.51037713671E+02 -0.15436476272E+02  0.13615381346E+03  0.12500041989E+03 0.  0.
    9000005    1    3    3    0    0  0.27127002594E+02 -0.51529772689E+02  0.39769377716E+02  0.70525138405E+02  0.10000000000E+01 0.  0.
    9000005    1    3    3    0    0 -0.35471038226E+02  0.49205901829E+00 -0.55205853988E+02  0.65628675055E+02  0.10000000000E+01 0.  0.
         -4    1    1    2    0  502  0.83440356324E+01  0.51037713671E+02 -0.94160609650E+02  0.10743511743E+03  0.12700000000E+01 0. -1.
<mgrwt>
<rscale>  1 0.13527593E+03</rscale>
<asrwt>0</asrwt>
<pdfrwt beam="2">  1       21 0.27167229E-01 0.13527593E+03</pdfrwt>
<pdfrwt beam="1">  1       -4 0.10307416E-01 0.13527593E+03</pdfrwt>
<totfact> 0.37856958E+04</totfact>
</mgrwt>
</event>
<event>
 6    4  0.3995738E-003  0.1862193E+03  0.7818608E-02  0.1161916E+00
          4   -1    0    0  502    0 -0.00000000000E+00  0.00000000000E+00  0.10556998275E+04  0.10557005914E+04  0.12700000000E+01 0. -1.
         21   -1    0    0  501  502  0.00000000000E+00 -0.00000000000E+00 -0.65750117108E+02  0.65750117108E+02  0.00000000000E+00 0.  1.
         25    2    1    2    0    0  0.11233348792E+03 -0.80212907270E+02  0.96295776687E+03  0.98079829678E+03  0.12499886081E+03 0.  0.
    9000005    1    3    3    0    0  0.96906494946E+00 -0.36811568769E+02  0.54058710962E+03  0.54184080113E+03  0.10000000000E+01 0.  0.
    9000005    1    3    3    0    0  0.11136442297E+03 -0.43401338502E+02  0.42237065724E+03  0.43895749565E+03  0.10000000000E+01 0.  0.
          4    1    1    2  501    0 -0.11233348792E+03  0.80212907270E+02  0.26991943489E+02  0.14065241169E+03  0.12700000000E+01 0.  1.
<mgrwt>
<rscale>  1 0.18621933E+03</rscale>
<asrwt>0</asrwt>
<pdfrwt beam="2">  1       21 0.10115403E-01 0.18621933E+03</pdfrwt>
<pdfrwt beam="1">  1        4 0.16241635E+00 0.18621933E+03</pdfrwt>
<totfact> 0.86261722E+02</totfact>
</mgrwt>
</event>
<event>
 6    4  0.3995738E-003  0.1282434E+03  0.7818608E-02  0.1230086E+00
          4   -1    0    0  502    0 -0.00000000000E+00  0.00000000000E+00  0.98762179073E+02  0.98770344311E+02  0.12700000000E+01 0.  1.
         21   -1    0    0  501  502  0.00000000000E+00 -0.00000000000E+00 -0.62627323340E+02  0.62627323340E+02  0.00000000000E+00 0.  1.
         25    2    1    2    0    0 -0.11459534781E+02 -0.26200918381E+02  0.24854303527E+02  0.13062961897E+03  0.12501420674E+03 0.  0.
    9000005    1    3    3    0    0  0.50550297473E+02  0.61237114771E+01 -0.10900908342E+02  0.52083223974E+02  0.10000000000E+01 0.  0.
    9000005    1    3    3    0    0 -0.62009832254E+02 -0.32324629858E+02  0.35755211869E+02  0.78546394999E+02  0.10000000000E+01 0.  0.
          4    1    1    2  501    0  0.11459534781E+02  0.26200918381E+02  0.11280552206E+02  0.30768048678E+02  0.12700000000E+01 0. -1.
<mgrwt>
<rscale>  1 0.12824337E+03</rscale>
<asrwt>0</asrwt>
<pdfrwt beam="2">  1       21 0.96349729E-02 0.12824337E+03</pdfrwt>
<pdfrwt beam="1">  1        4 0.15195800E-01 0.12824337E+03</pdfrwt>
<totfact> 0.12726642E+05</totfact>
</mgrwt>
</event>
<event>
 6    4  0.3995738E-003  0.1270436E+03  0.7818608E-02  0.1231910E+00
         21   -1    0    0  501  502  0.00000000000E+00  0.00000000000E+00  0.47363738129E+02  0.47363738129E+02  0.00000000000E+00 0. -1.
          4   -1    0    0  502    0 -0.00000000000E+00 -0.00000000000E+00 -0.40706413982E+03  0.40706612095E+03  0.12700000000E+01 0.  1.
         25    2    1    2    0    0  0.13108522146E+02 -0.18594164110E+02 -0.39359376971E+03  0.41358932055E+03  0.12498997649E+03 0.  0.
    9000005    1    3    3    0    0 -0.38244082194E+02 -0.52895518589E+02 -0.20237123526E+03  0.21263974833E+03  0.10000000000E+01 0.  0.
    9000005    1    3    3    0    0  0.51352604339E+02  0.34301354478E+02 -0.19122253446E+03  0.20094957222E+03  0.10000000000E+01 0.  0.
          4    1    1    2  501    0 -0.13108522146E+02  0.18594164110E+02  0.33893368022E+02  0.40840538533E+02  0.12700000000E+01 0. -1.
<mgrwt>
<rscale>  1 0.12704358E+03</rscale>
<asrwt>0</asrwt>
<pdfrwt beam="1">  1       21 0.72867291E-02 0.12704358E+03</pdfrwt>
<pdfrwt beam="2">  1        4 0.62626713E-01 0.12704358E+03</pdfrwt>
<totfact> 0.13858047E+04</totfact>
</mgrwt>
</event>
<event>
 6    4  0.3995738E-003  0.1279203E+03  0.7818608E-02  0.1230575E+00
         -4   -1    0    0    0  501 -0.00000000000E+00  0.00000000000E+00  0.42474956489E+03  0.42475146354E+03  0.12700000000E+01 0. -1.
         21   -1    0    0  501  502  0.00000000000E+00 -0.00000000000E+00 -0.15785983699E+02  0.15785983699E+02  0.00000000000E+00 0. -1.
         25    2    1    2    0    0  0.14925289773E+01 -0.27104305055E+02  0.37938512808E+03  0.40037068506E+03  0.12500695601E+03 0.  0.
    9000005    1    3    3    0    0 -0.16770961732E+01 -0.77363855115E+02  0.23956809993E+03  0.25175752865E+03  0.10000000000E+01 0.  0.
    9000005    1    3    3    0    0  0.31696251505E+01  0.50259550060E+02  0.13981702815E+03  0.14861315641E+03  0.10000000000E+01 0.  0.
         -4    1    1    2    0  502 -0.14925289773E+01  0.27104305055E+02  0.29578453114E+02  0.40166762178E+02  0.12700000000E+01 0.  1.
<mgrwt>
<rscale>  1 0.12792033E+03</rscale>
<asrwt>0</asrwt>
<pdfrwt beam="2">  1       21 0.24286132E-02 0.12792033E+03</pdfrwt>
<pdfrwt beam="1">  1       -4 0.65350154E-01 0.12792033E+03</pdfrwt>
<totfact> 0.79072320E+04</totfact>
</mgrwt>
</event>
<event>
 6    4  0.3995738E-003  0.1268794E+03  0.7818608E-02  0.1232161E+00
         21   -1    0    0  501  502  0.00000000000E+00  0.00000000000E+00  0.91050557888E+01  0.91050557888E+01  0.00000000000E+00 0. -1.
         -4   -1    0    0    0  501 -0.00000000000E+00 -0.00000000000E+00 -0.13895703601E+04  0.13895709405E+04  0.12700000000E+01 0.  1.
         25    2    1    2    0    0 -0.18290148717E+02  0.11808797986E+02 -0.13673580927E+04  0.13732321533E+04  0.12499766335E+03 0.  0.
    9000005    1    3    3    0    0  0.15406967823E+02 -0.49747038310E+02 -0.77122288038E+03  0.77297986630E+03  0.10000000000E+01 0.  0.
    9000005    1    3    3    0    0 -0.33697116540E+02  0.61555836296E+02 -0.59613521233E+03  0.60025228698E+03  0.10000000000E+01 0.  0.
         -4    1    1    2    0  502  0.18290148717E+02 -0.11808797986E+02 -0.13107211633E+02  0.25443843003E+02  0.12700000000E+01 0. -1.
<mgrwt>
<rscale>  1 0.12687944E+03</rscale>
<asrwt>0</asrwt>
<pdfrwt beam="1">  1       21 0.14007782E-02 0.12687944E+03</pdfrwt>
<pdfrwt beam="2">  1       -4 0.21378686E+00 0.12687944E+03</pdfrwt>
<totfact> 0.10681331E+04</totfact>
</mgrwt>
</event>
<event>
 6    4  0.3995738E-003  0.1273344E+03  0.7818608E-02  0.1231466E+00
         -4   -1    0    0    0  501 -0.00000000000E+00  0.00000000000E+00  0.45660431165E+02  0.45678089651E+02  0.12700000000E+01 0.  1.
         21   -1    0    0  501  502  0.00000000000E+00 -0.00000000000E+00 -0.45332068640E+03  0.45332068640E+03  0.00000000000E+00 0. -1.
         25    2    1    2    0    0 -0.11237815547E+02 -0.21391950724E+02 -0.44280057106E+02  0.13481381570E+03  0.12502054788E+03 0.  0.
    9000005    1    3    3    0    0 -0.28060706206E+02 -0.37485283066E+02  0.30896650080E+02  0.56108401024E+02  0.10000000000E+01 0.  0.
    9000005    1    3    3    0    0  0.16822890659E+02  0.16093332342E+02 -0.75176707186E+02  0.78705414676E+02  0.10000000000E+01 0.  0.
         -4    1    1    2    0  502  0.11237815547E+02  0.21391950724E+02 -0.36338019813E+03  0.36418496036E+03  0.12700000000E+01 0. -1.
<mgrwt>
<rscale>  1 0.12733437E+03</rscale>
<asrwt>0</asrwt>
<pdfrwt beam="2">  1       21 0.69741648E-01 0.12733437E+03</pdfrwt>
<pdfrwt beam="1">  1       -4 0.70261765E-02 0.12733437E+03</pdfrwt>
<totfact> 0.10504834E+04</totfact>
</mgrwt>
</event>
<event>
 6    4  0.3995738E-003  0.1300459E+03  0.7818608E-02  0.1227388E+00
         -4   -1    0    0    0  501 -0.00000000000E+00  0.00000000000E+00  0.90362973614E+02  0.90371897736E+02  0.12700000000E+01 0. -1.
         21   -1    0    0  501  502  0.00000000000E+00 -0.00000000000E+00 -0.10089443444E+03  0.10089443444E+03  0.00000000000E+00 0.  1.
         25    2    1    2    0    0 -0.27459461939E+02 -0.22873746242E+02  0.33744215901E+02  0.13435254855E+03  0.12503881348E+03 0.  0.
    9000005    1    3    3    0    0 -0.63354783270E-01  0.42028292058E+02  0.46571661631E+02  0.62739947515E+02  0.10000000000E+01 0.  0.
    9000005    1    3    3    0    0 -0.27396107156E+02 -0.64902038300E+02 -0.12827445730E+02  0.71612601033E+02  0.10000000000E+01 0.  0.
         -4    1    1    2    0  502  0.27459461939E+02  0.22873746242E+02 -0.44275676722E+02  0.56913783623E+02  0.12700000000E+01 0.  1.
<mgrwt>
<rscale>  1 0.13004590E+03</rscale>
<asrwt>0</asrwt>
<pdfrwt beam="2">  1       21 0.15522221E-01 0.13004590E+03</pdfrwt>
<pdfrwt beam="1">  1       -4 0.13903297E-01 0.13004590E+03</pdfrwt>
<totfact> 0.63838346E+04</totfact>
</mgrwt>
</event>
<event>
 6    4  0.3995738E-003  0.1300901E+03  0.7818608E-02  0.1227322E+00
          4   -1    0    0  502    0 -0.00000000000E+00  0.00000000000E+00  0.12980763593E+02  0.13042742176E+02  0.12700000000E+01 0.  1.
         21   -1    0    0  501  502  0.00000000000E+00 -0.00000000000E+00 -0.63195408511E+03  0.63195408511E+03  0.00000000000E+00 0. -1.
         25    2    1    2    0    0  0.19548272169E+02 -0.30259674727E+02 -0.34589153021E+03  0.36954617744E+03  0.12500257488E+03 0.  0.
    9000005    1    3    3    0    0  0.13265076787E+02 -0.43417958725E+02 -0.35110431392E+03  0.35402870032E+03  0.10000000000E+01 0.  0.
    9000005    1    3    3    0    0  0.62831953824E+01  0.13158283998E+02  0.52127837061E+01  0.15517477113E+02  0.10000000000E+01 0.  0.
          4    1    1    2  501    0 -0.19548272169E+02  0.30259674727E+02 -0.27308179130E+03  0.27545064984E+03  0.12700000000E+01 0. -1.
<mgrwt>
<rscale>  1 0.13009007E+03</rscale>
<asrwt>0</asrwt>
<pdfrwt beam="2">  1       21 0.97223714E-01 0.13009007E+03</pdfrwt>
<pdfrwt beam="1">  1        4 0.20019061E-02 0.13009007E+03</pdfrwt>
<totfact> 0.36438940E+04</totfact>
</mgrwt>
</event>
<event>
 6    4  0.3995738E-003  0.1614416E+03  0.7818608E-02  0.1187079E+00
         -4   -1    0    0    0  501 -0.00000000000E+00  0.00000000000E+00  0.37217188813E+03  0.37217405499E+03  0.12700000000E+01 0.  1.
         21   -1    0    0  501  502  0.00000000000E+00 -0.00000000000E+00 -0.12165712689E+03  0.12165712689E+03  0.00000000000E+00 0. -1.
         25    2    1    2    0    0  0.97684361212E+02 -0.29978360256E+02  0.32800602921E+03  0.36558358533E+03  0.12498986421E+03 0.  0.
    9000005    1    3    3    0    0  0.12100824583E+03  0.29436589643E+01  0.24269185880E+03  0.27120471790E+03  0.10000000000E+01 0.  0.
    9000005    1    3    3    0    0 -0.23323884620E+02 -0.32922019220E+02  0.85314170415E+02  0.94378867427E+02  0.10000000000E+01 0.  0.
         -4    1    1    2    0  502 -0.97684361212E+02  0.29978360256E+02 -0.77491267975E+02  0.12824759655E+03  0.12700000000E+01 0. -1.
<mgrwt>
<rscale>  1 0.16144164E+03</rscale>
<asrwt>0</asrwt>
<pdfrwt beam="2">  1       21 0.18716481E-01 0.16144164E+03</pdfrwt>
<pdfrwt beam="1">  1       -4 0.57257890E-01 0.16144164E+03</pdfrwt>
<totfact> 0.31917139E+03</totfact>
</mgrwt>
</event>
<event>
 6    4  0.3995738E-003  0.1267201E+03  0.7818608E-02  0.1232405E+00
         -4   -1    0    0    0  501 -0.00000000000E+00  0.00000000000E+00  0.30187789903E+01  0.32750460443E+01  0.12700000000E+01 0. -1.
         21   -1    0    0  501  502  0.00000000000E+00 -0.00000000000E+00 -0.17321611463E+04  0.17321611463E+04  0.00000000000E+00 0. -1.
         25    2    1    2    0    0 -0.17505604127E+02 -0.11262011673E+02 -0.14626084820E+04  0.14680877231E+04  0.12499884819E+03 0.  0.
    9000005    1    3    3    0    0  0.32093160528E+01  0.31213807046E+02 -0.10347857771E+03  0.10813610638E+03  0.10000000000E+01 0.  0.
    9000005    1    3    3    0    0 -0.20714920180E+02 -0.42475818719E+02 -0.13591299043E+04  0.13599516167E+04  0.10000000000E+01 0.  0.
         -4    1    1    2    0  502  0.17505604127E+02  0.11262011673E+02 -0.26653388532E+03  0.26734846925E+03  0.12700000000E+01 0.  1.
<mgrwt>
<rscale>  1 0.12672013E+03</rscale>
<asrwt>0</asrwt>
<pdfrwt beam="2">  1       21 0.26648672E+00 0.12672013E+03</pdfrwt>
<pdfrwt beam="1">  1       -4 0.48417548E-03 0.12672013E+03</pdfrwt>
<totfact> 0.19693182E+04</totfact>
</mgrwt>
</event>
<event>
 6    4  0.3995738E-003  0.1272480E+03  0.7818608E-02  0.1231597E+00
         21   -1    0    0  501  502  0.00000000000E+00  0.00000000000E+00  0.93759973566E+02  0.93759973566E+02  0.00000000000E+00 0.  1.
         -4   -1    0    0    0  501 -0.00000000000E+00 -0.00000000000E+00 -0.73567930325E+02  0.73578891486E+02  0.12700000000E+01 0.  1.
         25    2    1    2    0    0 -0.13430405376E+02  0.19642139399E+02 -0.11411572188E+02  0.12775868268E+03  0.12500347031E+03 0.  0.
    9000005    1    3    3    0    0 -0.61682564629E+02 -0.87156779143E+00  0.22087240395E+02  0.65531249018E+02  0.10000000000E+01 0.  0.
    9000005    1    3    3    0    0  0.48252159253E+02  0.20513707190E+02 -0.33498812583E+02  0.62227433658E+02  0.10000000000E+01 0.  0.
         -4    1    1    2    0  502  0.13430405376E+02 -0.19642139399E+02  0.31603615428E+02  0.39580182376E+02  0.12700000000E+01 0. -1.
<mgrwt>
<rscale>  1 0.12724801E+03</rscale>
<asrwt>0</asrwt>
<pdfrwt beam="1">  1       21 0.14424611E-01 0.12724801E+03</pdfrwt>
<pdfrwt beam="2">  1       -4 0.11319648E-01 0.12724801E+03</pdfrwt>
<totfact> 0.10336358E+05</totfact>
</mgrwt>
</event>
<event>
 6    4  0.3995738E-003  0.1284409E+03  0.7818608E-02  0.1229788E+00
         -4   -1    0    0    0  501 -0.00000000000E+00  0.00000000000E+00  0.46652942607E+01  0.48350667564E+01  0.12700000000E+01 0.  1.
         21   -1    0    0  501  502  0.00000000000E+00 -0.00000000000E+00 -0.17817558379E+04  0.17817558379E+04  0.00000000000E+00 0.  1.
         25    2    1    2    0    0 -0.23077684062E+02 -0.18406158136E+02 -0.91244457850E+03  0.92144026801E+03  0.12500277004E+03 0.  0.
    9000005    1    3    3    0    0  0.33009334717E+02 -0.28911344910E+02 -0.13613571423E+03  0.14303641052E+03  0.10000000000E+01 0.  0.
    9000005    1    3    3    0    0 -0.56087018779E+02  0.10505186774E+02 -0.77630886427E+03  0.77840385750E+03  0.10000000000E+01 0.  0.
         -4    1    1    2    0  502  0.23077684062E+02  0.18406158136E+02 -0.86464596512E+03  0.86515063662E+03  0.12700000000E+01 0. -1.
<mgrwt>
<rscale>  1 0.12844088E+03</rscale>
<asrwt>0</asrwt>
<pdfrwt beam="2">  1       21 0.27411626E+00 0.12844088E+03</pdfrwt>
<pdfrwt beam="1">  1       -4 0.73083188E-03 0.12844088E+03</pdfrwt>
<totfact> 0.96819302E+03</totfact>
</mgrwt>
</event>
<event>
 6    4  0.3995738E-003  0.1287775E+03  0.7818608E-02  0.1229281E+00
         21   -1    0    0  501  502  0.00000000000E+00  0.00000000000E+00  0.93880825431E+02  0.93880825431E+02  0.00000000000E+00 0.  1.
          4   -1    0    0  502    0 -0.00000000000E+00 -0.00000000000E+00 -0.11929055189E+03  0.11929731208E+03  0.12700000000E+01 0. -1.
         25    2    1    2    0    0  0.30722044606E+02 -0.34797052105E+01 -0.79156183338E+02  0.15116001999E+03  0.12501079117E+03 0.  0.
    9000005    1    3    3    0    0  0.22563400826E+02 -0.19189016097E+02 -0.11090477402E+03  0.11479631656E+03  0.10000000000E+01 0.  0.
    9000005    1    3    3    0    0  0.81586437795E+01  0.15709310886E+02  0.31748590682E+02  0.36363703429E+02  0.10000000000E+01 0.  0.
          4    1    1    2  501    0 -0.30722044606E+02  0.34797052105E+01  0.53746456883E+02  0.62018117519E+02  0.12700000000E+01 0.  1.
<mgrwt>
<rscale>  1 0.12877752E+03</rscale>
<asrwt>0</asrwt>
<pdfrwt beam="1">  1       21 0.14443204E-01 0.12877752E+03</pdfrwt>
<pdfrwt beam="2">  1        4 0.18353573E-01 0.12877752E+03</pdfrwt>
<totfact> 0.44591842E+04</totfact>
</mgrwt>
</event>
<event>
 6    4  0.3995738E-003  0.1287231E+03  0.7818608E-02  0.1229363E+00
         21   -1    0    0  501  502  0.00000000000E+00  0.00000000000E+00  0.11422570365E+04  0.11422570365E+04  0.00000000000E+00 0. -1.
          4   -1    0    0  502    0 -0.00000000000E+00 -0.00000000000E+00 -0.55307446116E+01  0.56746837761E+01  0.12700000000E+01 0. -1.
         25    2    1    2    0    0  0.65798139708E+01  0.30054267778E+02  0.87981501368E+03  0.88918170436E+03  0.12499236823E+03 0.  0.
    9000005    1    3    3    0    0  0.26511963190E+02  0.74656857449E+02  0.50054224593E+03  0.50677418099E+03  0.10000000000E+01 0.  0.
    9000005    1    3    3    0    0 -0.19932149219E+02 -0.44602589671E+02  0.37927276775E+03  0.38240752338E+03  0.10000000000E+01 0.  0.
          4    1    1    2  501    0 -0.65798139708E+01 -0.30054267778E+02  0.25691127825E+03  0.25875001595E+03  0.12700000000E+01 0.  1.
<mgrwt>
<rscale>  1 0.12872313E+03</rscale>
<asrwt>0</asrwt>
<pdfrwt beam="1">  1       21 0.17573167E+00 0.12872313E+03</pdfrwt>
<pdfrwt beam="2">  1        4 0.86201125E-03 0.12872313E+03</pdfrwt>
<totfact> 0.29664240E+04</totfact>
</mgrwt>
</event>
<event>
 6    4  0.3995738E-003  0.1322307E+03  0.7818608E-02  0.1224183E+00
         -4   -1    0    0    0  501 -0.00000000000E+00  0.00000000000E+00  0.71274206864E+03  0.71274320012E+03  0.12700000000E+01 0. -1.
         21   -1    0    0  501  502  0.00000000000E+00 -0.00000000000E+00 -0.26269605802E+02  0.26269605802E+02  0.00000000000E+00 0.  1.
         25    2    1    2    0    0 -0.23367601817E+02 -0.36244053154E+02  0.68305348679E+03  0.69573488428E+03  0.12500114877E+03 0.  0.
    9000005    1    3    3    0    0  0.26758328332E+02  0.32463505956E+02  0.32524429976E+03  0.32795539617E+03  0.10000000000E+01 0.  0.
    9000005    1    3    3    0    0 -0.50125930150E+02 -0.68707559111E+02  0.35780918703E+03  0.36777948811E+03  0.10000000000E+01 0.  0.
         -4    1    1    2    0  502  0.23367601817E+02  0.36244053154E+02  0.34189760531E+01  0.43277921634E+02  0.12700000000E+01 0.  1.
<mgrwt>
<rscale>  1 0.13223072E+03</rscale>
<asrwt>0</asrwt>
<pdfrwt beam="2">  1       21 0.40414784E-02 0.13223072E+03</pdfrwt>
<pdfrwt beam="1">  1       -4 0.10965506E+00 0.13223072E+03</pdfrwt>
<totfact> 0.10806369E+04</totfact>
</mgrwt>
</event>
<event>
 6    4  0.3995738E-003  0.1266277E+03  0.7818608E-02  0.1232547E+00
         21   -1    0    0  501  502  0.00000000000E+00  0.00000000000E+00  0.10099074291E+02  0.10099074291E+02  0.00000000000E+00 0.  1.
         -4   -1    0    0    0  501 -0.00000000000E+00 -0.00000000000E+00 -0.55013381592E+03  0.55013528183E+03  0.12700000000E+01 0.  1.
         25    2    1    2    0    0  0.17451550837E+02 -0.10214617744E+02 -0.42630553375E+03  0.44471448481E+03  0.12500267940E+03 0.  0.
    9000005    1    3    3    0    0 -0.21190960792E+01  0.47380313980E+02 -0.30851428435E+03  0.31214011016E+03  0.10000000000E+01 0.  0.
    9000005    1    3    3    0    0  0.19570646916E+02 -0.57594931724E+02 -0.11779124940E+03  0.13257437466E+03  0.10000000000E+01 0.  0.
         -4    1    1    2    0  502 -0.17451550837E+02  0.10214617744E+02 -0.11372920788E+03  0.11551987131E+03  0.12700000000E+01 0. -1.
<mgrwt>
<rscale>  1 0.12662766E+03</rscale>
<asrwt>0</asrwt>
<pdfrwt beam="1">  1       21 0.15537032E-02 0.12662766E+03</pdfrwt>
<pdfrwt beam="2">  1       -4 0.84642256E-01 0.12662766E+03</pdfrwt>
<totfact> 0.92305767E+04</totfact>
</mgrwt>
</event>
<event>
 6    4  0.3995738E-003  0.1322351E+03  0.7818608E-02  0.1224176E+00
         -4   -1    0    0    0  501 -0.00000000000E+00  0.00000000000E+00  0.35967443494E+03  0.35967667710E+03  0.12700000000E+01 0.  1.
         21   -1    0    0  501  502  0.00000000000E+00 -0.00000000000E+00 -0.21982597256E+02  0.21982597256E+02  0.00000000000E+00 0. -1.
         25    2    1    2    0    0 -0.39251596994E+02 -0.18184696172E+02  0.27885463918E+03  0.30861956003E+03  0.12495900127E+03 0.  0.
    9000005    1    3    3    0    0  0.42116856242E+02  0.13789776565E+02  0.81778744132E+02  0.93020161842E+02  0.10000000000E+01 0.  0.
    9000005    1    3    3    0    0 -0.81368453236E+02 -0.31974472737E+02  0.19707589505E+03  0.21559939818E+03  0.10000000000E+01 0.  0.
         -4    1    1    2    0  502  0.39251596994E+02  0.18184696172E+02  0.58837198508E+02  0.73039714333E+02  0.12700000000E+01 0. -1.
<mgrwt>
<rscale>  1 0.13223511E+03</rscale>
<asrwt>0</asrwt>
<pdfrwt beam="2">  1       21 0.33819383E-02 0.13223511E+03</pdfrwt>
<pdfrwt beam="1">  1       -4 0.55337518E-01 0.13223511E+03</pdfrwt>
<totfact> 0.65500181E+04</totfact>
</mgrwt>
</event>
<event>
 6    4  0.3995738E-003  0.1268280E+03  0.7818608E-02  0.1232240E+00
          4   -1    0    0  502    0 -0.00000000000E+00  0.00000000000E+00  0.76377136984E+02  0.76387695043E+02  0.12700000000E+01 0.  1.
         21   -1    0    0  501  502  0.00000000000E+00 -0.00000000000E+00 -0.14189366244E+03  0.14189366244E+03  0.00000000000E+00 0. -1.
         25    2    1    2    0    0  0.14677072286E+02  0.15637153203E+02  0.21512794105E+02  0.12863955711E+03  0.12500159332E+03 0.  0.
    9000005    1    3    3    0    0  0.29404028734E+02 -0.49696191205E+02  0.21600406177E+02  0.61659434583E+02  0.10000000000E+01 0.  0.
    9000005    1    3    3    0    0 -0.14726956448E+02  0.65333344408E+02 -0.87612072247E-01  0.66980122526E+02  0.10000000000E+01 0.  0.
          4    1    1    2  501    0 -0.14677072286E+02 -0.15637153203E+02 -0.87029319561E+02  0.89641800375E+02  0.12700000000E+01 0. -1.
<mgrwt>
<rscale>  1 0.12682798E+03</rscale>
<asrwt>0</asrwt>
<pdfrwt beam="2">  1       21 0.21829794E-01 0.12682798E+03</pdfrwt>
<pdfrwt beam="1">  1        4 0.11751578E-01 0.12682798E+03</pdfrwt>
<totfact> 0.45442980E+04</totfact>
</mgrwt>
</event>
<event>
 6    4  0.3995738E-003  0.1278706E+03  0.7818608E-02  0.1230650E+00
          4   -1    0    0  502    0 -0.00000000000E+00  0.00000000000E+00  0.21038234258E+02  0.21076531990E+02  0.12700000000E+01 0. -1.
         21   -1    0    0  501  502  0.00000000000E+00 -0.00000000000E+00 -0.34188823806E+03  0.34188823806E+03  0.00000000000E+00 0.  1.
         25    2    1    2    0    0 -0.26941457101E+02 -0.55875933821E+00 -0.18775030042E+03  0.22715866465E+03  0.12499891718E+03 0.  0.
    9000005    1    3    3    0    0  0.38994885871E+01  0.25354356194E+02 -0.18499740671E+03  0.18677015253E+03  0.10000000000E+01 0.  0.
    9000005    1    3    3    0    0 -0.30840945688E+02 -0.25913115532E+02 -0.27528937142E+01  0.40388512120E+02  0.10000000000E+01 0.  0.
          4    1    1    2  501    0  0.26941457101E+02  0.55875933821E+00 -0.13309970338E+03  0.13580610540E+03  0.12700000000E+01 0.  1.
<mgrwt>
<rscale>  1 0.12787057E+03</rscale>
<asrwt>0</asrwt>
<pdfrwt beam="2">  1       21 0.52598185E-01 0.12787057E+03</pdfrwt>
<pdfrwt beam="1">  1        4 0.32397792E-02 0.12787057E+03</pdfrwt>
<totfact> 0.66209055E+04</totfact>
</mgrwt>
</event>
<event>
 6    4  0.3995738E-003  0.1272095E+03  0.7818608E-02  0.1231656E+00
         21   -1    0    0  501  502  0.00000000000E+00  0.00000000000E+00  0.35917687693E+02  0.35917687693E+02  0.00000000000E+00 0.  1.
         -4   -1    0    0    0  501 -0.00000000000E+00 -0.00000000000E+00 -0.13565195811E+04  0.13565201756E+04  0.12700000000E+01 0. -1.
         25    2    1    2    0    0  0.65832567730E+01 -0.22674604855E+02 -0.13492831996E+04  0.13552665410E+04  0.12499906930E+03 0.  0.
    9000005    1    3    3    0    0 -0.38122885279E+02  0.36441733184E+02 -0.51296129140E+03  0.51566621062E+03  0.10000000000E+01 0.  0.
    9000005    1    3    3    0    0  0.44706142052E+02 -0.59116338039E+02 -0.83632190825E+03  0.83960033038E+03  0.10000000000E+01 0.  0.
         -4    1    1    2    0  502 -0.65832567730E+01  0.22674604855E+02  0.28681306228E+02  0.37171322306E+02  0.12700000000E+01 0.  1.
<mgrwt>
<rscale>  1 0.12720945E+03</rscale>
<asrwt>0</asrwt>
<pdfrwt beam="1">  1       21 0.55257980E-02 0.12720945E+03</pdfrwt>
<pdfrwt beam="2">  1       -4 0.20869710E+00 0.12720945E+03</pdfrwt>
<totfact> 0.12141137E+03</totfact>
</mgrwt>
</event>
<event>
 6    4  0.3995738E-003  0.1273696E+03  0.7818608E-02  0.1231412E+00
         21   -1    0    0  501  502  0.00000000000E+00  0.00000000000E+00  0.11809504289E+02  0.11809504289E+02  0.00000000000E+00 0.  1.
          4   -1    0    0  502    0 -0.00000000000E+00 -0.00000000000E+00 -0.61568158213E+03  0.61568289198E+03  0.12700000000E+01 0. -1.
         25    2    1    2    0    0  0.21429352468E+02 -0.11807909468E+02 -0.57797302212E+03  0.59184105884E+03  0.12499752300E+03 0.  0.
    9000005    1    3    3    0    0 -0.24686013470E+01  0.38270032771E+02 -0.62116401210E+02  0.73007785203E+02  0.10000000000E+01 0.  0.
    9000005    1    3    3    0    0  0.23897953815E+02 -0.50077942239E+02 -0.51585662091E+03  0.51883327363E+03  0.10000000000E+01 0.  0.
          4    1    1    2  501    0 -0.21429352468E+02  0.11807909468E+02 -0.25899055724E+02  0.35651337431E+02  0.12700000000E+01 0.  1.
<mgrwt>
<rscale>  1 0.12736964E+03</rscale>
<asrwt>0</asrwt>
<pdfrwt beam="1">  1       21 0.18168465E-02 0.12736964E+03</pdfrwt>
<pdfrwt beam="2">  1        4 0.94725614E-01 0.12736964E+03</pdfrwt>
<totfact> 0.55783246E+04</totfact>
</mgrwt>
</event>
<event>
 6    4  0.3995738E-003  0.1273261E+03  0.7818608E-02  0.1231478E+00
         21   -1    0    0  501  502  0.00000000000E+00  0.00000000000E+00  0.48906128701E+02  0.48906128701E+02  0.00000000000E+00 0. -1.
         -4   -1    0    0    0  501 -0.00000000000E+00 -0.00000000000E+00 -0.11965517950E+03  0.11966191909E+03  0.12700000000E+01 0. -1.
         25    2    1    2    0    0  0.16185333686E+02  0.18102236801E+02 -0.50686952467E+02  0.13704414110E+03  0.12498909335E+03 0.  0.
    9000005    1    3    3    0    0  0.28173016876E+01  0.42593860603E+02 -0.83606569153E+02  0.93878818460E+02  0.10000000000E+01 0.  0.
    9000005    1    3    3    0    0  0.13368031998E+02 -0.24491623802E+02  0.32919616686E+02  0.43165322641E+02  0.10000000000E+01 0.  0.
         -4    1    1    2    0  502 -0.16185333686E+02 -0.18102236801E+02 -0.20062098329E+02  0.31523906691E+02  0.12700000000E+01 0.  1.
<mgrwt>
<rscale>  1 0.12732608E+03</rscale>
<asrwt>0</asrwt>
<pdfrwt beam="1">  1       21 0.75240199E-02 0.12732608E+03</pdfrwt>
<pdfrwt beam="2">  1       -4 0.18410276E-01 0.12732608E+03</pdfrwt>
<totfact> 0.13906246E+05</totfact>
</mgrwt>
</event>
<event>
 6    4  0.3995738E-003  0.1305227E+03  0.7818608E-02  0.1226682E+00
          4   -1    0    0  502    0 -0.00000000000E+00  0.00000000000E+00  0.87517221259E+01  0.88433896312E+01  0.12700000000E+01 0.  1.
         21   -1    0    0  501  502  0.00000000000E+00 -0.00000000000E+00 -0.99772364890E+03  0.99772364890E+03  0.00000000000E+00 0.  1.
         25    2    1    2    0    0  0.32876227109E+02 -0.18203771302E+02 -0.52151551569E+03  0.53760080013E+03  0.12499585431E+03 0.  0.
    9000005    1    3    3    0    0  0.69343237426E+01 -0.55686756380E+02 -0.10927045584E+03  0.12284189921E+03  0.10000000000E+01 0.  0.
    9000005    1    3    3    0    0  0.25941903367E+02  0.37482985077E+02 -0.41224505985E+03  0.41475890092E+03  0.10000000000E+01 0.  0.
          4    1    1    2  501    0 -0.32876227109E+02  0.18203771302E+02 -0.46745641108E+03  0.46896623840E+03  0.12700000000E+01 0. -1.
<mgrwt>
<rscale>  1 0.13052275E+03</rscale>
<asrwt>0</asrwt>
<pdfrwt beam="2">  1       21 0.15349604E+00 0.13052275E+03</pdfrwt>
<pdfrwt beam="1">  1        4 0.13535315E-02 0.13052275E+03</pdfrwt>
<totfact> 0.21588705E+04</totfact>
</mgrwt>
</event>
<event>
 6    4  0.3995738E-003  0.1275852E+03  0.7818608E-02  0.1231083E+00
         -4   -1    0    0    0  501 -0.00000000000E+00  0.00000000000E+00  0.71928906934E+03  0.71929019051E+03  0.12700000000E+01 0. -1.
         21   -1    0    0  501  502  0.00000000000E+00 -0.00000000000E+00 -0.96108105630E+01  0.96108105630E+01  0.00000000000E+00 0.  1.
         25    2    1    2    0    0  0.24072045228E+02 -0.87606295945E+01  0.66712820141E+03  0.67921868758E+03  0.12498710515E+03 0.  0.
    9000005    1    3    3    0    0  0.59003016707E+01  0.38926890015E+02  0.73384542909E+02  0.83285097491E+02  0.10000000000E+01 0.  0.
    9000005    1    3    3    0    0  0.18171743557E+02 -0.47687519610E+02  0.59374365850E+03  0.59593359009E+03  0.10000000000E+01 0.  0.
         -4    1    1    2    0  502 -0.24072045228E+02  0.87606295945E+01  0.42550057367E+02  0.49682313496E+02  0.12700000000E+01 0.  1.
<mgrwt>
<rscale>  1 0.12758522E+03</rscale>
<asrwt>0</asrwt>
<pdfrwt beam="2">  1       21 0.14785868E-02 0.12758522E+03</pdfrwt>
<pdfrwt beam="1">  1       -4 0.11066635E+00 0.12758522E+03</pdfrwt>
<totfact> 0.54092794E+04</totfact>
</mgrwt>
</event>
<event>
 6    4  0.3995738E-003  0.1410520E+03  0.7818608E-02  0.1211920E+00
          4   -1    0    0  502    0 -0.00000000000E+00  0.00000000000E+00  0.41503572231E+02  0.41522998542E+02  0.12700000000E+01 0. -1.
         21   -1    0    0  501  502  0.00000000000E+00 -0.00000000000E+00 -0.59229848462E+03  0.59229848462E+03  0.00000000000E+00 0.  1.
         25    2    1    2    0    0 -0.37168279630E+02  0.53745664791E+02 -0.87604829497E+02  0.16604296369E+03  0.12500232855E+03 0.  0.
    9000005    1    3    3    0    0 -0.38223850408E+02  0.44203408701E+02  0.17097974298E+02  0.60896180552E+02  0.10000000000E+01 0.  0.
    9000005    1    3    3    0    0  0.10555707780E+01  0.95422560896E+01 -0.10470280379E+03  0.10514678313E+03  0.10000000000E+01 0.  0.
          4    1    1    2  501    0  0.37168279630E+02 -0.53745664791E+02 -0.46319008289E+03  0.46777851948E+03  0.12700000000E+01 0.  1.
<mgrwt>
<rscale>  1 0.14105197E+03</rscale>
<asrwt>0</asrwt>
<pdfrwt beam="2">  1       21 0.91122848E-01 0.14105197E+03</pdfrwt>
<pdfrwt beam="1">  1        4 0.63867638E-02 0.14105197E+03</pdfrwt>
<totfact> 0.67960991E+03</totfact>
</mgrwt>
</event>
<event>
 6    4  0.3995738E-003  0.1317564E+03  0.7818608E-02  0.1224873E+00
          4   -1    0    0  502    0 -0.00000000000E+00  0.00000000000E+00  0.65464883603E+02  0.65477201262E+02  0.12700000000E+01 0. -1.
         21   -1    0    0  501  502  0.00000000000E+00 -0.00000000000E+00 -0.11603452225E+03  0.11603452225E+03  0.00000000000E+00 0.  1.
         25    2    1    2    0    0 -0.19042533465E+02 -0.37087967030E+02 -0.30578864199E+02  0.13525829832E+03  0.12498641906E+03 0.  0.
    9000005    1    3    3    0    0 -0.31641596896E+01  0.36557218814E+01 -0.73683284261E+02  0.73848511078E+02  0.10000000000E+01 0.  0.
    9000005    1    3    3    0    0 -0.15878373776E+02 -0.40743688911E+02  0.43104420061E+02  0.61409787239E+02  0.10000000000E+01 0.  0.
          4    1    1    2  501    0  0.19042533465E+02  0.37087967030E+02 -0.19990774447E+02  0.46253425194E+02  0.12700000000E+01 0.  1.
<mgrwt>
<rscale>  1 0.13175637E+03</rscale>
<asrwt>0</asrwt>
<pdfrwt beam="2">  1       21 0.17851465E-01 0.13175637E+03</pdfrwt>
<pdfrwt beam="1">  1        4 0.10073003E-01 0.13175637E+03</pdfrwt>
<totfact> 0.85974997E+04</totfact>
</mgrwt>
</event>
<event>
 6    4  0.3995738E-003  0.1790990E+03  0.7818608E-02  0.1168678E+00
         -4   -1    0    0    0  501 -0.00000000000E+00  0.00000000000E+00  0.43623746213E+02  0.43642228789E+02  0.12700000000E+01 0. -1.
         21   -1    0    0  501  502  0.00000000000E+00 -0.00000000000E+00 -0.54275785397E+03  0.54275785397E+03  0.00000000000E+00 0. -1.
         25    2    1    2    0    0 -0.68394853869E+02  0.10850371843E+03 -0.27569308518E+03  0.32875999190E+03  0.12500216841E+03 0.  0.
    9000005    1    3    3    0    0 -0.43943790826E+02  0.12155321838E+03 -0.14116175353E+03  0.19139979705E+03  0.10000000000E+01 0.  0.
    9000005    1    3    3    0    0 -0.24451063043E+02 -0.13049499950E+02 -0.13453133165E+03  0.13736019485E+03  0.10000000000E+01 0.  0.
         -4    1    1    2    0  502  0.68394853869E+02 -0.10850371843E+03 -0.22344102257E+03  0.25764009086E+03  0.12700000000E+01 0.  1.
<mgrwt>
<rscale>  1 0.17909901E+03</rscale>
<asrwt>0</asrwt>
<pdfrwt beam="2">  1       21 0.83501206E-01 0.17909901E+03</pdfrwt>
<pdfrwt beam="1">  1       -4 0.67128818E-02 0.17909901E+03</pdfrwt>
<totfact> 0.77345085E+03</totfact>
</mgrwt>
</event>
<event>
 6    4  0.3995738E-003  0.1275368E+03  0.7818608E-02  0.1231157E+00
         21   -1    0    0  501  502  0.00000000000E+00  0.00000000000E+00  0.20203877592E+03  0.20203877592E+03  0.00000000000E+00 0. -1.
          4   -1    0    0  502    0 -0.00000000000E+00 -0.00000000000E+00 -0.30367211524E+02  0.30393756526E+02  0.12700000000E+01 0. -1.
         25    2    1    2    0    0  0.23273298487E+01  0.25190168895E+02  0.15981288190E+03  0.20446465223E+03  0.12500270285E+03 0.  0.
    9000005    1    3    3    0    0  0.54265263793E+02  0.44893439351E+02  0.73369480795E+02  0.10170654091E+03  0.10000000000E+01 0.  0.
    9000005    1    3    3    0    0 -0.51937933944E+02 -0.19703270456E+02  0.86443401102E+02  0.10275811133E+03  0.10000000000E+01 0.  0.
          4    1    1    2  501    0 -0.23273298487E+01 -0.25190168895E+02  0.11858682503E+02  0.27967880218E+02  0.12700000000E+01 0.  1.
<mgrwt>
<rscale>  1 0.12753681E+03</rscale>
<asrwt>0</asrwt>
<pdfrwt beam="1">  1       21 0.31082888E-01 0.12753681E+03</pdfrwt>
<pdfrwt beam="2">  1        4 0.46742278E-02 0.12753681E+03</pdfrwt>
<totfact> 0.10621840E+05</totfact>
</mgrwt>
</event>
<event>
 6    4  0.3995738E-003  0.1512921E+03  0.7818608E-02  0.1198894E+00
         21   -1    0    0  501  502  0.00000000000E+00  0.00000000000E+00  0.61491165944E+03  0.61491165944E+03  0.00000000000E+00 0. -1.
          4   -1    0    0  502    0 -0.00000000000E+00 -0.00000000000E+00 -0.23679851886E+02  0.23713883810E+02  0.12700000000E+01 0.  1.
         25    2    1    2    0    0 -0.79327441747E+02  0.31166329366E+02  0.31331185922E+03  0.34792760091E+03  0.12500044498E+03 0.  0.
    9000005    1    3    3    0    0  0.18573426190E+02 -0.25491354652E+02  0.11875809238E+03  0.12287906994E+03  0.10000000000E+01 0.  0.
    9000005    1    3    3    0    0 -0.97900867937E+02  0.56657684018E+02  0.19455376684E+03  0.22504853097E+03  0.10000000000E+01 0.  0.
          4    1    1    2  501    0  0.79327441747E+02 -0.31166329366E+02  0.27791994834E+03  0.29069794235E+03  0.12700000000E+01 0. -1.
<mgrwt>
<rscale>  1 0.15129208E+03</rscale>
<asrwt>0</asrwt>
<pdfrwt beam="1">  1       21 0.94601782E-01 0.15129208E+03</pdfrwt>
<pdfrwt beam="2">  1        4 0.36457733E-02 0.15129208E+03</pdfrwt>
<totfact> 0.15413037E+04</totfact>
</mgrwt>
</event>
<event>
 6    4  0.3995738E-003  0.1278024E+03  0.7818608E-02  0.1230754E+00
         21   -1    0    0  501  502  0.00000000000E+00  0.00000000000E+00  0.58075019286E+02  0.58075019286E+02  0.00000000000E+00 0. -1.
         -4   -1    0    0    0  501 -0.00000000000E+00 -0.00000000000E+00 -0.10530859081E+03  0.10531624850E+03  0.12700000000E+01 0.  1.
         25    2    1    2    0    0  0.22674809056E+02 -0.13735528391E+02 -0.48804152300E+02  0.13680383975E+03  0.12502253230E+03 0.  0.
    9000005    1    3    3    0    0  0.57333815356E+00 -0.60168444364E+02  0.73819596955E+01  0.60630551232E+02  0.10000000000E+01 0.  0.
    9000005    1    3    3    0    0  0.22101470902E+02  0.46432915973E+02 -0.56186111996E+02  0.76173288514E+02  0.10000000000E+01 0.  0.
         -4    1    1    2    0  502 -0.22674809056E+02  0.13735528391E+02  0.15705807761E+01  0.26587428042E+02  0.12700000000E+01 0. -1.
<mgrwt>
<rscale>  1 0.12780237E+03</rscale>
<asrwt>0</asrwt>
<pdfrwt beam="1">  1       21 0.89346183E-02 0.12780237E+03</pdfrwt>
<pdfrwt beam="2">  1       -4 0.16202979E-01 0.12780237E+03</pdfrwt>
<totfact> 0.12963348E+05</totfact>
</mgrwt>
</event>
<event>
 6    4  0.3995738E-003  0.1335316E+03  0.7818608E-02  0.1222308E+00
         -4   -1    0    0    0  501 -0.00000000000E+00  0.00000000000E+00  0.92105697160E+02  0.92114452445E+02  0.12700000000E+01 0.  1.
         21   -1    0    0  501  502  0.00000000000E+00 -0.00000000000E+00 -0.96423487936E+02  0.96423487936E+02  0.00000000000E+00 0. -1.
         25    2    1    2    0    0  0.46136444211E+02  0.79605665522E+01  0.21197015051E+02  0.13520352072E+03  0.12505493378E+03 0.  0.
    9000005    1    3    3    0    0  0.55804968204E+02  0.25664274646E+02 -0.38285823293E+02  0.72385452507E+02  0.10000000000E+01 0.  0.
    9000005    1    3    3    0    0 -0.96685239926E+01 -0.17703708094E+02  0.59482838344E+02  0.62818068212E+02  0.10000000000E+01 0.  0.
         -4    1    1    2    0  502 -0.46136444211E+02 -0.79605665522E+01 -0.25514805827E+02  0.53334419662E+02  0.12700000000E+01 0. -1.
<mgrwt>
<rscale>  1 0.13353156E+03</rscale>
<asrwt>0</asrwt>
<pdfrwt beam="2">  1       21 0.14834383E-01 0.13353156E+03</pdfrwt>
<pdfrwt beam="1">  1       -4 0.14171424E-01 0.13353156E+03</pdfrwt>
<totfact> 0.67252101E+04</totfact>
</mgrwt>
</event>
<event>
 6    4  0.3995738E-003  0.1311314E+03  0.7818608E-02  0.1225787E+00
         -4   -1    0    0    0  501 -0.00000000000E+00  0.00000000000E+00  0.30798681545E+03  0.30798943390E+03  0.12700000000E+01 0.  1.
         21   -1    0    0  501  502  0.00000000000E+00 -0.00000000000E+00 -0.35971765060E+02  0.35971765060E+02  0.00000000000E+00 0.  1.
         25    2    1    2    0    0  0.29882235210E+02 -0.25990210989E+02  0.27454789551E+03  0.30425644795E+03  0.12500800030E+03 0.  0.
    9000005    1    3    3    0    0  0.10928074029E+02 -0.52231520889E+02  0.26524387565E+03  0.27056028560E+03  0.10000000000E+01 0.  0.
    9000005    1    3    3    0    0  0.18954161181E+02  0.26241309900E+02  0.93040198650E+01  0.33696162348E+02  0.10000000000E+01 0.  0.
         -4    1    1    2    0  502 -0.29882235210E+02  0.25990210989E+02 -0.25328451171E+01  0.39704751010E+02  0.12700000000E+01 0. -1.
<mgrwt>
<rscale>  1 0.13113138E+03</rscale>
<asrwt>0</asrwt>
<pdfrwt beam="2">  1       21 0.55341179E-02 0.13113138E+03</pdfrwt>
<pdfrwt beam="1">  1       -4 0.47384511E-01 0.13113138E+03</pdfrwt>
<totfact> 0.39498438E+04</totfact>
</mgrwt>
</event>
<event>
 6    4  0.3995738E-003  0.1302149E+03  0.7818608E-02  0.1227137E+00
         21   -1    0    0  501  502  0.00000000000E+00  0.00000000000E+00  0.83945289111E+02  0.83945289111E+02  0.00000000000E+00 0. -1.
          4   -1    0    0  502    0 -0.00000000000E+00 -0.00000000000E+00 -0.46654909150E+03  0.46655082003E+03  0.12700000000E+01 0.  1.
         25    2    1    2    0    0 -0.27617804883E+02  0.23830900141E+02 -0.45292218353E+03  0.47126895108E+03  0.12500105987E+03 0.  0.
    9000005    1    3    3    0    0 -0.24731203749E+02  0.71045554054E+01 -0.93877104095E+01  0.27408689373E+02  0.10000000000E+01 0.  0.
    9000005    1    3    3    0    0 -0.28866011340E+01  0.16726344736E+02 -0.44353447312E+03  0.44386026171E+03  0.10000000000E+01 0.  0.
          4    1    1    2  501    0  0.27617804883E+02 -0.23830900141E+02  0.70318381147E+02  0.79227158066E+02  0.12700000000E+01 0. -1.
<mgrwt>
<rscale>  1 0.13021490E+03</rscale>
<asrwt>0</asrwt>
<pdfrwt beam="1">  1       21 0.12914660E-01 0.13021490E+03</pdfrwt>
<pdfrwt beam="2">  1        4 0.71777654E-01 0.13021490E+03</pdfrwt>
<totfact> 0.38188998E+03</totfact>
</mgrwt>
</event>
<event>
 6    4  0.3995738E-003  0.1286730E+03  0.7818608E-02  0.1229438E+00
         21   -1    0    0  501  502  0.00000000000E+00  0.00000000000E+00  0.32196739676E+03  0.32196739676E+03  0.00000000000E+00 0. -1.
          4   -1    0    0  502    0 -0.00000000000E+00 -0.00000000000E+00 -0.12080325964E+03  0.12080993518E+03  0.12700000000E+01 0.  1.
         25    2    1    2    0    0  0.15850125893E+02  0.26083182731E+02 -0.85500460568E+02  0.15448969194E+03  0.12500070898E+03 0.  0.
    9000005    1    3    3    0    0 -0.68069030281E+01  0.68629962137E+02 -0.17549403977E+02  0.71171533717E+02  0.10000000000E+01 0.  0.
    9000005    1    3    3    0    0  0.22657028921E+02 -0.42546779405E+02 -0.67951056591E+02  0.83318158220E+02  0.10000000000E+01 0.  0.
          4    1    1    2  501    0 -0.15850125893E+02 -0.26083182731E+02  0.28666459769E+03  0.28828764001E+03  0.12700000000E+01 0. -1.
<mgrwt>
<rscale>  1 0.12867298E+03</rscale>
<asrwt>0</asrwt>
<pdfrwt beam="1">  1       21 0.49533445E-01 0.12867298E+03</pdfrwt>
<pdfrwt beam="2">  1        4 0.18585823E-01 0.12867298E+03</pdfrwt>
<totfact> 0.41317574E+03</totfact>
</mgrwt>
</event>
<event>
 6    4  0.3995738E-003  0.1268410E+03  0.7818608E-02  0.1232220E+00
         -4   -1    0    0    0  501 -0.00000000000E+00  0.00000000000E+00  0.24083929294E+03  0.24084264142E+03  0.12700000000E+01 0. -1.
         21   -1    0    0  501  502  0.00000000000E+00 -0.00000000000E+00 -0.51077197831E+02  0.51077197831E+02  0.00000000000E+00 0.  1.
         25    2    1    2    0    0  0.19778219415E+02 -0.85148757570E+01  0.22049343664E+03  0.25437374325E+03  0.12499985832E+03 0.  0.
    9000005    1    3    3    0    0  0.10085918034E+02  0.57897624237E+02  0.87628940772E+02  0.10551631104E+03  0.10000000000E+01 0.  0.
    9000005    1    3    3    0    0  0.96923013810E+01 -0.66412499993E+02  0.13286449587E+03  0.14885743221E+03  0.10000000000E+01 0.  0.
         -4    1    1    2    0  502 -0.19778219415E+02  0.85148757570E+01 -0.30731341531E+02  0.37546095998E+02  0.12700000000E+01 0.  1.
<mgrwt>
<rscale>  1 0.12684103E+03</rscale>
<asrwt>0</asrwt>
<pdfrwt beam="2">  1       21 0.78580306E-02 0.12684103E+03</pdfrwt>
<pdfrwt beam="1">  1       -4 0.37053670E-01 0.12684103E+03</pdfrwt>
<totfact> 0.35206560E+04</totfact>
</mgrwt>
</event>
<event>
 6    4  0.3995738E-003  0.1270329E+03  0.7818608E-02  0.1231926E+00
          4   -1    0    0  502    0 -0.00000000000E+00  0.00000000000E+00  0.97980349349E+03  0.97980431656E+03  0.12700000000E+01 0. -1.
         21   -1    0    0  501  502  0.00000000000E+00 -0.00000000000E+00 -0.57159551691E+01  0.57159551691E+01  0.00000000000E+00 0. -1.
         25    2    1    2    0    0 -0.18335419536E+02 -0.13229239574E+02  0.82734782371E+03  0.83704348185E+03  0.12500467480E+03 0.  0.
    9000005    1    3    3    0    0  0.42410749576E+02  0.23376780360E+02  0.48576901512E+03  0.48817792001E+03  0.10000000000E+01 0.  0.
    9000005    1    3    3    0    0 -0.60746169112E+02 -0.36606019935E+02  0.34157880859E+03  0.34886556183E+03  0.10000000000E+01 0.  0.
          4    1    1    2  501    0  0.18335419536E+02  0.13229239574E+02  0.14673971461E+03  0.14847678988E+03  0.12700000000E+01 0.  1.
<mgrwt>
<rscale>  1 0.12703294E+03</rscale>
<asrwt>0</asrwt>
<pdfrwt beam="2">  1       21 0.87937850E-03 0.12703294E+03</pdfrwt>
<pdfrwt beam="1">  1        4 0.15074978E+00 0.12703294E+03</pdfrwt>
<totfact> 0.57790065E+04</totfact>
</mgrwt>
</event>
<event>
 6    4  0.3995738E-003  0.1276806E+03  0.7818608E-02  0.1230938E+00
          4   -1    0    0  502    0 -0.00000000000E+00  0.00000000000E+00  0.35602884273E+01  0.37800203288E+01  0.12700000000E+01 0. -1.
         21   -1    0    0  501  502  0.00000000000E+00 -0.00000000000E+00 -0.16378714430E+04  0.16378714430E+04  0.00000000000E+00 0. -1.
         25    2    1    2    0    0  0.18805661545E+02 -0.18004748883E+02 -0.14288750866E+04  0.14345683524E+04  0.12499808337E+03 0.  0.
    9000005    1    3    3    0    0  0.68949429273E+02 -0.44580967240E+01 -0.57936746343E+03  0.58347369787E+03  0.10000000000E+01 0.  0.
    9000005    1    3    3    0    0 -0.50143767727E+02 -0.13546652159E+02 -0.84950762317E+03  0.85109465458E+03  0.10000000000E+01 0.  0.
          4    1    1    2  501    0 -0.18805661545E+02  0.18004748883E+02 -0.20543606793E+03  0.20708311084E+03  0.12700000000E+01 0.  1.
<mgrwt>
<rscale>  1 0.12768064E+03</rscale>
<asrwt>0</asrwt>
<pdfrwt beam="2">  1       21 0.25198086E+00 0.12768064E+03</pdfrwt>
<pdfrwt beam="1">  1        4 0.56467559E-03 0.12768064E+03</pdfrwt>
<totfact> 0.18970044E+04</totfact>
</mgrwt>
</event>
<event>
 6    4  0.3995738E-003  0.1483095E+03  0.7818608E-02  0.1202566E+00
          4   -1    0    0  502    0 -0.00000000000E+00  0.00000000000E+00  0.45027053712E+03  0.45027232815E+03  0.12700000000E+01 0. -1.
         21   -1    0    0  501  502  0.00000000000E+00 -0.00000000000E+00 -0.32454796768E+02  0.32454796768E+02  0.00000000000E+00 0.  1.
         25    2    1    2    0    0 -0.13626685347E+01  0.79805425222E+02  0.34139021579E+03  0.37221361233E+03  0.12499972402E+03 0.  0.
    9000005    1    3    3    0    0 -0.50456222685E+02  0.52472448567E+02  0.27856301255E+03  0.28791932938E+03  0.10000000000E+01 0.  0.
    9000005    1    3    3    0    0  0.49093554150E+02  0.27332976655E+02  0.62827203236E+02  0.84294282951E+02  0.10000000000E+01 0.  0.
          4    1    1    2  501    0  0.13626685347E+01 -0.79805425222E+02  0.76425524561E+02  0.11051351259E+03  0.12700000000E+01 0.  1.
<mgrwt>
<rscale>  1 0.14830945E+03</rscale>
<asrwt>0</asrwt>
<pdfrwt beam="2">  1       21 0.49930460E-02 0.14830945E+03</pdfrwt>
<pdfrwt beam="1">  1        4 0.69274435E-01 0.14830945E+03</pdfrwt>
<totfact> 0.21574730E+04</totfact>
</mgrwt>
</event>
<event>
 6    4  0.3995738E-003  0.1746618E+03  0.7818608E-02  0.1173072E+00
          4   -1    0    0  502    0 -0.00000000000E+00  0.00000000000E+00  0.21017238648E+03  0.21017622354E+03  0.12700000000E+01 0. -1.
         21   -1    0    0  501  502  0.00000000000E+00 -0.00000000000E+00 -0.13393993575E+03  0.13393993575E+03  0.00000000000E+00 0.  1.
         25    2    1    2    0    0 -0.24965877317E+02  0.11940134488E+03  0.12283210372E+03  0.21352857662E+03  0.12500700437E+03 0.  0.
    9000005    1    3    3    0    0  0.23562541962E+02  0.61041314565E+02 -0.41694697609E+01  0.65571487292E+02  0.10000000000E+01 0.  0.
    9000005    1    3    3    0    0 -0.48528419279E+02  0.58360030311E+02  0.12700157348E+03  0.14795708933E+03  0.10000000000E+01 0.  0.
          4    1    1    2  501    0  0.24965877317E+02 -0.11940134488E+03 -0.46599652992E+02  0.13058758267E+03  0.12700000000E+01 0.  1.
<mgrwt>
<rscale>  1 0.17466175E+03</rscale>
<asrwt>0</asrwt>
<pdfrwt beam="2">  1       21 0.20606144E-01 0.17466175E+03</pdfrwt>
<pdfrwt beam="1">  1        4 0.32334972E-01 0.17466175E+03</pdfrwt>
<totfact> 0.84061692E+03</totfact>
</mgrwt>
</event>
<event>
 6    4  0.3995738E-003  0.1316430E+03  0.7818608E-02  0.1225038E+00
         21   -1    0    0  501  502  0.00000000000E+00  0.00000000000E+00  0.36325943993E+01  0.36325943993E+01  0.00000000000E+00 0. -1.
          4   -1    0    0  502    0 -0.00000000000E+00 -0.00000000000E+00 -0.22433520319E+04  0.22433523914E+04  0.12700000000E+01 0. -1.
         25    2    1    2    0    0  0.38268342694E+02  0.15494729612E+02 -0.13773025941E+04  0.13835795322E+04  0.12500133338E+03 0.  0.
    9000005    1    3    3    0    0  0.60196560523E+02  0.25214785230E+02 -0.13178151215E+04  0.13194305991E+04  0.10000000000E+01 0.  0.
    9000005    1    3    3    0    0 -0.21928217829E+02 -0.97200556185E+01 -0.59487472580E+02  0.64148933057E+02  0.10000000000E+01 0.  0.
          4    1    1    2  501    0 -0.38268342694E+02 -0.15494729612E+02 -0.86241684341E+03  0.86340545365E+03  0.12700000000E+01 0.  1.
<mgrwt>
<rscale>  1 0.13164303E+03</rscale>
<asrwt>0</asrwt>
<pdfrwt beam="1">  1       21 0.55886174E-03 0.13164303E+03</pdfrwt>
<pdfrwt beam="2">  1        4 0.34514753E+00 0.13164303E+03</pdfrwt>
<totfact> 0.77824840E+03</totfact>
</mgrwt>
</event>
<event>
 6    4  0.3995738E-003  0.1270860E+03  0.7818608E-02  0.1231845E+00
         21   -1    0    0  501  502  0.00000000000E+00  0.00000000000E+00  0.92572279974E+02  0.92572279974E+02  0.00000000000E+00 0.  1.
         -4   -1    0    0    0  501 -0.00000000000E+00 -0.00000000000E+00 -0.86561974460E+02  0.86571290405E+02  0.12700000000E+01 0. -1.
         25    2    1    2    0    0  0.14385447414E+02 -0.17861712070E+02 -0.35281970767E+02  0.13189267795E+03  0.12499951672E+03 0.  0.
    9000005    1    3    3    0    0 -0.27999950189E+02 -0.21864584093E+02  0.34893972704E+02  0.49806089781E+02  0.10000000000E+01 0.  0.
    9000005    1    3    3    0    0  0.42385397604E+02  0.40028720230E+01 -0.70175943471E+02  0.82086588164E+02  0.10000000000E+01 0.  0.
         -4    1    1    2    0  502 -0.14385447414E+02  0.17861712070E+02  0.41292276281E+02  0.47250892434E+02  0.12700000000E+01 0.  1.
<mgrwt>
<rscale>  1 0.12708604E+03</rscale>
<asrwt>0</asrwt>
<pdfrwt beam="1">  1       21 0.14241889E-01 0.12708604E+03</pdfrwt>
<pdfrwt beam="2">  1       -4 0.13318614E-01 0.12708604E+03</pdfrwt>
<totfact> 0.80047230E+04</totfact>
</mgrwt>
</event>
<event>
 6    4  0.3995738E-003  0.1272774E+03  0.7818608E-02  0.1231552E+00
         -4   -1    0    0    0  501 -0.00000000000E+00  0.00000000000E+00  0.17628309933E+03  0.17628767401E+03  0.12700000000E+01 0. -1.
         21   -1    0    0  501  502  0.00000000000E+00 -0.00000000000E+00 -0.47991418076E+02  0.47991418076E+02  0.00000000000E+00 0.  1.
         25    2    1    2    0    0  0.14431594593E+02  0.19142148338E+02  0.14656040144E+03  0.19411202722E+03  0.12499934029E+03 0.  0.
    9000005    1    3    3    0    0 -0.49818468856E+02  0.82221024169E+01  0.10580520744E+03  0.11724003040E+03  0.10000000000E+01 0.  0.
    9000005    1    3    3    0    0  0.64250063450E+02  0.10920045921E+02  0.40755194005E+02  0.76871996817E+02  0.10000000000E+01 0.  0.
         -4    1    1    2    0  502 -0.14431594593E+02 -0.19142148338E+02 -0.18268720191E+02  0.30167064871E+02  0.12700000000E+01 0.  1.
<mgrwt>
<rscale>  1 0.12727737E+03</rscale>
<asrwt>0</asrwt>
<pdfrwt beam="2">  1       21 0.73832952E-02 0.12727737E+03</pdfrwt>
<pdfrwt beam="1">  1       -4 0.27122121E-01 0.12727737E+03</pdfrwt>
<totfact> 0.70962404E+04</totfact>
</mgrwt>
</event>
<event>
 6    4  0.3995738E-003  0.1334538E+03  0.7818608E-02  0.1222419E+00
          4   -1    0    0  502    0 -0.00000000000E+00  0.00000000000E+00  0.81464855303E+02  0.81474754063E+02  0.12700000000E+01 0. -1.
         21   -1    0    0  501  502  0.00000000000E+00 -0.00000000000E+00 -0.83280044928E+03  0.83280044928E+03  0.00000000000E+00 0.  1.
         25    2    1    2    0    0  0.21967910144E+01 -0.46689143085E+02  0.25639495954E+02  0.13589444481E+03  0.12500085762E+03 0.  0.
    9000005    1    3    3    0    0 -0.47862134452E+02 -0.30890436028E+02  0.52008735692E+02  0.77142151516E+02  0.10000000000E+01 0.  0.
    9000005    1    3    3    0    0  0.50058925466E+02 -0.15798707057E+02 -0.26369239737E+02  0.58752293299E+02  0.10000000000E+01 0.  0.
          4    1    1    2  501    0 -0.21967910144E+01  0.46689143085E+02 -0.77697508993E+03  0.77838075853E+03  0.12700000000E+01 0.  1.
<mgrwt>
<rscale>  1 0.13345380E+03</rscale>
<asrwt>0</asrwt>
<pdfrwt beam="2">  1       21 0.12812315E+00 0.13345380E+03</pdfrwt>
<pdfrwt beam="1">  1        4 0.12533890E-01 0.13345380E+03</pdfrwt>
<totfact> 0.97417881E+02</totfact>
</mgrwt>
</event>
<event>
 6    4  0.3995738E-003  0.1380063E+03  0.7818608E-02  0.1216037E+00
         21   -1    0    0  501  502  0.00000000000E+00  0.00000000000E+00  0.37564894992E+03  0.37564894992E+03  0.00000000000E+00 0. -1.
         -4   -1    0    0    0  501 -0.00000000000E+00 -0.00000000000E+00 -0.28665100631E+02  0.28693220352E+02  0.12700000000E+01 0.  1.
         25    2    1    2    0    0 -0.57104114388E+02  0.12682515173E+02  0.17619311205E+03  0.22380736781E+03  0.12499599627E+03 0.  0.
    9000005    1    3    3    0    0 -0.63903718190E+02  0.56743700591E+02  0.76941774213E+02  0.11499812770E+03  0.10000000000E+01 0.  0.
    9000005    1    3    3    0    0  0.67996038025E+01 -0.44061185418E+02  0.99251337833E+02  0.10880924011E+03  0.10000000000E+01 0.  0.
         -4    1    1    2    0  502  0.57104114388E+02 -0.12682515173E+02  0.17079073724E+03  0.18053480246E+03  0.12700000000E+01 0. -1.
<mgrwt>
<rscale>  1 0.13800625E+03</rscale>
<asrwt>0</asrwt>
<pdfrwt beam="1">  1       21 0.57792143E-01 0.13800625E+03</pdfrwt>
<pdfrwt beam="2">  1       -4 0.44123439E-02 0.13800625E+03</pdfrwt>
<totfact> 0.33596363E+04</totfact>
</mgrwt>
</event>
<event>
 6    4  0.3995738E-003  0.1277528E+03  0.7818608E-02  0.1230829E+00
          4   -1    0    0  502    0 -0.00000000000E+00  0.00000000000E+00  0.17246553134E+02  0.17293249984E+02  0.12700000000E+01 0.  1.
         21   -1    0    0  501  502  0.00000000000E+00 -0.00000000000E+00 -0.35056253963E+03  0.35056253963E+03  0.00000000000E+00 0.  1.
         25    2    1    2    0    0  0.23309406442E+02 -0.12233161312E+02 -0.25477100274E+03  0.28500709598E+03  0.12501120852E+03 0.  0.
    9000005    1    3    3    0    0  0.83315127498E+01  0.10881380122E+02 -0.25698964496E+03  0.25735674881E+03  0.10000000000E+01 0.  0.
    9000005    1    3    3    0    0  0.14977893692E+02 -0.23114541433E+02  0.22186422253E+01  0.27650347167E+02  0.10000000000E+01 0.  0.
          4    1    1    2  501    0 -0.23309406442E+02  0.12233161312E+02 -0.78544983760E+02  0.82848693642E+02  0.12700000000E+01 0. -1.
<mgrwt>
<rscale>  1 0.12775281E+03</rscale>
<asrwt>0</asrwt>
<pdfrwt beam="2">  1       21 0.53932702E-01 0.12775281E+03</pdfrwt>
<pdfrwt beam="1">  1        4 0.26570847E-02 0.12775281E+03</pdfrwt>
<totfact> 0.85664866E+04</totfact>
</mgrwt>
</event>
<event>
 6    4  0.3995738E-003  0.1274044E+03  0.7818608E-02  0.1231359E+00
          4   -1    0    0  502    0 -0.00000000000E+00  0.00000000000E+00  0.94048258115E+02  0.94056832577E+02  0.12700000000E+01 0. -1.
         21   -1    0    0  501  502  0.00000000000E+00 -0.00000000000E+00 -0.29761931108E+03  0.29761931108E+03  0.00000000000E+00 0.  1.
         25    2    1    2    0    0 -0.22813502903E+02 -0.92887945205E+01  0.50032242909E+02  0.13687625709E+03  0.12500058722E+03 0.  0.
    9000005    1    3    3    0    0 -0.66886704732E+02 -0.21947922083E+02  0.56870706848E+02  0.90503148293E+02  0.10000000000E+01 0.  0.
    9000005    1    3    3    0    0  0.44073201828E+02  0.12659127562E+02 -0.68384639397E+01  0.46373108792E+02  0.10000000000E+01 0.  0.
          4    1    1    2  501    0  0.22813502903E+02  0.92887945205E+01 -0.25360329588E+03  0.25479988657E+03  0.12700000000E+01 0.  1.
<mgrwt>
<rscale>  1 0.12740441E+03</rscale>
<asrwt>0</asrwt>
<pdfrwt beam="2">  1       21 0.45787586E-01 0.12740441E+03</pdfrwt>
<pdfrwt beam="1">  1        4 0.14469831E-01 0.12740441E+03</pdfrwt>
<totfact> 0.75349220E+03</totfact>
</mgrwt>
</event>
<event>
 6    4  0.3995738E-003  0.1267931E+03  0.7818608E-02  0.1232293E+00
         -4   -1    0    0    0  501 -0.00000000000E+00  0.00000000000E+00  0.46691164978E+03  0.46691337698E+03  0.12700000000E+01 0. -1.
         21   -1    0    0  501  502  0.00000000000E+00 -0.00000000000E+00 -0.11945608716E+02  0.11945608716E+02  0.00000000000E+00 0. -1.
         25    2    1    2    0    0  0.21229714592E+02 -0.10139693609E+01  0.36457315902E+03  0.38599233431E+03  0.12499905980E+03 0.  0.
    9000005    1    3    3    0    0  0.45892433736E+02 -0.48585427741E+02  0.26039721975E+03  0.26883893192E+03  0.10000000000E+01 0.  0.
    9000005    1    3    3    0    0 -0.24662719144E+02  0.47571458380E+02  0.10417593927E+03  0.11715340239E+03  0.10000000000E+01 0.  0.
         -4    1    1    2    0  502 -0.21229714592E+02  0.10139693609E+01  0.90392882044E+02  0.92866651386E+02  0.12700000000E+01 0.  1.
<mgrwt>
<rscale>  1 0.12679311E+03</rscale>
<asrwt>0</asrwt>
<pdfrwt beam="2">  1       21 0.18377863E-02 0.12679311E+03</pdfrwt>
<pdfrwt beam="1">  1       -4 0.71837873E-01 0.12679311E+03</pdfrwt>
<totfact> 0.10113989E+05</totfact>
</mgrwt>
</event>
<event>
 6    4  0.3995738E-003  0.1303539E+03  0.7818608E-02  0.1226932E+00
         21   -1    0    0  501  502  0.00000000000E+00  0.00000000000E+00  0.59981871613E+03  0.59981871613E+03  0.00000000000E+00 0.  1.
         -4   -1    0    0    0  501 -0.00000000000E+00 -0.00000000000E+00 -0.19324358362E+02  0.19366045701E+02  0.12700000000E+01 0. -1.
         25    2    1    2    0    0 -0.35687942514E+02 -0.97255999871E+01  0.21223311841E+03  0.24906833441E+03  0.12499568840E+03 0.  0.
    9000005    1    3    3    0    0  0.39001354022E+02  0.20267823749E+02  0.11327287737E+03  0.12150569963E+03  0.10000000000E+01 0.  0.
    9000005    1    3    3    0    0 -0.74689296536E+02 -0.29993423736E+02  0.98960241043E+02  0.12756263478E+03  0.10000000000E+01 0.  0.
         -4    1    1    2    0  502  0.35687942514E+02  0.97255999871E+01  0.36826123935E+03  0.37011642742E+03  0.12700000000E+01 0.  1.
<mgrwt>
<rscale>  1 0.13035390E+03</rscale>
<asrwt>0</asrwt>
<pdfrwt beam="1">  1       21 0.92279788E-01 0.13035390E+03</pdfrwt>
<pdfrwt beam="2">  1       -4 0.29762888E-02 0.13035390E+03</pdfrwt>
<totfact> 0.22224198E+04</totfact>
</mgrwt>
</event>
<event>
 6    4  0.3995738E-003  0.1481526E+03  0.7818608E-02  0.1202762E+00
         21   -1    0    0  501  502  0.00000000000E+00  0.00000000000E+00  0.59010510811E+03  0.59010510811E+03  0.00000000000E+00 0.  1.
          4   -1    0    0  502    0 -0.00000000000E+00 -0.00000000000E+00 -0.24191622185E+02  0.24224935169E+02  0.12700000000E+01 0. -1.
         25    2    1    2    0    0 -0.79326322463E+02 -0.56289269607E+01  0.27069769790E+03  0.30858779129E+03  0.12499932411E+03 0.  0.
    9000005    1    3    3    0    0 -0.90483000902E+02 -0.40344976976E+02  0.13123874154E+03  0.16443691161E+03  0.10000000000E+01 0.  0.
    9000005    1    3    3    0    0  0.11156678438E+02  0.34716050015E+02  0.13945895636E+03  0.14415087967E+03  0.10000000000E+01 0.  0.
          4    1    1    2  501    0  0.79326322463E+02  0.56289269607E+01  0.29521578803E+03  0.30574225200E+03  0.12700000000E+01 0.  1.
<mgrwt>
<rscale>  1 0.14815256E+03</rscale>
<asrwt>0</asrwt>
<pdfrwt beam="1">  1       21 0.90785390E-01 0.14815256E+03</pdfrwt>
<pdfrwt beam="2">  1        4 0.37244561E-02 0.14815256E+03</pdfrwt>
<totfact> 0.16364564E+04</totfact>
</mgrwt>
</event>
<event>
 6    4  0.3995738E-003  0.1445099E+03  0.7818608E-02  0.1207386E+00
          4   -1    0    0  502    0 -0.00000000000E+00  0.00000000000E+00  0.84181751970E+03  0.84181847769E+03  0.12700000000E+01 0.  1.
         21   -1    0    0  501  502  0.00000000000E+00 -0.00000000000E+00 -0.16765320706E+03  0.16765320706E+03  0.00000000000E+00 0. -1.
         25    2    1    2    0    0  0.55392754775E+02  0.46797826308E+02  0.82740768541E+03  0.83993249157E+03  0.12499887479E+03 0.  0.
    9000005    1    3    3    0    0  0.47091895972E+02 -0.34857578866E+02  0.44302160668E+03  0.44688011979E+03  0.10000000000E+01 0.  0.
    9000005    1    3    3    0    0  0.83008588027E+01  0.81655405174E+02  0.38438607872E+03  0.39305237179E+03  0.10000000000E+01 0.  0.
          4    1    1    2  501    0 -0.55392754775E+02 -0.46797826308E+02 -0.15324337276E+03  0.16953919318E+03  0.12700000000E+01 0. -1.
<mgrwt>
<rscale>  1 0.14450990E+03</rscale>
<asrwt>0</asrwt>
<pdfrwt beam="2">  1       21 0.25792802E-01 0.14450990E+03</pdfrwt>
<pdfrwt beam="1">  1        4 0.12951083E+00 0.14450990E+03</pdfrwt>
<totfact> 0.27677898E+02</totfact>
</mgrwt>
</event>
<event>
 6    4  0.3995738E-003  0.1294116E+03  0.7818608E-02  0.1228331E+00
         21   -1    0    0  501  502  0.00000000000E+00  0.00000000000E+00  0.41375279622E+03  0.41375279622E+03  0.00000000000E+00 0. -1.
          4   -1    0    0  502    0 -0.00000000000E+00 -0.00000000000E+00 -0.24146430049E+02  0.24179805295E+02  0.12700000000E+01 0.  1.
         25    2    1    2    0    0  0.12158609038E+02  0.31216943887E+02  0.15949706020E+03  0.20539392741E+03  0.12500009538E+03 0.  0.
    9000005    1    3    3    0    0 -0.55767448582E+02  0.30812413015E+01  0.70684216661E+02  0.90093067737E+02  0.10000000000E+01 0.  0.
    9000005    1    3    3    0    0  0.67926057620E+02  0.28135702586E+02  0.88812843535E+02  0.11530085967E+03  0.10000000000E+01 0.  0.
          4    1    1    2  501    0 -0.12158609038E+02 -0.31216943887E+02  0.23010930598E+03  0.23253867411E+03  0.12700000000E+01 0. -1.
<mgrwt>
<rscale>  1 0.12941157E+03</rscale>
<asrwt>0</asrwt>
<pdfrwt beam="1">  1       21 0.63654271E-01 0.12941157E+03</pdfrwt>
<pdfrwt beam="2">  1        4 0.37175530E-02 0.12941157E+03</pdfrwt>
<totfact> 0.35682415E+04</totfact>
</mgrwt>
</event>
<event>
 6    4  0.3995738E-003  0.1284045E+03  0.7818608E-02  0.1229843E+00
         21   -1    0    0  501  502  0.00000000000E+00  0.00000000000E+00  0.27548356986E+03  0.27548356986E+03  0.00000000000E+00 0.  1.
         -4   -1    0    0    0  501 -0.00000000000E+00 -0.00000000000E+00 -0.43635171450E+02  0.43653649188E+02  0.12700000000E+01 0. -1.
         25    2    1    2    0    0 -0.23188346553E+02  0.18020238147E+02  0.54705769138E+02  0.13957232158E+03  0.12500113349E+03 0.  0.
    9000005    1    3    3    0    0  0.44159378843E+02 -0.20280055778E+02  0.84511292141E+01  0.49333082077E+02  0.10000000000E+01 0.  0.
    9000005    1    3    3    0    0 -0.67347725396E+02  0.38300293926E+02  0.46254639924E+02  0.90239239499E+02  0.10000000000E+01 0.  0.
         -4    1    1    2    0  502  0.23188346553E+02 -0.18020238147E+02  0.17714262927E+03  0.17956489747E+03  0.12700000000E+01 0.  1.
<mgrwt>
<rscale>  1 0.12840449E+03</rscale>
<asrwt>0</asrwt>
<pdfrwt beam="1">  1       21 0.42382087E-01 0.12840449E+03</pdfrwt>
<pdfrwt beam="2">  1       -4 0.67147500E-02 0.12840449E+03</pdfrwt>
<totfact> 0.32093412E+04</totfact>
</mgrwt>
</event>
<event>
 6    4  0.3995738E-003  0.1269467E+03  0.7818608E-02  0.1232058E+00
         -4   -1    0    0    0  501 -0.00000000000E+00  0.00000000000E+00  0.12756285133E+04  0.12756291455E+04  0.12700000000E+01 0.  1.
         21   -1    0    0  501  502  0.00000000000E+00 -0.00000000000E+00 -0.46173879781E+01  0.46173879781E+01  0.00000000000E+00 0.  1.
         25    2    1    2    0    0 -0.21946809900E+02 -0.18095999054E+01  0.94477774801E+03  0.95326829798E+03  0.12502206877E+03 0.  0.
    9000005    1    3    3    0    0 -0.12520671549E+02  0.54049091457E+02  0.24521285925E+03  0.25141284344E+03  0.10000000000E+01 0.  0.
    9000005    1    3    3    0    0 -0.94261383512E+01 -0.55858691362E+02  0.69956488876E+03  0.70185545454E+03  0.10000000000E+01 0.  0.
         -4    1    1    2    0  502  0.21946809900E+02  0.18095999054E+01  0.32623337735E+03  0.32697823553E+03  0.12700000000E+01 0. -1.
<mgrwt>
<rscale>  1 0.12694666E+03</rscale>
<asrwt>0</asrwt>
<pdfrwt beam="2">  1       21 0.71036840E-03 0.12694666E+03</pdfrwt>
<pdfrwt beam="1">  1       -4 0.19626374E+00 0.12694666E+03</pdfrwt>
<totfact> 0.39856753E+04</totfact>
</mgrwt>
</event>
<event>
 6    4  0.3995738E-003  0.1286582E+03  0.7818608E-02  0.1229460E+00
         21   -1    0    0  501  502  0.00000000000E+00  0.00000000000E+00  0.75383988053E+03  0.75383988053E+03  0.00000000000E+00 0. -1.
          4   -1    0    0  502    0 -0.00000000000E+00 -0.00000000000E+00 -0.31258368763E+02  0.31284157616E+02  0.12700000000E+01 0.  1.
         25    2    1    2    0    0  0.89033613283E+01 -0.29123216828E+02  0.10304164537E+03  0.16483483902E+03  0.12500204747E+03 0.  0.
    9000005    1    3    3    0    0  0.62208683485E+01  0.25306200641E+02  0.10705211352E+03  0.11018283897E+03  0.10000000000E+01 0.  0.
    9000005    1    3    3    0    0  0.26824929798E+01 -0.54429417469E+02 -0.40104681499E+01  0.54652000050E+02  0.10000000000E+01 0.  0.
          4    1    1    2  501    0 -0.89033613283E+01  0.29123216828E+02  0.61953986640E+03  0.62028919913E+03  0.12700000000E+01 0. -1.
<mgrwt>
<rscale>  1 0.12865824E+03</rscale>
<asrwt>0</asrwt>
<pdfrwt beam="1">  1       21 0.11597535E+00 0.12865824E+03</pdfrwt>
<pdfrwt beam="2">  1        4 0.48110465E-02 0.12865824E+03</pdfrwt>
<totfact> 0.60572741E+03</totfact>
</mgrwt>
</event>
<event>
 6    4  0.3995738E-003  0.1266790E+03  0.7818608E-02  0.1232468E+00
         -4   -1    0    0    0  501 -0.00000000000E+00  0.00000000000E+00  0.14910458319E+03  0.14910999171E+03  0.12700000000E+01 0. -1.
         21   -1    0    0  501  502  0.00000000000E+00 -0.00000000000E+00 -0.87868321662E+02  0.87868321662E+02  0.00000000000E+00 0.  1.
         25    2    1    2    0    0 -0.11561539216E+02  0.17003539167E+02  0.12013224096E+03  0.17458329092E+03  0.12499912246E+03 0.  0.
    9000005    1    3    3    0    0 -0.62656483553E+02 -0.93714236980E+01  0.88814731081E+02  0.10909956448E+03  0.10000000000E+01 0.  0.
    9000005    1    3    3    0    0  0.51094944337E+02  0.26374962865E+02  0.31317509879E+02  0.65483726436E+02  0.10000000000E+01 0.  0.
         -4    1    1    2    0  502  0.11561539216E+02 -0.17003539167E+02 -0.58895979434E+02  0.62395022452E+02  0.12700000000E+01 0.  1.
<mgrwt>
<rscale>  1 0.12667900E+03</rscale>
<asrwt>0</asrwt>
<pdfrwt beam="2">  1       21 0.13518203E-01 0.12667900E+03</pdfrwt>
<pdfrwt beam="1">  1       -4 0.22940289E-01 0.12667900E+03</pdfrwt>
<totfact> 0.33522735E+04</totfact>
</mgrwt>
</event>
<event>
 6    4  0.3995738E-003  0.1295770E+03  0.7818608E-02  0.1228085E+00
          4   -1    0    0  502    0 -0.00000000000E+00  0.00000000000E+00  0.34874873992E+03  0.34875105232E+03  0.12700000000E+01 0.  1.
         21   -1    0    0  501  502  0.00000000000E+00 -0.00000000000E+00 -0.51070728247E+02  0.51070728247E+02  0.00000000000E+00 0.  1.
         25    2    1    2    0    0  0.32445451682E+01 -0.33980183091E+02  0.32892481304E+03  0.35352755401E+03  0.12500007557E+03 0.  0.
    9000005    1    3    3    0    0  0.14233992126E+02 -0.45430529200E+02  0.34815454529E+02  0.58988603894E+02  0.10000000000E+01 0.  0.
    9000005    1    3    3    0    0 -0.10989446958E+02  0.11450346110E+02  0.29410935851E+03  0.29453895012E+03  0.10000000000E+01 0.  0.
          4    1    1    2  501    0 -0.32445451682E+01  0.33980183091E+02 -0.31246801374E+02  0.46294226555E+02  0.12700000000E+01 0. -1.
<mgrwt>
<rscale>  1 0.12957700E+03</rscale>
<asrwt>0</asrwt>
<pdfrwt beam="2">  1       21 0.78570353E-02 0.12957700E+03</pdfrwt>
<pdfrwt beam="1">  1        4 0.53655043E-01 0.12957700E+03</pdfrwt>
<totfact> 0.16841951E+04</totfact>
</mgrwt>
</event>
<event>
 6    4  0.3995738E-003  0.1305476E+03  0.7818608E-02  0.1226645E+00
          4   -1    0    0  502    0 -0.00000000000E+00  0.00000000000E+00  0.43428988149E+02  0.43447553575E+02  0.12700000000E+01 0. -1.
         21   -1    0    0  501  502  0.00000000000E+00 -0.00000000000E+00 -0.80387465519E+03  0.80387465519E+03  0.00000000000E+00 0.  1.
         25    2    1    2    0    0  0.32603732893E+02 -0.18842367012E+02 -0.56301707392E+02  0.14217090089E+03  0.12499857843E+03 0.  0.
    9000005    1    3    3    0    0  0.22817051903E+02  0.51248498923E+02 -0.41689955217E+02  0.69900492598E+02  0.10000000000E+01 0.  0.
    9000005    1    3    3    0    0  0.97866809903E+01 -0.70090865936E+02 -0.14611752175E+02  0.72270408287E+02  0.10000000000E+01 0.  0.
          4    1    1    2  501    0 -0.32603732893E+02  0.18842367012E+02 -0.70414395965E+03  0.70515130788E+03  0.12700000000E+01 0.  1.
<mgrwt>
<rscale>  1 0.13054763E+03</rscale>
<asrwt>0</asrwt>
<pdfrwt beam="2">  1       21 0.12367302E+00 0.13054763E+03</pdfrwt>
<pdfrwt beam="1">  1        4 0.66828883E-02 0.13054763E+03</pdfrwt>
<totfact> 0.30443019E+03</totfact>
</mgrwt>
</event>
<event>
 6    4  0.3995738E-003  0.1342880E+03  0.7818608E-02  0.1221228E+00
         -4   -1    0    0    0  501 -0.00000000000E+00  0.00000000000E+00  0.67216730831E+03  0.67216850808E+03  0.12700000000E+01 0. -1.
         21   -1    0    0  501  502  0.00000000000E+00 -0.00000000000E+00 -0.16983465346E+02  0.16983465346E+02  0.00000000000E+00 0. -1.
         25    2    1    2    0    0  0.47220712999E+02  0.13205401837E+02  0.60203095472E+03  0.61682617718E+03  0.12501633512E+03 0.  0.
    9000005    1    3    3    0    0  0.83519675932E+02 -0.16707224511E+02  0.33356942825E+03  0.34427348297E+03  0.10000000000E+01 0.  0.
    9000005    1    3    3    0    0 -0.36298962933E+02  0.29912626348E+02  0.26846152647E+03  0.27255269421E+03  0.10000000000E+01 0.  0.
         -4    1    1    2    0  502 -0.47220712999E+02 -0.13205401837E+02  0.53152888242E+02  0.72325796244E+02  0.12700000000E+01 0.  1.
<mgrwt>
<rscale>  1 0.13428798E+03</rscale>
<asrwt>0</asrwt>
<pdfrwt beam="2">  1       21 0.26128413E-02 0.13428798E+03</pdfrwt>
<pdfrwt beam="1">  1       -4 0.10341408E+00 0.13428798E+03</pdfrwt>
<totfact> 0.25468261E+04</totfact>
</mgrwt>
</event>
<event>
 6    4  0.3995738E-003  0.1304826E+03  0.7818608E-02  0.1226741E+00
         21   -1    0    0  501  502  0.00000000000E+00  0.00000000000E+00  0.44429965854E+03  0.44429965854E+03  0.00000000000E+00 0.  1.
          4   -1    0    0  502    0 -0.00000000000E+00 -0.00000000000E+00 -0.23653869421E+02  0.23687938673E+02  0.12700000000E+01 0. -1.
         25    2    1    2    0    0  0.28870234930E+02 -0.23842811292E+02  0.16870772157E+03  0.21327918962E+03  0.12499498908E+03 0.  0.
    9000005    1    3    3    0    0  0.22877223745E+02 -0.47239316064E+02  0.17934443636E+03  0.18686986702E+03  0.10000000000E+01 0.  0.
    9000005    1    3    3    0    0  0.59930111846E+01  0.23396504772E+02 -0.10636714792E+02  0.26409322600E+02  0.10000000000E+01 0.  0.
          4    1    1    2  501    0 -0.28870234930E+02  0.23842811292E+02  0.25193806755E+03  0.25470840759E+03  0.12700000000E+01 0.  1.
<mgrwt>
<rscale>  1 0.13048263E+03</rscale>
<asrwt>0</asrwt>
<pdfrwt beam="1">  1       21 0.68353787E-01 0.13048263E+03</pdfrwt>
<pdfrwt beam="2">  1        4 0.36418175E-02 0.13048263E+03</pdfrwt>
<totfact> 0.31634336E+04</totfact>
</mgrwt>
</event>
<event>
 6    4  0.3995738E-003  0.1374827E+03  0.7818608E-02  0.1216757E+00
          4   -1    0    0  502    0 -0.00000000000E+00  0.00000000000E+00  0.15384236317E+02  0.15436567852E+02  0.12700000000E+01 0. -1.
         21   -1    0    0  501  502  0.00000000000E+00 -0.00000000000E+00 -0.16564834743E+04  0.16564834743E+04  0.00000000000E+00 0.  1.
         25    2    1    2    0    0 -0.57240074841E+02  0.49270325552E+00 -0.30453861505E+03  0.33413359409E+03  0.12499928689E+03 0.  0.
    9000005    1    3    3    0    0  0.23728289210E+02  0.32659317320E+02 -0.45504752125E+02  0.60838681631E+02  0.10000000000E+01 0.  0.
    9000005    1    3    3    0    0 -0.80968364051E+02 -0.32166614065E+02 -0.25903386292E+03  0.27329491246E+03  0.10000000000E+01 0.  0.
          4    1    1    2  501    0  0.57240074841E+02 -0.49270325552E+00 -0.13365606229E+04  0.13377864480E+04  0.12700000000E+01 0.  1.
<mgrwt>
<rscale>  1 0.13748269E+03</rscale>
<asrwt>0</asrwt>
<pdfrwt beam="2">  1       21 0.25484361E+00 0.13748269E+03</pdfrwt>
<pdfrwt beam="1">  1        4 0.23708686E-02 0.13748269E+03</pdfrwt>
<totfact> 0.20818454E+03</totfact>
</mgrwt>
</event>
<event>
 6    4  0.3995738E-003  0.1271524E+03  0.7818608E-02  0.1231743E+00
         21   -1    0    0  501  502  0.00000000000E+00  0.00000000000E+00  0.59464314175E+03  0.59464314175E+03  0.00000000000E+00 0.  1.
          4   -1    0    0  502    0 -0.00000000000E+00 -0.00000000000E+00 -0.47236840133E+02  0.47253909529E+02  0.12700000000E+01 0. -1.
         25    2    1    2    0    0  0.15519102134E+02  0.17356299895E+02  0.39060480527E+02  0.13301674080E+03  0.12500259404E+03 0.  0.
    9000005    1    3    3    0    0 -0.26039474189E+02 -0.45026791535E+02  0.19328371871E+02  0.55498217369E+02  0.10000000000E+01 0.  0.
    9000005    1    3    3    0    0  0.41558576323E+02  0.62383091430E+02  0.19732108655E+02  0.77518523427E+02  0.10000000000E+01 0.  0.
          4    1    1    2  501    0 -0.15519102134E+02 -0.17356299895E+02  0.50834582109E+03  0.50888031048E+03  0.12700000000E+01 0.  1.
<mgrwt>
<rscale>  1 0.12715240E+03</rscale>
<asrwt>0</asrwt>
<pdfrwt beam="1">  1       21 0.91483555E-01 0.12715240E+03</pdfrwt>
<pdfrwt beam="2">  1        4 0.72686240E-02 0.12715240E+03</pdfrwt>
<totfact> 0.54191720E+03</totfact>
</mgrwt>
</event>
<event>
 6    4  0.3995738E-003  0.1375307E+03  0.7818608E-02  0.1216691E+00
         21   -1    0    0  501  502  0.00000000000E+00  0.00000000000E+00  0.77222928853E+03  0.77222928853E+03  0.00000000000E+00 0. -1.
         -4   -1    0    0    0  501 -0.00000000000E+00 -0.00000000000E+00 -0.34877813706E+02  0.34900928195E+02  0.12700000000E+01 0.  1.
         25    2    1    2    0    0 -0.33425070137E+02  0.46623448478E+02  0.10720818632E+03  0.17437974599E+03  0.12499487725E+03 0.  0.
    9000005    1    3    3    0    0 -0.26604680352E+02 -0.34619987376E+02  0.54908581596E+01  0.44017065621E+02  0.10000000000E+01 0.  0.
    9000005    1    3    3    0    0 -0.68203897853E+01  0.81243435854E+02  0.10171732816E+03  0.13036268037E+03  0.10000000000E+01 0.  0.
         -4    1    1    2    0  502  0.33425070137E+02 -0.46623448478E+02  0.63014328850E+03  0.63275047073E+03  0.12700000000E+01 0. -1.
<mgrwt>
<rscale>  1 0.13753073E+03</rscale>
<asrwt>0</asrwt>
<pdfrwt beam="1">  1       21 0.11880449E+00 0.13753073E+03</pdfrwt>
<pdfrwt beam="2">  1       -4 0.53676764E-02 0.13753073E+03</pdfrwt>
<totfact> 0.48052701E+03</totfact>
</mgrwt>
</event>
<event>
 6    4  0.3995738E-003  0.1267965E+03  0.7818608E-02  0.1232288E+00
         21   -1    0    0  501  502  0.00000000000E+00  0.00000000000E+00  0.42906175586E+02  0.42906175586E+02  0.00000000000E+00 0.  1.
          4   -1    0    0  502    0 -0.00000000000E+00 -0.00000000000E+00 -0.24008767841E+03  0.24009103736E+03  0.12700000000E+01 0.  1.
         25    2    1    2    0    0 -0.15878301135E+02  0.14136681383E+02 -0.21865109858E+03  0.25275613741E+03  0.12500158352E+03 0.  0.
    9000005    1    3    3    0    0 -0.16284273705E+02  0.66930759750E+02 -0.87438389013E+02  0.11131655782E+03  0.10000000000E+01 0.  0.
    9000005    1    3    3    0    0  0.40597257022E+00 -0.52794078367E+02 -0.13121270957E+03  0.14143957960E+03  0.10000000000E+01 0.  0.
          4    1    1    2  501    0  0.15878301135E+02 -0.14136681383E+02  0.21469595762E+02  0.30241075537E+02  0.12700000000E+01 0. -1.
<mgrwt>
<rscale>  1 0.12679654E+03</rscale>
<asrwt>0</asrwt>
<pdfrwt beam="1">  1       21 0.66009501E-02 0.12679654E+03</pdfrwt>
<pdfrwt beam="2">  1        4 0.36938270E-01 0.12679654E+03</pdfrwt>
<totfact> 0.47742499E+04</totfact>
</mgrwt>
</event>
<event>
 6    4  0.3995738E-003  0.1280084E+03  0.7818608E-02  0.1230441E+00
         21   -1    0    0  501  502  0.00000000000E+00  0.00000000000E+00  0.14297102702E+02  0.14297102702E+02  0.00000000000E+00 0.  1.
         -4   -1    0    0    0  501 -0.00000000000E+00 -0.00000000000E+00 -0.56103138354E+03  0.56103282098E+03  0.12700000000E+01 0.  1.
         25    2    1    2    0    0  0.27436474916E+02  0.27706997288E+01 -0.52446859589E+03  0.53986429865E+03  0.12500286376E+03 0.  0.
    9000005    1    3    3    0    0  0.17058458661E+02  0.60734368484E+02 -0.35220585533E+03  0.35781226790E+03  0.10000000000E+01 0.  0.
    9000005    1    3    3    0    0  0.10378016255E+02 -0.57963668755E+02 -0.17226274056E+03  0.18205203075E+03  0.10000000000E+01 0.  0.
         -4    1    1    2    0  502 -0.27436474916E+02 -0.27706997288E+01 -0.22265684951E+02  0.35465625035E+02  0.12700000000E+01 0. -1.
<mgrwt>
<rscale>  1 0.12800841E+03</rscale>
<asrwt>0</asrwt>
<pdfrwt beam="1">  1       21 0.21995540E-02 0.12800841E+03</pdfrwt>
<pdfrwt beam="2">  1       -4 0.86316980E-01 0.12800841E+03</pdfrwt>
<totfact> 0.50590750E+04</totfact>
</mgrwt>
</event>
<event>
 6    4  0.3995738E-003  0.1279445E+03  0.7818608E-02  0.1230538E+00
         21   -1    0    0  501  502  0.00000000000E+00  0.00000000000E+00  0.63573807394E+01  0.63573807394E+01  0.00000000000E+00 0.  1.
          4   -1    0    0  502    0 -0.00000000000E+00 -0.00000000000E+00 -0.94800083565E+03  0.94800168633E+03  0.12700000000E+01 0.  1.
         25    2    1    2    0    0  0.16616133684E+02 -0.21655721761E+02 -0.77658862298E+03  0.78705761272E+03  0.12499892089E+03 0.  0.
    9000005    1    3    3    0    0  0.51575265756E+01  0.16492643184E+02 -0.70432080349E+03  0.70453346379E+03  0.10000000000E+01 0.  0.
    9000005    1    3    3    0    0  0.11458607108E+02 -0.38148364945E+02 -0.72267819486E+02  0.82524148939E+02  0.10000000000E+01 0.  0.
          4    1    1    2  501    0 -0.16616133684E+02  0.21655721761E+02 -0.16505483193E+03  0.16730145435E+03  0.12700000000E+01 0. -1.
<mgrwt>
<rscale>  1 0.12794451E+03</rscale>
<asrwt>0</asrwt>
<pdfrwt beam="1">  1       21 0.97805819E-03 0.12794451E+03</pdfrwt>
<pdfrwt beam="2">  1        4 0.14585616E+00 0.12794451E+03</pdfrwt>
<totfact> 0.53207651E+04</totfact>
</mgrwt>
</event>
<event>
 6    4  0.3995738E-003  0.1303648E+03  0.7818608E-02  0.1226915E+00
         21   -1    0    0  501  502  0.00000000000E+00  0.00000000000E+00  0.14683382749E+03  0.14683382749E+03  0.00000000000E+00 0.  1.
          4   -1    0    0  502    0 -0.00000000000E+00 -0.00000000000E+00 -0.58098847970E+02  0.58112726966E+02  0.12700000000E+01 0.  1.
         25    2    1    2    0    0 -0.17606967128E+02 -0.32555108711E+02  0.10208695162E+03  0.16557996388E+03  0.12500055342E+03 0.  0.
    9000005    1    3    3    0    0 -0.62971597686E+02  0.14836259739E+02  0.48402961882E+02  0.80804600346E+02  0.10000000000E+01 0.  0.
    9000005    1    3    3    0    0  0.45364630558E+02 -0.47391368450E+02  0.53683989734E+02  0.84775363538E+02  0.10000000000E+01 0.  0.
          4    1    1    2  501    0  0.17606967128E+02  0.32555108711E+02 -0.13351972093E+02  0.39366590574E+02  0.12700000000E+01 0. -1.
<mgrwt>
<rscale>  1 0.13036479E+03</rscale>
<asrwt>0</asrwt>
<pdfrwt beam="1">  1       21 0.22589819E-01 0.13036479E+03</pdfrwt>
<pdfrwt beam="2">  1        4 0.89397745E-02 0.13036479E+03</pdfrwt>
<totfact> 0.67841490E+04</totfact>
</mgrwt>
</event>
<event>
 6    4  0.3995738E-003  0.1271016E+03  0.7818608E-02  0.1231821E+00
         21   -1    0    0  501  502  0.00000000000E+00  0.00000000000E+00  0.56715479227E+03  0.56715479227E+03  0.00000000000E+00 0.  1.
         -4   -1    0    0    0  501 -0.00000000000E+00 -0.00000000000E+00 -0.12222044587E+02  0.12287850662E+02  0.12700000000E+01 0.  1.
         25    2    1    2    0    0  0.19732339462E+02  0.11824554000E+02  0.33491314126E+03  0.35822007309E+03  0.12500249308E+03 0.  0.
    9000005    1    3    3    0    0 -0.35867617205E+02  0.27057234827E+02  0.25912370804E+03  0.26299177932E+03  0.10000000000E+01 0.  0.
    9000005    1    3    3    0    0  0.55599956667E+02 -0.15232680827E+02  0.75789433220E+02  0.95228293770E+02  0.10000000000E+01 0.  0.
         -4    1    1    2    0  502 -0.19732339462E+02 -0.11824554000E+02  0.22001960642E+03  0.22122256984E+03  0.12700000000E+01 0. -1.
<mgrwt>
<rscale>  1 0.12710157E+03</rscale>
<asrwt>0</asrwt>
<pdfrwt beam="1">  1       21 0.87254563E-01 0.12710157E+03</pdfrwt>
<pdfrwt beam="2">  1       -4 0.18854864E-02 0.12710157E+03</pdfrwt>
<totfact> 0.51112586E+04</totfact>
</mgrwt>
</event>
<event>
 6    4  0.3995738E-003  0.1266152E+03  0.7818608E-02  0.1232566E+00
         -4   -1    0    0    0  501 -0.00000000000E+00  0.00000000000E+00  0.11348529926E+02  0.11419370888E+02  0.12700000000E+01 0. -1.
         21   -1    0    0  501  502  0.00000000000E+00 -0.00000000000E+00 -0.97130546671E+03  0.97130546671E+03  0.00000000000E+00 0.  1.
         25    2    1    2    0    0 -0.16509602056E+02 -0.11569202213E+02 -0.34605695122E+03  0.36849261883E+03  0.12499993297E+03 0.  0.
    9000005    1    3    3    0    0 -0.48318061470E+02 -0.27022414180E+02 -0.65735869614E+02  0.85947952194E+02  0.10000000000E+01 0.  0.
    9000005    1    3    3    0    0  0.31808459414E+02  0.15453211967E+02 -0.28032108161E+03  0.28254466663E+03  0.10000000000E+01 0.  0.
         -4    1    1    2    0  502  0.16509602056E+02  0.11569202213E+02 -0.61389998557E+03  0.61423221878E+03  0.12700000000E+01 0.  1.
<mgrwt>
<rscale>  1 0.12661515E+03</rscale>
<asrwt>0</asrwt>
<pdfrwt beam="2">  1       21 0.14943163E+00 0.12661515E+03</pdfrwt>
<pdfrwt beam="1">  1       -4 0.17514407E-02 0.12661515E+03</pdfrwt>
<totfact> 0.15598174E+04</totfact>
</mgrwt>
</event>
<event>
 6    4  0.3995738E-003  0.1297951E+03  0.7818608E-02  0.1227760E+00
         21   -1    0    0  501  502  0.00000000000E+00  0.00000000000E+00  0.14253563371E+03  0.14253563371E+03  0.00000000000E+00 0. -1.
         -4   -1    0    0    0  501 -0.00000000000E+00 -0.00000000000E+00 -0.66822969232E+03  0.66823089916E+03  0.12700000000E+01 0.  1.
         25    2    1    2    0    0 -0.13539842595E+02  0.32209863666E+02 -0.65966272048E+03  0.67231069905E+03  0.12500387437E+03 0.  0.
    9000005    1    3    3    0    0  0.41433895471E+02  0.35155874312E+02 -0.50915315399E+03  0.51204554232E+03  0.10000000000E+01 0.  0.
    9000005    1    3    3    0    0 -0.54973738065E+02 -0.29460106457E+01 -0.15050956650E+03  0.16026515673E+03  0.10000000000E+01 0.  0.
         -4    1    1    2    0  502  0.13539842595E+02 -0.32209863666E+02  0.13396866187E+03  0.13845583382E+03  0.12700000000E+01 0. -1.
<mgrwt>
<rscale>  1 0.12979511E+03</rscale>
<asrwt>0</asrwt>
<pdfrwt beam="1">  1       21 0.21928559E-01 0.12979511E+03</pdfrwt>
<pdfrwt beam="2">  1       -4 0.10280510E+00 0.12979511E+03</pdfrwt>
<totfact> 0.65091522E+02</totfact>
</mgrwt>
</event>
<event>
 6    4  0.3995738E-003  0.1280683E+03  0.7818608E-02  0.1230351E+00
         21   -1    0    0  501  502  0.00000000000E+00  0.00000000000E+00  0.21088462265E+03  0.21088462265E+03  0.00000000000E+00 0.  1.
         -4   -1    0    0    0  501 -0.00000000000E+00 -0.00000000000E+00 -0.35676893203E+02  0.35699490313E+02  0.12700000000E+01 0. -1.
         25    2    1    2    0    0 -0.27619636621E+02 -0.35633865306E+01  0.88936152030E+02  0.15592022809E+03  0.12500374530E+03 0.  0.
    9000005    1    3    3    0    0  0.46199584573E+02  0.16816786928E+02  0.20736266123E+02  0.53368517592E+02  0.10000000000E+01 0.  0.
    9000005    1    3    3    0    0 -0.73819221193E+02 -0.20380173459E+02  0.68199885906E+02  0.10255171049E+03  0.10000000000E+01 0.  0.
         -4    1    1    2    0  502  0.27619636621E+02  0.35633865306E+01  0.86271577419E+02  0.90663884877E+02  0.12700000000E+01 0.  1.
<mgrwt>
<rscale>  1 0.12806826E+03</rscale>
<asrwt>0</asrwt>
<pdfrwt beam="1">  1       21 0.32443787E-01 0.12806826E+03</pdfrwt>
<pdfrwt beam="2">  1       -4 0.54907853E-02 0.12806826E+03</pdfrwt>
<totfact> 0.75499917E+04</totfact>
</mgrwt>
</event>
<event>
 6    4  0.3995738E-003  0.1274371E+03  0.7818608E-02  0.1231309E+00
         21   -1    0    0  501  502  0.00000000000E+00  0.00000000000E+00  0.39580329979E+02  0.39580329979E+02  0.00000000000E+00 0.  1.
         -4   -1    0    0    0  501 -0.00000000000E+00 -0.00000000000E+00 -0.14802691256E+03  0.14803236045E+03  0.12700000000E+01 0.  1.
         25    2    1    2    0    0  0.22952634176E+02  0.93967400970E+01 -0.97577510908E+02  0.16050417223E+03  0.12500038611E+03 0.  0.
    9000005    1    3    3    0    0  0.17832914397E+02  0.50548791636E+02  0.92943225429E+00  0.53619558148E+02  0.10000000000E+01 0.  0.
    9000005    1    3    3    0    0  0.51197197790E+01 -0.41152051539E+02 -0.98506943163E+02  0.10688461408E+03  0.10000000000E+01 0.  0.
         -4    1    1    2    0  502 -0.22952634176E+02 -0.93967400970E+01 -0.10869071670E+02  0.27108518200E+02  0.12700000000E+01 0. -1.
<mgrwt>
<rscale>  1 0.12743712E+03</rscale>
<asrwt>0</asrwt>
<pdfrwt beam="1">  1       21 0.60892813E-02 0.12743712E+03</pdfrwt>
<pdfrwt beam="2">  1       -4 0.22775358E-01 0.12743712E+03</pdfrwt>
<totfact> 0.13603186E+05</totfact>
</mgrwt>
</event>
<event>
 6    4  0.3995738E-003  0.1274024E+03  0.7818608E-02  0.1231362E+00
         21   -1    0    0  501  502  0.00000000000E+00  0.00000000000E+00  0.67431306858E+02  0.67431306858E+02  0.00000000000E+00 0.  1.
         -4   -1    0    0    0  501 -0.00000000000E+00 -0.00000000000E+00 -0.12410649394E+03  0.12411299182E+03  0.12700000000E+01 0.  1.
         25    2    1    2    0    0  0.20031725817E+02  0.13902009569E+02 -0.85753828746E+02  0.15357436044E+03  0.12504730757E+03 0.  0.
    9000005    1    3    3    0    0  0.16884525461E+02 -0.55354169510E+02 -0.34887339886E+02  0.67581785760E+02  0.10000000000E+01 0.  0.
    9000005    1    3    3    0    0  0.31472003564E+01  0.69256179079E+02 -0.50866488860E+02  0.85992574678E+02  0.10000000000E+01 0.  0.
         -4    1    1    2    0  502 -0.20031725817E+02 -0.13902009569E+02  0.29078641660E+02  0.37969938242E+02  0.12700000000E+01 0. -1.
<mgrwt>
<rscale>  1 0.12740237E+03</rscale>
<asrwt>0</asrwt>
<pdfrwt beam="1">  1       21 0.10374047E-01 0.12740237E+03</pdfrwt>
<pdfrwt beam="2">  1       -4 0.19094726E-01 0.12740237E+03</pdfrwt>
<totfact> 0.74642481E+04</totfact>
</mgrwt>
</event>
<event>
 6    4  0.3995738E-003  0.1697576E+03  0.7818608E-02  0.1178101E+00
          4   -1    0    0  502    0 -0.00000000000E+00  0.00000000000E+00  0.43742365770E+03  0.43742550133E+03  0.12700000000E+01 0.  1.
         21   -1    0    0  501  502  0.00000000000E+00 -0.00000000000E+00 -0.12720453394E+03  0.12720453394E+03  0.00000000000E+00 0. -1.
         25    2    1    2    0    0 -0.72660418584E+02 -0.88943956270E+02  0.38962253833E+03  0.42499809433E+03  0.12500837580E+03 0.  0.
    9000005    1    3    3    0    0 -0.73379169356E+02 -0.84805602461E+02  0.39911360906E+03  0.41457106223E+03  0.10000000000E+01 0.  0.
    9000005    1    3    3    0    0  0.71875077206E+00 -0.41383538094E+01 -0.94910707236E+01  0.10427032099E+02  0.10000000000E+01 0.  0.
          4    1    1    2  501    0  0.72660418584E+02  0.88943956270E+02 -0.79403414572E+02  0.13963194094E+03  0.12700000000E+01 0. -1.
<mgrwt>
<rscale>  1 0.16975764E+03</rscale>
<asrwt>0</asrwt>
<pdfrwt beam="2">  1       21 0.19569929E-01 0.16975764E+03</pdfrwt>
<pdfrwt beam="1">  1        4 0.67296576E-01 0.16975764E+03</pdfrwt>
<totfact> 0.20898985E+03</totfact>
</mgrwt>
</event>
<event>
 6    4  0.3995738E-003  0.1279712E+03  0.7818608E-02  0.1230498E+00
         -4   -1    0    0    0  501 -0.00000000000E+00  0.00000000000E+00  0.10118008830E+03  0.10118805843E+03  0.12700000000E+01 0. -1.
         21   -1    0    0  501  502  0.00000000000E+00 -0.00000000000E+00 -0.78535016023E+02  0.78535016023E+02  0.00000000000E+00 0.  1.
         25    2    1    2    0    0 -0.11778561006E+02  0.24712486619E+02  0.53279432837E+02  0.13861932230E+03  0.12500870793E+03 0.  0.
    9000005    1    3    3    0    0  0.39779311451E+02 -0.67097522166E+00 -0.20761792477E+02  0.44887591316E+02  0.10000000000E+01 0.  0.
    9000005    1    3    3    0    0 -0.51557872457E+02  0.25383461841E+02  0.74041225314E+02  0.93731730984E+02  0.10000000000E+01 0.  0.
         -4    1    1    2    0  502  0.11778561006E+02 -0.24712486619E+02 -0.30634360558E+02  0.41103752153E+02  0.12700000000E+01 0.  1.
<mgrwt>
<rscale>  1 0.12797116E+03</rscale>
<asrwt>0</asrwt>
<pdfrwt beam="2">  1       21 0.12082310E-01 0.12797116E+03</pdfrwt>
<pdfrwt beam="1">  1       -4 0.15567570E-01 0.12797116E+03</pdfrwt>
<totfact> 0.81922900E+04</totfact>
</mgrwt>
</event>
<event>
 6    4  0.3995738E-003  0.1303103E+03  0.7818608E-02  0.1226996E+00
          4   -1    0    0  502    0 -0.00000000000E+00  0.00000000000E+00  0.94367379221E+03  0.94367464679E+03  0.12700000000E+01 0. -1.
         21   -1    0    0  501  502  0.00000000000E+00 -0.00000000000E+00 -0.77529467950E+01  0.77529467950E+01  0.00000000000E+00 0.  1.
         25    2    1    2    0    0  0.36779220122E+02 -0.16955135807E+01  0.80262578696E+03  0.81313525358E+03  0.12500080364E+03 0.  0.
    9000005    1    3    3    0    0 -0.44304990620E+01 -0.46690268458E+01 -0.24796168139E+01  0.69697656466E+01  0.10000000000E+01 0.  0.
    9000005    1    3    3    0    0  0.41209719184E+02  0.29735132651E+01  0.80510540378E+03  0.80616548793E+03  0.10000000000E+01 0.  0.
          4    1    1    2  501    0 -0.36779220122E+02  0.16955135807E+01  0.13329505845E+03  0.13829234001E+03  0.12700000000E+01 0.  1.
<mgrwt>
<rscale>  1 0.13031035E+03</rscale>
<asrwt>0</asrwt>
<pdfrwt beam="2">  1       21 0.11927618E-02 0.13031035E+03</pdfrwt>
<pdfrwt beam="1">  1        4 0.14518856E+00 0.13031035E+03</pdfrwt>
<totfact> 0.39433525E+04</totfact>
</mgrwt>
</event>
<event>
 6    4  0.3995738E-003  0.1282389E+03  0.7818608E-02  0.1230093E+00
          4   -1    0    0  502    0 -0.00000000000E+00  0.00000000000E+00  0.17949545297E+03  0.17949994578E+03  0.12700000000E+01 0. -1.
         21   -1    0    0  501  502  0.00000000000E+00 -0.00000000000E+00 -0.41670144137E+02  0.41670144137E+02  0.00000000000E+00 0. -1.
         25    2    1    2    0    0  0.27237205370E+02  0.88489198956E+01  0.14295808257E+03  0.19204746975E+03  0.12500019410E+03 0.  0.
    9000005    1    3    3    0    0  0.46669895824E+02  0.42473832978E+02  0.13941767627E+03  0.15303723115E+03  0.10000000000E+01 0.  0.
    9000005    1    3    3    0    0 -0.19432690455E+02 -0.33624913083E+02  0.35404063013E+01  0.39010238591E+02  0.10000000000E+01 0.  0.
          4    1    1    2  501    0 -0.27237205370E+02 -0.88489198956E+01 -0.51327737362E+01  0.29122620176E+02  0.12700000000E+01 0.  1.
<mgrwt>
<rscale>  1 0.12823891E+03</rscale>
<asrwt>0</asrwt>
<pdfrwt beam="2">  1       21 0.64107915E-02 0.12823891E+03</pdfrwt>
<pdfrwt beam="1">  1        4 0.27616519E-01 0.12823891E+03</pdfrwt>
<totfact> 0.87429914E+04</totfact>
</mgrwt>
</event>
<event>
 6    4  0.3995738E-003  0.1324188E+03  0.7818608E-02  0.1223910E+00
          4   -1    0    0  502    0 -0.00000000000E+00  0.00000000000E+00  0.49063857081E+03  0.49064021449E+03  0.12700000000E+01 0.  1.
         21   -1    0    0  501  502  0.00000000000E+00 -0.00000000000E+00 -0.29635132736E+02  0.29635132736E+02  0.00000000000E+00 0.  1.
         25    2    1    2    0    0 -0.31727080708E+02  0.30071771641E+02  0.45764106001E+03  0.47641377422E+03  0.12499530136E+03 0.  0.
    9000005    1    3    3    0    0 -0.29450449996E+01  0.41674280865E+02  0.40754168481E+02  0.58372264170E+02  0.10000000000E+01 0.  0.
    9000005    1    3    3    0    0 -0.28782035708E+02 -0.11602509224E+02  0.41688689153E+03  0.41804151005E+03  0.10000000000E+01 0.  0.
          4    1    1    2  501    0  0.31727080708E+02 -0.30071771641E+02  0.33623780725E+01  0.43861573001E+02  0.12700000000E+01 0. -1.
<mgrwt>
<rscale>  1 0.13241882E+03</rscale>
<asrwt>0</asrwt>
<pdfrwt beam="2">  1       21 0.45592516E-02 0.13241882E+03</pdfrwt>
<pdfrwt beam="1">  1        4 0.75485071E-01 0.13241882E+03</pdfrwt>
<totfact> 0.20610174E+04</totfact>
</mgrwt>
</event>
<event>
 6    4  0.3995738E-003  0.1272805E+03  0.7818608E-02  0.1231548E+00
          4   -1    0    0  502    0 -0.00000000000E+00  0.00000000000E+00  0.23764299345E+03  0.23764638696E+03  0.12700000000E+01 0. -1.
         21   -1    0    0  501  502  0.00000000000E+00 -0.00000000000E+00 -0.28624009371E+02  0.28624009371E+02  0.00000000000E+00 0.  1.
         25    2    1    2    0    0 -0.83410070970E+01  0.22483771819E+02  0.20588573301E+03  0.24205216855E+03  0.12500089939E+03 0.  0.
    9000005    1    3    3    0    0  0.37796811721E+01 -0.50830828865E+02  0.63443897198E+02  0.81389110111E+02  0.10000000000E+01 0.  0.
    9000005    1    3    3    0    0 -0.12120688269E+02  0.73314600684E+02  0.14244183581E+03  0.16066305844E+03  0.10000000000E+01 0.  0.
          4    1    1    2  501    0  0.83410070970E+01 -0.22483771819E+02  0.31332510664E+01  0.24218227781E+02  0.12700000000E+01 0.  1.
<mgrwt>
<rscale>  1 0.12728047E+03</rscale>
<asrwt>0</asrwt>
<pdfrwt beam="2">  1       21 0.44036939E-02 0.12728047E+03</pdfrwt>
<pdfrwt beam="1">  1        4 0.36562887E-01 0.12728047E+03</pdfrwt>
<totfact> 0.96399129E+04</totfact>
</mgrwt>
</event>
<event>
 6    4  0.3995738E-003  0.1364992E+03  0.7818608E-02  0.1218119E+00
         21   -1    0    0  501  502  0.00000000000E+00  0.00000000000E+00  0.13114359594E+02  0.13114359594E+02  0.00000000000E+00 0.  1.
         -4   -1    0    0    0  501 -0.00000000000E+00 -0.00000000000E+00 -0.13096183342E+04  0.13096189500E+04  0.12700000000E+01 0. -1.
         25    2    1    2    0    0  0.11657920241E+02 -0.53540036453E+02 -0.12252896881E+04  0.12328693563E+04  0.12501834728E+03 0.  0.
    9000005    1    3    3    0    0  0.29218490702E+02  0.12077192453E+02 -0.87304191565E+02  0.92857959494E+02  0.10000000000E+01 0.  0.
    9000005    1    3    3    0    0 -0.17560570461E+02 -0.65617228906E+02 -0.11379854966E+04  0.11400113968E+04  0.10000000000E+01 0.  0.
         -4    1    1    2    0  502 -0.11657920241E+02  0.53540036453E+02 -0.71214286441E+02  0.89863953291E+02  0.12700000000E+01 0.  1.
<mgrwt>
<rscale>  1 0.13649919E+03</rscale>
<asrwt>0</asrwt>
<pdfrwt beam="1">  1       21 0.20175944E-02 0.13649919E+03</pdfrwt>
<pdfrwt beam="2">  1       -4 0.20148446E+00 0.13649919E+03</pdfrwt>
<totfact> 0.71087456E+03</totfact>
</mgrwt>
</event>
<event>
 6    4  0.3995738E-003  0.1424826E+03  0.7818608E-02  0.1210027E+00
         -4   -1    0    0    0  501 -0.00000000000E+00  0.00000000000E+00  0.50820920460E+03  0.50821079144E+03  0.12700000000E+01 0. -1.
         21   -1    0    0  501  502  0.00000000000E+00 -0.00000000000E+00 -0.23115819671E+02  0.23115819671E+02  0.00000000000E+00 0.  1.
         25    2    1    2    0    0  0.68363333795E+02 -0.18425012065E+01  0.38100896969E+03  0.40677895512E+03  0.12499737247E+03 0.  0.
    9000005    1    3    3    0    0  0.57990081217E+01  0.48484007649E+02  0.23619563222E+03  0.24119225562E+03  0.10000000000E+01 0.  0.
    9000005    1    3    3    0    0  0.62564325674E+02 -0.50326508855E+02  0.14481333747E+03  0.16558669949E+03  0.10000000000E+01 0.  0.
         -4    1    1    2    0  502 -0.68363333795E+02  0.18425012065E+01  0.10408441524E+03  0.12454765599E+03  0.12700000000E+01 0.  1.
<mgrwt>
<rscale>  1 0.14248257E+03</rscale>
<asrwt>0</asrwt>
<pdfrwt beam="2">  1       21 0.35562803E-02 0.14248257E+03</pdfrwt>
<pdfrwt beam="1">  1       -4 0.78188829E-01 0.14248257E+03</pdfrwt>
<totfact> 0.29077948E+04</totfact>
</mgrwt>
</event>
<event>
 6    4  0.3995738E-003  0.1301266E+03  0.7818608E-02  0.1227268E+00
         21   -1    0    0  501  502  0.00000000000E+00  0.00000000000E+00  0.29487791837E+02  0.29487791837E+02  0.00000000000E+00 0.  1.
          4   -1    0    0  502    0 -0.00000000000E+00 -0.00000000000E+00 -0.26616430892E+03  0.26616733879E+03  0.12700000000E+01 0. -1.
         25    2    1    2    0    0  0.36078131494E+02 -0.24669769457E+01 -0.22046824268E+03  0.25600618857E+03  0.12500082003E+03 0.  0.
    9000005    1    3    3    0    0  0.80123384346E+02  0.13373276895E+02 -0.16086404279E+03  0.18021332225E+03  0.10000000000E+01 0.  0.
    9000005    1    3    3    0    0 -0.44045252852E+02 -0.15840253840E+02 -0.59604199898E+02  0.75792866327E+02  0.10000000000E+01 0.  0.
          4    1    1    2  501    0 -0.36078131494E+02  0.24669769457E+01 -0.16208274393E+02  0.39648942056E+02  0.12700000000E+01 0.  1.
<mgrwt>
<rscale>  1 0.13012656E+03</rscale>
<asrwt>0</asrwt>
<pdfrwt beam="1">  1       21 0.45365832E-02 0.13012656E+03</pdfrwt>
<pdfrwt beam="2">  1        4 0.40950693E-01 0.13012656E+03</pdfrwt>
<totfact> 0.73726622E+04</totfact>
</mgrwt>
</event>
<event>
 6    4  0.3995738E-003  0.1370460E+03  0.7818608E-02  0.1217360E+00
          4   -1    0    0  502    0 -0.00000000000E+00  0.00000000000E+00  0.32703029712E+03  0.32703276309E+03  0.12700000000E+01 0. -1.
         21   -1    0    0  501  502  0.00000000000E+00 -0.00000000000E+00 -0.28857765337E+02  0.28857765337E+02  0.00000000000E+00 0.  1.
         25    2    1    2    0    0 -0.38676965589E+02  0.40752248687E+02  0.19396833343E+03  0.23749804009E+03  0.12499980493E+03 0.  0.
    9000005    1    3    3    0    0 -0.56620264207E+02  0.57170522027E+02  0.19715872818E+03  0.21294808524E+03  0.10000000000E+01 0.  0.
    9000005    1    3    3    0    0  0.17943298618E+02 -0.16418273340E+02 -0.31903947497E+01  0.24549954855E+02  0.10000000000E+01 0.  0.
          4    1    1    2  501    0  0.38676965589E+02 -0.40752248687E+02  0.10420419834E+03  0.11839248833E+03  0.12700000000E+01 0.  1.
<mgrwt>
<rscale>  1 0.13704599E+03</rscale>
<asrwt>0</asrwt>
<pdfrwt beam="2">  1       21 0.44396564E-02 0.13704599E+03</pdfrwt>
<pdfrwt beam="1">  1        4 0.50314690E-01 0.13704599E+03</pdfrwt>
<totfact> 0.50920704E+04</totfact>
</mgrwt>
</event>
<event>
 6    4  0.3995738E-003  0.1271397E+03  0.7818608E-02  0.1231763E+00
         21   -1    0    0  501  502  0.00000000000E+00  0.00000000000E+00  0.12172177124E+02  0.12172177124E+02  0.00000000000E+00 0. -1.
          4   -1    0    0  502    0 -0.00000000000E+00 -0.00000000000E+00 -0.46483932499E+03  0.46484105989E+03  0.12700000000E+01 0. -1.
         25    2    1    2    0    0 -0.22754543352E+02 -0.46841119357E+01 -0.38654813070E+03  0.40692010269E+03  0.12499920991E+03 0.  0.
    9000005    1    3    3    0    0 -0.62055972505E+02  0.28032663467E+02 -0.14751224657E+03  0.16247349579E+03  0.10000000000E+01 0.  0.
    9000005    1    3    3    0    0  0.39301429153E+02 -0.32716775403E+02 -0.23903588412E+03  0.24444660690E+03  0.10000000000E+01 0.  0.
          4    1    1    2  501    0  0.22754543352E+02  0.46841119357E+01 -0.66119017173E+02  0.70093134327E+02  0.12700000000E+01 0.  1.
<mgrwt>
<rscale>  1 0.12713974E+03</rscale>
<asrwt>0</asrwt>
<pdfrwt beam="1">  1       21 0.18726427E-02 0.12713974E+03</pdfrwt>
<pdfrwt beam="2">  1        4 0.71518970E-01 0.12713974E+03</pdfrwt>
<totfact> 0.99119527E+04</totfact>
</mgrwt>
</event>
<event>
 6    4  0.3995738E-003  0.1288049E+03  0.7818608E-02  0.1229240E+00
         -4   -1    0    0    0  501 -0.00000000000E+00  0.00000000000E+00  0.67731445590E+02  0.67743351126E+02  0.12700000000E+01 0. -1.
         21   -1    0    0  501  502  0.00000000000E+00 -0.00000000000E+00 -0.38136011702E+03  0.38136011702E+03  0.00000000000E+00 0.  1.
         25    2    1    2    0    0 -0.17124204550E+02 -0.25927419454E+02  0.50569904896E+01  0.12890410295E+03  0.12500090057E+03 0.  0.
    9000005    1    3    3    0    0  0.54058546807E+02 -0.36762195358E+01  0.84842284351E+00  0.54199270237E+02  0.10000000000E+01 0.  0.
    9000005    1    3    3    0    0 -0.71182751357E+02 -0.22251199918E+02  0.42085676461E+01  0.74704832709E+02  0.10000000000E+01 0.  0.
         -4    1    1    2    0  502  0.17124204550E+02  0.25927419454E+02 -0.31868566192E+03  0.32019936520E+03  0.12700000000E+01 0.  1.
<mgrwt>
<rscale>  1 0.12880487E+03</rscale>
<asrwt>0</asrwt>
<pdfrwt beam="2">  1       21 0.58670787E-01 0.12880487E+03</pdfrwt>
<pdfrwt beam="1">  1       -4 0.10421301E-01 0.12880487E+03</pdfrwt>
<totfact> 0.79091743E+03</totfact>
</mgrwt>
</event>
<event>
 6    4  0.3995738E-003  0.1408199E+03  0.7818608E-02  0.1212230E+00
         21   -1    0    0  501  502  0.00000000000E+00  0.00000000000E+00  0.39925779454E+03  0.39925779454E+03  0.00000000000E+00 0.  1.
          4   -1    0    0  502    0 -0.00000000000E+00 -0.00000000000E+00 -0.79378058239E+02  0.79388217198E+02  0.12700000000E+01 0.  1.
         25    2    1    2    0    0  0.20668156684E+02 -0.61464460075E+02 -0.11208040676E+02  0.14126524537E+03  0.12500078728E+03 0.  0.
    9000005    1    3    3    0    0 -0.48976734935E+02 -0.20350647462E+02  0.16846504321E+02  0.55656752733E+02  0.10000000000E+01 0.  0.
    9000005    1    3    3    0    0  0.69644891619E+02 -0.41113812613E+02 -0.28054544997E+02  0.85608492635E+02  0.10000000000E+01 0.  0.
          4    1    1    2  501    0 -0.20668156684E+02  0.61464460075E+02  0.33108777697E+03  0.33738076636E+03  0.12700000000E+01 0. -1.
<mgrwt>
<rscale>  1 0.14081992E+03</rscale>
<asrwt>0</asrwt>
<pdfrwt beam="1">  1       21 0.61424275E-01 0.14081992E+03</pdfrwt>
<pdfrwt beam="2">  1        4 0.12212946E-01 0.14081992E+03</pdfrwt>
<totfact> 0.55071827E+03</totfact>
</mgrwt>
</event>
<event>
 6    4  0.3995738E-003  0.1275732E+03  0.7818608E-02  0.1231102E+00
         21   -1    0    0  501  502  0.00000000000E+00  0.00000000000E+00  0.32014165733E+03  0.32014165733E+03  0.00000000000E+00 0.  1.
         -4   -1    0    0    0  501 -0.00000000000E+00 -0.00000000000E+00 -0.18826464604E+02  0.18869251958E+02  0.12700000000E+01 0.  1.
         25    2    1    2    0    0  0.19258677189E+02 -0.16697813944E+02  0.22641420709E+03  0.25988136874E+03  0.12500087604E+03 0.  0.
    9000005    1    3    3    0    0  0.16432809135E+02  0.68779514287E+01  0.23419564114E+03  0.23487431056E+03  0.10000000000E+01 0.  0.
    9000005    1    3    3    0    0  0.28258680548E+01 -0.23575765372E+02 -0.77814340496E+01  0.25007058184E+02  0.10000000000E+01 0.  0.
         -4    1    1    2    0  502 -0.19258677189E+02  0.16697813944E+02  0.74900985640E+02  0.79129540548E+02  0.12700000000E+01 0. -1.
<mgrwt>
<rscale>  1 0.12757324E+03</rscale>
<asrwt>0</asrwt>
<pdfrwt beam="1">  1       21 0.49252559E-01 0.12757324E+03</pdfrwt>
<pdfrwt beam="2">  1       -4 0.28998645E-02 0.12757324E+03</pdfrwt>
<totfact> 0.90200352E+04</totfact>
</mgrwt>
</event>
<event>
 6    4  0.3995738E-003  0.1697811E+03  0.7818608E-02  0.1178076E+00
         -4   -1    0    0    0  501 -0.00000000000E+00  0.00000000000E+00  0.20542291542E+03  0.20542684119E+03  0.12700000000E+01 0. -1.
         21   -1    0    0  501  502  0.00000000000E+00 -0.00000000000E+00 -0.13337776577E+03  0.13337776577E+03  0.00000000000E+00 0.  1.
         25    2    1    2    0    0  0.10327114501E+03 -0.50355365769E+02  0.12642881506E+03  0.21168345130E+03  0.12500018410E+03 0.  0.
    9000005    1    3    3    0    0 -0.18540229423E+02 -0.10413411589E+02  0.67152289733E+02  0.70445789543E+02  0.10000000000E+01 0.  0.
    9000005    1    3    3    0    0  0.12181137443E+03 -0.39941954180E+02  0.59276525324E+02  0.14123766176E+03  0.10000000000E+01 0.  0.
         -4    1    1    2    0  502 -0.10327114501E+03  0.50355365769E+02 -0.54383665403E+02  0.12712115566E+03  0.12700000000E+01 0.  1.
<mgrwt>
<rscale>  1 0.16978115E+03</rscale>
<asrwt>0</asrwt>
<pdfrwt beam="2">  1       21 0.20519656E-01 0.16978115E+03</pdfrwt>
<pdfrwt beam="1">  1       -4 0.31604292E-01 0.16978115E+03</pdfrwt>
<totfact> 0.88362531E+03</totfact>
</mgrwt>
</event>
<event>
 6    4  0.3995738E-003  0.1375724E+03  0.7818608E-02  0.1216633E+00
         -4   -1    0    0    0  501 -0.00000000000E+00  0.00000000000E+00  0.25691760925E+03  0.25692074818E+03  0.12700000000E+01 0. -1.
         21   -1    0    0  501  502  0.00000000000E+00 -0.00000000000E+00 -0.50879535705E+02  0.50879535705E+02  0.00000000000E+00 0.  1.
         25    2    1    2    0    0  0.20515252628E+02 -0.53643993462E+02  0.20907063614E+03  0.25027322103E+03  0.12501040213E+03 0.  0.
    9000005    1    3    3    0    0 -0.89059817682E+01  0.33592865980E+02  0.10844776114E+03  0.11388465240E+03  0.10000000000E+01 0.  0.
    9000005    1    3    3    0    0  0.29421234396E+02 -0.87236859442E+02  0.10062287501E+03  0.13638856863E+03  0.10000000000E+01 0.  0.
         -4    1    1    2    0  502 -0.20515252628E+02  0.53643993462E+02 -0.30325625931E+01  0.57527062856E+02  0.12700000000E+01 0.  1.
<mgrwt>
<rscale>  1 0.13757236E+03</rscale>
<asrwt>0</asrwt>
<pdfrwt beam="2">  1       21 0.78276210E-02 0.13757236E+03</pdfrwt>
<pdfrwt beam="1">  1       -4 0.39527246E-01 0.13757236E+03</pdfrwt>
<totfact> 0.31537451E+04</totfact>
</mgrwt>
</event>
<event>
 6    4  0.3995738E-003  0.1281104E+03  0.7818608E-02  0.1230287E+00
         -4   -1    0    0    0  501 -0.00000000000E+00  0.00000000000E+00  0.76821184450E+03  0.76821289428E+03  0.12700000000E+01 0.  1.
         21   -1    0    0  501  502  0.00000000000E+00 -0.00000000000E+00 -0.80784580052E+01  0.80784580052E+01  0.00000000000E+00 0.  1.
         25    2    1    2    0    0  0.14634035538E+02  0.23916303674E+02  0.57961834841E+03  0.59360737254E+03  0.12500455331E+03 0.  0.
    9000005    1    3    3    0    0  0.25735823537E+02  0.30125306422E+02  0.57949359960E+03  0.58084739707E+03  0.10000000000E+01 0.  0.
    9000005    1    3    3    0    0 -0.11101787999E+02 -0.62090027488E+01  0.12474880863E+00  0.12759975477E+02  0.10000000000E+01 0.  0.
         -4    1    1    2    0  502 -0.14634035538E+02 -0.23916303674E+02  0.18051503808E+03  0.18268397974E+03  0.12700000000E+01 0. -1.
<mgrwt>
<rscale>  1 0.12811043E+03</rscale>
<asrwt>0</asrwt>
<pdfrwt beam="2">  1       21 0.12428403E-02 0.12811043E+03</pdfrwt>
<pdfrwt beam="1">  1       -4 0.11819414E+00 0.12811043E+03</pdfrwt>
<totfact> 0.61059706E+04</totfact>
</mgrwt>
</event>
<event>
 6    4  0.3995738E-003  0.1280519E+03  0.7818608E-02  0.1230375E+00
          4   -1    0    0  502    0 -0.00000000000E+00  0.00000000000E+00  0.14241613327E+03  0.14242179578E+03  0.12700000000E+01 0.  1.
         21   -1    0    0  501  502  0.00000000000E+00 -0.00000000000E+00 -0.76181720637E+02  0.76181720637E+02  0.00000000000E+00 0. -1.
         25    2    1    2    0    0  0.85930786896E+01  0.26393816590E+02  0.10862434346E+03  0.16791827506E+03  0.12500729799E+03 0.  0.
    9000005    1    3    3    0    0  0.38083725312E+02  0.67432307930E+02  0.68155686226E+02  0.10316823082E+03  0.10000000000E+01 0.  0.
    9000005    1    3    3    0    0 -0.29490646623E+02 -0.41038491340E+02  0.40468657239E+02  0.64750044235E+02  0.10000000000E+01 0.  0.
          4    1    1    2  501    0 -0.85930786896E+01 -0.26393816590E+02 -0.42389930837E+02  0.50685241361E+02  0.12700000000E+01 0. -1.
<mgrwt>
<rscale>  1 0.12805194E+03</rscale>
<asrwt>0</asrwt>
<pdfrwt beam="2">  1       21 0.11720265E-01 0.12805194E+03</pdfrwt>
<pdfrwt beam="1">  1        4 0.21911424E-01 0.12805194E+03</pdfrwt>
<totfact> 0.47026761E+04</totfact>
</mgrwt>
</event>
<event>
 6    4  0.3995738E-003  0.1586417E+03  0.7818608E-02  0.1190239E+00
         -4   -1    0    0    0  501 -0.00000000000E+00  0.00000000000E+00  0.11284322146E+04  0.11284329293E+04  0.12700000000E+01 0. -1.
         21   -1    0    0  501  502  0.00000000000E+00 -0.00000000000E+00 -0.52953240847E+02  0.52953240847E+02  0.00000000000E+00 0.  1.
         25    2    1    2    0    0  0.43119314549E+02  0.87650503256E+02  0.10719565291E+04  0.10836318530E+04  0.12500122561E+03 0.  0.
    9000005    1    3    3    0    0  0.72786164433E+02  0.60517426651E+02  0.96028425994E+03  0.96493888125E+03  0.10000000000E+01 0.  0.
    9000005    1    3    3    0    0 -0.29666849884E+02  0.27133076605E+02  0.11167226920E+03  0.11869297173E+03  0.10000000000E+01 0.  0.
         -4    1    1    2    0  502 -0.43119314549E+02 -0.87650503256E+02  0.35224446403E+01  0.97754317165E+02  0.12700000000E+01 0.  1.
<mgrwt>
<rscale>  1 0.15864171E+03</rscale>
<asrwt>0</asrwt>
<pdfrwt beam="2">  1       21 0.81466533E-02 0.15864171E+03</pdfrwt>
<pdfrwt beam="1">  1       -4 0.17360616E+00 0.15864171E+03</pdfrwt>
<totfact> 0.10526859E+03</totfact>
</mgrwt>
</event>
<event>
 6    4  0.3995738E-003  0.1304895E+03  0.7818608E-02  0.1226731E+00
          4   -1    0    0  502    0 -0.00000000000E+00  0.00000000000E+00  0.24140729552E+03  0.24141063611E+03  0.12700000000E+01 0.  1.
         21   -1    0    0  501  502  0.00000000000E+00 -0.00000000000E+00 -0.29252025146E+02  0.29252025146E+02  0.00000000000E+00 0. -1.
         25    2    1    2    0    0 -0.32053968469E+02 -0.19360239646E+02  0.16058390904E+03  0.20691712037E+03  0.12500090834E+03 0.  0.
    9000005    1    3    3    0    0  0.41742505173E+02 -0.11221771809E+02  0.10684057721E+03  0.11525742423E+03  0.10000000000E+01 0.  0.
    9000005    1    3    3    0    0 -0.73796473642E+02 -0.81384678378E+01  0.53743331827E+02  0.91659696141E+02  0.10000000000E+01 0.  0.
          4    1    1    2  501    0  0.32053968469E+02  0.19360239646E+02  0.51571361335E+02  0.63745540893E+02  0.12700000000E+01 0. -1.
<mgrwt>
<rscale>  1 0.13048947E+03</rscale>
<asrwt>0</asrwt>
<pdfrwt beam="2">  1       21 0.45003117E-02 0.13048947E+03</pdfrwt>
<pdfrwt beam="1">  1        4 0.37141960E-01 0.13048947E+03</pdfrwt>
<totfact> 0.90504136E+04</totfact>
</mgrwt>
</event>
<event>
 6    4  0.3995738E-003  0.1298183E+03  0.7818608E-02  0.1227726E+00
         -4   -1    0    0    0  501 -0.00000000000E+00  0.00000000000E+00  0.86090229649E+01  0.87021937700E+01  0.12700000000E+01 0. -1.
         21   -1    0    0  501  502  0.00000000000E+00 -0.00000000000E+00 -0.85993763927E+03  0.85993763927E+03  0.00000000000E+00 0.  1.
         25    2    1    2    0    0 -0.28655820295E+02 -0.20130196610E+02 -0.54187889963E+03  0.55721227982E+03  0.12500560815E+03 0.  0.
    9000005    1    3    3    0    0 -0.53446710638E+02 -0.77794926133E+01 -0.51746712892E+03  0.52027906060E+03  0.10000000000E+01 0.  0.
    9000005    1    3    3    0    0  0.24790890342E+02 -0.12350703997E+02 -0.24411770710E+02  0.36933219226E+02  0.10000000000E+01 0.  0.
         -4    1    1    2    0  502  0.28655820295E+02  0.20130196610E+02 -0.30944971667E+03  0.31142755321E+03  0.12700000000E+01 0.  1.
<mgrwt>
<rscale>  1 0.12981827E+03</rscale>
<asrwt>0</asrwt>
<pdfrwt beam="2">  1       21 0.13229814E+00 0.12981827E+03</pdfrwt>
<pdfrwt beam="1">  1       -4 0.13317038E-02 0.12981827E+03</pdfrwt>
<totfact> 0.32330307E+04</totfact>
</mgrwt>
</event>
<event>
 6    4  0.3995738E-003  0.1272119E+03  0.7818608E-02  0.1231652E+00
         21   -1    0    0  501  502  0.00000000000E+00  0.00000000000E+00  0.31616599491E+02  0.31616599491E+02  0.00000000000E+00 0.  1.
         -4   -1    0    0    0  501 -0.00000000000E+00 -0.00000000000E+00 -0.20947026180E+03  0.20947411171E+03  0.12700000000E+01 0. -1.
         25    2    1    2    0    0  0.22929971133E+02  0.56563108811E+01 -0.17627878461E+03  0.21738690204E+03  0.12500031140E+03 0.  0.
    9000005    1    3    3    0    0 -0.16722878000E+02  0.27603482829E+02 -0.16828543293E+03  0.17135516873E+03  0.10000000000E+01 0.  0.
    9000005    1    3    3    0    0  0.39652849133E+02 -0.21947171948E+02 -0.79933516714E+01  0.46031733314E+02  0.10000000000E+01 0.  0.
         -4    1    1    2    0  502 -0.22929971133E+02 -0.56563108811E+01 -0.15748777027E+01  0.23703809161E+02  0.12700000000E+01 0.  1.
<mgrwt>
<rscale>  1 0.12721185E+03</rscale>
<asrwt>0</asrwt>
<pdfrwt beam="1">  1       21 0.48640920E-02 0.12721185E+03</pdfrwt>
<pdfrwt beam="2">  1       -4 0.32228454E-01 0.12721185E+03</pdfrwt>
<totfact> 0.10402735E+05</totfact>
</mgrwt>
</event>
<event>
 6    4  0.3995738E-003  0.1282712E+03  0.7818608E-02  0.1230044E+00
         21   -1    0    0  501  502  0.00000000000E+00  0.00000000000E+00  0.74463336492E+02  0.74463336492E+02  0.00000000000E+00 0.  1.
         -4   -1    0    0    0  501 -0.00000000000E+00 -0.00000000000E+00 -0.84461085399E+02  0.84470633043E+02  0.12700000000E+01 0.  1.
         25    2    1    2    0    0  0.76705276576E+01  0.27735401619E+02  0.51139734698E+00  0.12827219280E+03  0.12500161767E+03 0.  0.
    9000005    1    3    3    0    0 -0.54377007317E+02 -0.37232275482E+01 -0.15907533301E+02  0.56787066871E+02  0.10000000000E+01 0.  0.
    9000005    1    3    3    0    0  0.62047534974E+02  0.31458629167E+02  0.16418930648E+02  0.71485125929E+02  0.10000000000E+01 0.  0.
         -4    1    1    2    0  502 -0.76705276576E+01 -0.27735401619E+02 -0.10509146254E+02  0.30661776734E+02  0.12700000000E+01 0. -1.
<mgrwt>
<rscale>  1 0.12827117E+03</rscale>
<asrwt>0</asrwt>
<pdfrwt beam="1">  1       21 0.11455898E-01 0.12827117E+03</pdfrwt>
<pdfrwt beam="2">  1       -4 0.12995581E-01 0.12827117E+03</pdfrwt>
<totfact> 0.12317758E+05</totfact>
</mgrwt>
</event>
<event>
 6    4  0.3995738E-003  0.1277256E+03  0.7818608E-02  0.1230870E+00
         21   -1    0    0  501  502  0.00000000000E+00  0.00000000000E+00  0.97333906484E+02  0.97333906484E+02  0.00000000000E+00 0. -1.
         -4   -1    0    0    0  501 -0.00000000000E+00 -0.00000000000E+00 -0.65867075617E+02  0.65879318078E+02  0.12700000000E+01 0.  1.
         25    2    1    2    0    0 -0.19549140858E+02 -0.17508269267E+02  0.79845486253E+01  0.12797490905E+03  0.12500046371E+03 0.  0.
    9000005    1    3    3    0    0 -0.58829300490E+02 -0.46204871057E+02 -0.11253962863E+02  0.75653343520E+02  0.10000000000E+01 0.  0.
    9000005    1    3    3    0    0  0.39280159632E+02  0.28696601790E+02  0.19238511489E+02  0.52321565528E+02  0.10000000000E+01 0.  0.
         -4    1    1    2    0  502  0.19549140858E+02  0.17508269267E+02  0.23482282241E+02  0.35238315514E+02  0.12700000000E+01 0. -1.
<mgrwt>
<rscale>  1 0.12772558E+03</rscale>
<asrwt>0</asrwt>
<pdfrwt beam="1">  1       21 0.14974447E-01 0.12772558E+03</pdfrwt>
<pdfrwt beam="2">  1       -4 0.10134975E-01 0.12772558E+03</pdfrwt>
<totfact> 0.11657382E+05</totfact>
</mgrwt>
</event>
<event>
 6    4  0.3995738E-003  0.1271401E+03  0.7818608E-02  0.1231762E+00
         21   -1    0    0  501  502  0.00000000000E+00  0.00000000000E+00  0.91816867805E+01  0.91816867805E+01  0.00000000000E+00 0. -1.
         -4   -1    0    0    0  501 -0.00000000000E+00 -0.00000000000E+00 -0.81189980051E+03  0.81190079380E+03  0.12700000000E+01 0.  1.
         25    2    1    2    0    0 -0.22900474393E+02  0.38974067032E+01 -0.77277425014E+03  0.78316323252E+03  0.12499994236E+03 0.  0.
    9000005    1    3    3    0    0  0.73410209403E+01 -0.52338716421E+02 -0.51037208480E+03  0.51310222838E+03  0.10000000000E+01 0.  0.
    9000005    1    3    3    0    0 -0.30241495333E+02  0.56236123124E+02 -0.26240216534E+03  0.27006100414E+03  0.10000000000E+01 0.  0.
         -4    1    1    2    0  502  0.22900474393E+02 -0.38974067032E+01 -0.29943863596E+02  0.37919248060E+02  0.12700000000E+01 0. -1.
<mgrwt>
<rscale>  1 0.12714011E+03</rscale>
<asrwt>0</asrwt>
<pdfrwt beam="1">  1       21 0.14125676E-02 0.12714011E+03</pdfrwt>
<pdfrwt beam="2">  1       -4 0.12491446E+00 0.12714011E+03</pdfrwt>
<totfact> 0.43553872E+04</totfact>
</mgrwt>
</event>
<event>
 6    4  0.3995738E-003  0.1286628E+03  0.7818608E-02  0.1229454E+00
          4   -1    0    0  502    0 -0.00000000000E+00  0.00000000000E+00  0.11996881715E+03  0.11997553912E+03  0.12700000000E+01 0. -1.
         21   -1    0    0  501  502  0.00000000000E+00 -0.00000000000E+00 -0.53369042504E+02  0.53369042504E+02  0.00000000000E+00 0. -1.
         25    2    1    2    0    0 -0.30062748350E+02  0.49493950635E+01  0.46431232358E+02  0.13678437994E+03  0.12500336758E+03 0.  0.
    9000005    1    3    3    0    0 -0.44327320796E+02  0.19544348987E+02  0.82299562935E+02  0.95504507776E+02  0.10000000000E+01 0.  0.
    9000005    1    3    3    0    0  0.14264572446E+02 -0.14594953923E+02 -0.35868330577E+02  0.41279872159E+02  0.10000000000E+01 0.  0.
          4    1    1    2  501    0  0.30062748350E+02 -0.49493950635E+01  0.20168542288E+02  0.36560201693E+02  0.12700000000E+01 0.  1.
<mgrwt>
<rscale>  1 0.12866277E+03</rscale>
<asrwt>0</asrwt>
<pdfrwt beam="2">  1       21 0.82106220E-02 0.12866277E+03</pdfrwt>
<pdfrwt beam="1">  1        4 0.18458420E-01 0.12866277E+03</pdfrwt>
<totfact> 0.11927992E+05</totfact>
</mgrwt>
</event>
<event>
 6    4  0.3995738E-003  0.1269557E+03  0.7818608E-02  0.1232044E+00
         21   -1    0    0  501  502  0.00000000000E+00  0.00000000000E+00  0.21826044043E+02  0.21826044043E+02  0.00000000000E+00 0. -1.
          4   -1    0    0  502    0 -0.00000000000E+00 -0.00000000000E+00 -0.28671536306E+03  0.28671817577E+03  0.12700000000E+01 0. -1.
         25    2    1    2    0    0  0.15679067879E+02  0.15589081757E+02 -0.17646198321E+03  0.21738579038E+03  0.12501558982E+03 0.  0.
    9000005    1    3    3    0    0  0.57464373875E+02 -0.25415695893E+02 -0.12288063937E+03  0.13801725760E+03  0.10000000000E+01 0.  0.
    9000005    1    3    3    0    0 -0.41785305995E+02  0.41004777650E+02 -0.53581343838E+02  0.79368532774E+02  0.10000000000E+01 0.  0.
          4    1    1    2  501    0 -0.15679067879E+02 -0.15589081757E+02 -0.88427335804E+02  0.91158429435E+02  0.12700000000E+01 0.  1.
<mgrwt>
<rscale>  1 0.12695570E+03</rscale>
<asrwt>0</asrwt>
<pdfrwt beam="1">  1       21 0.33578532E-02 0.12695570E+03</pdfrwt>
<pdfrwt beam="2">  1        4 0.44113110E-01 0.12695570E+03</pdfrwt>
<totfact> 0.10442060E+05</totfact>
</mgrwt>
</event>
<event>
 6    4  0.3995738E-003  0.1375565E+03  0.7818608E-02  0.1216655E+00
         21   -1    0    0  501  502  0.00000000000E+00  0.00000000000E+00  0.22475973546E+02  0.22475973546E+02  0.00000000000E+00 0. -1.
         -4   -1    0    0    0  501 -0.00000000000E+00 -0.00000000000E+00 -0.69502567373E+03  0.69502683405E+03  0.12700000000E+01 0.  1.
         25    2    1    2    0    0 -0.53651493661E+02 -0.20456259665E+02 -0.63298971510E+03  0.64776367474E+03  0.12499943023E+03 0.  0.
    9000005    1    3    3    0    0 -0.30007554379E+02 -0.22791623077E+02 -0.42550976335E+02  0.56846257479E+02  0.10000000000E+01 0.  0.
    9000005    1    3    3    0    0 -0.23643939283E+02  0.23353634125E+01 -0.59043873876E+03  0.59091741726E+03  0.10000000000E+01 0.  0.
         -4    1    1    2    0  502  0.53651493661E+02  0.20456259665E+02 -0.39559985089E+02  0.69739132858E+02  0.12700000000E+01 0. -1.
<mgrwt>
<rscale>  1 0.13755653E+03</rscale>
<asrwt>0</asrwt>
<pdfrwt beam="1">  1       21 0.34578426E-02 0.13755653E+03</pdfrwt>
<pdfrwt beam="2">  1       -4 0.10692986E+00 0.13755653E+03</pdfrwt>
<totfact> 0.14902553E+04</totfact>
</mgrwt>
</event>
<event>
 6    4  0.3995738E-003  0.1281828E+03  0.7818608E-02  0.1230177E+00
         21   -1    0    0  501  502  0.00000000000E+00  0.00000000000E+00  0.31415092841E+03  0.31415092841E+03  0.00000000000E+00 0. -1.
         -4   -1    0    0    0  501 -0.00000000000E+00 -0.00000000000E+00 -0.47634023440E+02  0.47650950558E+02  0.12700000000E+01 0.  1.
         25    2    1    2    0    0 -0.10385094767E+02 -0.26412621312E+02  0.41112941214E+02  0.13461465104E+03  0.12500141432E+03 0.  0.
    9000005    1    3    3    0    0 -0.44765483340E+02  0.29890747402E+02  0.42549442678E+02  0.68621136330E+02  0.10000000000E+01 0.  0.
    9000005    1    3    3    0    0  0.34380388574E+02 -0.56303368714E+02 -0.14365014645E+01  0.65993514708E+02  0.10000000000E+01 0.  0.
         -4    1    1    2    0  502  0.10385094767E+02  0.26412621312E+02  0.22540396375E+03  0.22718722793E+03  0.12700000000E+01 0. -1.
<mgrwt>
<rscale>  1 0.12818280E+03</rscale>
<asrwt>0</asrwt>
<pdfrwt beam="1">  1       21 0.48330911E-01 0.12818280E+03</pdfrwt>
<pdfrwt beam="2">  1       -4 0.73298111E-02 0.12818280E+03</pdfrwt>
<totfact> 0.21278006E+04</totfact>
</mgrwt>
</event>
<event>
 6    4  0.3995738E-003  0.1270871E+03  0.7818608E-02  0.1231843E+00
         21   -1    0    0  501  502  0.00000000000E+00  0.00000000000E+00  0.16018729632E+03  0.16018729632E+03  0.00000000000E+00 0.  1.
         -4   -1    0    0    0  501 -0.00000000000E+00 -0.00000000000E+00 -0.41485435964E+02  0.41504870764E+02  0.12700000000E+01 0.  1.
         25    2    1    2    0    0 -0.21678330865E+02  0.77517503919E+01  0.63921836601E+02  0.14225729882E+03  0.12498439186E+03 0.  0.
    9000005    1    3    3    0    0 -0.71422483706E+02  0.20736605401E+02  0.47610191892E+02  0.88311428220E+02  0.10000000000E+01 0.  0.
    9000005    1    3    3    0    0  0.49744152841E+02 -0.12984855009E+02  0.16311644709E+02  0.53945870598E+02  0.10000000000E+01 0.  0.
         -4    1    1    2    0  502  0.21678330865E+02 -0.77517503919E+01  0.54780023756E+02  0.59434868267E+02  0.12700000000E+01 0. -1.
<mgrwt>
<rscale>  1 0.12708713E+03</rscale>
<asrwt>0</asrwt>
<pdfrwt beam="1">  1       21 0.24644199E-01 0.12708713E+03</pdfrwt>
<pdfrwt beam="2">  1       -4 0.63842571E-02 0.12708713E+03</pdfrwt>
<totfact> 0.10001526E+05</totfact>
</mgrwt>
</event>
<event>
 6    4  0.3995738E-003  0.1606136E+03  0.7818608E-02  0.1188006E+00
         -4   -1    0    0    0  501 -0.00000000000E+00  0.00000000000E+00  0.12819706260E+03  0.12820335316E+03  0.12700000000E+01 0. -1.
         21   -1    0    0  501  502  0.00000000000E+00 -0.00000000000E+00 -0.15773528684E+03  0.15773528684E+03  0.00000000000E+00 0.  1.
         25    2    1    2    0    0  0.37351241226E+02 -0.93685356934E+02  0.37365036724E+02  0.16490261002E+03  0.12499865398E+03 0.  0.
    9000005    1    3    3    0    0  0.70837475253E+02 -0.20184204223E+02  0.40505413497E+02  0.84065679815E+02  0.10000000000E+01 0.  0.
    9000005    1    3    3    0    0 -0.33486234026E+02 -0.73501152711E+02 -0.31403767725E+01  0.80836930208E+02  0.10000000000E+01 0.  0.
         -4    1    1    2    0  502 -0.37351241226E+02  0.93685356934E+02 -0.66903260963E+02  0.12103602998E+03  0.12700000000E+01 0.  1.
<mgrwt>
<rscale>  1 0.16061359E+03</rscale>
<asrwt>0</asrwt>
<pdfrwt beam="2">  1       21 0.24266967E-01 0.16061359E+03</pdfrwt>
<pdfrwt beam="1">  1       -4 0.19723502E-01 0.16061359E+03</pdfrwt>
<totfact> 0.15397376E+04</totfact>
</mgrwt>
</event>
<event>
 6    4  0.3995738E-003  0.1341170E+03  0.7818608E-02  0.1221472E+00
         21   -1    0    0  501  502  0.00000000000E+00  0.00000000000E+00  0.60057187220E+02  0.60057187220E+02  0.00000000000E+00 0.  1.
         -4   -1    0    0    0  501 -0.00000000000E+00 -0.00000000000E+00 -0.13891696418E+03  0.13892276932E+03  0.12700000000E+01 0.  1.
         25    2    1    2    0    0 -0.39292255503E+02 -0.28520655473E+02 -0.57757042152E+02  0.14602481092E+03  0.12502023979E+03 0.  0.
    9000005    1    3    3    0    0  0.22425689389E+02 -0.59408042929E+02 -0.38892896471E+02  0.74470695614E+02  0.10000000000E+01 0.  0.
    9000005    1    3    3    0    0 -0.61717944893E+02  0.30887387456E+02 -0.18864145681E+02  0.71554115311E+02  0.10000000000E+01 0.  0.
         -4    1    1    2    0  502  0.39292255503E+02  0.28520655473E+02 -0.21102734806E+02  0.52955145618E+02  0.12700000000E+01 0. -1.
<mgrwt>
<rscale>  1 0.13411700E+03</rscale>
<asrwt>0</asrwt>
<pdfrwt beam="1">  1       21 0.92395674E-02 0.13411700E+03</pdfrwt>
<pdfrwt beam="2">  1       -4 0.21373320E-01 0.13411700E+03</pdfrwt>
<totfact> 0.75124664E+04</totfact>
</mgrwt>
</event>
<event>
 6    4  0.3995738E-003  0.1434234E+03  0.7818608E-02  0.1208795E+00
         21   -1    0    0  501  502  0.00000000000E+00  0.00000000000E+00  0.14354283565E+03  0.14354283565E+03  0.00000000000E+00 0.  1.
         -4   -1    0    0    0  501 -0.00000000000E+00 -0.00000000000E+00 -0.84111453576E+02  0.84121040903E+02  0.12700000000E+01 0.  1.
         25    2    1    2    0    0 -0.65105377376E+02 -0.26619717460E+02  0.14417326511E+02  0.14414622800E+03  0.12499182462E+03 0.  0.
    9000005    1    3    3    0    0  0.29270267324E+02 -0.13968477607E+02  0.33924100034E+02  0.46943705424E+02  0.10000000000E+01 0.  0.
    9000005    1    3    3    0    0 -0.94375644700E+02 -0.12651239852E+02 -0.19506773523E+02  0.97202522579E+02  0.10000000000E+01 0.  0.
         -4    1    1    2    0  502  0.65105377376E+02  0.26619717460E+02  0.45014055560E+02  0.83517648548E+02  0.12700000000E+01 0. -1.
<mgrwt>
<rscale>  1 0.14342341E+03</rscale>
<asrwt>0</asrwt>
<pdfrwt beam="1">  1       21 0.22083513E-01 0.14342341E+03</pdfrwt>
<pdfrwt beam="2">  1       -4 0.12941393E-01 0.14342341E+03</pdfrwt>
<totfact> 0.38218012E+04</totfact>
</mgrwt>
</event>
<event>
 6    4  0.3995738E-003  0.1267088E+03  0.7818608E-02  0.1232423E+00
         21   -1    0    0  501  502  0.00000000000E+00  0.00000000000E+00  0.19145292045E+03  0.19145292045E+03  0.00000000000E+00 0. -1.
          4   -1    0    0  502    0 -0.00000000000E+00 -0.00000000000E+00 -0.29156235923E+02  0.29183882421E+02  0.12700000000E+01 0. -1.
         25    2    1    2    0    0  0.42838916231E+01  0.20278068137E+02  0.12523247457E+03  0.17815244887E+03  0.12500228229E+03 0.  0.
    9000005    1    3    3    0    0  0.55235317164E+02  0.42337399618E+02  0.55562720764E+02  0.89059595819E+02  0.10000000000E+01 0.  0.
    9000005    1    3    3    0    0 -0.50951425541E+02 -0.22059331482E+02  0.69669753807E+02  0.89092853056E+02  0.10000000000E+01 0.  0.
          4    1    1    2  501    0 -0.42838916231E+01 -0.20278068137E+02  0.37064209952E+02  0.42484353992E+02  0.12700000000E+01 0.  1.
<mgrwt>
<rscale>  1 0.12670881E+03</rscale>
<asrwt>0</asrwt>
<pdfrwt beam="1">  1       21 0.29454295E-01 0.12670881E+03</pdfrwt>
<pdfrwt beam="2">  1        4 0.44880256E-02 0.12670881E+03</pdfrwt>
<totfact> 0.12564158E+05</totfact>
</mgrwt>
</event>
<event>
 6    4  0.3995738E-003  0.1320190E+03  0.7818608E-02  0.1224490E+00
         21   -1    0    0  501  502  0.00000000000E+00  0.00000000000E+00  0.14372065887E+02  0.14372065887E+02  0.00000000000E+00 0. -1.
         -4   -1    0    0    0  501 -0.00000000000E+00 -0.00000000000E+00 -0.86154277093E+03  0.86154370698E+03  0.12700000000E+01 0.  1.
         25    2    1    2    0    0 -0.26510003386E+02 -0.33180678539E+02 -0.80603879097E+03  0.81677877123E+03  0.12500116349E+03 0.  0.
    9000005    1    3    3    0    0 -0.54799289785E+00 -0.72702812802E+02 -0.30653810559E+03  0.31504382149E+03  0.10000000000E+01 0.  0.
    9000005    1    3    3    0    0 -0.25962010488E+02  0.39522134264E+02 -0.49950068538E+03  0.50173494973E+03  0.10000000000E+01 0.  0.
         -4    1    1    2    0  502  0.26510003386E+02  0.33180678539E+02 -0.41131914071E+02  0.59137001640E+02  0.12700000000E+01 0. -1.
<mgrwt>
<rscale>  1 0.13201905E+03</rscale>
<asrwt>0</asrwt>
<pdfrwt beam="1">  1       21 0.22110873E-02 0.13201905E+03</pdfrwt>
<pdfrwt beam="2">  1       -4 0.13254942E+00 0.13201905E+03</pdfrwt>
<totfact> 0.18429346E+04</totfact>
</mgrwt>
</event>
<event>
 6    4  0.3995738E-003  0.1304204E+03  0.7818608E-02  0.1226833E+00
          4   -1    0    0  502    0 -0.00000000000E+00  0.00000000000E+00  0.25992191369E+02  0.26023199499E+02  0.12700000000E+01 0. -1.
         21   -1    0    0  501  502  0.00000000000E+00 -0.00000000000E+00 -0.42866402180E+03  0.42866402180E+03  0.00000000000E+00 0.  1.
         25    2    1    2    0    0 -0.59664468809E+00 -0.37153160204E+02 -0.14778814773E+03  0.19710613134E+03  0.12501510750E+03 0.  0.
    9000005    1    3    3    0    0  0.43746873195E+02 -0.46865126175E+02 -0.13575189619E+03  0.15013229594E+03  0.10000000000E+01 0.  0.
    9000005    1    3    3    0    0 -0.44343517884E+02  0.97119659702E+01 -0.12036251550E+02  0.46973835405E+02  0.10000000000E+01 0.  0.
          4    1    1    2  501    0  0.59664468809E+00  0.37153160204E+02 -0.25488368269E+03  0.25758108995E+03  0.12700000000E+01 0.  1.
<mgrwt>
<rscale>  1 0.13042044E+03</rscale>
<asrwt>0</asrwt>
<pdfrwt beam="2">  1       21 0.65948311E-01 0.13042044E+03</pdfrwt>
<pdfrwt beam="1">  1        4 0.40013286E-02 0.13042044E+03</pdfrwt>
<totfact> 0.29450859E+04</totfact>
</mgrwt>
</event>
<event>
 6    4  0.3995738E-003  0.1346907E+03  0.7818608E-02  0.1220657E+00
         21   -1    0    0  501  502  0.00000000000E+00  0.00000000000E+00  0.33993155101E+02  0.33993155101E+02  0.00000000000E+00 0.  1.
         -4   -1    0    0    0  501 -0.00000000000E+00 -0.00000000000E+00 -0.32397269180E+03  0.32397518104E+03  0.12700000000E+01 0.  1.
         25    2    1    2    0    0  0.46594015568E+02  0.18591634626E+02 -0.27397929228E+03  0.30529697878E+03  0.12499976595E+03 0.  0.
    9000005    1    3    3    0    0 -0.35925316056E+02  0.16041519416E+01 -0.15739280960E+03  0.16145184468E+03  0.10000000000E+01 0.  0.
    9000005    1    3    3    0    0  0.82519331624E+02  0.16987482684E+02 -0.11658648268E+03  0.14384513410E+03  0.10000000000E+01 0.  0.
         -4    1    1    2    0  502 -0.46594015568E+02 -0.18591634626E+02 -0.16000244412E+02  0.52671357359E+02  0.12700000000E+01 0. -1.
<mgrwt>
<rscale>  1 0.13469073E+03</rscale>
<asrwt>0</asrwt>
<pdfrwt beam="1">  1       21 0.52297163E-02 0.13469073E+03</pdfrwt>
<pdfrwt beam="2">  1       -4 0.49843968E-01 0.13469073E+03</pdfrwt>
<totfact> 0.39346211E+04</totfact>
</mgrwt>
</event>
<event>
 6    4  0.3995738E-003  0.1655481E+03  0.7818608E-02  0.1182572E+00
         21   -1    0    0  501  502  0.00000000000E+00  0.00000000000E+00  0.12761523439E+04  0.12761523439E+04  0.00000000000E+00 0. -1.
          4   -1    0    0  502    0 -0.00000000000E+00 -0.00000000000E+00 -0.43545729991E+02  0.43564245666E+02  0.12700000000E+01 0.  1.
         25    2    1    2    0    0 -0.79257914995E+02 -0.74159718544E+02  0.12663016871E+03  0.20842590249E+03  0.12499870503E+03 0.  0.
    9000005    1    3    3    0    0 -0.11707972648E+02  0.10113882658E+01 -0.24167519730E+02  0.26891793166E+02  0.10000000000E+01 0.  0.
    9000005    1    3    3    0    0 -0.67549942346E+02 -0.75171106810E+02  0.15079768844E+03  0.18153410933E+03  0.10000000000E+01 0.  0.
          4    1    1    2  501    0  0.79257914995E+02  0.74159718544E+02  0.11059764452E+04  0.11112906871E+04  0.12700000000E+01 0. -1.
<mgrwt>
<rscale>  1 0.16554805E+03</rscale>
<asrwt>0</asrwt>
<pdfrwt beam="1">  1       21 0.19633110E+00 0.16554805E+03</pdfrwt>
<pdfrwt beam="2">  1        4 0.67008170E-02 0.16554805E+03</pdfrwt>
<totfact> 0.88930205E+02</totfact>
</mgrwt>
</event>
<event>
 6    4  0.3995738E-003  0.2196910E+03  0.7818608E-02  0.1134114E+00
         21   -1    0    0  501  502  0.00000000000E+00  0.00000000000E+00  0.16850556619E+03  0.16850556619E+03  0.00000000000E+00 0. -1.
         -4   -1    0    0    0  501 -0.00000000000E+00 -0.00000000000E+00 -0.24564074537E+03  0.24564402839E+03  0.12700000000E+01 0.  1.
         25    2    1    2    0    0  0.10751415554E+02  0.18034209466E+03 -0.79028232995E+02  0.23347292039E+03  0.12500111561E+03 0.  0.
    9000005    1    3    3    0    0 -0.41747707066E+02  0.90044092286E+02  0.50479273458E+01  0.99384562037E+02  0.10000000000E+01 0.  0.
    9000005    1    3    3    0    0  0.52499122620E+02  0.90298002376E+02 -0.84076160341E+02  0.13408835836E+03  0.10000000000E+01 0.  0.
         -4    1    1    2    0  502 -0.10751415554E+02 -0.18034209466E+03  0.18930538150E+01  0.18067667419E+03  0.12700000000E+01 0. -1.
<mgrwt>
<rscale>  1 0.21969102E+03</rscale>
<asrwt>0</asrwt>
<pdfrwt beam="1">  1       21 0.25923933E-01 0.21969102E+03</pdfrwt>
<pdfrwt beam="2">  1       -4 0.37791504E-01 0.21969102E+03</pdfrwt>
<totfact> 0.40597464E+03</totfact>
</mgrwt>
</event>
<event>
 6    4  0.3995738E-003  0.1501583E+03  0.7818608E-02  0.1200279E+00
         21   -1    0    0  501  502  0.00000000000E+00  0.00000000000E+00  0.29593658354E+02  0.29593658354E+02  0.00000000000E+00 0. -1.
          4   -1    0    0  502    0 -0.00000000000E+00 -0.00000000000E+00 -0.63294597508E+03  0.63294724920E+03  0.12700000000E+01 0. -1.
         25    2    1    2    0    0 -0.83032473499E+02  0.53179096106E+01 -0.53245002686E+03  0.55321835989E+03  0.12499940322E+03 0.  0.
    9000005    1    3    3    0    0 -0.41066114569E+02  0.31472046800E+02 -0.64646480767E+02  0.82807505524E+02  0.10000000000E+01 0.  0.
    9000005    1    3    3    0    0 -0.41966358930E+02 -0.26154137189E+02 -0.46780354609E+03  0.47041085437E+03  0.10000000000E+01 0.  0.
          4    1    1    2  501    0  0.83032473499E+02 -0.53179096106E+01 -0.70902289863E+02  0.10932254766E+03  0.12700000000E+01 0.  1.
<mgrwt>
<rscale>  1 0.15015833E+03</rscale>
<asrwt>0</asrwt>
<pdfrwt beam="1">  1       21 0.45528708E-02 0.15015833E+03</pdfrwt>
<pdfrwt beam="2">  1        4 0.97378492E-01 0.15015833E+03</pdfrwt>
<totfact> 0.11816452E+04</totfact>
</mgrwt>
</event>
<event>
 6    4  0.3995738E-003  0.1400353E+03  0.7818608E-02  0.1213282E+00
         21   -1    0    0  501  502  0.00000000000E+00  0.00000000000E+00  0.38265810223E+03  0.38265810223E+03  0.00000000000E+00 0. -1.
         -4   -1    0    0    0  501 -0.00000000000E+00 -0.00000000000E+00 -0.30895155381E+02  0.30921247161E+02  0.12700000000E+01 0.  1.
         25    2    1    2    0    0  0.39899646413E+02 -0.48934173927E+02  0.16492105720E+03  0.21635348955E+03  0.12499336851E+03 0.  0.
    9000005    1    3    3    0    0 -0.43218714556E+02 -0.25034532725E+01  0.66986591616E+02  0.79764202638E+02  0.10000000000E+01 0.  0.
    9000005    1    3    3    0    0  0.83118360969E+02 -0.46430720655E+02  0.97934465586E+02  0.13658928692E+03  0.10000000000E+01 0.  0.
         -4    1    1    2    0  502 -0.39899646413E+02  0.48934173927E+02  0.18684188965E+03  0.19722585984E+03  0.12700000000E+01 0. -1.
<mgrwt>
<rscale>  1 0.14003527E+03</rscale>
<asrwt>0</asrwt>
<pdfrwt beam="1">  1       21 0.58870474E-01 0.14003527E+03</pdfrwt>
<pdfrwt beam="2">  1       -4 0.47552703E-02 0.14003527E+03</pdfrwt>
<totfact> 0.28696794E+04</totfact>
</mgrwt>
</event>
<event>
 6    4  0.3995738E-003  0.1678028E+03  0.7818608E-02  0.1180159E+00
          4   -1    0    0  502    0 -0.00000000000E+00  0.00000000000E+00  0.70017509431E+02  0.70029026317E+02  0.12700000000E+01 0. -1.
         21   -1    0    0  501  502  0.00000000000E+00 -0.00000000000E+00 -0.46175514674E+03  0.46175514674E+03  0.00000000000E+00 0.  1.
         25    2    1    2    0    0  0.22269002278E+02  0.10971543968E+03 -0.54474966166E+02  0.17642364006E+03  0.12499757064E+03 0.  0.
    9000005    1    3    3    0    0  0.45337691113E+02  0.32904196937E+02  0.26911912683E+02  0.62156604281E+02  0.10000000000E+01 0.  0.
    9000005    1    3    3    0    0 -0.23068688835E+02  0.76811242744E+02 -0.81386878849E+02  0.11426703578E+03  0.10000000000E+01 0.  0.
          4    1    1    2  501    0 -0.22269002278E+02 -0.10971543968E+03 -0.33726267114E+03  0.35536053300E+03  0.12700000000E+01 0.  1.
<mgrwt>
<rscale>  1 0.16780280E+03</rscale>
<asrwt>0</asrwt>
<pdfrwt beam="2">  1       21 0.71039252E-01 0.16780280E+03</pdfrwt>
<pdfrwt beam="1">  1        4 0.10772945E-01 0.16780280E+03</pdfrwt>
<totfact> 0.50196662E+03</totfact>
</mgrwt>
</event>
<event>
 6    4  0.3995738E-003  0.1284668E+03  0.7818608E-02  0.1229749E+00
         21   -1    0    0  501  502  0.00000000000E+00  0.00000000000E+00  0.31975069634E+03  0.31975069634E+03  0.00000000000E+00 0. -1.
         -4   -1    0    0    0  501 -0.00000000000E+00 -0.00000000000E+00 -0.12432424064E+03  0.12433072714E+03  0.12700000000E+01 0.  1.
         25    2    1    2    0    0 -0.18134761806E+02  0.23451988716E+02 -0.90166354894E+02  0.15695125835E+03  0.12499944233E+03 0.  0.
    9000005    1    3    3    0    0 -0.30647442476E+02  0.71826422584E+02 -0.48942357074E+02  0.92166452832E+02  0.10000000000E+01 0.  0.
    9000005    1    3    3    0    0  0.12512680670E+02 -0.48374433868E+02 -0.41223997820E+02  0.64784805517E+02  0.10000000000E+01 0.  0.
         -4    1    1    2    0  502  0.18134761806E+02 -0.23451988716E+02  0.28559281060E+03  0.28713016513E+03  0.12700000000E+01 0. -1.
<mgrwt>
<rscale>  1 0.12846683E+03</rscale>
<asrwt>0</asrwt>
<pdfrwt beam="1">  1       21 0.49192414E-01 0.12846683E+03</pdfrwt>
<pdfrwt beam="2">  1       -4 0.19127499E-01 0.12846683E+03</pdfrwt>
<totfact> 0.39810513E+03</totfact>
</mgrwt>
</event>
<event>
 6    4  0.3995738E-003  0.1338258E+03  0.7818608E-02  0.1221887E+00
         -4   -1    0    0    0  501 -0.00000000000E+00  0.00000000000E+00  0.65666922433E+03  0.65667045242E+03  0.12700000000E+01 0. -1.
         21   -1    0    0  501  502  0.00000000000E+00 -0.00000000000E+00 -0.17409368410E+02  0.17409368410E+02  0.00000000000E+00 0.  1.
         25    2    1    2    0    0 -0.26940553654E+02  0.39477081138E+02  0.59169063022E+03  0.60663593675E+03  0.12500049800E+03 0.  0.
    9000005    1    3    3    0    0  0.24464641592E+02 -0.53688447306E+01  0.23486492088E+02  0.34350523905E+02  0.10000000000E+01 0.  0.
    9000005    1    3    3    0    0 -0.51405195247E+02  0.44845925869E+02  0.56820413813E+03  0.57228541284E+03  0.10000000000E+01 0.  0.
         -4    1    1    2    0  502  0.26940553654E+02 -0.39477081138E+02  0.47569225706E+02  0.67443884087E+02  0.12700000000E+01 0.  1.
<mgrwt>
<rscale>  1 0.13382585E+03</rscale>
<asrwt>0</asrwt>
<pdfrwt beam="2">  1       21 0.26783649E-02 0.13382585E+03</pdfrwt>
<pdfrwt beam="1">  1       -4 0.10102967E+00 0.13382585E+03</pdfrwt>
<totfact> 0.25813751E+04</totfact>
</mgrwt>
</event>
<event>
 6    4  0.3995738E-003  0.1675372E+03  0.7818608E-02  0.1180441E+00
         21   -1    0    0  501  502  0.00000000000E+00  0.00000000000E+00  0.33039211559E+03  0.33039211559E+03  0.00000000000E+00 0. -1.
          4   -1    0    0  502    0 -0.00000000000E+00 -0.00000000000E+00 -0.61104494909E+02  0.61117691368E+02  0.12700000000E+01 0.  1.
         25    2    1    2    0    0 -0.83627987829E+02 -0.73835496451E+02  0.12453623603E+03  0.20875341953E+03  0.12499358063E+03 0.  0.
    9000005    1    3    3    0    0 -0.32029140983E+02  0.19589537948E+02  0.88437394049E+02  0.96082196765E+02  0.10000000000E+01 0.  0.
    9000005    1    3    3    0    0 -0.51598846845E+02 -0.93425034399E+02  0.36098841977E+02  0.11267122277E+03  0.10000000000E+01 0.  0.
          4    1    1    2  501    0  0.83627987829E+02  0.73835496451E+02  0.14475138466E+03  0.18275638742E+03  0.12700000000E+01 0. -1.
<mgrwt>
<rscale>  1 0.16753721E+03</rscale>
<asrwt>0</asrwt>
<pdfrwt beam="1">  1       21 0.50829555E-01 0.16753721E+03</pdfrwt>
<pdfrwt beam="2">  1        4 0.94018946E-02 0.16753721E+03</pdfrwt>
<totfact> 0.12939604E+04</totfact>
</mgrwt>
</event>
<event>
 6    4  0.3995738E-003  0.1279649E+03  0.7818608E-02  0.1230507E+00
         21   -1    0    0  501  502  0.00000000000E+00  0.00000000000E+00  0.24681022759E+02  0.24681022759E+02  0.00000000000E+00 0. -1.
          4   -1    0    0  502    0 -0.00000000000E+00 -0.00000000000E+00 -0.24616808782E+03  0.24617136381E+03  0.12700000000E+01 0. -1.
         25    2    1    2    0    0  0.83429107312E+01  0.26085772504E+02 -0.19035483282E+03  0.22936864914E+03  0.12499977258E+03 0.  0.
    9000005    1    3    3    0    0 -0.42730689035E+02  0.41718786007E+02 -0.15282447743E+03  0.16408135114E+03  0.10000000000E+01 0.  0.
    9000005    1    3    3    0    0  0.51073599766E+02 -0.15633013503E+02 -0.37530355389E+02  0.65287297998E+02  0.10000000000E+01 0.  0.
          4    1    1    2  501    0 -0.83429107312E+01 -0.26085772504E+02 -0.31132232241E+02  0.41483737427E+02  0.12700000000E+01 0.  1.
<mgrwt>
<rscale>  1 0.12796490E+03</rscale>
<asrwt>0</asrwt>
<pdfrwt beam="1">  1       21 0.37970806E-02 0.12796490E+03</pdfrwt>
<pdfrwt beam="2">  1        4 0.37874777E-01 0.12796490E+03</pdfrwt>
<totfact> 0.11525604E+05</totfact>
</mgrwt>
</event>
<event>
 6    4  0.3995738E-003  0.1282934E+03  0.7818608E-02  0.1230010E+00
         -4   -1    0    0    0  501 -0.00000000000E+00  0.00000000000E+00  0.12799225529E+03  0.12799855591E+03  0.12700000000E+01 0.  1.
         21   -1    0    0  501  502  0.00000000000E+00 -0.00000000000E+00 -0.48271115817E+02  0.48271115817E+02  0.00000000000E+00 0.  1.
         25    2    1    2    0    0 -0.18065663968E+02  0.22528715754E+02  0.64182397775E+02  0.14345234944E+03  0.12500114051E+03 0.  0.
    9000005    1    3    3    0    0 -0.27857707447E+02  0.50018432945E+02 -0.14885947746E+02  0.59164913071E+02  0.10000000000E+01 0.  0.
    9000005    1    3    3    0    0  0.97920434790E+01 -0.27489717191E+02  0.79068345520E+02  0.84287436371E+02  0.10000000000E+01 0.  0.
         -4    1    1    2    0  502  0.18065663968E+02 -0.22528715754E+02  0.15538741700E+02  0.32817322282E+02  0.12700000000E+01 0. -1.
<mgrwt>
<rscale>  1 0.12829340E+03</rscale>
<asrwt>0</asrwt>
<pdfrwt beam="2">  1       21 0.74263256E-02 0.12829340E+03</pdfrwt>
<pdfrwt beam="1">  1       -4 0.19692886E-01 0.12829340E+03</pdfrwt>
<totfact> 0.12623598E+05</totfact>
</mgrwt>
</event>
<event>
 6    4  0.3995738E-003  0.1349160E+03  0.7818608E-02  0.1220338E+00
         -4   -1    0    0    0  501 -0.00000000000E+00  0.00000000000E+00  0.26880283651E+03  0.26880583665E+03  0.12700000000E+01 0. -1.
         21   -1    0    0  501  502  0.00000000000E+00 -0.00000000000E+00 -0.50341945924E+02  0.50341945924E+02  0.00000000000E+00 0.  1.
         25    2    1    2    0    0 -0.43262372563E+02  0.26574007080E+02  0.23038170313E+03  0.26697950290E+03  0.12499806038E+03 0.  0.
    9000005    1    3    3    0    0 -0.69252815962E+02  0.47134318222E+02  0.21437428690E+03  0.23016283661E+03  0.10000000000E+01 0.  0.
    9000005    1    3    3    0    0  0.25990443399E+02 -0.20560311142E+02  0.16007416238E+02  0.36816666293E+02  0.10000000000E+01 0.  0.
         -4    1    1    2    0  502  0.43262372563E+02 -0.26574007080E+02 -0.11920812547E+02  0.52168279671E+02  0.12700000000E+01 0.  1.
<mgrwt>
<rscale>  1 0.13491600E+03</rscale>
<asrwt>0</asrwt>
<pdfrwt beam="2">  1       21 0.77449149E-02 0.13491600E+03</pdfrwt>
<pdfrwt beam="1">  1       -4 0.41355745E-01 0.13491600E+03</pdfrwt>
<totfact> 0.29317914E+04</totfact>
</mgrwt>
</event>
<event>
 6    4  0.3995738E-003  0.1271584E+03  0.7818608E-02  0.1231734E+00
          4   -1    0    0  502    0 -0.00000000000E+00  0.00000000000E+00  0.38023214611E+02  0.38044418110E+02  0.12700000000E+01 0.  1.
         21   -1    0    0  501  502  0.00000000000E+00 -0.00000000000E+00 -0.15054573271E+03  0.15054573271E+03  0.00000000000E+00 0.  1.
         25    2    1    2    0    0  0.13990311826E+02  0.18684620470E+02 -0.87548844504E+02  0.15438282500E+03  0.12499765043E+03 0.  0.
    9000005    1    3    3    0    0 -0.35646913919E+02  0.18619188274E+02 -0.95938515894E+02  0.10403160806E+03  0.10000000000E+01 0.  0.
    9000005    1    3    3    0    0  0.49637225745E+02  0.65432195517E-01  0.83896713897E+01  0.50351216937E+02  0.10000000000E+01 0.  0.
          4    1    1    2  501    0 -0.13990311826E+02 -0.18684620470E+02 -0.24973673596E+02  0.34207325823E+02  0.12700000000E+01 0. -1.
<mgrwt>
<rscale>  1 0.12715839E+03</rscale>
<asrwt>0</asrwt>
<pdfrwt beam="2">  1       21 0.23160881E-01 0.12715839E+03</pdfrwt>
<pdfrwt beam="1">  1        4 0.58517686E-02 0.12715839E+03</pdfrwt>
<totfact> 0.12949383E+05</totfact>
</mgrwt>
</event>
<event>
 6    4  0.3995738E-003  0.1282481E+03  0.7818608E-02  0.1230079E+00
          4   -1    0    0  502    0 -0.00000000000E+00  0.00000000000E+00  0.54942835564E+03  0.54942982344E+03  0.12700000000E+01 0. -1.
         21   -1    0    0  501  502  0.00000000000E+00 -0.00000000000E+00 -0.63978163257E+02  0.63978163257E+02  0.00000000000E+00 0.  1.
         25    2    1    2    0    0  0.26184012314E+02  0.11711996836E+02  0.53824378953E+03  0.55331181236E+03  0.12499924544E+03 0.  0.
    9000005    1    3    3    0    0  0.58547757118E+02  0.35918172606E+02  0.17781705106E+03  0.19062491609E+03  0.10000000000E+01 0.  0.
    9000005    1    3    3    0    0 -0.32363744804E+02 -0.24206175770E+02  0.36042673847E+03  0.36268689627E+03  0.10000000000E+01 0.  0.
          4    1    1    2  501    0 -0.26184012314E+02 -0.11711996836E+02 -0.52793597142E+02  0.60096174337E+02  0.12700000000E+01 0.  1.
<mgrwt>
<rscale>  1 0.12824814E+03</rscale>
<asrwt>0</asrwt>
<pdfrwt beam="2">  1       21 0.98427947E-02 0.12824814E+03</pdfrwt>
<pdfrwt beam="1">  1        4 0.84528518E-01 0.12824814E+03</pdfrwt>
<totfact> 0.43000863E+03</totfact>
</mgrwt>
</event>
<event>
 6    4  0.3995738E-003  0.1269694E+03  0.7818608E-02  0.1232023E+00
         21   -1    0    0  501  502  0.00000000000E+00  0.00000000000E+00  0.55462751312E+03  0.55462751312E+03  0.00000000000E+00 0. -1.
         -4   -1    0    0    0  501 -0.00000000000E+00 -0.00000000000E+00 -0.53811986147E+02  0.53826970499E+02  0.12700000000E+01 0.  1.
         25    2    1    2    0    0 -0.15462808449E+01  0.22132627418E+02  0.21683860292E+02  0.12880772704E+03  0.12501598525E+03 0.  0.
    9000005    1    3    3    0    0  0.35693680945E+02 -0.27027779627E+02 -0.25149167927E+02  0.51361662535E+02  0.10000000000E+01 0.  0.
    9000005    1    3    3    0    0 -0.37239961790E+02  0.49160407045E+02  0.46833028220E+02  0.77446064504E+02  0.10000000000E+01 0.  0.
         -4    1    1    2    0  502  0.15462808449E+01 -0.22132627418E+02  0.47913166668E+03  0.47964675658E+03  0.12700000000E+01 0. -1.
<mgrwt>
<rscale>  1 0.12696945E+03</rscale>
<asrwt>0</asrwt>
<pdfrwt beam="1">  1       21 0.85327306E-01 0.12696945E+03</pdfrwt>
<pdfrwt beam="2">  1       -4 0.82800320E-02 0.12696945E+03</pdfrwt>
<totfact> 0.51213959E+03</totfact>
</mgrwt>
</event>
<event>
 6    4  0.3995738E-003  0.1425989E+03  0.7818608E-02  0.1209874E+00
         21   -1    0    0  501  502  0.00000000000E+00  0.00000000000E+00  0.92890459033E+02  0.92890459033E+02  0.00000000000E+00 0.  1.
         -4   -1    0    0    0  501 -0.00000000000E+00 -0.00000000000E+00 -0.13659104837E+03  0.13659695237E+03  0.12700000000E+01 0. -1.
         25    2    1    2    0    0  0.37255464908E+02 -0.57633814155E+02 -0.66253729336E+02  0.15723865208E+03  0.12499924343E+03 0.  0.
    9000005    1    3    3    0    0  0.32465785863E+02 -0.40291906564E+02  0.29657658900E+02  0.59649322860E+02  0.10000000000E+01 0.  0.
    9000005    1    3    3    0    0  0.47896790449E+01 -0.17341907591E+02 -0.95911388236E+02  0.97589329220E+02  0.10000000000E+01 0.  0.
         -4    1    1    2    0  502 -0.37255464908E+02  0.57633814155E+02  0.22553139996E+02  0.72248759320E+02  0.12700000000E+01 0.  1.
<mgrwt>
<rscale>  1 0.14259887E+03</rscale>
<asrwt>0</asrwt>
<pdfrwt beam="1">  1       21 0.14290840E-01 0.14259887E+03</pdfrwt>
<pdfrwt beam="2">  1       -4 0.21015129E-01 0.14259887E+03</pdfrwt>
<totfact> 0.36058186E+04</totfact>
</mgrwt>
</event>
<event>
 6    4  0.3995738E-003  0.1313398E+03  0.7818608E-02  0.1225481E+00
         21   -1    0    0  501  502  0.00000000000E+00  0.00000000000E+00  0.19801391272E+03  0.19801391272E+03  0.00000000000E+00 0.  1.
         -4   -1    0    0    0  501 -0.00000000000E+00 -0.00000000000E+00 -0.14601054739E+03  0.14601607052E+03  0.12700000000E+01 0. -1.
         25    2    1    2    0    0 -0.39217450356E+02  0.92990452957E+01 -0.11356028759E+03  0.17362629571E+03  0.12500268392E+03 0.  0.
    9000005    1    3    3    0    0 -0.44921867179E+02 -0.32082775431E+02 -0.28406166482E+01  0.55284244891E+02  0.10000000000E+01 0.  0.
    9000005    1    3    3    0    0  0.57044168225E+01  0.41381820727E+02 -0.11071967094E+03  0.11834205082E+03  0.10000000000E+01 0.  0.
         -4    1    1    2    0  502  0.39217450356E+02 -0.92990452957E+01  0.16556365292E+03  0.17040368753E+03  0.12700000000E+01 0.  1.
<mgrwt>
<rscale>  1 0.13133983E+03</rscale>
<asrwt>0</asrwt>
<pdfrwt beam="1">  1       21 0.30463679E-01 0.13133983E+03</pdfrwt>
<pdfrwt beam="2">  1       -4 0.22463899E-01 0.13133983E+03</pdfrwt>
<totfact> 0.77491294E+03</totfact>
</mgrwt>
</event>
<event>
 6    4  0.3995738E-003  0.1301432E+03  0.7818608E-02  0.1227243E+00
         21   -1    0    0  501  502  0.00000000000E+00  0.00000000000E+00  0.54506782600E+02  0.54506782600E+02  0.00000000000E+00 0.  1.
          4   -1    0    0  502    0 -0.00000000000E+00 -0.00000000000E+00 -0.17341117143E+03  0.17341582188E+03  0.12700000000E+01 0. -1.
         25    2    1    2    0    0 -0.25981327202E+02  0.25251679422E+02 -0.13565379893E+03  0.18798725278E+03  0.12499830945E+03 0.  0.
    9000005    1    3    3    0    0  0.16912468097E+02  0.18057477844E+02 -0.14189341858E+03  0.14403765591E+03  0.10000000000E+01 0.  0.
    9000005    1    3    3    0    0 -0.42893795299E+02  0.71942015779E+01  0.62396196517E+01  0.43949596868E+02  0.10000000000E+01 0.  0.
          4    1    1    2  501    0  0.25981327202E+02 -0.25251679422E+02  0.16749410097E+02  0.39935351700E+02  0.12700000000E+01 0.  1.
<mgrwt>
<rscale>  1 0.13014321E+03</rscale>
<asrwt>0</asrwt>
<pdfrwt beam="1">  1       21 0.83856590E-02 0.13014321E+03</pdfrwt>
<pdfrwt beam="2">  1        4 0.26680137E-01 0.13014321E+03</pdfrwt>
<totfact> 0.58938395E+04</totfact>
</mgrwt>
</event>
<event>
 6    4  0.3995738E-003  0.1286392E+03  0.7818608E-02  0.1229489E+00
          4   -1    0    0  502    0 -0.00000000000E+00  0.00000000000E+00  0.40741317733E+03  0.40741515676E+03  0.12700000000E+01 0.  1.
         21   -1    0    0  501  502  0.00000000000E+00 -0.00000000000E+00 -0.17081453910E+02  0.17081453910E+02  0.00000000000E+00 0. -1.
         25    2    1    2    0    0  0.28941246948E+02  0.92735416427E+01  0.35651311210E+03  0.37901138537E+03  0.12499774714E+03 0.  0.
    9000005    1    3    3    0    0  0.91296916150E+01 -0.37513647380E+02  0.30913690150E+02  0.49470003512E+02  0.10000000000E+01 0.  0.
    9000005    1    3    3    0    0  0.19811555333E+02  0.46787189023E+02  0.32559942195E+03  0.32954138186E+03  0.10000000000E+01 0.  0.
          4    1    1    2  501    0 -0.28941246948E+02 -0.92735416427E+01  0.33818611315E+02  0.45485225302E+02  0.12700000000E+01 0. -1.
<mgrwt>
<rscale>  1 0.12863915E+03</rscale>
<asrwt>0</asrwt>
<pdfrwt beam="2">  1       21 0.26279163E-02 0.12863915E+03</pdfrwt>
<pdfrwt beam="1">  1        4 0.62682727E-01 0.12863915E+03</pdfrwt>
<totfact> 0.76032497E+04</totfact>
</mgrwt>
</event>
<event>
 6    4  0.3995738E-003  0.1670505E+03  0.7818608E-02  0.1180959E+00
         21   -1    0    0  501  502  0.00000000000E+00  0.00000000000E+00  0.61429959935E+02  0.61429959935E+02  0.00000000000E+00 0.  1.
         -4   -1    0    0    0  501 -0.00000000000E+00 -0.00000000000E+00 -0.33237272887E+03  0.33237515520E+03  0.12700000000E+01 0. -1.
         25    2    1    2    0    0 -0.20476158561E+02  0.10890964309E+03 -0.20648849873E+03  0.26560000886E+03  0.12500112469E+03 0.  0.
    9000005    1    3    3    0    0 -0.46390990413E+02  0.12441346967E+03 -0.18804215939E+03  0.23019923792E+03  0.10000000000E+01 0.  0.
    9000005    1    3    3    0    0  0.25914831852E+02 -0.15503826586E+02 -0.18446339334E+02  0.35400770946E+02  0.10000000000E+01 0.  0.
         -4    1    1    2    0  502  0.20476158561E+02 -0.10890964309E+03 -0.64454270205E+02  0.12820510627E+03  0.12700000000E+01 0.  1.
<mgrwt>
<rscale>  1 0.16705049E+03</rscale>
<asrwt>0</asrwt>
<pdfrwt beam="1">  1       21 0.94507630E-02 0.16705049E+03</pdfrwt>
<pdfrwt beam="2">  1       -4 0.51135463E-01 0.16705049E+03</pdfrwt>
<totfact> 0.13809763E+04</totfact>
</mgrwt>
</event>
<event>
 6    4  0.3995738E-003  0.1270638E+03  0.7818608E-02  0.1231879E+00
         21   -1    0    0  501  502  0.00000000000E+00  0.00000000000E+00  0.38679586255E+01  0.38679586255E+01  0.00000000000E+00 0. -1.
          4   -1    0    0  502    0 -0.00000000000E+00 -0.00000000000E+00 -0.19802461717E+04  0.19802465789E+04  0.12700000000E+01 0. -1.
         25    2    1    2    0    0 -0.22336470248E+02  0.47633866774E+01 -0.19033789724E+04  0.19076154539E+04  0.12499439915E+03 0.  0.
    9000005    1    3    3    0    0  0.31159147466E+02  0.39100223166E+02 -0.12859647042E+04  0.12869366497E+04  0.10000000000E+01 0.  0.
    9000005    1    3    3    0    0 -0.53495617714E+02 -0.34336836489E+02 -0.61741426824E+03  0.62067880428E+03  0.10000000000E+01 0.  0.
          4    1    1    2  501    0  0.22336470248E+02 -0.47633866774E+01 -0.72999240642E+02  0.76499083590E+02  0.12700000000E+01 0.  1.
<mgrwt>
<rscale>  1 0.12706379E+03</rscale>
<asrwt>0</asrwt>
<pdfrwt beam="1">  1       21 0.59506923E-03 0.12706379E+03</pdfrwt>
<pdfrwt beam="2">  1        4 0.30467001E+00 0.12706379E+03</pdfrwt>
<totfact> 0.12216513E+04</totfact>
</mgrwt>
</event>
<event>
 6    4  0.3995738E-003  0.1283232E+03  0.7818608E-02  0.1229965E+00
         -4   -1    0    0    0  501 -0.00000000000E+00  0.00000000000E+00  0.60261369908E+01  0.61585085070E+01  0.12700000000E+01 0.  1.
         21   -1    0    0  501  502  0.00000000000E+00 -0.00000000000E+00 -0.10166490163E+04  0.10166490163E+04  0.00000000000E+00 0.  1.
         25    2    1    2    0    0 -0.24382877561E+02 -0.15714009007E+02 -0.83366036885E+03  0.84347878254E+03  0.12500156478E+03 0.  0.
    9000005    1    3    3    0    0 -0.71561251896E+02  0.12540958408E+02 -0.51630487411E+03  0.52139237762E+03  0.10000000000E+01 0.  0.
    9000005    1    3    3    0    0  0.47178374335E+02 -0.28254967415E+02 -0.31735549474E+03  0.32208640491E+03  0.10000000000E+01 0.  0.
         -4    1    1    2    0  502  0.24382877561E+02  0.15714009007E+02 -0.17696251045E+03  0.17932874227E+03  0.12700000000E+01 0. -1.
<mgrwt>
<rscale>  1 0.12832321E+03</rscale>
<asrwt>0</asrwt>
<pdfrwt beam="2">  1       21 0.15640742E+00 0.12832321E+03</pdfrwt>
<pdfrwt beam="1">  1       -4 0.93734217E-03 0.12832321E+03</pdfrwt>
<totfact> 0.35749069E+04</totfact>
</mgrwt>
</event>
<event>
 6    4  0.3995738E-003  0.1350907E+03  0.7818608E-02  0.1220092E+00
         21   -1    0    0  501  502  0.00000000000E+00  0.00000000000E+00  0.43986517581E+03  0.43986517581E+03  0.00000000000E+00 0.  1.
         -4   -1    0    0    0  501 -0.00000000000E+00 -0.00000000000E+00 -0.67763670129E+02  0.67775570004E+02  0.12700000000E+01 0. -1.
         25    2    1    2    0    0  0.67446834875E+00 -0.51225905969E+02  0.31294090862E+01  0.13512689464E+03  0.12499974442E+03 0.  0.
    9000005    1    3    3    0    0  0.24307386218E+02  0.35427047021E+02  0.12653487054E+02  0.44799948883E+02  0.10000000000E+01 0.  0.
    9000005    1    3    3    0    0 -0.23632917869E+02 -0.86652952990E+02 -0.95240779679E+01  0.90326945758E+02  0.10000000000E+01 0.  0.
         -4    1    1    2    0  502 -0.67446834875E+00  0.51225905969E+02  0.36897209660E+03  0.37251385118E+03  0.12700000000E+01 0.  1.
<mgrwt>
<rscale>  1 0.13509065E+03</rscale>
<asrwt>0</asrwt>
<pdfrwt beam="1">  1       21 0.67671564E-01 0.13509065E+03</pdfrwt>
<pdfrwt beam="2">  1       -4 0.10426237E-01 0.13509065E+03</pdfrwt>
<totfact> 0.58380150E+03</totfact>
</mgrwt>
</event>
<event>
 6    4  0.3995738E-003  0.1267362E+03  0.7818608E-02  0.1232381E+00
         -4   -1    0    0    0  501 -0.00000000000E+00  0.00000000000E+00  0.53946836836E+01  0.55421577067E+01  0.12700000000E+01 0. -1.
         21   -1    0    0  501  502  0.00000000000E+00 -0.00000000000E+00 -0.10250961072E+04  0.10250961072E+04  0.00000000000E+00 0. -1.
         25    2    1    2    0    0 -0.11115454737E+02  0.17643293985E+02 -0.80400839928E+03  0.81393585892E+03  0.12500894834E+03 0.  0.
    9000005    1    3    3    0    0  0.44395814513E+02  0.42519150933E+02 -0.51047710601E+03  0.51416606491E+03  0.10000000000E+01 0.  0.
    9000005    1    3    3    0    0 -0.55511269250E+02 -0.24875856948E+02 -0.29353129326E+03  0.29976979401E+03  0.10000000000E+01 0.  0.
         -4    1    1    2    0  502  0.11115454737E+02 -0.17643293985E+02 -0.21569302422E+03  0.21670240598E+03  0.12700000000E+01 0.  1.
<mgrwt>
<rscale>  1 0.12673625E+03</rscale>
<asrwt>0</asrwt>
<pdfrwt beam="2">  1       21 0.15770725E+00 0.12673625E+03</pdfrwt>
<pdfrwt beam="1">  1       -4 0.84135518E-03 0.12673625E+03</pdfrwt>
<totfact> 0.41089072E+04</totfact>
</mgrwt>
</event>
<event>
 6    4  0.3995738E-003  0.1273753E+03  0.7818608E-02  0.1231403E+00
         21   -1    0    0  501  502  0.00000000000E+00  0.00000000000E+00  0.74800343128E+03  0.74800343128E+03  0.00000000000E+00 0. -1.
         -4   -1    0    0    0  501 -0.00000000000E+00 -0.00000000000E+00 -0.76655125342E+01  0.77700053032E+01  0.12700000000E+01 0. -1.
         25    2    1    2    0    0  0.40263854914E+01 -0.24154032624E+02  0.62898467059E+03  0.64175243919E+03  0.12499939318E+03 0.  0.
    9000005    1    3    3    0    0  0.49500617908E+02  0.22422003486E+02  0.40060070726E+03  0.40427092905E+03  0.10000000000E+01 0.  0.
    9000005    1    3    3    0    0 -0.45474232417E+02 -0.46576036110E+02  0.22838396332E+03  0.23748151014E+03  0.10000000000E+01 0.  0.
         -4    1    1    2    0  502 -0.40263854914E+01  0.24154032624E+02  0.11135324816E+03  0.11402099740E+03  0.12700000000E+01 0.  1.
<mgrwt>
<rscale>  1 0.12737534E+03</rscale>
<asrwt>0</asrwt>
<pdfrwt beam="1">  1       21 0.11507739E+00 0.12737534E+03</pdfrwt>
<pdfrwt beam="2">  1       -4 0.11874311E-02 0.12737534E+03</pdfrwt>
<totfact> 0.54082351E+04</totfact>
</mgrwt>
</event>
<event>
 6    4  0.3995738E-003  0.1269262E+03  0.7818608E-02  0.1232089E+00
         21   -1    0    0  501  502  0.00000000000E+00  0.00000000000E+00  0.36048737533E+02  0.36048737533E+02  0.00000000000E+00 0.  1.
          4   -1    0    0  502    0 -0.00000000000E+00 -0.00000000000E+00 -0.36413536642E+03  0.36413758112E+03  0.12700000000E+01 0. -1.
         25    2    1    2    0    0 -0.19054850152E+02  0.11063634249E+02 -0.34802217698E+03  0.37044526462E+03  0.12499906838E+03 0.  0.
    9000005    1    3    3    0    0 -0.70102735055E+02 -0.96978132362E+01 -0.21869088912E+03  0.22985896986E+03  0.10000000000E+01 0.  0.
    9000005    1    3    3    0    0  0.51047884903E+02  0.20761447485E+02 -0.12933128786E+03  0.14058629476E+03  0.10000000000E+01 0.  0.
          4    1    1    2  501    0  0.19054850152E+02 -0.11063634249E+02  0.19935548085E+02  0.29741054026E+02  0.12700000000E+01 0.  1.
<mgrwt>
<rscale>  1 0.12692619E+03</rscale>
<asrwt>0</asrwt>
<pdfrwt beam="1">  1       21 0.55459597E-02 0.12692619E+03</pdfrwt>
<pdfrwt beam="2">  1        4 0.56022716E-01 0.12692619E+03</pdfrwt>
<totfact> 0.27831702E+04</totfact>
</mgrwt>
</event>
<event>
 6    4  0.3995738E-003  0.1271118E+03  0.7818608E-02  0.1231805E+00
         -4   -1    0    0    0  501 -0.00000000000E+00  0.00000000000E+00  0.13917237278E+03  0.13917816727E+03  0.12700000000E+01 0.  1.
         21   -1    0    0  501  502  0.00000000000E+00 -0.00000000000E+00 -0.59110548165E+02  0.59110548165E+02  0.00000000000E+00 0.  1.
         25    2    1    2    0    0 -0.28798263113E+01 -0.22943903357E+02  0.10454958278E+03  0.16458442341E+03  0.12499080394E+03 0.  0.
    9000005    1    3    3    0    0  0.30551126479E+02 -0.13968007104E+02  0.12147628371E+03  0.12603953370E+03  0.10000000000E+01 0.  0.
    9000005    1    3    3    0    0 -0.33430952790E+02 -0.89758962531E+01 -0.16926700935E+02  0.38544889707E+02  0.10000000000E+01 0.  0.
         -4    1    1    2    0  502  0.28798263113E+01  0.22943903357E+02 -0.24487758165E+02  0.33704292023E+02  0.12700000000E+01 0. -1.
<mgrwt>
<rscale>  1 0.12711183E+03</rscale>
<asrwt>0</asrwt>
<pdfrwt beam="2">  1       21 0.90939306E-02 0.12711183E+03</pdfrwt>
<pdfrwt beam="1">  1       -4 0.21412629E-01 0.12711183E+03</pdfrwt>
<totfact> 0.76415183E+04</totfact>
</mgrwt>
</event>
<event>
 6    4  0.3995738E-003  0.1276765E+03  0.7818608E-02  0.1230945E+00
          4   -1    0    0  502    0 -0.00000000000E+00  0.00000000000E+00  0.25464497584E+03  0.25464814278E+03  0.12700000000E+01 0.  1.
         21   -1    0    0  501  502  0.00000000000E+00 -0.00000000000E+00 -0.23200208177E+02  0.23200208177E+02  0.00000000000E+00 0.  1.
         25    2    1    2    0    0  0.24809768539E+02 -0.77626614974E+01  0.19027293321E+03  0.22913986730E+03  0.12500202455E+03 0.  0.
    9000005    1    3    3    0    0 -0.41905702700E+02 -0.31589776366E+02  0.52614038055E+02  0.74318496285E+02  0.10000000000E+01 0.  0.
    9000005    1    3    3    0    0  0.66715471240E+02  0.23827114868E+02  0.13765889516E+03  0.15482137101E+03  0.10000000000E+01 0.  0.
          4    1    1    2  501    0 -0.24809768539E+02  0.77626614974E+01  0.41171834451E+02  0.48708483661E+02  0.12700000000E+01 0. -1.
<mgrwt>
<rscale>  1 0.12767650E+03</rscale>
<asrwt>0</asrwt>
<pdfrwt beam="2">  1       21 0.35692630E-02 0.12767650E+03</pdfrwt>
<pdfrwt beam="1">  1        4 0.39179066E-01 0.12767650E+03</pdfrwt>
<totfact> 0.11946356E+05</totfact>
</mgrwt>
</event>
<event>
 6    4  0.3995738E-003  0.1269530E+03  0.7818608E-02  0.1232048E+00
         -4   -1    0    0    0  501 -0.00000000000E+00  0.00000000000E+00  0.44228866535E+02  0.44247096345E+02  0.12700000000E+01 0. -1.
         21   -1    0    0  501  502  0.00000000000E+00 -0.00000000000E+00 -0.13177243180E+03  0.13177243180E+03  0.00000000000E+00 0. -1.
         25    2    1    2    0    0  0.22192365457E+02  0.86988261283E+00 -0.59445511666E+02  0.14018140185E+03  0.12499519506E+03 0.  0.
    9000005    1    3    3    0    0 -0.14973996711E+01  0.15738284207E+02 -0.94220659387E+02  0.95543018850E+02  0.10000000000E+01 0.  0.
    9000005    1    3    3    0    0  0.23689765128E+02 -0.14868401594E+02  0.34775147722E+02  0.44638383000E+02  0.10000000000E+01 0.  0.
         -4    1    1    2    0  502 -0.22192365457E+02 -0.86988261283E+00 -0.28098053604E+02  0.35838126300E+02  0.12700000000E+01 0.  1.
<mgrwt>
<rscale>  1 0.12695297E+03</rscale>
<asrwt>0</asrwt>
<pdfrwt beam="2">  1       21 0.20272682E-01 0.12695297E+03</pdfrwt>
<pdfrwt beam="1">  1       -4 0.68063140E-02 0.12695297E+03</pdfrwt>
<totfact> 0.12972453E+05</totfact>
</mgrwt>
</event>
<event>
 6    4  0.3995738E-003  0.1491036E+03  0.7818608E-02  0.1201579E+00
         21   -1    0    0  501  502  0.00000000000E+00  0.00000000000E+00  0.92368019583E+01  0.92368019583E+01  0.00000000000E+00 0.  1.
          4   -1    0    0  502    0 -0.00000000000E+00 -0.00000000000E+00 -0.14396663524E+04  0.14396669126E+04  0.12700000000E+01 0. -1.
         25    2    1    2    0    0 -0.40488876152E+02 -0.70391126730E+02 -0.96180293450E+03  0.97329171102E+03  0.12505043022E+03 0.  0.
    9000005    1    3    3    0    0  0.30866160393E+02  0.13777698150E+02 -0.13564192903E+03  0.13979369705E+03  0.10000000000E+01 0.  0.
    9000005    1    3    3    0    0 -0.71355036545E+02 -0.84168824880E+02 -0.82616100547E+03  0.83349801396E+03  0.10000000000E+01 0.  0.
          4    1    1    2  501    0  0.40488876152E+02  0.70391126730E+02 -0.46862661598E+03  0.47561200355E+03  0.12700000000E+01 0.  1.
<mgrwt>
<rscale>  1 0.14910355E+03</rscale>
<asrwt>0</asrwt>
<pdfrwt beam="1">  1       21 0.14210458E-02 0.14910355E+03</pdfrwt>
<pdfrwt beam="2">  1        4 0.22149400E+00 0.14910355E+03</pdfrwt>
<totfact> 0.94973436E+03</totfact>
</mgrwt>
</event>
<event>
 6    4  0.3995738E-003  0.1266813E+03  0.7818608E-02  0.1232465E+00
          4   -1    0    0  502    0 -0.00000000000E+00  0.00000000000E+00  0.73693727520E+02  0.73704669973E+02  0.12700000000E+01 0. -1.
         21   -1    0    0  501  502  0.00000000000E+00 -0.00000000000E+00 -0.80045664072E+02  0.80045664072E+02  0.00000000000E+00 0. -1.
         25    2    1    2    0    0  0.20343680774E+02  0.33133028244E+01  0.10472684523E+02  0.12711344051E+03  0.12499322507E+03 0.  0.
    9000005    1    3    3    0    0 -0.24347307531E+02 -0.11712214870E+02 -0.46111582587E+02  0.53453207667E+02  0.10000000000E+01 0.  0.
    9000005    1    3    3    0    0  0.44690988305E+02  0.15025517694E+02  0.56584267110E+02  0.73660232840E+02  0.10000000000E+01 0.  0.
          4    1    1    2  501    0 -0.20343680774E+02 -0.33133028244E+01 -0.16824621075E+02  0.26636893538E+02  0.12700000000E+01 0.  1.
<mgrwt>
<rscale>  1 0.12668129E+03</rscale>
<asrwt>0</asrwt>
<pdfrwt beam="2">  1       21 0.12314718E-01 0.12668129E+03</pdfrwt>
<pdfrwt beam="1">  1        4 0.11339113E-01 0.12668129E+03</pdfrwt>
<totfact> 0.13659342E+05</totfact>
</mgrwt>
</event>
<event>
 6    4  0.3995738E-003  0.1286186E+03  0.7818608E-02  0.1229520E+00
          4   -1    0    0  502    0 -0.00000000000E+00  0.00000000000E+00  0.12666807848E+03  0.12667444496E+03  0.12700000000E+01 0. -1.
         21   -1    0    0  501  502  0.00000000000E+00 -0.00000000000E+00 -0.10162665528E+03  0.10162665528E+03  0.00000000000E+00 0.  1.
         25    2    1    2    0    0 -0.26384985758E+02 -0.14863773012E+02  0.89755775462E+02  0.15684020526E+03  0.12500260612E+03 0.  0.
    9000005    1    3    3    0    0 -0.40143100469E+01  0.33688597404E+02 -0.16613100040E+02  0.37789302364E+02  0.10000000000E+01 0.  0.
    9000005    1    3    3    0    0 -0.22370675711E+02 -0.48552370417E+02  0.10636887550E+03  0.11905090290E+03  0.10000000000E+01 0.  0.
          4    1    1    2  501    0  0.26384985758E+02  0.14863773012E+02 -0.64714352263E+02  0.71460894973E+02  0.12700000000E+01 0.  1.
<mgrwt>
<rscale>  1 0.12861863E+03</rscale>
<asrwt>0</asrwt>
<pdfrwt beam="2">  1       21 0.15634870E-01 0.12861863E+03</pdfrwt>
<pdfrwt beam="1">  1        4 0.19488497E-01 0.12861863E+03</pdfrwt>
<totfact> 0.34719878E+04</totfact>
</mgrwt>
</event>
<event>
 6    4  0.3995738E-003  0.1307019E+03  0.7818608E-02  0.1226418E+00
         -4   -1    0    0    0  501 -0.00000000000E+00  0.00000000000E+00  0.43759863113E+02  0.43778288222E+02  0.12700000000E+01 0.  1.
         21   -1    0    0  501  502  0.00000000000E+00 -0.00000000000E+00 -0.16391572383E+03  0.16391572383E+03  0.00000000000E+00 0.  1.
         25    2    1    2    0    0 -0.31743455406E+02  0.21231288272E+02 -0.99439721034E+02  0.16422924579E+03  0.12499828995E+03 0.  0.
    9000005    1    3    3    0    0 -0.55816723947E+02  0.45639814571E+02 -0.10707611092E+03  0.12909218751E+03  0.10000000000E+01 0.  0.
    9000005    1    3    3    0    0  0.24073268541E+02 -0.24408526299E+02  0.76363898821E+01  0.35137058283E+02  0.10000000000E+01 0.  0.
         -4    1    1    2    0  502  0.31743455406E+02 -0.21231288272E+02 -0.20716139681E+02  0.43464766261E+02  0.12700000000E+01 0. -1.
<mgrwt>
<rscale>  1 0.13070190E+03</rscale>
<asrwt>0</asrwt>
<pdfrwt beam="2">  1       21 0.25217803E-01 0.13070190E+03</pdfrwt>
<pdfrwt beam="1">  1       -4 0.67340825E-02 0.13070190E+03</pdfrwt>
<totfact> 0.88101480E+04</totfact>
</mgrwt>
</event>
<event>
 6    4  0.3995738E-003  0.1266971E+03  0.7818608E-02  0.1232441E+00
         21   -1    0    0  501  502  0.00000000000E+00  0.00000000000E+00  0.11187645166E+03  0.11187645166E+03  0.00000000000E+00 0. -1.
         -4   -1    0    0    0  501 -0.00000000000E+00 -0.00000000000E+00 -0.54108910839E+02  0.54123812986E+02  0.12700000000E+01 0. -1.
         25    2    1    2    0    0 -0.47886029419E+01  0.20101244588E+02  0.28021306865E+02  0.12975882308E+03  0.12500067111E+03 0.  0.
    9000005    1    3    3    0    0 -0.42217475966E+02  0.23400734588E+02  0.62348160009E+02  0.78855581367E+02  0.10000000000E+01 0.  0.
    9000005    1    3    3    0    0  0.37428873024E+02 -0.32994899999E+01 -0.34326853145E+02  0.50903241713E+02  0.10000000000E+01 0.  0.
         -4    1    1    2    0  502  0.47886029419E+01 -0.20101244588E+02  0.29746233960E+02  0.36241441568E+02  0.12700000000E+01 0.  1.
<mgrwt>
<rscale>  1 0.12669711E+03</rscale>
<asrwt>0</asrwt>
<pdfrwt beam="1">  1       21 0.17211762E-01 0.12669711E+03</pdfrwt>
<pdfrwt beam="2">  1       -4 0.83261487E-02 0.12669711E+03</pdfrwt>
<totfact> 0.12566915E+05</totfact>
</mgrwt>
</event>
<event>
 6    4  0.3995738E-003  0.1300916E+03  0.7818608E-02  0.1227320E+00
          4   -1    0    0  502    0 -0.00000000000E+00  0.00000000000E+00  0.47407585241E+02  0.47424593181E+02  0.12700000000E+01 0. -1.
         21   -1    0    0  501  502  0.00000000000E+00 -0.00000000000E+00 -0.14903338200E+03  0.14903338200E+03  0.00000000000E+00 0. -1.
         25    2    1    2    0    0  0.30693206710E+02 -0.18886307182E+02 -0.91351935785E+02  0.15896223334E+03  0.12500019968E+03 0.  0.
    9000005    1    3    3    0    0 -0.32762301850E+02  0.30337050444E+02 -0.54871584692E+02  0.70750235751E+02  0.10000000000E+01 0.  0.
    9000005    1    3    3    0    0  0.63455508561E+02 -0.49223357626E+02 -0.36480351093E+02  0.88211997589E+02  0.10000000000E+01 0.  0.
          4    1    1    2  501    0 -0.30693206710E+02  0.18886307182E+02 -0.10273860978E+02  0.37495741845E+02  0.12700000000E+01 0.  1.
<mgrwt>
<rscale>  1 0.13009157E+03</rscale>
<asrwt>0</asrwt>
<pdfrwt beam="2">  1       21 0.22928212E-01 0.13009157E+03</pdfrwt>
<pdfrwt beam="1">  1        4 0.72951993E-02 0.13009157E+03</pdfrwt>
<totfact> 0.92369340E+04</totfact>
</mgrwt>
</event>
<event>
 6    4  0.3995738E-003  0.1577440E+03  0.7818608E-02  0.1191268E+00
          4   -1    0    0  502    0 -0.00000000000E+00  0.00000000000E+00  0.61525565723E+02  0.61538671886E+02  0.12700000000E+01 0.  1.
         21   -1    0    0  501  502  0.00000000000E+00 -0.00000000000E+00 -0.33123978940E+03  0.33123978940E+03  0.00000000000E+00 0.  1.
         25    2    1    2    0    0 -0.90836570606E+02  0.31736443186E+02 -0.73058408656E+02  0.17384101162E+03  0.12499872743E+03 0.  0.
    9000005    1    3    3    0    0 -0.11522300431E+03 -0.28118461753E+01 -0.57110837913E+02  0.12863473485E+03  0.10000000000E+01 0.  0.
    9000005    1    3    3    0    0  0.24386433709E+02  0.34548289362E+02 -0.15947570744E+02  0.45206276771E+02  0.10000000000E+01 0.  0.
          4    1    1    2  501    0  0.90836570606E+02 -0.31736443186E+02 -0.19665581502E+03  0.21893744967E+03  0.12700000000E+01 0. -1.
<mgrwt>
<rscale>  1 0.15774399E+03</rscale>
<asrwt>0</asrwt>
<pdfrwt beam="2">  1       21 0.50959968E-01 0.15774399E+03</pdfrwt>
<pdfrwt beam="1">  1        4 0.94666670E-02 0.15774399E+03</pdfrwt>
<totfact> 0.12674081E+04</totfact>
</mgrwt>
</event>
<event>
 6    4  0.3995738E-003  0.1266229E+03  0.7818608E-02  0.1232555E+00
         -4   -1    0    0    0  501 -0.00000000000E+00  0.00000000000E+00  0.44200370771E+01  0.45988724447E+01  0.12700000000E+01 0.  1.
         21   -1    0    0  501  502  0.00000000000E+00 -0.00000000000E+00 -0.12109024169E+04  0.12109024169E+04  0.00000000000E+00 0.  1.
         25    2    1    2    0    0  0.88131634837E+01 -0.18192948712E+02 -0.98773559965E+03  0.99581874118E+03  0.12499878091E+03 0.  0.
    9000005    1    3    3    0    0  0.66496601708E+02 -0.13618510291E+01 -0.51343474437E+03  0.51772568934E+03  0.10000000000E+01 0.  0.
    9000005    1    3    3    0    0 -0.57683438225E+02 -0.16831097683E+02 -0.47430085528E+03  0.47809305184E+03  0.10000000000E+01 0.  0.
         -4    1    1    2    0  502 -0.88131634837E+01  0.18192948712E+02 -0.21874678012E+03  0.21968254812E+03  0.12700000000E+01 0. -1.
<mgrwt>
<rscale>  1 0.12662287E+03</rscale>
<asrwt>0</asrwt>
<pdfrwt beam="2">  1       21 0.18629260E+00 0.12662287E+03</pdfrwt>
<pdfrwt beam="1">  1       -4 0.69381379E-03 0.12662287E+03</pdfrwt>
<totfact> 0.34861538E+04</totfact>
</mgrwt>
</event>
<event>
 6    4  0.3995738E-003  0.1350680E+03  0.7818608E-02  0.1220124E+00
         21   -1    0    0  501  502  0.00000000000E+00  0.00000000000E+00  0.10595421296E+04  0.10595421296E+04  0.00000000000E+00 0.  1.
         -4   -1    0    0    0  501 -0.00000000000E+00 -0.00000000000E+00 -0.19847542780E+02  0.19888133508E+02  0.12700000000E+01 0. -1.
         25    2    1    2    0    0 -0.22290169702E+02 -0.46062947474E+02  0.22010169139E+03  0.25824041056E+03  0.12499883318E+03 0.  0.
    9000005    1    3    3    0    0  0.11643682284E+02  0.14988925648E+02  0.17287903033E+03  0.17392067835E+03  0.10000000000E+01 0.  0.
    9000005    1    3    3    0    0 -0.33933851986E+02 -0.61051873122E+02  0.47222661063E+02  0.84319732211E+02  0.10000000000E+01 0.  0.
         -4    1    1    2    0  502  0.22290169702E+02  0.46062947474E+02  0.81959289544E+03  0.82118985256E+03  0.12700000000E+01 0.  1.
<mgrwt>
<rscale>  1 0.13506796E+03</rscale>
<asrwt>0</asrwt>
<pdfrwt beam="1">  1       21 0.16300644E+00 0.13506796E+03</pdfrwt>
<pdfrwt beam="2">  1       -4 0.30566499E-02 0.13506796E+03</pdfrwt>
<totfact> 0.52545401E+03</totfact>
</mgrwt>
</event>
<event>
 6    4  0.3995738E-003  0.1288459E+03  0.7818608E-02  0.1229178E+00
         21   -1    0    0  501  502  0.00000000000E+00  0.00000000000E+00  0.67846990503E+02  0.67846990503E+02  0.00000000000E+00 0. -1.
          4   -1    0    0  502    0 -0.00000000000E+00 -0.00000000000E+00 -0.10121494355E+03  0.10122291093E+03  0.12700000000E+01 0. -1.
         25    2    1    2    0    0 -0.86598869326E+01  0.30024835456E+02 -0.43822276344E+02  0.13609430195E+03  0.12499913093E+03 0.  0.
    9000005    1    3    3    0    0 -0.59045472067E+02  0.12111562321E+01  0.62967851659E+01  0.59401045230E+02  0.10000000000E+01 0.  0.
    9000005    1    3    3    0    0  0.50385585134E+02  0.28813679224E+02 -0.50119061510E+02  0.76693256720E+02  0.10000000000E+01 0.  0.
          4    1    1    2  501    0  0.86598869326E+01 -0.30024835456E+02  0.10454323297E+02  0.32975599486E+02  0.12700000000E+01 0.  1.
<mgrwt>
<rscale>  1 0.12884590E+03</rscale>
<asrwt>0</asrwt>
<pdfrwt beam="1">  1       21 0.10437999E-01 0.12884590E+03</pdfrwt>
<pdfrwt beam="2">  1        4 0.15573057E-01 0.12884590E+03</pdfrwt>
<totfact> 0.10606336E+05</totfact>
</mgrwt>
</event>
<event>
 6    4  0.3995738E-003  0.1268799E+03  0.7818608E-02  0.1232160E+00
         21   -1    0    0  501  502  0.00000000000E+00  0.00000000000E+00  0.11338533389E+03  0.11338533389E+03  0.00000000000E+00 0.  1.
         -4   -1    0    0    0  501 -0.00000000000E+00 -0.00000000000E+00 -0.48853670856E+02  0.48870175528E+02  0.12700000000E+01 0.  1.
         25    2    1    2    0    0 -0.58788691604E+01  0.20687342340E+02  0.50588235138E+02  0.13659309883E+03  0.12504390380E+03 0.  0.
    9000005    1    3    3    0    0  0.24210492289E+02 -0.46134023274E+02  0.10868703008E+02  0.53231802012E+02  0.10000000000E+01 0.  0.
    9000005    1    3    3    0    0 -0.30089361449E+02  0.66821365614E+02  0.39719532130E+02  0.83361296820E+02  0.10000000000E+01 0.  0.
         -4    1    1    2    0  502  0.58788691604E+01 -0.20687342340E+02  0.13943427901E+02  0.25662410590E+02  0.12700000000E+01 0. -1.
<mgrwt>
<rscale>  1 0.12687988E+03</rscale>
<asrwt>0</asrwt>
<pdfrwt beam="1">  1       21 0.17443897E-01 0.12687988E+03</pdfrwt>
<pdfrwt beam="2">  1       -4 0.75177661E-02 0.12687988E+03</pdfrwt>
<totfact> 0.14522041E+05</totfact>
</mgrwt>
</event>
<event>
 6    4  0.3995738E-003  0.1272105E+03  0.7818608E-02  0.1231655E+00
         21   -1    0    0  501  502  0.00000000000E+00  0.00000000000E+00  0.18669372242E+02  0.18669372242E+02  0.00000000000E+00 0.  1.
          4   -1    0    0  502    0 -0.00000000000E+00 -0.00000000000E+00 -0.52636673600E+03  0.52636826811E+03  0.12700000000E+01 0. -1.
         25    2    1    2    0    0  0.10775685069E+02  0.21032190448E+02 -0.50551033639E+03  0.52127076398E+03  0.12499616295E+03 0.  0.
    9000005    1    3    3    0    0  0.53063431520E+02  0.20781161300E+01 -0.10100724621E+03  0.11412059463E+03  0.10000000000E+01 0.  0.
    9000005    1    3    3    0    0 -0.42287746451E+02  0.18954074318E+02 -0.40450309019E+03  0.40715016935E+03  0.10000000000E+01 0.  0.
          4    1    1    2  501    0 -0.10775685069E+02 -0.21032190448E+02 -0.21870273667E+01  0.23766876371E+02  0.12700000000E+01 0.  1.
<mgrwt>
<rscale>  1 0.12721049E+03</rscale>
<asrwt>0</asrwt>
<pdfrwt beam="1">  1       21 0.28722112E-02 0.12721049E+03</pdfrwt>
<pdfrwt beam="2">  1        4 0.80982936E-01 0.12721049E+03</pdfrwt>
<totfact> 0.37735680E+04</totfact>
</mgrwt>
</event>
<event>
 6    4  0.3995738E-003  0.1277846E+03  0.7818608E-02  0.1230781E+00
         -4   -1    0    0    0  501 -0.00000000000E+00  0.00000000000E+00  0.87493333034E+03  0.87493425207E+03  0.12700000000E+01 0. -1.
         21   -1    0    0  501  502  0.00000000000E+00 -0.00000000000E+00 -0.73354840110E+01  0.73354840110E+01  0.00000000000E+00 0. -1.
         25    2    1    2    0    0 -0.26468248275E+02  0.18290897360E+01  0.78960099773E+03  0.79987413530E+03  0.12499993189E+03 0.  0.
    9000005    1    3    3    0    0 -0.37833772329E+02  0.48707027422E+02  0.63328585672E+03  0.63628275567E+03  0.10000000000E+01 0.  0.
    9000005    1    3    3    0    0  0.11365524053E+02 -0.46877937686E+02  0.15631514101E+03  0.16359137963E+03  0.10000000000E+01 0.  0.
         -4    1    1    2    0  502  0.26468248275E+02 -0.18290897360E+01  0.77996848601E+02  0.82395600779E+02  0.12700000000E+01 0.  1.
<mgrwt>
<rscale>  1 0.12778457E+03</rscale>
<asrwt>0</asrwt>
<pdfrwt beam="2">  1       21 0.11285367E-02 0.12778457E+03</pdfrwt>
<pdfrwt beam="1">  1       -4 0.13461357E+00 0.12778457E+03</pdfrwt>
<totfact> 0.51850700E+04</totfact>
</mgrwt>
</event>
<event>
 6    4  0.3995738E-003  0.1266273E+03  0.7818608E-02  0.1232548E+00
         -4   -1    0    0    0  501 -0.00000000000E+00  0.00000000000E+00  0.97354819733E+02  0.97363102998E+02  0.12700000000E+01 0.  1.
         21   -1    0    0  501  502  0.00000000000E+00 -0.00000000000E+00 -0.66883858864E+02  0.66883858864E+02  0.00000000000E+00 0.  1.
         25    2    1    2    0    0  0.18078714574E+02 -0.91253607104E+01  0.49946596442E+02  0.13612178791E+03  0.12499746605E+03 0.  0.
    9000005    1    3    3    0    0  0.27583237593E+02  0.36082158982E+02 -0.22109465893E+02  0.50523120202E+02  0.10000000000E+01 0.  0.
    9000005    1    3    3    0    0 -0.95045230199E+01 -0.45207519692E+02  0.72056062335E+02  0.85598667710E+02  0.10000000000E+01 0.  0.
         -4    1    1    2    0  502 -0.18078714574E+02  0.91253607104E+01 -0.19475635572E+02  0.28125173949E+02  0.12700000000E+01 0. -1.
<mgrwt>
<rscale>  1 0.12662732E+03</rscale>
<asrwt>0</asrwt>
<pdfrwt beam="2">  1       21 0.10289824E-01 0.12662732E+03</pdfrwt>
<pdfrwt beam="1">  1       -4 0.14979229E-01 0.12662732E+03</pdfrwt>
<totfact> 0.11610468E+05</totfact>
</mgrwt>
</event>
<event>
 6    4  0.3995738E-003  0.1833582E+03  0.7818608E-02  0.1164592E+00
         21   -1    0    0  501  502  0.00000000000E+00  0.00000000000E+00  0.41260082260E+03  0.41260082260E+03  0.00000000000E+00 0.  1.
         -4   -1    0    0    0  501 -0.00000000000E+00 -0.00000000000E+00 -0.12035048681E+03  0.12035718747E+03  0.12700000000E+01 0. -1.
         25    2    1    2    0    0 -0.66855628593E+02 -0.11629794718E+03 -0.28243373300E+02  0.18552065160E+03  0.12500134576E+03 0.  0.
    9000005    1    3    3    0    0 -0.71749419441E+02 -0.13607050687E+03 -0.43714948139E+02  0.15992235216E+03  0.10000000000E+01 0.  0.
    9000005    1    3    3    0    0  0.48937908488E+01  0.19772559696E+02  0.15471574839E+02  0.25598299432E+02  0.10000000000E+01 0.  0.
         -4    1    1    2    0  502  0.66855628593E+02  0.11629794718E+03  0.32049370909E+03  0.34743735847E+03  0.12700000000E+01 0.  1.
<mgrwt>
<rscale>  1 0.18335819E+03</rscale>
<asrwt>0</asrwt>
<pdfrwt beam="1">  1       21 0.63477049E-01 0.18335819E+03</pdfrwt>
<pdfrwt beam="2">  1       -4 0.18516125E-01 0.18335819E+03</pdfrwt>
<totfact> 0.24992624E+03</totfact>
</mgrwt>
</event>
<event>
 6    4  0.3995738E-003  0.1341186E+03  0.7818608E-02  0.1221469E+00
         21   -1    0    0  501  502  0.00000000000E+00  0.00000000000E+00  0.48293236444E+03  0.48293236444E+03  0.00000000000E+00 0. -1.
         -4   -1    0    0    0  501 -0.00000000000E+00 -0.00000000000E+00 -0.63724089720E+02  0.63736743803E+02  0.12700000000E+01 0.  1.
         25    2    1    2    0    0  0.21572865638E+02 -0.43571099291E+02  0.99022967729E+01  0.13448368188E+03  0.12499590387E+03 0.  0.
    9000005    1    3    3    0    0 -0.43804475371E+02 -0.44619913782E+02 -0.15335715084E+02  0.64389074582E+02  0.10000000000E+01 0.  0.
    9000005    1    3    3    0    0  0.65377341010E+02  0.10488144909E+01  0.25238011857E+02  0.70094607295E+02  0.10000000000E+01 0.  0.
         -4    1    1    2    0  502 -0.21572865638E+02  0.43571099291E+02  0.40930597795E+03  0.41218542637E+03  0.12700000000E+01 0. -1.
<mgrwt>
<rscale>  1 0.13411862E+03</rscale>
<asrwt>0</asrwt>
<pdfrwt beam="1">  1       21 0.74297284E-01 0.13411862E+03</pdfrwt>
<pdfrwt beam="2">  1       -4 0.98048083E-02 0.13411862E+03</pdfrwt>
<totfact> 0.52763454E+03</totfact>
</mgrwt>
</event>
<event>
 6    4  0.3995738E-003  0.1288441E+03  0.7818608E-02  0.1229181E+00
         -4   -1    0    0    0  501 -0.00000000000E+00  0.00000000000E+00  0.20929650919E+03  0.20930036230E+03  0.12700000000E+01 0.  1.
         21   -1    0    0  501  502  0.00000000000E+00 -0.00000000000E+00 -0.37877662577E+02  0.37877662577E+02  0.00000000000E+00 0. -1.
         25    2    1    2    0    0  0.29489831039E+02  0.10273405017E+02  0.17320616047E+03  0.21587306718E+03  0.12500245647E+03 0.  0.
    9000005    1    3    3    0    0  0.47681728978E+02 -0.29847843097E+02  0.25567914918E+02  0.61799346995E+02  0.10000000000E+01 0.  0.
    9000005    1    3    3    0    0 -0.18191897939E+02  0.40121248113E+02  0.14763824556E+03  0.15407372019E+03  0.10000000000E+01 0.  0.
         -4    1    1    2    0  502 -0.29489831039E+02 -0.10273405017E+02 -0.17873138647E+01  0.31304957693E+02  0.12700000000E+01 0. -1.
<mgrwt>
<rscale>  1 0.12884412E+03</rscale>
<asrwt>0</asrwt>
<pdfrwt beam="2">  1       21 0.58273328E-02 0.12884412E+03</pdfrwt>
<pdfrwt beam="1">  1       -4 0.32201396E-01 0.12884412E+03</pdfrwt>
<totfact> 0.76994247E+04</totfact>
</mgrwt>
</event>
<event>
 6    4  0.3995738E-003  0.1293296E+03  0.7818608E-02  0.1228454E+00
          4   -1    0    0  502    0 -0.00000000000E+00  0.00000000000E+00  0.42444590510E+02  0.42463586324E+02  0.12700000000E+01 0.  1.
         21   -1    0    0  501  502  0.00000000000E+00 -0.00000000000E+00 -0.21734788271E+03  0.21734788271E+03  0.00000000000E+00 0. -1.
         25    2    1    2    0    0  0.27859679736E+02 -0.18002776710E+02 -0.64490949156E+02  0.14451723622E+03  0.12500354922E+03 0.  0.
    9000005    1    3    3    0    0  0.72333366933E+02 -0.35914142012E+02 -0.47164534536E+02  0.93527722555E+02  0.10000000000E+01 0.  0.
    9000005    1    3    3    0    0 -0.44473687198E+02  0.17911365303E+02 -0.17326414621E+02  0.50989513663E+02  0.10000000000E+01 0.  0.
          4    1    1    2  501    0 -0.27859679736E+02  0.18002776710E+02 -0.11041234304E+03  0.11529423282E+03  0.12700000000E+01 0. -1.
<mgrwt>
<rscale>  1 0.12932961E+03</rscale>
<asrwt>0</asrwt>
<pdfrwt beam="2">  1       21 0.33438136E-01 0.12932961E+03</pdfrwt>
<pdfrwt beam="1">  1        4 0.65316836E-02 0.12932961E+03</pdfrwt>
<totfact> 0.53767843E+04</totfact>
</mgrwt>
</event>
<event>
 6    4  0.3995738E-003  0.1350071E+03  0.7818608E-02  0.1220210E+00
         21   -1    0    0  501  502  0.00000000000E+00  0.00000000000E+00  0.36655050616E+02  0.36655050616E+02  0.00000000000E+00 0.  1.
         -4   -1    0    0    0  501 -0.00000000000E+00 -0.00000000000E+00 -0.31208863606E+03  0.31209122009E+03  0.12700000000E+01 0. -1.
         25    2    1    2    0    0  0.48989872378E+02 -0.14190270464E+02 -0.26391557003E+03  0.29644283917E+03  0.12500222965E+03 0.  0.
    9000005    1    3    3    0    0  0.54096789009E+02  0.42454798649E+02 -0.19676294149E+03  0.20843590778E+03  0.10000000000E+01 0.  0.
    9000005    1    3    3    0    0 -0.51069166308E+01 -0.56645069113E+02 -0.67152628548E+02  0.88006931393E+02  0.10000000000E+01 0.  0.
         -4    1    1    2    0  502 -0.48989872378E+02  0.14190270464E+02 -0.11518015413E+02  0.52303431537E+02  0.12700000000E+01 0.  1.
<mgrwt>
<rscale>  1 0.13500714E+03</rscale>
<asrwt>0</asrwt>
<pdfrwt beam="1">  1       21 0.56392384E-02 0.13500714E+03</pdfrwt>
<pdfrwt beam="2">  1       -4 0.48015529E-01 0.13500714E+03</pdfrwt>
<totfact> 0.37383677E+04</totfact>
</mgrwt>
</event>
<event>
 6    4  0.3995738E-003  0.1304902E+03  0.7818608E-02  0.1226730E+00
         21   -1    0    0  501  502  0.00000000000E+00  0.00000000000E+00  0.77803720444E+01  0.77803720444E+01  0.00000000000E+00 0.  1.
          4   -1    0    0  502    0 -0.00000000000E+00 -0.00000000000E+00 -0.15111810207E+04  0.15111815543E+04  0.12700000000E+01 0.  1.
         25    2    1    2    0    0 -0.32755224037E+02 -0.18185363179E+02 -0.14353511620E+04  0.14412705004E+04  0.12499633994E+03 0.  0.
    9000005    1    3    3    0    0  0.37812719738E+01 -0.42472154051E+02 -0.12525412259E+04  0.12532672120E+04  0.10000000000E+01 0.  0.
    9000005    1    3    3    0    0 -0.36536496011E+02  0.24286790873E+02 -0.18280993607E+03  0.18800328847E+03  0.10000000000E+01 0.  0.
          4    1    1    2  501    0  0.32755224037E+02  0.18185363179E+02 -0.68049486627E+02  0.77691425948E+02  0.12700000000E+01 0. -1.
<mgrwt>
<rscale>  1 0.13049022E+03</rscale>
<asrwt>0</asrwt>
<pdfrwt beam="1">  1       21 0.11969810E-02 0.13049022E+03</pdfrwt>
<pdfrwt beam="2">  1        4 0.23249728E+00 0.13049022E+03</pdfrwt>
<totfact> 0.10647170E+04</totfact>
</mgrwt>
</event>
<event>
 6    4  0.3995738E-003  0.1546341E+03  0.7818608E-02  0.1194892E+00
         21   -1    0    0  501  502  0.00000000000E+00  0.00000000000E+00  0.22415012044E+03  0.22415012044E+03  0.00000000000E+00 0. -1.
         -4   -1    0    0    0  501 -0.00000000000E+00 -0.00000000000E+00 -0.84471284712E+02  0.84480831204E+02  0.12700000000E+01 0.  1.
         25    2    1    2    0    0 -0.60873576875E+02  0.67683033085E+02  0.16573782403E+02  0.15551970979E+03  0.12500041816E+03 0.  0.
    9000005    1    3    3    0    0 -0.52091482586E+02  0.10167229521E+03  0.29675610869E+02  0.11803567279E+03  0.10000000000E+01 0.  0.
    9000005    1    3    3    0    0 -0.87820942886E+01 -0.33989262127E+02 -0.13101828466E+02  0.37484036992E+02  0.10000000000E+01 0.  0.
         -4    1    1    2    0  502  0.60873576875E+02 -0.67683033085E+02  0.12310505333E+03  0.15311124186E+03  0.12700000000E+01 0. -1.
<mgrwt>
<rscale>  1 0.15463405E+03</rscale>
<asrwt>0</asrwt>
<pdfrwt beam="1">  1       21 0.34484634E-01 0.15463405E+03</pdfrwt>
<pdfrwt beam="2">  1       -4 0.12996593E-01 0.15463405E+03</pdfrwt>
<totfact> 0.16247635E+04</totfact>
</mgrwt>
</event>
<event>
 6    4  0.3995738E-003  0.1270715E+03  0.7818608E-02  0.1231867E+00
          4   -1    0    0  502    0 -0.00000000000E+00  0.00000000000E+00  0.13927679763E+02  0.13985462581E+02  0.12700000000E+01 0.  1.
         21   -1    0    0  501  502  0.00000000000E+00 -0.00000000000E+00 -0.44821325747E+03  0.44821325747E+03  0.00000000000E+00 0. -1.
         25    2    1    2    0    0  0.13098176521E+02  0.18711941781E+02 -0.29732548529E+03  0.32334131547E+03  0.12500185235E+03 0.  0.
    9000005    1    3    3    0    0  0.54879589414E+02  0.49361146985E+02 -0.19788229719E+03  0.21120297277E+03  0.10000000000E+01 0.  0.
    9000005    1    3    3    0    0 -0.41781412893E+02 -0.30649205204E+02 -0.99443188107E+02  0.11213834270E+03  0.10000000000E+01 0.  0.
          4    1    1    2  501    0 -0.13098176521E+02 -0.18711941781E+02 -0.13696009242E+03  0.13885740458E+03  0.12700000000E+01 0. -1.
<mgrwt>
<rscale>  1 0.12707148E+03</rscale>
<asrwt>0</asrwt>
<pdfrwt beam="2">  1       21 0.68955878E-01 0.12707148E+03</pdfrwt>
<pdfrwt beam="1">  1        4 0.21473035E-02 0.12707148E+03</pdfrwt>
<totfact> 0.70573980E+04</totfact>
</mgrwt>
</event>
<event>
 6    4  0.3995738E-003  0.1289388E+03  0.7818608E-02  0.1229039E+00
         21   -1    0    0  501  502  0.00000000000E+00  0.00000000000E+00  0.31266476814E+03  0.31266476814E+03  0.00000000000E+00 0.  1.
          4   -1    0    0  502    0 -0.00000000000E+00 -0.00000000000E+00 -0.12239368697E+03  0.12240027578E+03  0.12700000000E+01 0. -1.
         25    2    1    2    0    0  0.19869276577E+02  0.24606637021E+02 -0.87288502950E+02  0.15570647438E+03  0.12499979472E+03 0.  0.
    9000005    1    3    3    0    0  0.46902063472E+02  0.65086015040E+02 -0.52934850475E+02  0.96120191981E+02  0.10000000000E+01 0.  0.
    9000005    1    3    3    0    0 -0.27032786895E+02 -0.40479378019E+02 -0.34353652475E+02  0.59586282402E+02  0.10000000000E+01 0.  0.
          4    1    1    2  501    0 -0.19869276577E+02 -0.24606637021E+02  0.27755958412E+03  0.27935856954E+03  0.12700000000E+01 0.  1.
<mgrwt>
<rscale>  1 0.12893884E+03</rscale>
<asrwt>0</asrwt>
<pdfrwt beam="1">  1       21 0.48102272E-01 0.12893884E+03</pdfrwt>
<pdfrwt beam="2">  1        4 0.18830503E-01 0.12893884E+03</pdfrwt>
<totfact> 0.42877618E+03</totfact>
</mgrwt>
</event>
<event>
 6    4  0.3995738E-003  0.1301316E+03  0.7818608E-02  0.1227261E+00
          4   -1    0    0  502    0 -0.00000000000E+00  0.00000000000E+00  0.51422995109E+02  0.51438675391E+02  0.12700000000E+01 0.  1.
         21   -1    0    0  501  502  0.00000000000E+00 -0.00000000000E+00 -0.32509960908E+03  0.32509960908E+03  0.00000000000E+00 0. -1.
         25    2    1    2    0    0 -0.35426795416E+02 -0.73769374093E+01 -0.34487518286E+02  0.13462401570E+03  0.12499903859E+03 0.  0.
    9000005    1    3    3    0    0 -0.66103167009E+02 -0.34985407469E+02 -0.50603764048E+02  0.90306967395E+02  0.10000000000E+01 0.  0.
    9000005    1    3    3    0    0  0.30676371593E+02  0.27608470059E+02  0.16116245762E+02  0.44317048306E+02  0.10000000000E+01 0.  0.
          4    1    1    2  501    0  0.35426795416E+02  0.73769374093E+01 -0.23918909568E+03  0.24191426877E+03  0.12700000000E+01 0. -1.
<mgrwt>
<rscale>  1 0.13013161E+03</rscale>
<asrwt>0</asrwt>
<pdfrwt beam="2">  1       21 0.50015324E-01 0.13013161E+03</pdfrwt>
<pdfrwt beam="1">  1        4 0.79126271E-02 0.13013161E+03</pdfrwt>
<totfact> 0.17502831E+04</totfact>
</mgrwt>
</event>
<event>
 6    4  0.3995738E-003  0.1430311E+03  0.7818608E-02  0.1209308E+00
          4   -1    0    0  502    0 -0.00000000000E+00  0.00000000000E+00  0.32941816833E+02  0.32966288785E+02  0.12700000000E+01 0. -1.
         21   -1    0    0  501  502  0.00000000000E+00 -0.00000000000E+00 -0.43267764748E+03  0.43267764748E+03  0.00000000000E+00 0. -1.
         25    2    1    2    0    0  0.49774527009E+02  0.48538209770E+02 -0.15363611400E+03  0.20990941615E+03  0.12499778444E+03 0.  0.
    9000005    1    3    3    0    0 -0.33828945292E+02  0.48510212113E+01 -0.60061102662E+01  0.34713157547E+02  0.10000000000E+01 0.  0.
    9000005    1    3    3    0    0  0.83603472300E+02  0.43687188559E+02 -0.14763000374E+03  0.17519625860E+03  0.10000000000E+01 0.  0.
          4    1    1    2  501    0 -0.49774527009E+02 -0.48538209770E+02 -0.24609971665E+03  0.25573452012E+03  0.12700000000E+01 0.  1.
<mgrwt>
<rscale>  1 0.14303114E+03</rscale>
<asrwt>0</asrwt>
<pdfrwt beam="2">  1       21 0.66565789E-01 0.14303114E+03</pdfrwt>
<pdfrwt beam="1">  1        4 0.50699979E-02 0.14303114E+03</pdfrwt>
<totfact> 0.19927565E+04</totfact>
</mgrwt>
</event>
<event>
 6    4  0.3995738E-003  0.1267778E+03  0.7818608E-02  0.1232317E+00
          4   -1    0    0  502    0 -0.00000000000E+00  0.00000000000E+00  0.12197401692E+03  0.12198062839E+03  0.12700000000E+01 0. -1.
         21   -1    0    0  501  502  0.00000000000E+00 -0.00000000000E+00 -0.45134315426E+02  0.45134315426E+02  0.00000000000E+00 0. -1.
         25    2    1    2    0    0 -0.18265896553E+01 -0.21289132410E+02  0.62465688073E+02  0.14133144618E+03  0.12496420249E+03 0.  0.
    9000005    1    3    3    0    0 -0.38784348519E+01 -0.81893922090E+01  0.10056551912E+03  0.10097787895E+03  0.10000000000E+01 0.  0.
    9000005    1    3    3    0    0  0.20518451965E+01 -0.13099740201E+02 -0.38099831050E+02  0.40353567228E+02  0.10000000000E+01 0.  0.
          4    1    1    2  501    0  0.18265896553E+01  0.21289132410E+02  0.14374013418E+02  0.25783497635E+02  0.12700000000E+01 0.  1.
<mgrwt>
<rscale>  1 0.12677782E+03</rscale>
<asrwt>0</asrwt>
<pdfrwt beam="2">  1       21 0.69437409E-02 0.12677782E+03</pdfrwt>
<pdfrwt beam="1">  1        4 0.18767116E-01 0.12677782E+03</pdfrwt>
<totfact> 0.15409243E+05</totfact>
</mgrwt>
</event>
<event>
 6    4  0.3995738E-003  0.1276219E+03  0.7818608E-02  0.1231028E+00
         21   -1    0    0  501  502  0.00000000000E+00  0.00000000000E+00  0.12852219706E+03  0.12852219706E+03  0.00000000000E+00 0.  1.
          4   -1    0    0  502    0 -0.00000000000E+00 -0.00000000000E+00 -0.86507470512E+02  0.86516792326E+02  0.12700000000E+01 0. -1.
         25    2    1    2    0    0 -0.21454889370E+02  0.13868743824E+02 -0.36274616967E+02  0.13267705315E+03  0.12503878703E+03 0.  0.
    9000005    1    3    3    0    0 -0.61921779290E+02 -0.75861034169E+01  0.14740274018E+02  0.64110306454E+02  0.10000000000E+01 0.  0.
    9000005    1    3    3    0    0  0.40466889921E+02  0.21454847241E+02 -0.51014890984E+02  0.68566746693E+02  0.10000000000E+01 0.  0.
          4    1    1    2  501    0  0.21454889370E+02 -0.13868743824E+02  0.78289343512E+02  0.82361936236E+02  0.12700000000E+01 0.  1.
<mgrwt>
<rscale>  1 0.12762191E+03</rscale>
<asrwt>0</asrwt>
<pdfrwt beam="1">  1       21 0.19772646E-01 0.12762191E+03</pdfrwt>
<pdfrwt beam="2">  1        4 0.13310041E-01 0.12762191E+03</pdfrwt>
<totfact> 0.44137317E+04</totfact>
</mgrwt>
</event>
<event>
 6    4  0.3995738E-003  0.1285627E+03  0.7818608E-02  0.1229604E+00
         21   -1    0    0  501  502  0.00000000000E+00  0.00000000000E+00  0.18371661642E+03  0.18371661642E+03  0.00000000000E+00 0. -1.
          4   -1    0    0  502    0 -0.00000000000E+00 -0.00000000000E+00 -0.36496196277E+02  0.36518286415E+02  0.12700000000E+01 0.  1.
         25    2    1    2    0    0 -0.16219268310E+02 -0.25263715278E+02  0.94519023610E+02  0.15956884914E+03  0.12500820700E+03 0.  0.
    9000005    1    3    3    0    0  0.15190239397E+02 -0.23744906530E+02 -0.23944433276E+02  0.36998646515E+02  0.10000000000E+01 0.  0.
    9000005    1    3    3    0    0 -0.31409507707E+02 -0.15188087485E+01  0.11846345689E+03  0.12257020263E+03  0.10000000000E+01 0.  0.
          4    1    1    2  501    0  0.16219268310E+02  0.25263715278E+02  0.52701396532E+02  0.60666053692E+02  0.12700000000E+01 0. -1.
<mgrwt>
<rscale>  1 0.12856272E+03</rscale>
<asrwt>0</asrwt>
<pdfrwt beam="1">  1       21 0.28264094E-01 0.12856272E+03</pdfrwt>
<pdfrwt beam="2">  1        4 0.56168364E-02 0.12856272E+03</pdfrwt>
<totfact> 0.95035389E+04</totfact>
</mgrwt>
</event>
<event>
 6    4  0.3995738E-003  0.1301331E+03  0.7818608E-02  0.1227258E+00
         21   -1    0    0  501  502  0.00000000000E+00  0.00000000000E+00  0.96449980098E+02  0.96449980098E+02  0.00000000000E+00 0.  1.
         -4   -1    0    0    0  501 -0.00000000000E+00 -0.00000000000E+00 -0.77833646169E+02  0.77844006680E+02  0.12700000000E+01 0.  1.
         25    2    1    2    0    0 -0.23507842463E+02  0.27493487425E+02 -0.64069820232E+01  0.13029069430E+03  0.12500442030E+03 0.  0.
    9000005    1    3    3    0    0 -0.69867714874E+02 -0.87338700587E+01  0.40045044028E+01  0.70532362242E+02  0.10000000000E+01 0.  0.
    9000005    1    3    3    0    0  0.46359872412E+02  0.36227357483E+02 -0.10411486426E+02  0.59758332054E+02  0.10000000000E+01 0.  0.
         -4    1    1    2    0  502  0.23507842463E+02 -0.27493487425E+02  0.25023315952E+02  0.44003292482E+02  0.12700000000E+01 0. -1.
<mgrwt>
<rscale>  1 0.13013307E+03</rscale>
<asrwt>0</asrwt>
<pdfrwt beam="1">  1       21 0.14838458E-01 0.13013307E+03</pdfrwt>
<pdfrwt beam="2">  1       -4 0.11975847E-01 0.13013307E+03</pdfrwt>
<totfact> 0.89519273E+04</totfact>
</mgrwt>
</event>
<event>
 6    4  0.3995738E-003  0.1342128E+03  0.7818608E-02  0.1221335E+00
          4   -1    0    0  502    0 -0.00000000000E+00  0.00000000000E+00  0.24174797555E+03  0.24175131144E+03  0.12700000000E+01 0.  1.
         21   -1    0    0  501  502  0.00000000000E+00 -0.00000000000E+00 -0.36155069244E+02  0.36155069244E+02  0.00000000000E+00 0.  1.
         25    2    1    2    0    0 -0.24983103643E+02 -0.41999468859E+02  0.17381240232E+03  0.21959922687E+03  0.12499983356E+03 0.  0.
    9000005    1    3    3    0    0 -0.61044324002E+02 -0.28834840169E+02  0.35960767956E+02  0.76498590395E+02  0.10000000000E+01 0.  0.
    9000005    1    3    3    0    0  0.36061220359E+02 -0.13164628690E+02  0.13785163437E+03  0.14310063648E+03  0.10000000000E+01 0.  0.
          4    1    1    2  501    0  0.24983103643E+02  0.41999468859E+02  0.31780503982E+02  0.58307153810E+02  0.12700000000E+01 0. -1.
<mgrwt>
<rscale>  1 0.13421278E+03</rscale>
<asrwt>0</asrwt>
<pdfrwt beam="2">  1       21 0.55623185E-02 0.13421278E+03</pdfrwt>
<pdfrwt beam="1">  1        4 0.37193967E-01 0.13421278E+03</pdfrwt>
<totfact> 0.63462452E+04</totfact>
</mgrwt>
</event>
<event>
 6    4  0.3995738E-003  0.1288553E+03  0.7818608E-02  0.1229164E+00
         21   -1    0    0  501  502  0.00000000000E+00  0.00000000000E+00  0.26081247724E+02  0.26081247724E+02  0.00000000000E+00 0. -1.
          4   -1    0    0  502    0 -0.00000000000E+00 -0.00000000000E+00 -0.27314539828E+03  0.27314835072E+03  0.12700000000E+01 0.  1.
         25    2    1    2    0    0 -0.31212465296E+02  0.18251235459E+01 -0.22987800411E+03  0.26352909991E+03  0.12500456256E+03 0.  0.
    9000005    1    3    3    0    0  0.44691974888E+02  0.22095202186E+02 -0.79066084789E+02  0.93477357381E+02  0.10000000000E+01 0.  0.
    9000005    1    3    3    0    0 -0.75904440184E+02 -0.20270078640E+02 -0.15081191933E+03  0.17005174253E+03  0.10000000000E+01 0.  0.
          4    1    1    2  501    0  0.31212465296E+02 -0.18251235459E+01 -0.17186146440E+02  0.35700498530E+02  0.12700000000E+01 0. -1.
<mgrwt>
<rscale>  1 0.12885531E+03</rscale>
<asrwt>0</asrwt>
<pdfrwt beam="1">  1       21 0.40124998E-02 0.12885531E+03</pdfrwt>
<pdfrwt beam="2">  1        4 0.42024974E-01 0.12885531E+03</pdfrwt>
<totfact> 0.85828690E+04</totfact>
</mgrwt>
</event>
<event>
 6    4  0.3995738E-003  0.1478567E+03  0.7818608E-02  0.1203132E+00
         -4   -1    0    0    0  501 -0.00000000000E+00  0.00000000000E+00  0.25887679624E+03  0.25887991141E+03  0.12700000000E+01 0.  1.
         21   -1    0    0  501  502  0.00000000000E+00 -0.00000000000E+00 -0.49696300409E+02  0.49696300409E+02  0.00000000000E+00 0.  1.
         25    2    1    2    0    0  0.10087308340E+02 -0.78332944124E+02  0.13514798703E+03  0.20031620451E+03  0.12499519776E+03 0.  0.
    9000005    1    3    3    0    0 -0.47904469993E+02  0.14796410513E+01  0.56832762779E+02  0.74350457349E+02  0.10000000000E+01 0.  0.
    9000005    1    3    3    0    0  0.57991778333E+02 -0.79812585176E+02  0.78315224255E+02  0.12596574716E+03  0.10000000000E+01 0.  0.
         -4    1    1    2    0  502 -0.10087308340E+02  0.78332944124E+02  0.74032508801E+02  0.10826000732E+03  0.12700000000E+01 0. -1.
<mgrwt>
<rscale>  1 0.14785670E+03</rscale>
<asrwt>0</asrwt>
<pdfrwt beam="2">  1       21 0.76455848E-02 0.14785670E+03</pdfrwt>
<pdfrwt beam="1">  1       -4 0.39828686E-01 0.14785670E+03</pdfrwt>
<totfact> 0.32616291E+04</totfact>
</mgrwt>
</event>
<event>
 6    4  0.3995738E-003  0.1445333E+03  0.7818608E-02  0.1207356E+00
         -4   -1    0    0    0  501 -0.00000000000E+00  0.00000000000E+00  0.16004516725E+03  0.16005020607E+03  0.12700000000E+01 0. -1.
         21   -1    0    0  501  502  0.00000000000E+00 -0.00000000000E+00 -0.93730416534E+02  0.93730416534E+02  0.00000000000E+00 0.  1.
         25    2    1    2    0    0 -0.71844619744E+02  0.10158126758E+02  0.97968554014E+02  0.17460731215E+03  0.12500015582E+03 0.  0.
    9000005    1    3    3    0    0  0.43738934863E+01  0.55116265129E+02  0.46372166872E+02  0.72168632288E+02  0.10000000000E+01 0.  0.
    9000005    1    3    3    0    0 -0.76218513230E+02 -0.44958138371E+02  0.51596387142E+02  0.10243867986E+03  0.10000000000E+01 0.  0.
         -4    1    1    2    0  502  0.71844619744E+02 -0.10158126758E+02 -0.31653803293E+02  0.79173310454E+02  0.12700000000E+01 0.  1.
<mgrwt>
<rscale>  1 0.14453330E+03</rscale>
<asrwt>0</asrwt>
<pdfrwt beam="2">  1       21 0.14420064E-01 0.14453330E+03</pdfrwt>
<pdfrwt beam="1">  1       -4 0.24623383E-01 0.14453330E+03</pdfrwt>
<totfact> 0.26595040E+04</totfact>
</mgrwt>
</event>
<event>
 6    4  0.3995738E-003  0.1290466E+03  0.7818608E-02  0.1228877E+00
         21   -1    0    0  501  502  0.00000000000E+00  0.00000000000E+00  0.13419881158E+02  0.13419881158E+02  0.00000000000E+00 0. -1.
         -4   -1    0    0    0  501 -0.00000000000E+00 -0.00000000000E+00 -0.93249319720E+03  0.93249406203E+03  0.12700000000E+01 0. -1.
         25    2    1    2    0    0  0.78056211484E+01  0.31097492723E+02 -0.89867217742E+03  0.90789025146E+03  0.12500017786E+03 0.  0.
    9000005    1    3    3    0    0  0.23587642463E+02 -0.23479519451E+02 -0.71160584728E+03  0.71238440929E+03  0.10000000000E+01 0.  0.
    9000005    1    3    3    0    0 -0.15782021315E+02  0.54577012174E+02 -0.18706633013E+03  0.19550584217E+03  0.10000000000E+01 0.  0.
         -4    1    1    2    0  502 -0.78056211484E+01 -0.31097492723E+02 -0.20401138622E+02  0.38023691723E+02  0.12700000000E+01 0.  1.
<mgrwt>
<rscale>  1 0.12904660E+03</rscale>
<asrwt>0</asrwt>
<pdfrwt beam="1">  1       21 0.20645970E-02 0.12904660E+03</pdfrwt>
<pdfrwt beam="2">  1       -4 0.14346519E+00 0.12904660E+03</pdfrwt>
<totfact> 0.16874394E+04</totfact>
</mgrwt>
</event>
<event>
 6    4  0.3995738E-003  0.1291666E+03  0.7818608E-02  0.1228698E+00
         21   -1    0    0  501  502  0.00000000000E+00  0.00000000000E+00  0.53847855006E+03  0.53847855006E+03  0.00000000000E+00 0.  1.
          4   -1    0    0  502    0 -0.00000000000E+00 -0.00000000000E+00 -0.40110063730E+02  0.40130164620E+02  0.12700000000E+01 0. -1.
         25    2    1    2    0    0 -0.33272098806E+01 -0.32491225403E+02  0.66083560737E+02  0.14508983406E+03  0.12496908776E+03 0.  0.
    9000005    1    3    3    0    0 -0.53014543802E+02 -0.49551008481E+02  0.55809657926E+02  0.91550872272E+02  0.10000000000E+01 0.  0.
    9000005    1    3    3    0    0  0.49687333922E+02  0.17059783077E+02  0.10273902811E+02  0.53538961793E+02  0.10000000000E+01 0.  0.
          4    1    1    2  501    0  0.33272098806E+01  0.32491225403E+02  0.43228492559E+03  0.43351888061E+03  0.12700000000E+01 0.  1.
<mgrwt>
<rscale>  1 0.12916665E+03</rscale>
<asrwt>0</asrwt>
<pdfrwt beam="1">  1       21 0.82842849E-01 0.12916665E+03</pdfrwt>
<pdfrwt beam="2">  1        4 0.61724408E-02 0.12916665E+03</pdfrwt>
<totfact> 0.88768685E+03</totfact>
</mgrwt>
</event>
<event>
 6    4  0.3995738E-003  0.1276483E+03  0.7818608E-02  0.1230988E+00
         -4   -1    0    0    0  501 -0.00000000000E+00  0.00000000000E+00  0.77526520345E+02  0.77536921894E+02  0.12700000000E+01 0. -1.
         21   -1    0    0  501  502  0.00000000000E+00 -0.00000000000E+00 -0.79144809622E+02  0.79144809622E+02  0.00000000000E+00 0. -1.
         25    2    1    2    0    0  0.24243252669E+02  0.90111882201E+01  0.10523806696E+02  0.12808137824E+03  0.12500060852E+03 0.  0.
    9000005    1    3    3    0    0  0.45005923217E+02  0.58587111611E+02  0.54810607581E+01  0.74087953127E+02  0.10000000000E+01 0.  0.
    9000005    1    3    3    0    0 -0.20762670548E+02 -0.49575923391E+02  0.50427459383E+01  0.53993425108E+02  0.10000000000E+01 0.  0.
         -4    1    1    2    0  502 -0.24243252669E+02 -0.90111882201E+01 -0.12142095974E+02  0.28600353281E+02  0.12700000000E+01 0.  1.
<mgrwt>
<rscale>  1 0.12764830E+03</rscale>
<asrwt>0</asrwt>
<pdfrwt beam="2">  1       21 0.12176125E-01 0.12764830E+03</pdfrwt>
<pdfrwt beam="1">  1       -4 0.11928741E-01 0.12764830E+03</pdfrwt>
<totfact> 0.12797680E+05</totfact>
</mgrwt>
</event>
<event>
 6    4  0.3995738E-003  0.1457443E+03  0.7818608E-02  0.1205802E+00
          4   -1    0    0  502    0 -0.00000000000E+00  0.00000000000E+00  0.37488593810E+03  0.37488808929E+03  0.12700000000E+01 0. -1.
         21   -1    0    0  501  502  0.00000000000E+00 -0.00000000000E+00 -0.17218013031E+03  0.17218013031E+03  0.00000000000E+00 0.  1.
         25    2    1    2    0    0  0.62289876701E+02  0.41669358203E+02  0.35146929254E+03  0.38048925500E+03  0.12500018169E+03 0.  0.
    9000005    1    3    3    0    0  0.58086418718E+02 -0.31114219000E+02  0.10978510453E+03  0.12804645969E+03  0.10000000000E+01 0.  0.
    9000005    1    3    3    0    0  0.42034579831E+01  0.72783577203E+02  0.24168418801E+03  0.25244279531E+03  0.10000000000E+01 0.  0.
          4    1    1    2  501    0 -0.62289876701E+02 -0.41669358203E+02 -0.14876348474E+03  0.16657896459E+03  0.12700000000E+01 0.  1.
<mgrwt>
<rscale>  1 0.14574433E+03</rscale>
<asrwt>0</asrwt>
<pdfrwt beam="2">  1       21 0.26489251E-01 0.14574433E+03</pdfrwt>
<pdfrwt beam="1">  1        4 0.57675285E-01 0.14574433E+03</pdfrwt>
<totfact> 0.16303072E+03</totfact>
</mgrwt>
</event>
<event>
 6    4  0.3995738E-003  0.1270353E+03  0.7818608E-02  0.1231922E+00
         21   -1    0    0  501  502  0.00000000000E+00  0.00000000000E+00  0.58793718172E+02  0.58793718172E+02  0.00000000000E+00 0. -1.
          4   -1    0    0  502    0 -0.00000000000E+00 -0.00000000000E+00 -0.11042407153E+03  0.11043137450E+03  0.12700000000E+01 0. -1.
         25    2    1    2    0    0 -0.22641699102E+02 -0.62420563689E+00 -0.65200467633E+02  0.14279032253E+03  0.12499975623E+03 0.  0.
    9000005    1    3    3    0    0 -0.37472810295E+02  0.21141283939E+02 -0.94222558990E+02  0.10358598371E+03  0.10000000000E+01 0.  0.
    9000005    1    3    3    0    0  0.14831111193E+02 -0.21765489576E+02  0.29022091357E+02  0.39204338821E+02  0.10000000000E+01 0.  0.
          4    1    1    2  501    0  0.22641699102E+02  0.62420563689E+00  0.13570114275E+02  0.26434770140E+02  0.12700000000E+01 0.  1.
<mgrwt>
<rscale>  1 0.12703533E+03</rscale>
<asrwt>0</asrwt>
<pdfrwt beam="1">  1       21 0.90451875E-02 0.12703533E+03</pdfrwt>
<pdfrwt beam="2">  1        4 0.16989935E-01 0.12703533E+03</pdfrwt>
<totfact> 0.11662182E+05</totfact>
</mgrwt>
</event>
<event>
 6    4  0.3995738E-003  0.1656274E+03  0.7818608E-02  0.1182486E+00
          4   -1    0    0  502    0 -0.00000000000E+00  0.00000000000E+00  0.11282185207E+03  0.11282899984E+03  0.12700000000E+01 0.  1.
         21   -1    0    0  501  502  0.00000000000E+00 -0.00000000000E+00 -0.20608166374E+03  0.20608166374E+03  0.00000000000E+00 0. -1.
         25    2    1    2    0    0  0.77978601983E+02  0.75676501043E+02  0.14004809563E+02  0.16621846651E+03  0.12499939496E+03 0.  0.
    9000005    1    3    3    0    0  0.82847279550E+02  0.37925680316E+02 -0.40512121867E+02  0.99720915431E+02  0.10000000000E+01 0.  0.
    9000005    1    3    3    0    0 -0.48686775669E+01  0.37750820727E+02  0.54516931430E+02  0.66497551078E+02  0.10000000000E+01 0.  0.
          4    1    1    2  501    0 -0.77978601983E+02 -0.75676501043E+02 -0.10726462123E+03  0.15269219707E+03  0.12700000000E+01 0. -1.
<mgrwt>
<rscale>  1 0.16562743E+03</rscale>
<asrwt>0</asrwt>
<pdfrwt beam="2">  1       21 0.31704871E-01 0.16562743E+03</pdfrwt>
<pdfrwt beam="1">  1        4 0.17358059E-01 0.16562743E+03</pdfrwt>
<totfact> 0.11596846E+04</totfact>
</mgrwt>
</event>
<event>
 6    4  0.3995738E-003  0.1408391E+03  0.7818608E-02  0.1212204E+00
         21   -1    0    0  501  502  0.00000000000E+00  0.00000000000E+00  0.19427007193E+02  0.19427007193E+02  0.00000000000E+00 0.  1.
         -4   -1    0    0    0  501 -0.00000000000E+00 -0.00000000000E+00 -0.56070612698E+03  0.56070756525E+03  0.12700000000E+01 0. -1.
         25    2    1    2    0    0 -0.51796125844E+02  0.39086326366E+02 -0.41333082624E+03  0.43666695142E+03  0.12500029993E+03 0.  0.
    9000005    1    3    3    0    0 -0.40986083639E+00  0.76895810431E+02 -0.21651202721E+03  0.22976420865E+03  0.10000000000E+01 0.  0.
    9000005    1    3    3    0    0 -0.51386265008E+02 -0.37809484065E+02 -0.19681879903E+03  0.20690274277E+03  0.10000000000E+01 0.  0.
         -4    1    1    2    0  502  0.51796125844E+02 -0.39086326366E+02 -0.12794829355E+03  0.14346762103E+03  0.12700000000E+01 0.  1.
<mgrwt>
<rscale>  1 0.14083911E+03</rscale>
<asrwt>0</asrwt>
<pdfrwt beam="1">  1       21 0.29887700E-02 0.14083911E+03</pdfrwt>
<pdfrwt beam="2">  1       -4 0.86265794E-01 0.14083911E+03</pdfrwt>
<totfact> 0.31089902E+04</totfact>
</mgrwt>
</event>
<event>
 6    4  0.3995738E-003  0.1289518E+03  0.7818608E-02  0.1229019E+00
          4   -1    0    0  502    0 -0.00000000000E+00  0.00000000000E+00  0.58541514832E+02  0.58555288905E+02  0.12700000000E+01 0. -1.
         21   -1    0    0  501  502  0.00000000000E+00 -0.00000000000E+00 -0.18745805860E+03  0.18745805860E+03  0.00000000000E+00 0.  1.
         25    2    1    2    0    0  0.45759315137E+01 -0.31347648932E+02 -0.17452124451E+02  0.13012743845E+03  0.12499983739E+03 0.  0.
    9000005    1    3    3    0    0 -0.42712857134E+01  0.48054439227E+02 -0.13603429727E+02  0.50135080646E+02  0.10000000000E+01 0.  0.
    9000005    1    3    3    0    0  0.88472172272E+01 -0.79402088159E+02 -0.38486947244E+01  0.79992357809E+02  0.10000000000E+01 0.  0.
          4    1    1    2  501    0 -0.45759315137E+01  0.31347648932E+02 -0.11146441932E+03  0.11588590905E+03  0.12700000000E+01 0.  1.
<mgrwt>
<rscale>  1 0.12895183E+03</rscale>
<asrwt>0</asrwt>
<pdfrwt beam="2">  1       21 0.28839702E-01 0.12895183E+03</pdfrwt>
<pdfrwt beam="1">  1        4 0.90077772E-02 0.12895183E+03</pdfrwt>
<totfact> 0.42115637E+04</totfact>
</mgrwt>
</event>
<event>
 6    4  0.3995738E-003  0.1457968E+03  0.7818608E-02  0.1205735E+00
          4   -1    0    0  502    0 -0.00000000000E+00  0.00000000000E+00  0.45480864880E+02  0.45498593058E+02  0.12700000000E+01 0.  1.
         21   -1    0    0  501  502  0.00000000000E+00 -0.00000000000E+00 -0.11136372743E+04  0.11136372743E+04  0.00000000000E+00 0. -1.
         25    2    1    2    0    0  0.41219241944E+02 -0.62706792423E+02 -0.76508563239E+02  0.16465196530E+03  0.12500216680E+03 0.  0.
    9000005    1    3    3    0    0  0.56688023424E+02 -0.68292280793E+02 -0.24619317153E+01  0.88794305692E+02  0.10000000000E+01 0.  0.
    9000005    1    3    3    0    0 -0.15468781480E+02  0.55854883698E+01 -0.74046631524E+02  0.75857659606E+02  0.10000000000E+01 0.  0.
          4    1    1    2  501    0 -0.41219241944E+02  0.62706792423E+02 -0.99164784619E+03  0.99448390207E+03  0.12700000000E+01 0. -1.
<mgrwt>
<rscale>  1 0.14579681E+03</rscale>
<asrwt>0</asrwt>
<pdfrwt beam="2">  1       21 0.17132881E+00 0.14579681E+03</pdfrwt>
<pdfrwt beam="1">  1        4 0.69984755E-02 0.14579681E+03</pdfrwt>
<totfact> 0.12182636E+03</totfact>
</mgrwt>
</event>
<event>
 6    4  0.3995738E-003  0.1283941E+03  0.7818608E-02  0.1229858E+00
         -4   -1    0    0    0  501 -0.00000000000E+00  0.00000000000E+00  0.38308938172E+03  0.38309148683E+03  0.12700000000E+01 0. -1.
         21   -1    0    0  501  502  0.00000000000E+00 -0.00000000000E+00 -0.20168588772E+02  0.20168588772E+02  0.00000000000E+00 0.  1.
         25    2    1    2    0    0  0.25475266505E+02  0.14187845248E+02  0.34704577680E+03  0.37003488646E+03  0.12503904128E+03 0.  0.
    9000005    1    3    3    0    0 -0.37366478431E+02  0.29137155839E+01  0.25657681982E+03  0.25930176999E+03  0.10000000000E+01 0.  0.
    9000005    1    3    3    0    0  0.62841744936E+02  0.11274129664E+02  0.90468956981E+02  0.11073311647E+03  0.10000000000E+01 0.  0.
         -4    1    1    2    0  502 -0.25475266505E+02 -0.14187845248E+02  0.15875016141E+02  0.33225189146E+02  0.12700000000E+01 0.  1.
<mgrwt>
<rscale>  1 0.12839410E+03</rscale>
<asrwt>0</asrwt>
<pdfrwt beam="2">  1       21 0.31028601E-02 0.12839410E+03</pdfrwt>
<pdfrwt beam="1">  1       -4 0.58940060E-01 0.12839410E+03</pdfrwt>
<totfact> 0.65920439E+04</totfact>
</mgrwt>
</event>
<event>
 6    4  0.3995738E-003  0.1364251E+03  0.7818608E-02  0.1218222E+00
          4   -1    0    0  502    0 -0.00000000000E+00  0.00000000000E+00  0.13075331602E+03  0.13075948359E+03  0.12700000000E+01 0. -1.
         21   -1    0    0  501  502  0.00000000000E+00 -0.00000000000E+00 -0.83876814112E+02  0.83876814112E+02  0.00000000000E+00 0.  1.
         25    2    1    2    0    0  0.18537104721E+02 -0.51420147414E+02  0.72233657848E+02  0.15436811315E+03  0.12499662884E+03 0.  0.
    9000005    1    3    3    0    0  0.23137380118E+02 -0.59898376980E+02  0.10340447720E+03  0.12172362067E+03  0.10000000000E+01 0.  0.
    9000005    1    3    3    0    0 -0.46002753964E+01  0.84782295657E+01 -0.31170819353E+02  0.32644492482E+02  0.10000000000E+01 0.  0.
          4    1    1    2  501    0 -0.18537104721E+02  0.51420147414E+02 -0.25357155946E+02  0.60268184552E+02  0.12700000000E+01 0.  1.
<mgrwt>
<rscale>  1 0.13642512E+03</rscale>
<asrwt>0</asrwt>
<pdfrwt beam="2">  1       21 0.12904125E-01 0.13642512E+03</pdfrwt>
<pdfrwt beam="1">  1        4 0.20117109E-01 0.13642512E+03</pdfrwt>
<totfact> 0.46617141E+04</totfact>
</mgrwt>
</event>
<event>
 6    4  0.3995738E-003  0.1269505E+03  0.7818608E-02  0.1232052E+00
         21   -1    0    0  501  502  0.00000000000E+00  0.00000000000E+00  0.20559115730E+04  0.20559115730E+04  0.00000000000E+00 0. -1.
         -4   -1    0    0    0  501 -0.00000000000E+00 -0.00000000000E+00 -0.31581027918E+01  0.34038967733E+01  0.12700000000E+01 0. -1.
         25    2    1    2    0    0 -0.14315329570E+02 -0.16923185960E+02  0.12883336690E+04  0.12945733117E+04  0.12500037570E+03 0.  0.
    9000005    1    3    3    0    0 -0.96310513091E+01  0.49551115131E+01  0.12509280992E+04  0.12509753873E+04  0.10000000000E+01 0.  0.
    9000005    1    3    3    0    0 -0.46842782608E+01 -0.21878297473E+02  0.37405569776E+02  0.43597924416E+02  0.10000000000E+01 0.  0.
         -4    1    1    2    0  502  0.14315329570E+02  0.16923185960E+02  0.76441980129E+03  0.76474215811E+03  0.12700000000E+01 0.  1.
<mgrwt>
<rscale>  1 0.12695045E+03</rscale>
<asrwt>0</asrwt>
<pdfrwt beam="1">  1       21 0.31629306E+00 0.12695045E+03</pdfrwt>
<pdfrwt beam="2">  1       -4 0.50480101E-03 0.12695045E+03</pdfrwt>
<totfact> 0.97183979E+03</totfact>
</mgrwt>
</event>
<event>
 6    4  0.3995738E-003  0.1322465E+03  0.7818608E-02  0.1224160E+00
          4   -1    0    0  502    0 -0.00000000000E+00  0.00000000000E+00  0.11506076343E+03  0.11506777212E+03  0.12700000000E+01 0.  1.
         21   -1    0    0  501  502  0.00000000000E+00 -0.00000000000E+00 -0.75218684078E+02  0.75218684078E+02  0.00000000000E+00 0.  1.
         25    2    1    2    0    0  0.21612503901E+02 -0.37351928045E+02  0.56766253913E+02  0.14391504865E+03  0.12500746694E+03 0.  0.
    9000005    1    3    3    0    0 -0.60879899669E+01  0.43730631493E+02  0.32570344631E+02  0.54874940565E+02  0.10000000000E+01 0.  0.
    9000005    1    3    3    0    0  0.27700493868E+02 -0.81082559539E+02  0.24195909282E+02  0.89040108085E+02  0.10000000000E+01 0.  0.
          4    1    1    2  501    0 -0.21612503901E+02  0.37351928045E+02 -0.16924174561E+02  0.46371407550E+02  0.12700000000E+01 0. -1.
<mgrwt>
<rscale>  1 0.13224649E+03</rscale>
<asrwt>0</asrwt>
<pdfrwt beam="2">  1       21 0.11572105E-01 0.13224649E+03</pdfrwt>
<pdfrwt beam="1">  1        4 0.17703020E-01 0.13224649E+03</pdfrwt>
<totfact> 0.70817976E+04</totfact>
</mgrwt>
</event>
<event>
 6    4  0.3995738E-003  0.1269422E+03  0.7818608E-02  0.1232065E+00
         -4   -1    0    0    0  501 -0.00000000000E+00  0.00000000000E+00  0.37233786201E+02  0.37255438997E+02  0.12700000000E+01 0. -1.
         21   -1    0    0  501  502  0.00000000000E+00 -0.00000000000E+00 -0.31598930312E+03  0.31598930312E+03  0.00000000000E+00 0. -1.
         25    2    1    2    0    0  0.20590720137E+02 -0.80920245270E+01 -0.73274921326E+02  0.14657266688E+03  0.12499949586E+03 0.  0.
    9000005    1    3    3    0    0 -0.40987736968E+02 -0.36940687551E+02 -0.50629766031E+02  0.74893138450E+02  0.10000000000E+01 0.  0.
    9000005    1    3    3    0    0  0.61578457106E+02  0.28848663024E+02 -0.22645155294E+02  0.71679528431E+02  0.10000000000E+01 0.  0.
         -4    1    1    2    0  502 -0.20590720137E+02  0.80920245270E+01 -0.20548059559E+03  0.20667207523E+03  0.12700000000E+01 0.  1.
<mgrwt>
<rscale>  1 0.12694224E+03</rscale>
<asrwt>0</asrwt>
<pdfrwt beam="2">  1       21 0.48613737E-01 0.12694224E+03</pdfrwt>
<pdfrwt beam="1">  1       -4 0.57301369E-02 0.12694224E+03</pdfrwt>
<totfact> 0.31386293E+04</totfact>
</mgrwt>
</event>
<event>
 6    4  0.3995738E-003  0.1294911E+03  0.7818608E-02  0.1228213E+00
         21   -1    0    0  501  502  0.00000000000E+00  0.00000000000E+00  0.18129296344E+04  0.18129296344E+04  0.00000000000E+00 0.  1.
          4   -1    0    0  502    0 -0.00000000000E+00 -0.00000000000E+00 -0.77933623421E+01  0.78961634098E+01  0.12700000000E+01 0. -1.
         25    2    1    2    0    0 -0.30877154655E+02  0.13765358970E+02  0.54264342269E+03  0.55787976120E+03  0.12500023992E+03 0.  0.
    9000005    1    3    3    0    0  0.34564095294E+02  0.42974095188E+02  0.29324240486E+03  0.29838491508E+03  0.10000000000E+01 0.  0.
    9000005    1    3    3    0    0 -0.65441249948E+02 -0.29208736218E+02  0.24940101784E+03  0.25949484612E+03  0.10000000000E+01 0.  0.
          4    1    1    2  501    0  0.30877154655E+02 -0.13765358970E+02  0.12624928494E+04  0.12629460366E+04  0.12700000000E+01 0.  1.
<mgrwt>
<rscale>  1 0.12949110E+03</rscale>
<asrwt>0</asrwt>
<pdfrwt beam="1">  1       21 0.27891192E+00 0.12949110E+03</pdfrwt>
<pdfrwt beam="2">  1        4 0.12069223E-02 0.12949110E+03</pdfrwt>
<totfact> 0.42826237E+03</totfact>
</mgrwt>
</event>
<event>
 6    4  0.3995738E-003  0.1278887E+03  0.7818608E-02  0.1230623E+00
         21   -1    0    0  501  502  0.00000000000E+00  0.00000000000E+00  0.77439993367E+03  0.77439993367E+03  0.00000000000E+00 0. -1.
         -4   -1    0    0    0  501 -0.00000000000E+00 -0.00000000000E+00 -0.22157441597E+02  0.22193808103E+02  0.12700000000E+01 0.  1.
         25    2    1    2    0    0 -0.27025777685E+02  0.10016130802E+00  0.16514956865E+03  0.20887772504E+03  0.12500048520E+03 0.  0.
    9000005    1    3    3    0    0 -0.24454253724E+02  0.60756619185E+02  0.10242580897E+03  0.12157887828E+03  0.10000000000E+01 0.  0.
    9000005    1    3    3    0    0 -0.25715239604E+01 -0.60656457877E+02  0.62723759678E+02  0.87298846761E+02  0.10000000000E+01 0.  0.
         -4    1    1    2    0  502  0.27025777685E+02 -0.10016130802E+00  0.58709292342E+03  0.58771601673E+03  0.12700000000E+01 0. -1.
<mgrwt>
<rscale>  1 0.12788872E+03</rscale>
<asrwt>0</asrwt>
<pdfrwt beam="1">  1       21 0.11913843E+00 0.12788872E+03</pdfrwt>
<pdfrwt beam="2">  1       -4 0.34117153E-02 0.12788872E+03</pdfrwt>
<totfact> 0.97916208E+03</totfact>
</mgrwt>
</event>
<event>
 6    4  0.3995738E-003  0.1293757E+03  0.7818608E-02  0.1228385E+00
         21   -1    0    0  501  502  0.00000000000E+00  0.00000000000E+00  0.26439494534E+02  0.26439494534E+02  0.00000000000E+00 0. -1.
         -4   -1    0    0    0  501 -0.00000000000E+00 -0.00000000000E+00 -0.32139659552E+03  0.32139910472E+03  0.12700000000E+01 0.  1.
         25    2    1    2    0    0 -0.12704504583E+02  0.30845448940E+02 -0.28501803056E+03  0.31300694443E+03  0.12500089342E+03 0.  0.
    9000005    1    3    3    0    0  0.17887169271E+02  0.65682168323E+02 -0.91732574320E+02  0.11423643574E+03  0.10000000000E+01 0.  0.
    9000005    1    3    3    0    0 -0.30591673854E+02 -0.34836719383E+02 -0.19328545624E+03  0.19877050868E+03  0.10000000000E+01 0.  0.
         -4    1    1    2    0  502  0.12704504583E+02 -0.30845448940E+02 -0.99390704252E+01  0.34831654826E+02  0.12700000000E+01 0. -1.
<mgrwt>
<rscale>  1 0.12937569E+03</rscale>
<asrwt>0</asrwt>
<pdfrwt beam="1">  1       21 0.40676147E-02 0.12937569E+03</pdfrwt>
<pdfrwt beam="2">  1       -4 0.49448168E-01 0.12937569E+03</pdfrwt>
<totfact> 0.60585129E+04</totfact>
</mgrwt>
</event>
<event>
 6    4  0.3995738E-003  0.1303341E+03  0.7818608E-02  0.1226961E+00
         21   -1    0    0  501  502  0.00000000000E+00  0.00000000000E+00  0.32946278567E+03  0.32946278567E+03  0.00000000000E+00 0. -1.
         -4   -1    0    0    0  501 -0.00000000000E+00 -0.00000000000E+00 -0.21371722955E+02  0.21409424141E+02  0.12700000000E+01 0.  1.
         25    2    1    2    0    0 -0.10320230334E+02  0.35433574647E+02  0.22669478662E+03  0.26149093645E+03  0.12499975278E+03 0.  0.
    9000005    1    3    3    0    0  0.52134751551E+02  0.39799739861E+02  0.92413098843E+02  0.11332798617E+03  0.10000000000E+01 0.  0.
    9000005    1    3    3    0    0 -0.62454981885E+02 -0.43661652138E+01  0.13428168778E+03  0.14816295028E+03  0.10000000000E+01 0.  0.
         -4    1    1    2    0  502  0.10320230334E+02 -0.35433574647E+02  0.81396276092E+02  0.89381273364E+02  0.12700000000E+01 0. -1.
<mgrwt>
<rscale>  1 0.13033412E+03</rscale>
<asrwt>0</asrwt>
<pdfrwt beam="1">  1       21 0.50686579E-01 0.13033412E+03</pdfrwt>
<pdfrwt beam="2">  1       -4 0.32910460E-02 0.13033412E+03</pdfrwt>
<totfact> 0.69904164E+04</totfact>
</mgrwt>
</event>
<event>
 6    4  0.3995738E-003  0.1289573E+03  0.7818608E-02  0.1229011E+00
          4   -1    0    0  502    0 -0.00000000000E+00  0.00000000000E+00  0.43727322502E+03  0.43727506929E+03  0.12700000000E+01 0. -1.
         21   -1    0    0  501  502  0.00000000000E+00 -0.00000000000E+00 -0.20772381484E+02  0.20772381484E+02  0.00000000000E+00 0.  1.
         25    2    1    2    0    0 -0.14416398217E+02 -0.28227286056E+02  0.40377626963E+03  0.42386938914E+03  0.12500148366E+03 0.  0.
    9000005    1    3    3    0    0  0.51884386240E+02  0.46880848015E-01  0.22909828291E+03  0.23490213912E+03  0.10000000000E+01 0.  0.
    9000005    1    3    3    0    0 -0.66300784457E+02 -0.28274166904E+02  0.17467798673E+03  0.18896725002E+03  0.10000000000E+01 0.  0.
          4    1    1    2  501    0  0.14416398217E+02  0.28227286056E+02  0.12724573902E+02  0.34178061627E+02  0.12700000000E+01 0.  1.
<mgrwt>
<rscale>  1 0.12895729E+03</rscale>
<asrwt>0</asrwt>
<pdfrwt beam="2">  1       21 0.31957513E-02 0.12895729E+03</pdfrwt>
<pdfrwt beam="1">  1        4 0.67275925E-01 0.12895729E+03</pdfrwt>
<totfact> 0.47501928E+04</totfact>
</mgrwt>
</event>
<event>
 6    4  0.3995738E-003  0.1268222E+03  0.7818608E-02  0.1232249E+00
         21   -1    0    0  501  502  0.00000000000E+00  0.00000000000E+00  0.11576626466E+03  0.11576626466E+03  0.00000000000E+00 0. -1.
          4   -1    0    0  502    0 -0.00000000000E+00 -0.00000000000E+00 -0.61073936470E+02  0.61087139530E+02  0.12700000000E+01 0. -1.
         25    2    1    2    0    0  0.16142841724E+02  0.14078082938E+02  0.99254795194E+01  0.12721000183E+03  0.12500034265E+03 0.  0.
    9000005    1    3    3    0    0  0.11956867141E+02 -0.17864177312E+02 -0.52618888476E+02  0.56849300148E+02  0.10000000000E+01 0.  0.
    9000005    1    3    3    0    0  0.41859745826E+01  0.31942260250E+02  0.62544367995E+02  0.70360701681E+02  0.10000000000E+01 0.  0.
          4    1    1    2  501    0 -0.16142841724E+02 -0.14078082938E+02  0.44766848671E+02  0.49643402362E+02  0.12700000000E+01 0.  1.
<mgrwt>
<rscale>  1 0.12682220E+03</rscale>
<asrwt>0</asrwt>
<pdfrwt beam="1">  1       21 0.17810194E-01 0.12682220E+03</pdfrwt>
<pdfrwt beam="2">  1        4 0.93975418E-02 0.12682220E+03</pdfrwt>
<totfact> 0.96513307E+04</totfact>
</mgrwt>
</event>
<event>
 6    4  0.3995738E-003  0.1294356E+03  0.7818608E-02  0.1228296E+00
         21   -1    0    0  501  502  0.00000000000E+00  0.00000000000E+00  0.24529082176E+03  0.24529082176E+03  0.00000000000E+00 0. -1.
         -4   -1    0    0    0  501 -0.00000000000E+00 -0.00000000000E+00 -0.28370597883E+02  0.28399009212E+02  0.12700000000E+01 0. -1.
         25    2    1    2    0    0  0.33431287544E+02  0.34587546839E+01  0.19313085087E+03  0.23249321535E+03  0.12499582255E+03 0.  0.
    9000005    1    3    3    0    0  0.53965359172E+02  0.15615549695E+02  0.19991786547E+03  0.20766381080E+03  0.10000000000E+01 0.  0.
    9000005    1    3    3    0    0 -0.20534071628E+02 -0.12156795011E+02 -0.67870146058E+01  0.24829404540E+02  0.10000000000E+01 0.  0.
         -4    1    1    2    0  502 -0.33431287544E+02 -0.34587546839E+01  0.23789373008E+02  0.41196615624E+02  0.12700000000E+01 0.  1.
<mgrwt>
<rscale>  1 0.12943558E+03</rscale>
<asrwt>0</asrwt>
<pdfrwt beam="1">  1       21 0.37737048E-01 0.12943558E+03</pdfrwt>
<pdfrwt beam="2">  1       -4 0.43671459E-02 0.12943558E+03</pdfrwt>
<totfact> 0.81115359E+04</totfact>
</mgrwt>
</event>
<event>
 6    4  0.3995738E-003  0.1492457E+03  0.7818608E-02  0.1201403E+00
          4   -1    0    0  502    0 -0.00000000000E+00  0.00000000000E+00  0.50057770915E+02  0.50073878709E+02  0.12700000000E+01 0.  1.
         21   -1    0    0  501  502  0.00000000000E+00 -0.00000000000E+00 -0.29751151253E+03  0.29751151253E+03  0.00000000000E+00 0. -1.
         25    2    1    2    0    0 -0.73064012162E+02  0.36198812205E+02 -0.10180752237E+03  0.18066284046E+03  0.12500234571E+03 0.  0.
    9000005    1    3    3    0    0 -0.43638085651E+02 -0.33531211548E+02 -0.87889849472E+02  0.10370270154E+03  0.10000000000E+01 0.  0.
    9000005    1    3    3    0    0 -0.29425926510E+02  0.69730023753E+02 -0.13917672901E+02  0.76960138920E+02  0.10000000000E+01 0.  0.
          4    1    1    2  501    0  0.73064012162E+02 -0.36198812205E+02 -0.14564621924E+03  0.16692255077E+03  0.12700000000E+01 0. -1.
<mgrwt>
<rscale>  1 0.14924574E+03</rscale>
<asrwt>0</asrwt>
<pdfrwt beam="2">  1       21 0.45771002E-01 0.14924574E+03</pdfrwt>
<pdfrwt beam="1">  1        4 0.77026431E-02 0.14924574E+03</pdfrwt>
<totfact> 0.22215346E+04</totfact>
</mgrwt>
</event>
<event>
 6    4  0.3995738E-003  0.1269839E+03  0.7818608E-02  0.1232001E+00
         21   -1    0    0  501  502  0.00000000000E+00  0.00000000000E+00  0.12776048840E+02  0.12776048840E+02  0.00000000000E+00 0.  1.
          4   -1    0    0  502    0 -0.00000000000E+00 -0.00000000000E+00 -0.44531544764E+03  0.44531725860E+03  0.12700000000E+01 0.  1.
         25    2    1    2    0    0 -0.13491197710E+02 -0.17779583937E+02 -0.34136368582E+03  0.36421706146E+03  0.12500710318E+03 0.  0.
    9000005    1    3    3    0    0 -0.11546247891E+02 -0.67981856400E+02 -0.13225042538E+03  0.14915100957E+03  0.10000000000E+01 0.  0.
    9000005    1    3    3    0    0 -0.19449498187E+01  0.50202272462E+02 -0.20911326043E+03  0.21506605190E+03  0.10000000000E+01 0.  0.
          4    1    1    2  501    0  0.13491197710E+02  0.17779583937E+02 -0.91175712983E+02  0.93876245976E+02  0.12700000000E+01 0. -1.
<mgrwt>
<rscale>  1 0.12698386E+03</rscale>
<asrwt>0</asrwt>
<pdfrwt beam="1">  1       21 0.19655465E-02 0.12698386E+03</pdfrwt>
<pdfrwt beam="2">  1        4 0.68515044E-01 0.12698386E+03</pdfrwt>
<totfact> 0.10054623E+05</totfact>
</mgrwt>
</event>
<event>
 6    4  0.3995738E-003  0.1281087E+03  0.7818608E-02  0.1230289E+00
          4   -1    0    0  502    0 -0.00000000000E+00  0.00000000000E+00  0.84231431602E+03  0.84231527344E+03  0.12700000000E+01 0. -1.
         21   -1    0    0  501  502  0.00000000000E+00 -0.00000000000E+00 -0.20161184192E+02  0.20161184192E+02  0.00000000000E+00 0.  1.
         25    2    1    2    0    0  0.10078368458E+02 -0.26191539799E+02  0.82439991454E+03  0.83429434982E+03  0.12499709108E+03 0.  0.
    9000005    1    3    3    0    0  0.29011943115E+02  0.22890848884E+02  0.67294803981E+03  0.67396272010E+03  0.10000000000E+01 0.  0.
    9000005    1    3    3    0    0 -0.18933574657E+02 -0.49082388683E+02  0.15145187474E+03  0.16033162972E+03  0.10000000000E+01 0.  0.
          4    1    1    2  501    0 -0.10078368458E+02  0.26191539799E+02 -0.22467827190E+01  0.28182107806E+02  0.12700000000E+01 0.  1.
<mgrwt>
<rscale>  1 0.12810872E+03</rscale>
<asrwt>0</asrwt>
<pdfrwt beam="2">  1       21 0.31017213E-02 0.12810872E+03</pdfrwt>
<pdfrwt beam="1">  1        4 0.12958994E+00 0.12810872E+03</pdfrwt>
<totfact> 0.11178813E+04</totfact>
</mgrwt>
</event>
<event>
 6    4  0.3995738E-003  0.1291410E+03  0.7818608E-02  0.1228736E+00
         21   -1    0    0  501  502  0.00000000000E+00  0.00000000000E+00  0.70423428581E+02  0.70423428581E+02  0.00000000000E+00 0. -1.
          4   -1    0    0  502    0 -0.00000000000E+00 -0.00000000000E+00 -0.53128057196E+03  0.53128208989E+03  0.12700000000E+01 0. -1.
         25    2    1    2    0    0 -0.17807509983E+02  0.27103475211E+02 -0.51915854451E+03  0.53497942123E+03  0.12500272408E+03 0.  0.
    9000005    1    3    3    0    0 -0.60541238085E+02  0.45258492986E+02 -0.22971256622E+03  0.24183142016E+03  0.10000000000E+01 0.  0.
    9000005    1    3    3    0    0  0.42733728102E+02 -0.18155017775E+02 -0.28944597828E+03  0.29314800107E+03  0.10000000000E+01 0.  0.
          4    1    1    2  501    0  0.17807509983E+02 -0.27103475211E+02  0.58301401126E+02  0.66726097245E+02  0.12700000000E+01 0.  1.
<mgrwt>
<rscale>  1 0.12914096E+03</rscale>
<asrwt>0</asrwt>
<pdfrwt beam="1">  1       21 0.10834373E-01 0.12914096E+03</pdfrwt>
<pdfrwt beam="2">  1        4 0.81736471E-01 0.12914096E+03</pdfrwt>
<totfact> 0.39179227E+03</totfact>
</mgrwt>
</event>
<event>
 6    4  0.3995738E-003  0.1645659E+03  0.7818608E-02  0.1183636E+00
         -4   -1    0    0    0  501 -0.00000000000E+00  0.00000000000E+00  0.26668226663E+03  0.26668529063E+03  0.12700000000E+01 0.  1.
         21   -1    0    0  501  502  0.00000000000E+00 -0.00000000000E+00 -0.10412262796E+03  0.10412262796E+03  0.00000000000E+00 0. -1.
         25    2    1    2    0    0  0.10624760690E+03  0.12938023251E+02  0.19854590677E+03  0.25788063752E+03  0.12500399873E+03 0.  0.
    9000005    1    3    3    0    0  0.93498360381E+02  0.59730900510E+02  0.10629545307E+03  0.15365365994E+03  0.10000000000E+01 0.  0.
    9000005    1    3    3    0    0  0.12749246516E+02 -0.46792877258E+02  0.92250453694E+02  0.10422697758E+03  0.10000000000E+01 0.  0.
         -4    1    1    2    0  502 -0.10624760690E+03 -0.12938023251E+02 -0.35986268089E+02  0.11292728106E+03  0.12700000000E+01 0. -1.
<mgrwt>
<rscale>  1 0.16456593E+03</rscale>
<asrwt>0</asrwt>
<pdfrwt beam="2">  1       21 0.16018866E-01 0.16456593E+03</pdfrwt>
<pdfrwt beam="1">  1       -4 0.41028869E-01 0.16456593E+03</pdfrwt>
<totfact> 0.83778016E+03</totfact>
</mgrwt>
</event>
<event>
 6    4  0.3995738E-003  0.1269392E+03  0.7818608E-02  0.1232069E+00
         21   -1    0    0  501  502  0.00000000000E+00  0.00000000000E+00  0.28998210451E+02  0.28998210451E+02  0.00000000000E+00 0.  1.
          4   -1    0    0  502    0 -0.00000000000E+00 -0.00000000000E+00 -0.34201522733E+03  0.34201758526E+03  0.12700000000E+01 0. -1.
         25    2    1    2    0    0  0.94023789697E+01  0.19996366299E+02 -0.32276614531E+03  0.34683072178E+03  0.12500122245E+03 0.  0.
    9000005    1    3    3    0    0 -0.21627512404E+02  0.66468715616E+02 -0.15594884846E+03  0.17090021294E+03  0.10000000000E+01 0.  0.
    9000005    1    3    3    0    0  0.31029891374E+02 -0.46472349317E+02 -0.16681729685E+03  0.17593050884E+03  0.10000000000E+01 0.  0.
          4    1    1    2  501    0 -0.94023789697E+01 -0.19996366299E+02  0.97491284379E+01  0.24185073925E+02  0.12700000000E+01 0.  1.
<mgrwt>
<rscale>  1 0.12693922E+03</rscale>
<asrwt>0</asrwt>
<pdfrwt beam="1">  1       21 0.44612633E-02 0.12693922E+03</pdfrwt>
<pdfrwt beam="2">  1        4 0.52620046E-01 0.12693922E+03</pdfrwt>
<totfact> 0.45635472E+04</totfact>
</mgrwt>
</event>
<event>
 6    4  0.3995738E-003  0.1266248E+03  0.7818608E-02  0.1232552E+00
          4   -1    0    0  502    0 -0.00000000000E+00  0.00000000000E+00  0.76277844555E+03  0.76277950281E+03  0.12700000000E+01 0.  1.
         21   -1    0    0  501  502  0.00000000000E+00 -0.00000000000E+00 -0.73208534413E+01  0.73208534413E+01  0.00000000000E+00 0.  1.
         25    2    1    2    0    0 -0.12853199091E+02 -0.15515004591E+02  0.69261947929E+03  0.70409913340E+03  0.12501170532E+03 0.  0.
    9000005    1    3    3    0    0 -0.47918568025E+01  0.52387136089E+02  0.40803172688E+03  0.41141009232E+03  0.10000000000E+01 0.  0.
    9000005    1    3    3    0    0 -0.80613422889E+01 -0.67902140680E+02  0.28458775240E+03  0.29268904108E+03  0.10000000000E+01 0.  0.
          4    1    1    2  501    0  0.12853199091E+02  0.15515004591E+02  0.62838112828E+02  0.66001222853E+02  0.12700000000E+01 0. -1.
<mgrwt>
<rscale>  1 0.12662483E+03</rscale>
<asrwt>0</asrwt>
<pdfrwt beam="2">  1       21 0.11262858E-02 0.12662483E+03</pdfrwt>
<pdfrwt beam="1">  1        4 0.11735902E+00 0.12662483E+03</pdfrwt>
<totfact> 0.72459927E+04</totfact>
</mgrwt>
</event>
<event>
 6    4  0.3995738E-003  0.1274955E+03  0.7818608E-02  0.1231220E+00
          4   -1    0    0  502    0 -0.00000000000E+00  0.00000000000E+00  0.82576068328E+02  0.82585833897E+02  0.12700000000E+01 0.  1.
         21   -1    0    0  501  502  0.00000000000E+00 -0.00000000000E+00 -0.86244212081E+02  0.86244212081E+02  0.00000000000E+00 0.  1.
         25    2    1    2    0    0  0.48278730240E+01  0.24644895195E+02  0.25812439460E+02  0.13008218276E+03  0.12499765208E+03 0.  0.
    9000005    1    3    3    0    0 -0.16091717932E+02  0.69800311733E+02  0.34567698852E+02  0.79542144225E+02  0.10000000000E+01 0.  0.
    9000005    1    3    3    0    0  0.20919590956E+02 -0.45155416538E+02 -0.87552593924E+01  0.50540038539E+02  0.10000000000E+01 0.  0.
          4    1    1    2  501    0 -0.48278730240E+01 -0.24644895195E+02 -0.29480583213E+02  0.38747863214E+02  0.12700000000E+01 0. -1.
<mgrwt>
<rscale>  1 0.12749546E+03</rscale>
<asrwt>0</asrwt>
<pdfrwt beam="2">  1       21 0.13268340E-01 0.12749546E+03</pdfrwt>
<pdfrwt beam="1">  1        4 0.12705481E-01 0.12749546E+03</pdfrwt>
<totfact> 0.98581396E+04</totfact>
</mgrwt>
</event>
<event>
 6    4  0.3995738E-003  0.1431295E+03  0.7818608E-02  0.1209179E+00
         -4   -1    0    0    0  501 -0.00000000000E+00  0.00000000000E+00  0.30005849316E+02  0.30032713717E+02  0.12700000000E+01 0. -1.
         21   -1    0    0  501  502  0.00000000000E+00 -0.00000000000E+00 -0.43022265049E+03  0.43022265049E+03  0.00000000000E+00 0. -1.
         25    2    1    2    0    0 -0.49616556298E+02 -0.48981909031E+02 -0.18425877824E+03  0.23331812478E+03  0.12500007968E+03 0.  0.
    9000005    1    3    3    0    0 -0.27273741903E+02  0.39171293293E+02 -0.37690104716E+02  0.60825909028E+02  0.10000000000E+01 0.  0.
    9000005    1    3    3    0    0 -0.22342814395E+02 -0.88153202323E+02 -0.14656867353E+03  0.17249221575E+03  0.10000000000E+01 0.  0.
         -4    1    1    2    0  502  0.49616556298E+02  0.48981909031E+02 -0.21595802293E+03  0.22693723942E+03  0.12700000000E+01 0.  1.
<mgrwt>
<rscale>  1 0.14312949E+03</rscale>
<asrwt>0</asrwt>
<pdfrwt beam="2">  1       21 0.66188097E-01 0.14312949E+03</pdfrwt>
<pdfrwt beam="1">  1       -4 0.46184954E-02 0.14312949E+03</pdfrwt>
<totfact> 0.23437437E+04</totfact>
</mgrwt>
</event>
<event>
 6    4  0.3995738E-003  0.1278196E+03  0.7818608E-02  0.1230727E+00
         -4   -1    0    0    0  501 -0.00000000000E+00  0.00000000000E+00  0.28006064056E+02  0.28034844817E+02  0.12700000000E+01 0.  1.
         21   -1    0    0  501  502  0.00000000000E+00 -0.00000000000E+00 -0.46856665617E+03  0.46856665617E+03  0.00000000000E+00 0. -1.
         25    2    1    2    0    0  0.26666313571E+02  0.16871136590E+01 -0.12127483729E+03  0.17619715525E+03  0.12499565084E+03 0.  0.
    9000005    1    3    3    0    0  0.74843975691E+02  0.10819652174E+02 -0.91936482668E+02  0.11904621966E+03  0.10000000000E+01 0.  0.
    9000005    1    3    3    0    0 -0.48177662120E+02 -0.91325385152E+01 -0.29338354622E+02  0.57150935592E+02  0.10000000000E+01 0.  0.
         -4    1    1    2    0  502 -0.26666313571E+02 -0.16871136590E+01 -0.31928575482E+03  0.32040434573E+03  0.12700000000E+01 0. -1.
<mgrwt>
<rscale>  1 0.12781960E+03</rscale>
<asrwt>0</asrwt>
<pdfrwt beam="2">  1       21 0.72087179E-01 0.12781960E+03</pdfrwt>
<pdfrwt beam="1">  1       -4 0.43109715E-02 0.12781960E+03</pdfrwt>
<totfact> 0.21516915E+04</totfact>
</mgrwt>
</event>
<event>
 6    4  0.3995738E-003  0.1270659E+03  0.7818608E-02  0.1231875E+00
         21   -1    0    0  501  502  0.00000000000E+00  0.00000000000E+00  0.73702105790E+02  0.73702105790E+02  0.00000000000E+00 0.  1.
          4   -1    0    0  502    0 -0.00000000000E+00 -0.00000000000E+00 -0.20999782422E+03  0.21000166446E+03  0.12700000000E+01 0. -1.
         25    2    1    2    0    0  0.17888806311E+02  0.14182456018E+02 -0.18814695875E+03  0.22703530042E+03  0.12499839240E+03 0.  0.
    9000005    1    3    3    0    0  0.63598479824E+02 -0.63285752246E+01 -0.15303431232E+03  0.16584727386E+03  0.10000000000E+01 0.  0.
    9000005    1    3    3    0    0 -0.45709673514E+02  0.20511031242E+02 -0.35112646434E+02  0.61188026565E+02  0.10000000000E+01 0.  0.
          4    1    1    2  501    0 -0.17888806311E+02 -0.14182456018E+02  0.51851240321E+02  0.56668469828E+02  0.12700000000E+01 0.  1.
<mgrwt>
<rscale>  1 0.12706593E+03</rscale>
<asrwt>0</asrwt>
<pdfrwt beam="1">  1       21 0.11338785E-01 0.12706593E+03</pdfrwt>
<pdfrwt beam="2">  1        4 0.32308495E-01 0.12706593E+03</pdfrwt>
<totfact> 0.24199447E+04</totfact>
</mgrwt>
</event>
<event>
 6    4  0.3995738E-003  0.1280567E+03  0.7818608E-02  0.1230368E+00
         -4   -1    0    0    0  501 -0.00000000000E+00  0.00000000000E+00  0.36377047090E+02  0.36399209538E+02  0.12700000000E+01 0. -1.
         21   -1    0    0  501  502  0.00000000000E+00 -0.00000000000E+00 -0.18524770754E+03  0.18524770754E+03  0.00000000000E+00 0.  1.
         25    2    1    2    0    0 -0.13510352206E+02 -0.24304053474E+02 -0.89978368303E+02  0.15650759250E+03  0.12500121246E+03 0.  0.
    9000005    1    3    3    0    0 -0.39434031663E+02 -0.38705017139E+02 -0.10833491562E+03  0.12161650853E+03  0.10000000000E+01 0.  0.
    9000005    1    3    3    0    0  0.25923679456E+02  0.14400963666E+02  0.18356547319E+02  0.34891083969E+02  0.10000000000E+01 0.  0.
         -4    1    1    2    0  502  0.13510352206E+02  0.24304053474E+02 -0.58892292144E+02  0.65139324574E+02  0.12700000000E+01 0.  1.
<mgrwt>
<rscale>  1 0.12805671E+03</rscale>
<asrwt>0</asrwt>
<pdfrwt beam="2">  1       21 0.28499647E-01 0.12805671E+03</pdfrwt>
<pdfrwt beam="1">  1       -4 0.55985086E-02 0.12805671E+03</pdfrwt>
<totfact> 0.93982161E+04</totfact>
</mgrwt>
</event>
<event>
 6    4  0.3995738E-003  0.1303528E+03  0.7818608E-02  0.1226933E+00
         -4   -1    0    0    0  501 -0.00000000000E+00  0.00000000000E+00  0.58324156685E+03  0.58324294956E+03  0.12700000000E+01 0.  1.
         21   -1    0    0  501  502  0.00000000000E+00 -0.00000000000E+00 -0.12010286129E+02  0.12010286129E+02  0.00000000000E+00 0.  1.
         25    2    1    2    0    0 -0.33683308405E+02  0.15219913304E+02  0.45140437160E+03  0.46984864216E+03  0.12500251524E+03 0.  0.
    9000005    1    3    3    0    0 -0.52194872322E+00  0.26707585580E+02  0.12443093928E+02  0.29485558236E+02  0.10000000000E+01 0.  0.
    9000005    1    3    3    0    0 -0.33161359681E+02 -0.11487672277E+02  0.43896127767E+03  0.44036308392E+03  0.10000000000E+01 0.  0.
         -4    1    1    2    0  502  0.33683308405E+02 -0.15219913304E+02  0.11982690913E+03  0.12540459352E+03  0.12700000000E+01 0. -1.
<mgrwt>
<rscale>  1 0.13035275E+03</rscale>
<asrwt>0</asrwt>
<pdfrwt beam="2">  1       21 0.18477368E-02 0.13035275E+03</pdfrwt>
<pdfrwt beam="1">  1       -4 0.89734721E-01 0.13035275E+03</pdfrwt>
<totfact> 0.61579888E+04</totfact>
</mgrwt>
</event>
<event>
 6    4  0.3995738E-003  0.1286028E+03  0.7818608E-02  0.1229544E+00
         -4   -1    0    0    0  501 -0.00000000000E+00  0.00000000000E+00  0.19548735812E+02  0.19589945683E+02  0.12700000000E+01 0.  1.
         21   -1    0    0  501  502  0.00000000000E+00 -0.00000000000E+00 -0.12265193038E+04  0.12265193038E+04  0.00000000000E+00 0. -1.
         25    2    1    2    0    0  0.21728828621E+02 -0.21011247906E+02 -0.19440732506E+03  0.23309417143E+03  0.12500028075E+03 0.  0.
    9000005    1    3    3    0    0  0.45725023817E+02 -0.62313943384E+02 -0.14529118922E+03  0.16457319043E+03  0.10000000000E+01 0.  0.
    9000005    1    3    3    0    0 -0.23996195197E+02  0.41302695478E+02 -0.49116135842E+02  0.68520981004E+02  0.10000000000E+01 0.  0.
         -4    1    1    2    0  502 -0.21728828621E+02  0.21011247906E+02 -0.10125632429E+04  0.10130150780E+04  0.12700000000E+01 0. -1.
<mgrwt>
<rscale>  1 0.12860282E+03</rscale>
<asrwt>0</asrwt>
<pdfrwt beam="2">  1       21 0.18869529E+00 0.12860282E+03</pdfrwt>
<pdfrwt beam="1">  1       -4 0.30107181E-02 0.12860282E+03</pdfrwt>
<totfact> 0.35992258E+03</totfact>
</mgrwt>
</event>
<event>
 6    4  0.3995738E-003  0.1271149E+03  0.7818608E-02  0.1231801E+00
         -4   -1    0    0    0  501 -0.00000000000E+00  0.00000000000E+00  0.79396585323E+02  0.79406741911E+02  0.12700000000E+01 0.  1.
         21   -1    0    0  501  502  0.00000000000E+00 -0.00000000000E+00 -0.98744575195E+02  0.98744575195E+02  0.00000000000E+00 0.  1.
         25    2    1    2    0    0  0.21752853760E+02  0.77761335081E+01  0.23676202218E+02  0.12930104685E+03  0.12499817305E+03 0.  0.
    9000005    1    3    3    0    0  0.44229645286E+02  0.13265933558E+02 -0.40278080949E+02  0.61282708167E+02  0.10000000000E+01 0.  0.
    9000005    1    3    3    0    0 -0.22476791526E+02 -0.54898000497E+01  0.63954283167E+02  0.68018338684E+02  0.10000000000E+01 0.  0.
         -4    1    1    2    0  502 -0.21752853760E+02 -0.77761335081E+01 -0.43024192090E+02  0.48850270255E+02  0.12700000000E+01 0. -1.
<mgrwt>
<rscale>  1 0.12711490E+03</rscale>
<asrwt>0</asrwt>
<pdfrwt beam="2">  1       21 0.15191473E-01 0.12711490E+03</pdfrwt>
<pdfrwt beam="1">  1       -4 0.12216269E-01 0.12711490E+03</pdfrwt>
<totfact> 0.82672149E+04</totfact>
</mgrwt>
</event>
<event>
 6    4  0.3995738E-003  0.1298835E+03  0.7818608E-02  0.1227629E+00
         21   -1    0    0  501  502  0.00000000000E+00  0.00000000000E+00  0.14905018509E+04  0.14905018509E+04  0.00000000000E+00 0.  1.
          4   -1    0    0  502    0 -0.00000000000E+00 -0.00000000000E+00 -0.45100807387E+01  0.46854805805E+01  0.12700000000E+01 0.  1.
         25    2    1    2    0    0  0.28306933962E+02  0.21049230613E+02  0.11244242281E+04  0.11319008702E+04  0.12500152987E+03 0.  0.
    9000005    1    3    3    0    0  0.69331576964E+02  0.55975362365E+00  0.39531984920E+03  0.40135515950E+03  0.10000000000E+01 0.  0.
    9000005    1    3    3    0    0 -0.41024643002E+02  0.20489476989E+02  0.72910437894E+03  0.73054571068E+03  0.10000000000E+01 0.  0.
          4    1    1    2  501    0 -0.28306933962E+02 -0.21049230613E+02  0.36156754197E+03  0.36328646125E+03  0.12700000000E+01 0. -1.
<mgrwt>
<rscale>  1 0.12988354E+03</rscale>
<asrwt>0</asrwt>
<pdfrwt beam="1">  1       21 0.22930759E+00 0.12988354E+03</pdfrwt>
<pdfrwt beam="2">  1        4 0.70739368E-03 0.12988354E+03</pdfrwt>
<totfact> 0.18383365E+04</totfact>
</mgrwt>
</event>
<event>
 6    4  0.3995738E-003  0.1281595E+03  0.7818608E-02  0.1230213E+00
         21   -1    0    0  501  502  0.00000000000E+00  0.00000000000E+00  0.36048773739E+02  0.36048773739E+02  0.00000000000E+00 0. -1.
          4   -1    0    0  502    0 -0.00000000000E+00 -0.00000000000E+00 -0.19158881509E+03  0.19159302431E+03  0.12700000000E+01 0. -1.
         25    2    1    2    0    0  0.11093539634E+02 -0.26012842756E+02 -0.15245408665E+03  0.19916600788E+03  0.12500046219E+03 0.  0.
    9000005    1    3    3    0    0  0.34998498768E+01  0.44465229145E+02 -0.10436702619E+03  0.11350278282E+03  0.10000000000E+01 0.  0.
    9000005    1    3    3    0    0  0.75936897569E+01 -0.70478071902E+02 -0.48087060461E+02  0.85663225055E+02  0.10000000000E+01 0.  0.
          4    1    1    2  501    0 -0.11093539634E+02  0.26012842756E+02 -0.30859546943E+01  0.28475790178E+02  0.12700000000E+01 0.  1.
<mgrwt>
<rscale>  1 0.12815947E+03</rscale>
<asrwt>0</asrwt>
<pdfrwt beam="1">  1       21 0.55459651E-02 0.12815947E+03</pdfrwt>
<pdfrwt beam="2">  1        4 0.29477248E-01 0.12815947E+03</pdfrwt>
<totfact> 0.98896354E+04</totfact>
</mgrwt>
</event>
<event>
 6    4  0.3995738E-003  0.1650643E+03  0.7818608E-02  0.1183095E+00
         -4   -1    0    0    0  501 -0.00000000000E+00  0.00000000000E+00  0.33587475576E+03  0.33587715679E+03  0.12700000000E+01 0. -1.
         21   -1    0    0  501  502  0.00000000000E+00 -0.00000000000E+00 -0.56577336212E+02  0.56577336212E+02  0.00000000000E+00 0.  1.
         25    2    1    2    0    0 -0.24994662879E+02  0.10486404735E+03  0.14091024580E+03  0.21702979589E+03  0.12500013334E+03 0.  0.
    9000005    1    3    3    0    0  0.34677365555E+02  0.72772126134E+02  0.27991106156E+02  0.85339346422E+02  0.10000000000E+01 0.  0.
    9000005    1    3    3    0    0 -0.59672028435E+02  0.32091921215E+02  0.11291913964E+03  0.13169044947E+03  0.10000000000E+01 0.  0.
         -4    1    1    2    0  502  0.24994662879E+02 -0.10486404735E+03  0.13838717375E+03  0.17542469711E+03  0.12700000000E+01 0.  1.
<mgrwt>
<rscale>  1 0.16506434E+03</rscale>
<asrwt>0</asrwt>
<pdfrwt beam="2">  1       21 0.87042058E-02 0.16506434E+03</pdfrwt>
<pdfrwt beam="1">  1       -4 0.51674319E-01 0.16506434E+03</pdfrwt>
<totfact> 0.15592947E+04</totfact>
</mgrwt>
</event>
<event>
 6    4  0.3995738E-003  0.1453718E+03  0.7818608E-02  0.1206278E+00
         21   -1    0    0  501  502  0.00000000000E+00  0.00000000000E+00  0.13631275030E+03  0.13631275030E+03  0.00000000000E+00 0.  1.
          4   -1    0    0  502    0 -0.00000000000E+00 -0.00000000000E+00 -0.17968743811E+03  0.17969192613E+03  0.12700000000E+01 0. -1.
         25    2    1    2    0    0  0.65433207465E+02 -0.35232297668E+02 -0.13474923148E+03  0.19821783689E+03  0.12494053000E+03 0.  0.
    9000005    1    3    3    0    0 -0.19894021689E+02 -0.40449417689E+02 -0.92394344063E+02  0.10280876570E+03  0.10000000000E+01 0.  0.
    9000005    1    3    3    0    0  0.85327229154E+02  0.52171200210E+01 -0.42354887419E+02  0.95409071186E+02  0.10000000000E+01 0.  0.
          4    1    1    2  501    0 -0.65433207465E+02  0.35232297668E+02  0.91374543673E+02  0.11778683954E+03  0.12700000000E+01 0.  1.
<mgrwt>
<rscale>  1 0.14537178E+03</rscale>
<asrwt>0</asrwt>
<pdfrwt beam="1">  1       21 0.20971192E-01 0.14537178E+03</pdfrwt>
<pdfrwt beam="2">  1        4 0.27645021E-01 0.14537178E+03</pdfrwt>
<totfact> 0.10807511E+04</totfact>
</mgrwt>
</event>
<event>
 6    4  0.3995738E-003  0.1281689E+03  0.7818608E-02  0.1230198E+00
         21   -1    0    0  501  502  0.00000000000E+00  0.00000000000E+00  0.91870997317E+02  0.91870997317E+02  0.00000000000E+00 0.  1.
          4   -1    0    0  502    0 -0.00000000000E+00 -0.00000000000E+00 -0.22976065434E+03  0.22976416427E+03  0.12700000000E+01 0.  1.
         25    2    1    2    0    0 -0.21903722578E+02  0.17964126877E+02 -0.20894922616E+03  0.24512661186E+03  0.12499917525E+03 0.  0.
    9000005    1    3    3    0    0  0.45653318760E+02  0.20796071186E+02 -0.43560938458E+02  0.66447403636E+02  0.10000000000E+01 0.  0.
    9000005    1    3    3    0    0 -0.67557041338E+02 -0.28319443086E+01 -0.16538828770E+03  0.17867920822E+03  0.10000000000E+01 0.  0.
          4    1    1    2  501    0  0.21903722578E+02 -0.17964126877E+02  0.71059569130E+02  0.76508549733E+02  0.12700000000E+01 0. -1.
<mgrwt>
<rscale>  1 0.12816894E+03</rscale>
<asrwt>0</asrwt>
<pdfrwt beam="1">  1       21 0.14134000E-01 0.12816894E+03</pdfrwt>
<pdfrwt beam="2">  1        4 0.35348738E-01 0.12816894E+03</pdfrwt>
<totfact> 0.13774900E+04</totfact>
</mgrwt>
</event>
<event>
 6    4  0.3995738E-003  0.1275127E+03  0.7818608E-02  0.1231194E+00
         21   -1    0    0  501  502  0.00000000000E+00  0.00000000000E+00  0.16420737086E+02  0.16420737086E+02  0.00000000000E+00 0.  1.
          4   -1    0    0  502    0 -0.00000000000E+00 -0.00000000000E+00 -0.51171228927E+03  0.51171386525E+03  0.12700000000E+01 0. -1.
         25    2    1    2    0    0  0.75242427096E+01 -0.24040059785E+02 -0.48397336015E+03  0.50048947485E+03  0.12499984958E+03 0.  0.
    9000005    1    3    3    0    0 -0.45937294312E+02 -0.84380124194E+01 -0.79587136615E+02  0.92285141691E+02  0.10000000000E+01 0.  0.
    9000005    1    3    3    0    0  0.53461537021E+02 -0.15602047366E+02 -0.40438622354E+03  0.40820433316E+03  0.10000000000E+01 0.  0.
          4    1    1    2  501    0 -0.75242427096E+01  0.24040059785E+02 -0.11318192029E+02  0.27645127484E+02  0.12700000000E+01 0.  1.
<mgrwt>
<rscale>  1 0.12751275E+03</rscale>
<asrwt>0</asrwt>
<pdfrwt beam="1">  1       21 0.25262670E-02 0.12751275E+03</pdfrwt>
<pdfrwt beam="2">  1        4 0.78728873E-01 0.12751275E+03</pdfrwt>
<totfact> 0.49534069E+04</totfact>
</mgrwt>
</event>
<event>
 6    4  0.3995738E-003  0.1445936E+03  0.7818608E-02  0.1207278E+00
          4   -1    0    0  502    0 -0.00000000000E+00  0.00000000000E+00  0.70021686100E+03  0.70021801272E+03  0.12700000000E+01 0.  1.
         21   -1    0    0  501  502  0.00000000000E+00 -0.00000000000E+00 -0.25734045822E+02  0.25734045822E+02  0.00000000000E+00 0. -1.
         25    2    1    2    0    0  0.57411547609E+02 -0.44568910531E+02  0.61574667470E+03  0.63249607594E+03  0.12499938037E+03 0.  0.
    9000005    1    3    3    0    0  0.36746909866E+02 -0.88319671360E+02  0.38250295114E+03  0.39428442445E+03  0.10000000000E+01 0.  0.
    9000005    1    3    3    0    0  0.20664637742E+02  0.43750760829E+02  0.23324372355E+03  0.23821165148E+03  0.10000000000E+01 0.  0.
          4    1    1    2  501    0 -0.57411547609E+02  0.44568910531E+02  0.58736140486E+02  0.93455982601E+02  0.12700000000E+01 0. -1.
<mgrwt>
<rscale>  1 0.14459363E+03</rscale>
<asrwt>0</asrwt>
<pdfrwt beam="2">  1       21 0.39590845E-02 0.14459363E+03</pdfrwt>
<pdfrwt beam="1">  1        4 0.10772816E+00 0.14459363E+03</pdfrwt>
<totfact> 0.11754160E+04</totfact>
</mgrwt>
</event>
<event>
 6    4  0.3995738E-003  0.1266784E+03  0.7818608E-02  0.1232469E+00
          4   -1    0    0  502    0 -0.00000000000E+00  0.00000000000E+00  0.97436300270E+02  0.97444576608E+02  0.12700000000E+01 0.  1.
         21   -1    0    0  501  502  0.00000000000E+00 -0.00000000000E+00 -0.83983103673E+02  0.83983103673E+02  0.00000000000E+00 0. -1.
         25    2    1    2    0    0 -0.16525083659E+02 -0.12197982513E+02  0.52628958547E+02  0.13717587363E+03  0.12500217543E+03 0.  0.
    9000005    1    3    3    0    0 -0.71280802593E+02 -0.75871762370E+01  0.28325980807E+02  0.77083586128E+02  0.10000000000E+01 0.  0.
    9000005    1    3    3    0    0  0.54755718934E+02 -0.46108062760E+01  0.24302977740E+02  0.60092287504E+02  0.10000000000E+01 0.  0.
          4    1    1    2  501    0  0.16525083659E+02  0.12197982513E+02 -0.39175761950E+02  0.44251806649E+02  0.12700000000E+01 0. -1.
<mgrwt>
<rscale>  1 0.12667838E+03</rscale>
<asrwt>0</asrwt>
<pdfrwt beam="2">  1       21 0.12920478E-01 0.12667838E+03</pdfrwt>
<pdfrwt beam="1">  1        4 0.14991575E-01 0.12667838E+03</pdfrwt>
<totfact> 0.77565401E+04</totfact>
</mgrwt>
</event>
<event>
 6    4  0.3995738E-003  0.1511587E+03  0.7818608E-02  0.1199056E+00
          4   -1    0    0  502    0 -0.00000000000E+00  0.00000000000E+00  0.80478033340E+02  0.80488053463E+02  0.12700000000E+01 0.  1.
         21   -1    0    0  501  502  0.00000000000E+00 -0.00000000000E+00 -0.18340842005E+03  0.18340842005E+03  0.00000000000E+00 0. -1.
         25    2    1    2    0    0 -0.82916826171E+02  0.18692570780E+02 -0.35192658188E+02  0.15520137229E+03  0.12499732200E+03 0.  0.
    9000005    1    3    3    0    0 -0.36463324511E+02 -0.53094902984E+02 -0.53836476133E+01  0.64642295897E+02  0.10000000000E+01 0.  0.
    9000005    1    3    3    0    0 -0.46453501660E+02  0.71787473764E+02 -0.29809010575E+02  0.90559076394E+02  0.10000000000E+01 0.  0.
          4    1    1    2  501    0  0.82916826171E+02 -0.18692570780E+02 -0.67737728526E+02  0.10869510123E+03  0.12700000000E+01 0. -1.
<mgrwt>
<rscale>  1 0.15115867E+03</rscale>
<asrwt>0</asrwt>
<pdfrwt beam="2">  1       21 0.28216680E-01 0.15115867E+03</pdfrwt>
<pdfrwt beam="1">  1        4 0.12382345E-01 0.15115867E+03</pdfrwt>
<totfact> 0.26044858E+04</totfact>
</mgrwt>
</event>
<event>
 6    4  0.3995738E-003  0.1330465E+03  0.7818608E-02  0.1223004E+00
         21   -1    0    0  501  502  0.00000000000E+00  0.00000000000E+00  0.26300328549E+02  0.26300328549E+02  0.00000000000E+00 0. -1.
          4   -1    0    0  502    0 -0.00000000000E+00 -0.00000000000E+00 -0.67200365930E+03  0.67200485937E+03  0.12700000000E+01 0.  1.
         25    2    1    2    0    0  0.74512871166E+01 -0.44957021410E+02 -0.63842356909E+03  0.65213958077E+03  0.12499889510E+03 0.  0.
    9000005    1    3    3    0    0 -0.22387304548E+02  0.26296673816E+02 -0.65716662563E+02  0.74245445632E+02  0.10000000000E+01 0.  0.
    9000005    1    3    3    0    0  0.29838591665E+02 -0.71253695226E+02 -0.57270690653E+03  0.57789413513E+03  0.10000000000E+01 0.  0.
          4    1    1    2  501    0 -0.74512871166E+01  0.44957021410E+02 -0.72797616593E+01  0.46165607150E+02  0.12700000000E+01 0. -1.
<mgrwt>
<rscale>  1 0.13304653E+03</rscale>
<asrwt>0</asrwt>
<pdfrwt beam="1">  1       21 0.40462046E-02 0.13304653E+03</pdfrwt>
<pdfrwt beam="2">  1        4 0.10338762E+00 0.13304653E+03</pdfrwt>
<totfact> 0.12387301E+04</totfact>
</mgrwt>
</event>
<event>
 6    4  0.3995738E-003  0.1425179E+03  0.7818608E-02  0.1209981E+00
         21   -1    0    0  501  502  0.00000000000E+00  0.00000000000E+00  0.53829562490E+03  0.53829562490E+03  0.00000000000E+00 0.  1.
         -4   -1    0    0    0  501 -0.00000000000E+00 -0.00000000000E+00 -0.24621422106E+02  0.24654154347E+02  0.12700000000E+01 0. -1.
         25    2    1    2    0    0  0.68415655178E+02  0.21225516880E+01  0.22554754416E+03  0.26680152006E+03  0.12500459725E+03 0.  0.
    9000005    1    3    3    0    0  0.47025981341E+02  0.62556308300E+02  0.12975179603E+03  0.15152974362E+03  0.10000000000E+01 0.  0.
    9000005    1    3    3    0    0  0.21389673837E+02 -0.60433756612E+02  0.95795748123E+02  0.11527177644E+03  0.10000000000E+01 0.  0.
         -4    1    1    2    0  502 -0.68415655178E+02 -0.21225516880E+01  0.28812665864E+03  0.29614825918E+03  0.12700000000E+01 0.  1.
<mgrwt>
<rscale>  1 0.14251792E+03</rscale>
<asrwt>0</asrwt>
<pdfrwt beam="1">  1       21 0.82814703E-01 0.14251792E+03</pdfrwt>
<pdfrwt beam="2">  1       -4 0.37905446E-02 0.14251792E+03</pdfrwt>
<totfact> 0.19564808E+04</totfact>
</mgrwt>
</event>
<event>
 6    4  0.3995738E-003  0.1553747E+03  0.7818608E-02  0.1194020E+00
          4   -1    0    0  502    0 -0.00000000000E+00  0.00000000000E+00  0.38133342432E+03  0.38133553913E+03  0.12700000000E+01 0.  1.
         21   -1    0    0  501  502  0.00000000000E+00 -0.00000000000E+00 -0.46209078340E+02  0.46209078340E+02  0.00000000000E+00 0.  1.
         25    2    1    2    0    0 -0.80718526833E+02 -0.44756868368E+02  0.27947540513E+03  0.31976208012E+03  0.12499051152E+03 0.  0.
    9000005    1    3    3    0    0  0.19742164742E+01 -0.54838545148E+02  0.18884266315E+03  0.19665633728E+03  0.10000000000E+01 0.  0.
    9000005    1    3    3    0    0 -0.82692743307E+02  0.10081676780E+02  0.90632741975E+02  0.12310574284E+03  0.10000000000E+01 0.  0.
          4    1    1    2  501    0  0.80718526833E+02  0.44756868368E+02  0.55648940851E+02  0.10778253735E+03  0.12700000000E+01 0. -1.
<mgrwt>
<rscale>  1 0.15537466E+03</rscale>
<asrwt>0</asrwt>
<pdfrwt beam="2">  1       21 0.71090892E-02 0.15537466E+03</pdfrwt>
<pdfrwt beam="1">  1        4 0.58668184E-01 0.15537466E+03</pdfrwt>
<totfact> 0.16917984E+04</totfact>
</mgrwt>
</event>
<event>
 6    4  0.3995738E-003  0.1329265E+03  0.7818608E-02  0.1223177E+00
          4   -1    0    0  502    0 -0.00000000000E+00  0.00000000000E+00  0.14679135607E+03  0.14679684982E+03  0.12700000000E+01 0. -1.
         21   -1    0    0  501  502  0.00000000000E+00 -0.00000000000E+00 -0.64658813143E+02  0.64658813143E+02  0.00000000000E+00 0. -1.
         25    2    1    2    0    0 -0.39575484400E+02 -0.21867779227E+02  0.96200670411E+02  0.16408537856E+03  0.12500009494E+03 0.  0.
    9000005    1    3    3    0    0  0.12737163807E+02  0.34808828359E+02  0.75667047227E+02  0.84263823256E+02  0.10000000000E+01 0.  0.
    9000005    1    3    3    0    0 -0.52312648208E+02 -0.56676607587E+02  0.20533623183E+02  0.79821555304E+02  0.10000000000E+01 0.  0.
          4    1    1    2  501    0  0.39575484400E+02  0.21867779227E+02 -0.14068127481E+02  0.47370284406E+02  0.12700000000E+01 0.  1.
<mgrwt>
<rscale>  1 0.13292646E+03</rscale>
<asrwt>0</asrwt>
<pdfrwt beam="2">  1       21 0.99475098E-02 0.13292646E+03</pdfrwt>
<pdfrwt beam="1">  1        4 0.22584667E-01 0.13292646E+03</pdfrwt>
<totfact> 0.59675557E+04</totfact>
</mgrwt>
</event>
<event>
 6    4  0.3995738E-003  0.1271183E+03  0.7818608E-02  0.1231795E+00
         -4   -1    0    0    0  501 -0.00000000000E+00  0.00000000000E+00  0.63761104174E+03  0.63761230653E+03  0.12700000000E+01 0.  1.
         21   -1    0    0  501  502  0.00000000000E+00 -0.00000000000E+00 -0.22242744342E+02  0.22242744342E+02  0.00000000000E+00 0.  1.
         25    2    1    2    0    0 -0.22976667424E+02  0.20348572465E+01  0.62275878039E+03  0.63560015387E+03  0.12500795638E+03 0.  0.
    9000005    1    3    3    0    0  0.60757821280E+01  0.60778079839E+02  0.32827723563E+03  0.33391291312E+03  0.10000000000E+01 0.  0.
    9000005    1    3    3    0    0 -0.29052449552E+02 -0.58743222593E+02  0.29448154476E+03  0.30168724075E+03  0.10000000000E+01 0.  0.
         -4    1    1    2    0  502  0.22976667424E+02 -0.20348572465E+01 -0.73904829943E+01  0.24254897007E+02  0.12700000000E+01 0. -1.
<mgrwt>
<rscale>  1 0.12711828E+03</rscale>
<asrwt>0</asrwt>
<pdfrwt beam="2">  1       21 0.34219612E-02 0.12711828E+03</pdfrwt>
<pdfrwt beam="1">  1       -4 0.98096879E-01 0.12711828E+03</pdfrwt>
<totfact> 0.18374184E+04</totfact>
</mgrwt>
</event>
<event>
 6    4  0.3995738E-003  0.1266477E+03  0.7818608E-02  0.1232516E+00
         21   -1    0    0  501  502  0.00000000000E+00  0.00000000000E+00  0.25664607076E+02  0.25664607076E+02  0.00000000000E+00 0.  1.
          4   -1    0    0  502    0 -0.00000000000E+00 -0.00000000000E+00 -0.26410585746E+03  0.26410891095E+03  0.12700000000E+01 0.  1.
         25    2    1    2    0    0  0.10704939580E+02  0.17311042750E+02 -0.13809617711E+03  0.18737715792E+03  0.12500150898E+03 0.  0.
    9000005    1    3    3    0    0 -0.21890156244E+02  0.43505251603E+02 -0.63184541544E+01  0.49120349351E+02  0.10000000000E+01 0.  0.
    9000005    1    3    3    0    0  0.32595095824E+02 -0.26194208853E+02 -0.13177772296E+03  0.13825680857E+03  0.10000000000E+01 0.  0.
          4    1    1    2  501    0 -0.10704939580E+02 -0.17311042750E+02 -0.10034507327E+03  0.10239636011E+03  0.12700000000E+01 0. -1.
<mgrwt>
<rscale>  1 0.12664772E+03</rscale>
<asrwt>0</asrwt>
<pdfrwt beam="1">  1       21 0.39484012E-02 0.12664772E+03</pdfrwt>
<pdfrwt beam="2">  1        4 0.40634321E-01 0.12664772E+03</pdfrwt>
<totfact> 0.93973220E+04</totfact>
</mgrwt>
</event>
<event>
 6    4  0.3995738E-003  0.1352604E+03  0.7818608E-02  0.1219853E+00
         21   -1    0    0  501  502  0.00000000000E+00  0.00000000000E+00  0.83303044058E+02  0.83303044058E+02  0.00000000000E+00 0.  1.
         -4   -1    0    0    0  501 -0.00000000000E+00 -0.00000000000E+00 -0.16440462087E+03  0.16440952607E+03  0.12700000000E+01 0. -1.
         25    2    1    2    0    0  0.75393358458E+01 -0.51122188851E+02 -0.12172588675E+03  0.18196861804E+03  0.12500026667E+03 0.  0.
    9000005    1    3    3    0    0  0.28680184658E+02 -0.87991810754E+02 -0.87881642641E+02  0.12762952192E+03  0.10000000000E+01 0.  0.
    9000005    1    3    3    0    0 -0.21140848812E+02  0.36869621904E+02 -0.33844244108E+02  0.54339096119E+02  0.10000000000E+01 0.  0.
         -4    1    1    2    0  502 -0.75393358458E+01  0.51122188851E+02  0.40624309942E+02  0.65743952088E+02  0.12700000000E+01 0.  1.
<mgrwt>
<rscale>  1 0.13526044E+03</rscale>
<asrwt>0</asrwt>
<pdfrwt beam="1">  1       21 0.12815853E-01 0.13526044E+03</pdfrwt>
<pdfrwt beam="2">  1       -4 0.25294140E-01 0.13526044E+03</pdfrwt>
<totfact> 0.31048473E+04</totfact>
</mgrwt>
</event>
<event>
 6    4  0.3995738E-003  0.1339563E+03  0.7818608E-02  0.1221701E+00
         -4   -1    0    0    0  501 -0.00000000000E+00  0.00000000000E+00  0.18700924774E+03  0.18701356004E+03  0.12700000000E+01 0. -1.
         21   -1    0    0  501  502  0.00000000000E+00 -0.00000000000E+00 -0.62037717534E+02  0.62037717534E+02  0.00000000000E+00 0.  1.
         25    2    1    2    0    0  0.14755297986E+02  0.45845653452E+02  0.14452350308E+03  0.19705670764E+03  0.12499904130E+03 0.  0.
    9000005    1    3    3    0    0  0.30515954787E+02 -0.25793782500E+02  0.61496961586E+01  0.40439602806E+02  0.10000000000E+01 0.  0.
    9000005    1    3    3    0    0 -0.15760656801E+02  0.71639435952E+02  0.13837380692E+03  0.15661710484E+03  0.10000000000E+01 0.  0.
         -4    1    1    2    0  502 -0.14755297986E+02 -0.45845653452E+02 -0.19551972874E+02  0.51994569931E+02  0.12700000000E+01 0.  1.
<mgrwt>
<rscale>  1 0.13395635E+03</rscale>
<asrwt>0</asrwt>
<pdfrwt beam="2">  1       21 0.95442643E-02 0.13395635E+03</pdfrwt>
<pdfrwt beam="1">  1       -4 0.28771985E-01 0.13395635E+03</pdfrwt>
<totfact> 0.41023951E+04</totfact>
</mgrwt>
</event>
<event>
 6    4  0.3995738E-003  0.1269634E+03  0.7818608E-02  0.1232032E+00
         21   -1    0    0  501  502  0.00000000000E+00  0.00000000000E+00  0.18772107113E+03  0.18772107113E+03  0.00000000000E+00 0. -1.
         -4   -1    0    0    0  501 -0.00000000000E+00 -0.00000000000E+00 -0.30806751440E+02  0.30832918031E+02  0.12700000000E+01 0. -1.
         25    2    1    2    0    0  0.13545785645E+02  0.17659493653E+02  0.11607508760E+03  0.17202655851E+03  0.12499745937E+03 0.  0.
    9000005    1    3    3    0    0  0.21618926814E+02  0.30558076368E+02  0.13929861068E+03  0.14424381083E+03  0.10000000000E+01 0.  0.
    9000005    1    3    3    0    0 -0.80731411697E+01 -0.12898582715E+02 -0.23223523078E+02  0.27782747678E+02  0.10000000000E+01 0.  0.
         -4    1    1    2    0  502 -0.13545785645E+02 -0.17659493653E+02  0.40839232087E+02  0.46527430643E+02  0.12700000000E+01 0.  1.
<mgrwt>
<rscale>  1 0.12696342E+03</rscale>
<asrwt>0</asrwt>
<pdfrwt beam="1">  1       21 0.28880164E-01 0.12696342E+03</pdfrwt>
<pdfrwt beam="2">  1       -4 0.47418437E-02 0.12696342E+03</pdfrwt>
<totfact> 0.11953568E+05</totfact>
</mgrwt>
</event>
<event>
 6    4  0.3995738E-003  0.1292324E+03  0.7818608E-02  0.1228599E+00
         21   -1    0    0  501  502  0.00000000000E+00  0.00000000000E+00  0.28847306585E+03  0.28847306585E+03  0.00000000000E+00 0. -1.
          4   -1    0    0  502    0 -0.00000000000E+00 -0.00000000000E+00 -0.27943501435E+02  0.27972346567E+02  0.12700000000E+01 0. -1.
         25    2    1    2    0    0  0.10147934389E+02  0.31196079774E+02  0.13578374649E+03  0.18745197089E+03  0.12499935846E+03 0.  0.
    9000005    1    3    3    0    0  0.30117800756E+02  0.11823539140E+02 -0.13879718557E+02  0.35221081576E+02  0.10000000000E+01 0.  0.
    9000005    1    3    3    0    0 -0.19969866367E+02  0.19372540634E+02  0.14966346504E+03  0.15223088932E+03  0.10000000000E+01 0.  0.
          4    1    1    2  501    0 -0.10147934389E+02 -0.31196079774E+02  0.12474581793E+03  0.12899344152E+03  0.12700000000E+01 0.  1.
<mgrwt>
<rscale>  1 0.12923241E+03</rscale>
<asrwt>0</asrwt>
<pdfrwt beam="1">  1       21 0.44380470E-01 0.12923241E+03</pdfrwt>
<pdfrwt beam="2">  1        4 0.43014343E-02 0.12923241E+03</pdfrwt>
<totfact> 0.60016764E+04</totfact>
</mgrwt>
</event>
<event>
 6    4  0.3995738E-003  0.1310307E+03  0.7818608E-02  0.1225934E+00
         21   -1    0    0  501  502  0.00000000000E+00  0.00000000000E+00  0.14665491747E+03  0.14665491747E+03  0.00000000000E+00 0. -1.
         -4   -1    0    0    0  501 -0.00000000000E+00 -0.00000000000E+00 -0.87851608374E+02  0.87860787578E+02  0.12700000000E+01 0.  1.
         25    2    1    2    0    0  0.13421420734E+01 -0.39273192424E+02 -0.32591295412E+02  0.13502313436E+03  0.12499947715E+03 0.  0.
    9000005    1    3    3    0    0 -0.38446298999E+02 -0.27735138981E+02 -0.66364872960E+02  0.81563792236E+02  0.10000000000E+01 0.  0.
    9000005    1    3    3    0    0  0.39788441072E+02 -0.11538053443E+02  0.33773577548E+02  0.53459342126E+02  0.10000000000E+01 0.  0.
         -4    1    1    2    0  502 -0.13421420734E+01  0.39273192424E+02  0.91394604508E+02  0.99492570686E+02  0.12700000000E+01 0. -1.
<mgrwt>
<rscale>  1 0.13103074E+03</rscale>
<asrwt>0</asrwt>
<pdfrwt beam="1">  1       21 0.22562295E-01 0.13103074E+03</pdfrwt>
<pdfrwt beam="2">  1       -4 0.13516761E-01 0.13103074E+03</pdfrwt>
<totfact> 0.33732076E+04</totfact>
</mgrwt>
</event>
<event>
 6    4  0.3995738E-003  0.1873437E+03  0.7818608E-02  0.1160879E+00
          4   -1    0    0  502    0 -0.00000000000E+00  0.00000000000E+00  0.84046716657E+02  0.84056311369E+02  0.12700000000E+01 0.  1.
         21   -1    0    0  501  502  0.00000000000E+00 -0.00000000000E+00 -0.47430579158E+03  0.47430579158E+03  0.00000000000E+00 0. -1.
         25    2    1    2    0    0  0.13888805789E+03  0.13523726963E+02 -0.55049049793E+02  0.19526410287E+03  0.12499955268E+03 0.  0.
    9000005    1    3    3    0    0  0.16547579592E+02  0.53288883236E+02 -0.32730109134E+02  0.64697662329E+02  0.10000000000E+01 0.  0.
    9000005    1    3    3    0    0  0.12234047830E+03 -0.39765156273E+02 -0.22318940659E+02  0.13056644054E+03  0.10000000000E+01 0.  0.
          4    1    1    2  501    0 -0.13888805789E+03 -0.13523726963E+02 -0.33521002513E+03  0.36309800008E+03  0.12700000000E+01 0. -1.
<mgrwt>
<rscale>  1 0.18734373E+03</rscale>
<asrwt>0</asrwt>
<pdfrwt beam="2">  1       21 0.72970121E-01 0.18734373E+03</pdfrwt>
<pdfrwt beam="1">  1        4 0.12931133E-01 0.18734373E+03</pdfrwt>
<totfact> 0.34694537E+03</totfact>
</mgrwt>
</event>
<event>
 6    4  0.3995738E-003  0.1486543E+03  0.7818608E-02  0.1202136E+00
         21   -1    0    0  501  502  0.00000000000E+00  0.00000000000E+00  0.66688184376E+02  0.66688184376E+02  0.00000000000E+00 0.  1.
          4   -1    0    0  502    0 -0.00000000000E+00 -0.00000000000E+00 -0.22728393938E+03  0.22728748756E+03  0.12700000000E+01 0. -1.
         25    2    1    2    0    0 -0.69932020748E+02  0.39776840936E+02 -0.15272800166E+03  0.21312890921E+03  0.12500161939E+03 0.  0.
    9000005    1    3    3    0    0 -0.10496446820E+03  0.43043416820E+02 -0.11589717835E+03  0.16218332610E+03  0.10000000000E+01 0.  0.
    9000005    1    3    3    0    0  0.35032447453E+02 -0.32665758842E+01 -0.36830823308E+02  0.50945583107E+02  0.10000000000E+01 0.  0.
          4    1    1    2  501    0  0.69932020748E+02 -0.39776840936E+02 -0.78677533477E+01  0.80846762727E+02  0.12700000000E+01 0.  1.
<mgrwt>
<rscale>  1 0.14865426E+03</rscale>
<asrwt>0</asrwt>
<pdfrwt beam="1">  1       21 0.10259721E-01 0.14865426E+03</pdfrwt>
<pdfrwt beam="2">  1        4 0.34967962E-01 0.14865426E+03</pdfrwt>
<totfact> 0.25209254E+04</totfact>
</mgrwt>
</event>
<event>
 6    4  0.3995738E-003  0.1266850E+03  0.7818608E-02  0.1232459E+00
         -4   -1    0    0    0  501 -0.00000000000E+00  0.00000000000E+00  0.87500278014E+02  0.87509494071E+02  0.12700000000E+01 0. -1.
         21   -1    0    0  501  502  0.00000000000E+00 -0.00000000000E+00 -0.92726948586E+02  0.92726948586E+02  0.00000000000E+00 0.  1.
         25    2    1    2    0    0  0.19972534197E+02  0.52459908081E+01  0.38044040566E+02  0.13227406277E+03  0.12499062412E+03 0.  0.
    9000005    1    3    3    0    0  0.47641522812E+02  0.48471188956E+02  0.43427289529E+02  0.80660401254E+02  0.10000000000E+01 0.  0.
    9000005    1    3    3    0    0 -0.27668988615E+02 -0.43225198148E+02 -0.53832489637E+01  0.51613661518E+02  0.10000000000E+01 0.  0.
         -4    1    1    2    0  502 -0.19972534197E+02 -0.52459908081E+01 -0.43270711137E+02  0.47962379884E+02  0.12700000000E+01 0.  1.
<mgrwt>
<rscale>  1 0.12668496E+03</rscale>
<asrwt>0</asrwt>
<pdfrwt beam="2">  1       21 0.14265685E-01 0.12668496E+03</pdfrwt>
<pdfrwt beam="1">  1       -4 0.13462959E-01 0.12668496E+03</pdfrwt>
<totfact> 0.78303806E+04</totfact>
</mgrwt>
</event>
<event>
 6    4  0.3995738E-003  0.1271223E+03  0.7818608E-02  0.1231789E+00
         21   -1    0    0  501  502  0.00000000000E+00  0.00000000000E+00  0.12957983897E+03  0.12957983897E+03  0.00000000000E+00 0. -1.
         -4   -1    0    0    0  501 -0.00000000000E+00 -0.00000000000E+00 -0.69655190112E+02  0.69666766894E+02  0.12700000000E+01 0.  1.
         25    2    1    2    0    0 -0.20807592383E+02 -0.10117198007E+02 -0.81035985598E+01  0.12738027896E+03  0.12499901424E+03 0.  0.
    9000005    1    3    3    0    0 -0.42863588202E+02  0.29493114955E+02 -0.45093828526E+02  0.68859163474E+02  0.10000000000E+01 0.  0.
    9000005    1    3    3    0    0  0.22055995818E+02 -0.39610312962E+02  0.36990229966E+02  0.58521115483E+02  0.10000000000E+01 0.  0.
         -4    1    1    2    0  502  0.20807592383E+02  0.10117198007E+02  0.68028247421E+02  0.71866326910E+02  0.12700000000E+01 0. -1.
<mgrwt>
<rscale>  1 0.12712225E+03</rscale>
<asrwt>0</asrwt>
<pdfrwt beam="1">  1       21 0.19935360E-01 0.12712225E+03</pdfrwt>
<pdfrwt beam="2">  1       -4 0.10717552E-01 0.12712225E+03</pdfrwt>
<totfact> 0.62904772E+04</totfact>
</mgrwt>
</event>
<event>
 6    4  0.3995738E-003  0.1273030E+03  0.7818608E-02  0.1231513E+00
         21   -1    0    0  501  502  0.00000000000E+00  0.00000000000E+00  0.13941715792E+02  0.13941715792E+02  0.00000000000E+00 0.  1.
         -4   -1    0    0    0  501 -0.00000000000E+00 -0.00000000000E+00 -0.43204657314E+03  0.43204843972E+03  0.12700000000E+01 0.  1.
         25    2    1    2    0    0  0.23694277591E+02 -0.43917214169E+01 -0.30799672524E+03  0.33326873047E+03  0.12500143175E+03 0.  0.
    9000005    1    3    3    0    0  0.24505091232E+01 -0.24918291618E+02 -0.12376895961E+01  0.25089004118E+02  0.10000000000E+01 0.  0.
    9000005    1    3    3    0    0  0.21243768468E+02  0.20526570201E+02 -0.30675903565E+03  0.30817972635E+03  0.10000000000E+01 0.  0.
         -4    1    1    2    0  502 -0.23694277591E+02  0.43917214169E+01 -0.11010813210E+03  0.11272142504E+03  0.12700000000E+01 0. -1.
<mgrwt>
<rscale>  1 0.12730304E+03</rscale>
<asrwt>0</asrwt>
<pdfrwt beam="1">  1       21 0.21448796E-02 0.12730304E+03</pdfrwt>
<pdfrwt beam="2">  1       -4 0.66473288E-01 0.12730304E+03</pdfrwt>
<totfact> 0.93201755E+04</totfact>
</mgrwt>
</event>
<event>
 6    4  0.3995738E-003  0.1280550E+03  0.7818608E-02  0.1230371E+00
         21   -1    0    0  501  502  0.00000000000E+00  0.00000000000E+00  0.35848380470E+03  0.35848380470E+03  0.00000000000E+00 0.  1.
         -4   -1    0    0    0  501 -0.00000000000E+00 -0.00000000000E+00 -0.10528401892E+03  0.10529167840E+03  0.12700000000E+01 0. -1.
         25    2    1    2    0    0 -0.24136474589E+02 -0.14070980136E+02 -0.65511392948E+02  0.14383956728E+03  0.12497006291E+03 0.  0.
    9000005    1    3    3    0    0  0.29499124250E+02 -0.20923827668E+02  0.20986810096E+02  0.41826440128E+02  0.10000000000E+01 0.  0.
    9000005    1    3    3    0    0 -0.53635598839E+02  0.68528475313E+01 -0.86498203044E+02  0.10201312716E+03  0.10000000000E+01 0.  0.
         -4    1    1    2    0  502  0.24136474589E+02  0.14070980136E+02  0.31871117872E+03  0.31993591582E+03  0.12700000000E+01 0.  1.
<mgrwt>
<rscale>  1 0.12805498E+03</rscale>
<asrwt>0</asrwt>
<pdfrwt beam="1">  1       21 0.55151354E-01 0.12805498E+03</pdfrwt>
<pdfrwt beam="2">  1       -4 0.16198304E-01 0.12805498E+03</pdfrwt>
<totfact> 0.42148756E+03</totfact>
</mgrwt>
</event>
<event>
 6    4  0.3995738E-003  0.1273996E+03  0.7818608E-02  0.1231366E+00
         21   -1    0    0  501  502  0.00000000000E+00  0.00000000000E+00  0.46447615307E+03  0.46447615307E+03  0.00000000000E+00 0. -1.
          4   -1    0    0  502    0 -0.00000000000E+00 -0.00000000000E+00 -0.15944176730E+02  0.15994676351E+02  0.12700000000E+01 0. -1.
         25    2    1    2    0    0 -0.20896309102E+02  0.13132224387E+02  0.25182052775E+03  0.28221312350E+03  0.12498623055E+03 0.  0.
    9000005    1    3    3    0    0 -0.55187288454E+02  0.40261347084E+02  0.81406515174E+02  0.10627621365E+03  0.10000000000E+01 0.  0.
    9000005    1    3    3    0    0  0.34290979352E+02 -0.27129122696E+02  0.17041401258E+03  0.17593690984E+03  0.10000000000E+01 0.  0.
          4    1    1    2  501    0  0.20896309102E+02 -0.13132224387E+02  0.19671144859E+03  0.19825770592E+03  0.12700000000E+01 0.  1.
<mgrwt>
<rscale>  1 0.12739964E+03</rscale>
<asrwt>0</asrwt>
<pdfrwt beam="1">  1       21 0.71457859E-01 0.12739964E+03</pdfrwt>
<pdfrwt beam="2">  1        4 0.24569688E-02 0.12739964E+03</pdfrwt>
<totfact> 0.53029931E+04</totfact>
</mgrwt>
</event>
<event>
 6    4  0.3995738E-003  0.1268883E+03  0.7818608E-02  0.1232147E+00
         21   -1    0    0  501  502  0.00000000000E+00  0.00000000000E+00  0.21659608653E+02  0.21659608653E+02  0.00000000000E+00 0.  1.
         -4   -1    0    0    0  501 -0.00000000000E+00 -0.00000000000E+00 -0.49949012225E+03  0.49949173679E+03  0.12700000000E+01 0. -1.
         25    2    1    2    0    0  0.20435646982E+02  0.75629422522E+01 -0.48243579521E+03  0.49884360504E+03  0.12500332807E+03 0.  0.
    9000005    1    3    3    0    0  0.66476125636E+02  0.26548359746E+02 -0.35231325940E+03  0.35951289745E+03  0.10000000000E+01 0.  0.
    9000005    1    3    3    0    0 -0.46040478654E+02 -0.18985417494E+02 -0.13012253581E+03  0.13933070759E+03  0.10000000000E+01 0.  0.
         -4    1    1    2    0  502 -0.20435646982E+02 -0.75629422522E+01  0.46052816157E+01  0.22307740402E+02  0.12700000000E+01 0.  1.
<mgrwt>
<rscale>  1 0.12688832E+03</rscale>
<asrwt>0</asrwt>
<pdfrwt beam="1">  1       21 0.33322474E-02 0.12688832E+03</pdfrwt>
<pdfrwt beam="2">  1       -4 0.76847623E-01 0.12688832E+03</pdfrwt>
<totfact> 0.33175046E+04</totfact>
</mgrwt>
</event>
<event>
 6    4  0.3995738E-003  0.1266933E+03  0.7818608E-02  0.1232446E+00
         -4   -1    0    0    0  501 -0.00000000000E+00  0.00000000000E+00  0.51236658886E+02  0.51252396176E+02  0.12700000000E+01 0.  1.
         21   -1    0    0  501  502  0.00000000000E+00 -0.00000000000E+00 -0.11318749757E+03  0.11318749757E+03  0.00000000000E+00 0. -1.
         25    2    1    2    0    0  0.15443406033E+02 -0.13746581853E+02 -0.36947873242E+02  0.13197100890E+03  0.12499493809E+03 0.  0.
    9000005    1    3    3    0    0 -0.41938600764E+01 -0.45039606855E+02 -0.69360715450E+02  0.82813425818E+02  0.10000000000E+01 0.  0.
    9000005    1    3    3    0    0  0.19637266109E+02  0.31293025002E+02  0.32412842208E+02  0.49157583078E+02  0.10000000000E+01 0.  0.
         -4    1    1    2    0  502 -0.15443406033E+02  0.13746581853E+02 -0.25002965447E+02  0.32468884854E+02  0.12700000000E+01 0. -1.
<mgrwt>
<rscale>  1 0.12669334E+03</rscale>
<asrwt>0</asrwt>
<pdfrwt beam="2">  1       21 0.17413461E-01 0.12669334E+03</pdfrwt>
<pdfrwt beam="1">  1       -4 0.78843216E-02 0.12669334E+03</pdfrwt>
<totfact> 0.13465040E+05</totfact>
</mgrwt>
</event>
<event>
 6    4  0.3995738E-003  0.1270650E+03  0.7818608E-02  0.1231877E+00
         -4   -1    0    0    0  501 -0.00000000000E+00  0.00000000000E+00  0.50752765014E+03  0.50752923912E+03  0.12700000000E+01 0.  1.
         21   -1    0    0  501  502  0.00000000000E+00 -0.00000000000E+00 -0.85560105934E+02  0.85560105934E+02  0.00000000000E+00 0. -1.
         25    2    1    2    0    0  0.10791230313E+02 -0.20094914323E+02  0.49786731682E+03  0.51382620977E+03  0.12500100980E+03 0.  0.
    9000005    1    3    3    0    0  0.33661935108E+02 -0.92489866357E+01  0.48338859425E+03  0.48464853521E+03  0.10000000000E+01 0.  0.
    9000005    1    3    3    0    0 -0.22870704795E+02 -0.10845927687E+02  0.14478722570E+02  0.29177674556E+02  0.10000000000E+01 0.  0.
         -4    1    1    2    0  502 -0.10791230313E+02  0.20094914323E+02 -0.75899772611E+02  0.79263135288E+02  0.12700000000E+01 0. -1.
<mgrwt>
<rscale>  1 0.12706498E+03</rscale>
<asrwt>0</asrwt>
<pdfrwt beam="2">  1       21 0.13163094E-01 0.12706498E+03</pdfrwt>
<pdfrwt beam="1">  1       -4 0.78082022E-01 0.12706498E+03</pdfrwt>
<totfact> 0.30668716E+03</totfact>
</mgrwt>
</event>
<event>
 6    4  0.3995738E-003  0.1274347E+03  0.7818608E-02  0.1231313E+00
         -4   -1    0    0    0  501 -0.00000000000E+00  0.00000000000E+00  0.42394095525E+02  0.42413113956E+02  0.12700000000E+01 0.  1.
         21   -1    0    0  501  502  0.00000000000E+00 -0.00000000000E+00 -0.20879128156E+03  0.20879128156E+03  0.00000000000E+00 0.  1.
         25    2    1    2    0    0 -0.21005400750E+02 -0.13204242031E+02 -0.58028801894E+02  0.14002481803E+03  0.12499611573E+03 0.  0.
    9000005    1    3    3    0    0  0.23238777673E+02 -0.58372035365E+02 -0.39140008609E+02  0.74028883378E+02  0.10000000000E+01 0.  0.
    9000005    1    3    3    0    0 -0.44244178423E+02  0.45167793334E+02 -0.18888793285E+02  0.65995934653E+02  0.10000000000E+01 0.  0.
         -4    1    1    2    0  502  0.21005400750E+02  0.13204242031E+02 -0.10836838414E+03  0.11117957748E+03  0.12700000000E+01 0. -1.
<mgrwt>
<rscale>  1 0.12743472E+03</rscale>
<asrwt>0</asrwt>
<pdfrwt beam="2">  1       21 0.32121735E-01 0.12743472E+03</pdfrwt>
<pdfrwt beam="1">  1       -4 0.65239287E-02 0.12743472E+03</pdfrwt>
<totfact> 0.58155463E+04</totfact>
</mgrwt>
</event>
<event>
 6    4  0.3995738E-003  0.1307706E+03  0.7818608E-02  0.1226317E+00
         21   -1    0    0  501  502  0.00000000000E+00  0.00000000000E+00  0.29376742658E+02  0.29376742658E+02  0.00000000000E+00 0.  1.
         -4   -1    0    0    0  501 -0.00000000000E+00 -0.00000000000E+00 -0.11246273914E+04  0.11246281084E+04  0.12700000000E+01 0. -1.
         25    2    1    2    0    0  0.30456460752E+02 -0.23375070658E+02 -0.11063249145E+04  0.11140268297E+04  0.12500788385E+03 0.  0.
    9000005    1    3    3    0    0 -0.80454827735E+01 -0.58066322013E+02 -0.87515487246E+03  0.87711657055E+03  0.10000000000E+01 0.  0.
    9000005    1    3    3    0    0  0.38501943525E+02  0.34691251355E+02 -0.23117004202E+03  0.23691025918E+03  0.10000000000E+01 0.  0.
         -4    1    1    2    0  502 -0.30456460752E+02  0.23375070658E+02  0.11074265783E+02  0.39978021367E+02  0.12700000000E+01 0.  1.
<mgrwt>
<rscale>  1 0.13077064E+03</rscale>
<asrwt>0</asrwt>
<pdfrwt beam="1">  1       21 0.45194987E-02 0.13077064E+03</pdfrwt>
<pdfrwt beam="2">  1       -4 0.17302177E+00 0.13077064E+03</pdfrwt>
<totfact> 0.28736639E+03</totfact>
</mgrwt>
</event>
<event>
 6    4  0.3995738E-003  0.1503545E+03  0.7818608E-02  0.1200038E+00
         21   -1    0    0  501  502  0.00000000000E+00  0.00000000000E+00  0.65320975879E+03  0.65320975879E+03  0.00000000000E+00 0.  1.
         -4   -1    0    0    0  501 -0.00000000000E+00 -0.00000000000E+00 -0.25146873499E+02  0.25178922669E+02  0.12700000000E+01 0. -1.
         25    2    1    2    0    0  0.80082557697E+02  0.23817584585E+02  0.25450835616E+03  0.29560271970E+03  0.12500388457E+03 0.  0.
    9000005    1    3    3    0    0  0.26919350551E+01  0.91454308893E+01 -0.13330749109E+02  0.16419326792E+02  0.10000000000E+01 0.  0.
    9000005    1    3    3    0    0  0.77390622642E+02  0.14672153696E+02  0.26783910527E+03  0.27918339291E+03  0.10000000000E+01 0.  0.
         -4    1    1    2    0  502 -0.80082557697E+02 -0.23817584585E+02  0.37355452913E+03  0.38278596176E+03  0.12700000000E+01 0.  1.
<mgrwt>
<rscale>  1 0.15035446E+03</rscale>
<asrwt>0</asrwt>
<pdfrwt beam="1">  1       21 0.10049380E+00 0.15035446E+03</pdfrwt>
<pdfrwt beam="2">  1       -4 0.38713106E-02 0.15035446E+03</pdfrwt>
<totfact> 0.12162313E+04</totfact>
</mgrwt>
</event>
<event>
 6    4  0.3995738E-003  0.1322464E+03  0.7818608E-02  0.1224160E+00
         -4   -1    0    0    0  501 -0.00000000000E+00  0.00000000000E+00  0.12051860926E+03  0.12052530057E+03  0.12700000000E+01 0. -1.
         21   -1    0    0  501  502  0.00000000000E+00 -0.00000000000E+00 -0.82593231789E+02  0.82593231789E+02  0.00000000000E+00 0. -1.
         25    2    1    2    0    0  0.37515649093E+02 -0.21376444222E+02  0.69703743398E+02  0.14949154535E+03  0.12499893596E+03 0.  0.
    9000005    1    3    3    0    0  0.16797601485E+02  0.46671678709E+02  0.59744999414E+02  0.77658676039E+02  0.10000000000E+01 0.  0.
    9000005    1    3    3    0    0  0.20718047608E+02 -0.68048122932E+02  0.99587439839E+01  0.71832869307E+02  0.10000000000E+01 0.  0.
         -4    1    1    2    0  502 -0.37515649093E+02  0.21376444222E+02 -0.31778365932E+02  0.53626987010E+02  0.12700000000E+01 0.  1.
<mgrwt>
<rscale>  1 0.13224640E+03</rscale>
<asrwt>0</asrwt>
<pdfrwt beam="2">  1       21 0.12706651E-01 0.13224640E+03</pdfrwt>
<pdfrwt beam="1">  1       -4 0.18542590E-01 0.13224640E+03</pdfrwt>
<totfact> 0.55245705E+04</totfact>
</mgrwt>
</event>
<event>
 6    4  0.3995738E-003  0.1465006E+03  0.7818608E-02  0.1204840E+00
         21   -1    0    0  501  502  0.00000000000E+00  0.00000000000E+00  0.25857970853E+02  0.25857970853E+02  0.00000000000E+00 0. -1.
          4   -1    0    0  502    0 -0.00000000000E+00 -0.00000000000E+00 -0.13129440947E+04  0.13129447090E+04  0.12700000000E+01 0.  1.
         25    2    1    2    0    0 -0.56838564793E+02  0.51030172941E+02 -0.12409268579E+04  0.12495446733E+04  0.12501089059E+03 0.  0.
    9000005    1    3    3    0    0 -0.79249139531E+02  0.25019324183E+02 -0.43394535073E+03  0.44183250233E+03  0.10000000000E+01 0.  0.
    9000005    1    3    3    0    0  0.22410574738E+02  0.26010848758E+02 -0.80698150721E+03  0.80771217094E+03  0.10000000000E+01 0.  0.
          4    1    1    2  501    0  0.56838564793E+02 -0.51030172941E+02 -0.46159265932E+02  0.89258006529E+02  0.12700000000E+01 0. -1.
<mgrwt>
<rscale>  1 0.14650059E+03</rscale>
<asrwt>0</asrwt>
<pdfrwt beam="1">  1       21 0.39781501E-02 0.14650059E+03</pdfrwt>
<pdfrwt beam="2">  1        4 0.20199381E+00 0.14650059E+03</pdfrwt>
<totfact> 0.23266517E+03</totfact>
</mgrwt>
</event>
<event>
 6    4  0.3995738E-003  0.1266729E+03  0.7818608E-02  0.1232478E+00
          4   -1    0    0  502    0 -0.00000000000E+00  0.00000000000E+00  0.78880094384E+02  0.78890317467E+02  0.12700000000E+01 0. -1.
         21   -1    0    0  501  502  0.00000000000E+00 -0.00000000000E+00 -0.70140015661E+02  0.70140015661E+02  0.00000000000E+00 0. -1.
         25    2    1    2    0    0  0.12342470419E+02  0.16154969930E+02  0.15385612333E+02  0.12760381576E+03  0.12503078461E+03 0.  0.
    9000005    1    3    3    0    0  0.24283477550E+02 -0.49712957243E+02 -0.95651573146E+01  0.56156545783E+02  0.10000000000E+01 0.  0.
    9000005    1    3    3    0    0 -0.11941007132E+02  0.65867927173E+02  0.24950769648E+02  0.71447269979E+02  0.10000000000E+01 0.  0.
          4    1    1    2  501    0 -0.12342470419E+02 -0.16154969930E+02 -0.66455336107E+01  0.21426517366E+02  0.12700000000E+01 0.  1.
<mgrwt>
<rscale>  1 0.12667287E+03</rscale>
<asrwt>0</asrwt>
<pdfrwt beam="2">  1       21 0.10790772E-01 0.12667287E+03</pdfrwt>
<pdfrwt beam="1">  1        4 0.12137070E-01 0.12667287E+03</pdfrwt>
<totfact> 0.15359558E+05</totfact>
</mgrwt>
</event>
<event>
 6    4  0.3995738E-003  0.1280991E+03  0.7818608E-02  0.1230304E+00
         -4   -1    0    0    0  501 -0.00000000000E+00  0.00000000000E+00  0.13793826005E+03  0.13794410638E+03  0.12700000000E+01 0.  1.
         21   -1    0    0  501  502  0.00000000000E+00 -0.00000000000E+00 -0.44301934410E+02  0.44301934410E+02  0.00000000000E+00 0.  1.
         25    2    1    2    0    0 -0.17937876749E+02  0.21463960136E+02  0.72776958830E+02  0.14732906654E+03  0.12500759619E+03 0.  0.
    9000005    1    3    3    0    0  0.88272879541E+01 -0.24374386833E+02  0.88287262473E+02  0.92019956863E+02  0.10000000000E+01 0.  0.
    9000005    1    3    3    0    0 -0.26765164703E+02  0.45838346968E+02 -0.15510303643E+02  0.55309109679E+02  0.10000000000E+01 0.  0.
         -4    1    1    2    0  502  0.17937876749E+02 -0.21463960136E+02  0.20859366808E+02  0.34916974247E+02  0.12700000000E+01 0. -1.
<mgrwt>
<rscale>  1 0.12809906E+03</rscale>
<asrwt>0</asrwt>
<pdfrwt beam="2">  1       21 0.68156823E-02 0.12809906E+03</pdfrwt>
<pdfrwt beam="1">  1       -4 0.21223120E-01 0.12809906E+03</pdfrwt>
<totfact> 0.12774381E+05</totfact>
</mgrwt>
</event>
<event>
 6    4  0.3995738E-003  0.1270167E+03  0.7818608E-02  0.1231951E+00
         21   -1    0    0  501  502  0.00000000000E+00  0.00000000000E+00  0.43972928668E+01  0.43972928668E+01  0.00000000000E+00 0.  1.
          4   -1    0    0  502    0 -0.00000000000E+00 -0.00000000000E+00 -0.19848070640E+04  0.19848074703E+04  0.12700000000E+01 0. -1.
         25    2    1    2    0    0 -0.19180037980E+02  0.11847454674E+02 -0.19274721589E+04  0.19316527022E+04  0.12500000945E+03 0.  0.
    9000005    1    3    3    0    0 -0.37174551237E+02 -0.40268630552E+02 -0.14450273698E+04  0.14460665992E+04  0.10000000000E+01 0.  0.
    9000005    1    3    3    0    0  0.17994513257E+02  0.52116085226E+02 -0.48244478909E+03  0.48558610293E+03  0.10000000000E+01 0.  0.
          4    1    1    2  501    0  0.19180037980E+02 -0.11847454674E+02 -0.52937612224E+02  0.57552061016E+02  0.12700000000E+01 0.  1.
<mgrwt>
<rscale>  1 0.12701669E+03</rscale>
<asrwt>0</asrwt>
<pdfrwt beam="1">  1       21 0.67650749E-03 0.12701669E+03</pdfrwt>
<pdfrwt beam="2">  1        4 0.30536867E+00 0.12701669E+03</pdfrwt>
<totfact> 0.99156338E+03</totfact>
</mgrwt>
</event>
<event>
 6    4  0.3995738E-003  0.1284266E+03  0.7818608E-02  0.1229809E+00
         21   -1    0    0  501  502  0.00000000000E+00  0.00000000000E+00  0.16795788460E+02  0.16795788460E+02  0.00000000000E+00 0.  1.
          4   -1    0    0  502    0 -0.00000000000E+00 -0.00000000000E+00 -0.51923172865E+03  0.51923328181E+03  0.12700000000E+01 0. -1.
         25    2    1    2    0    0 -0.90196608013E+01  0.28118219454E+02 -0.48499397637E+03  0.50170963630E+03  0.12498565315E+03 0.  0.
    9000005    1    3    3    0    0 -0.46787169317E+02 -0.26835539966E+02 -0.13427079783E+03  0.14470256587E+03  0.10000000000E+01 0.  0.
    9000005    1    3    3    0    0  0.37767508516E+02  0.54953759420E+02 -0.35072317854E+03  0.35700707043E+03  0.10000000000E+01 0.  0.
          4    1    1    2  501    0  0.90196608013E+01 -0.28118219454E+02 -0.17441963822E+02  0.34319433972E+02  0.12700000000E+01 0.  1.
<mgrwt>
<rscale>  1 0.12842664E+03</rscale>
<asrwt>0</asrwt>
<pdfrwt beam="1">  1       21 0.25839675E-02 0.12842664E+03</pdfrwt>
<pdfrwt beam="2">  1        4 0.79885617E-01 0.12842664E+03</pdfrwt>
<totfact> 0.46278944E+04</totfact>
</mgrwt>
</event>
<event>
 6    4  0.3995738E-003  0.1310091E+03  0.7818608E-02  0.1225966E+00
         21   -1    0    0  501  502  0.00000000000E+00  0.00000000000E+00  0.72590481129E+01  0.72590481129E+01  0.00000000000E+00 0. -1.
          4   -1    0    0  502    0 -0.00000000000E+00 -0.00000000000E+00 -0.13773111274E+04  0.13773117130E+04  0.12700000000E+01 0. -1.
         25    2    1    2    0    0 -0.39041770183E+02  0.38500096863E+01 -0.12752828274E+04  0.12819944168E+04  0.12499724983E+03 0.  0.
    9000005    1    3    3    0    0 -0.74144652297E+02  0.34039050543E+02 -0.67161076352E+03  0.67654867090E+03  0.10000000000E+01 0.  0.
    9000005    1    3    3    0    0  0.35102882114E+02 -0.30189040857E+02 -0.60367206386E+03  0.60544574588E+03  0.10000000000E+01 0.  0.
          4    1    1    2  501    0  0.39041770183E+02 -0.38500096863E+01 -0.94769251934E+02  0.10257634428E+03  0.12700000000E+01 0.  1.
<mgrwt>
<rscale>  1 0.13100914E+03</rscale>
<asrwt>0</asrwt>
<pdfrwt beam="1">  1       21 0.11167752E-02 0.13100914E+03</pdfrwt>
<pdfrwt beam="2">  1        4 0.21190287E+00 0.13100914E+03</pdfrwt>
<totfact> 0.15752688E+04</totfact>
</mgrwt>
</event>
<event>
 6    4  0.3995738E-003  0.1301747E+03  0.7818608E-02  0.1227197E+00
         21   -1    0    0  501  502  0.00000000000E+00  0.00000000000E+00  0.72960308799E+02  0.72960308799E+02  0.00000000000E+00 0. -1.
          4   -1    0    0  502    0 -0.00000000000E+00 -0.00000000000E+00 -0.28854189103E+03  0.28854468593E+03  0.12700000000E+01 0.  1.
         25    2    1    2    0    0  0.35823619514E+02  0.61042567162E+01 -0.26786471698E+03  0.29782035965E+03  0.12499946541E+03 0.  0.
    9000005    1    3    3    0    0  0.21293974734E+02 -0.47588504404E+01  0.65513082087E+01  0.22803500975E+02  0.10000000000E+01 0.  0.
    9000005    1    3    3    0    0  0.14529644780E+02  0.10863107157E+02 -0.27441602519E+03  0.27501685868E+03  0.10000000000E+01 0.  0.
          4    1    1    2  501    0 -0.35823619514E+02 -0.61042567162E+01  0.52283134754E+02  0.63684635077E+02  0.12700000000E+01 0. -1.
<mgrwt>
<rscale>  1 0.13017473E+03</rscale>
<asrwt>0</asrwt>
<pdfrwt beam="1">  1       21 0.11224663E-01 0.13017473E+03</pdfrwt>
<pdfrwt beam="2">  1        4 0.44392126E-01 0.13017473E+03</pdfrwt>
<totfact> 0.13290146E+04</totfact>
</mgrwt>
</event>
<event>
 6    4  0.3995738E-003  0.1270475E+03  0.7818608E-02  0.1231904E+00
         21   -1    0    0  501  502  0.00000000000E+00  0.00000000000E+00  0.36646521594E+03  0.36646521594E+03  0.00000000000E+00 0.  1.
         -4   -1    0    0    0  501 -0.00000000000E+00 -0.00000000000E+00 -0.15279565842E+02  0.15332254639E+02  0.12700000000E+01 0.  1.
         25    2    1    2    0    0 -0.14625001478E+02 -0.17370742997E+02  0.29864498679E+03  0.32454567950E+03  0.12500174627E+03 0.  0.
    9000005    1    3    3    0    0 -0.38239105316E+02  0.44656423778E+02  0.11285760298E+03  0.12725668513E+03  0.10000000000E+01 0.  0.
    9000005    1    3    3    0    0  0.23614103838E+02 -0.62027166775E+02  0.18578738380E+03  0.19728899437E+03  0.10000000000E+01 0.  0.
         -4    1    1    2    0  502  0.14625001478E+02  0.17370742997E+02  0.52540663312E+02  0.57251791079E+02  0.12700000000E+01 0. -1.
<mgrwt>
<rscale>  1 0.12704751E+03</rscale>
<asrwt>0</asrwt>
<pdfrwt beam="1">  1       21 0.56379257E-01 0.12704751E+03</pdfrwt>
<pdfrwt beam="2">  1       -4 0.23549250E-02 0.12704751E+03</pdfrwt>
<totfact> 0.94092519E+04</totfact>
</mgrwt>
</event>
<event>
 6    4  0.3995738E-003  0.1329911E+03  0.7818608E-02  0.1223084E+00
          4   -1    0    0  502    0 -0.00000000000E+00  0.00000000000E+00  0.19248742165E+03  0.19249161123E+03  0.12700000000E+01 0. -1.
         21   -1    0    0  501  502  0.00000000000E+00 -0.00000000000E+00 -0.10639189969E+03  0.10639189969E+03  0.00000000000E+00 0.  1.
         25    2    1    2    0    0  0.32417572353E+02  0.31798843488E+02  0.16250677354E+03  0.20998830457E+03  0.12499828466E+03 0.  0.
    9000005    1    3    3    0    0  0.69010306067E+02  0.34188599702E+01  0.41948092154E+02  0.80837821484E+02  0.10000000000E+01 0.  0.
    9000005    1    3    3    0    0 -0.36592733715E+02  0.28379983518E+02  0.12055868138E+03  0.12915048309E+03  0.10000000000E+01 0.  0.
          4    1    1    2  501    0 -0.32417572353E+02 -0.31798843488E+02 -0.76411251579E+02  0.88895206352E+02  0.12700000000E+01 0.  1.
<mgrwt>
<rscale>  1 0.13299111E+03</rscale>
<asrwt>0</asrwt>
<pdfrwt beam="2">  1       21 0.16367985E-01 0.13299111E+03</pdfrwt>
<pdfrwt beam="1">  1        4 0.29614355E-01 0.13299111E+03</pdfrwt>
<totfact> 0.14867713E+04</totfact>
</mgrwt>
</event>
<event>
 6    4  0.3995738E-003  0.1274399E+03  0.7818608E-02  0.1231305E+00
         21   -1    0    0  501  502  0.00000000000E+00  0.00000000000E+00  0.33941133309E+03  0.33941133309E+03  0.00000000000E+00 0. -1.
         -4   -1    0    0    0  501 -0.00000000000E+00 -0.00000000000E+00 -0.91502711507E+02  0.91511524482E+02  0.12700000000E+01 0.  1.
         25    2    1    2    0    0 -0.24424034105E+02  0.43767577304E+01 -0.46357655644E+02  0.13560955909E+03  0.12500092331E+03 0.  0.
    9000005    1    3    3    0    0 -0.59485624558E+02 -0.38559018965E+02 -0.34794902259E+02  0.78974823177E+02  0.10000000000E+01 0.  0.
    9000005    1    3    3    0    0  0.35061590453E+02  0.42935776696E+02 -0.11562753385E+02  0.56634735909E+02  0.10000000000E+01 0.  0.
         -4    1    1    2    0  502  0.24424034105E+02 -0.43767577304E+01  0.29426627722E+03  0.29531329848E+03  0.12700000000E+01 0. -1.
<mgrwt>
<rscale>  1 0.12743987E+03</rscale>
<asrwt>0</asrwt>
<pdfrwt beam="1">  1       21 0.52217127E-01 0.12743987E+03</pdfrwt>
<pdfrwt beam="2">  1       -4 0.14078201E-01 0.12743987E+03</pdfrwt>
<totfact> 0.60319704E+03</totfact>
</mgrwt>
</event>
<event>
 6    4  0.3995738E-003  0.1290526E+03  0.7818608E-02  0.1228868E+00
         21   -1    0    0  501  502  0.00000000000E+00  0.00000000000E+00  0.11849272481E+02  0.11849272481E+02  0.00000000000E+00 0.  1.
          4   -1    0    0  502    0 -0.00000000000E+00 -0.00000000000E+00 -0.59959548347E+03  0.59959682846E+03  0.12700000000E+01 0.  1.
         25    2    1    2    0    0 -0.50000797295E+01 -0.31705205786E+02 -0.52875649796E+03  0.54427750698E+03  0.12499739837E+03 0.  0.
    9000005    1    3    3    0    0 -0.77714220001E+01 -0.62536978356E+02 -0.49282877686E+03  0.49684250217E+03  0.10000000000E+01 0.  0.
    9000005    1    3    3    0    0  0.27713422706E+01  0.30831772570E+02 -0.35927721093E+02  0.47435004804E+02  0.10000000000E+01 0.  0.
          4    1    1    2  501    0  0.50000797295E+01  0.31705205786E+02 -0.58989713035E+02  0.67168593965E+02  0.12700000000E+01 0. -1.
<mgrwt>
<rscale>  1 0.12905259E+03</rscale>
<asrwt>0</asrwt>
<pdfrwt beam="1">  1       21 0.18229651E-02 0.12905259E+03</pdfrwt>
<pdfrwt beam="2">  1        4 0.92250795E-01 0.12905259E+03</pdfrwt>
<totfact> 0.59032416E+04</totfact>
</mgrwt>
</event>
<event>
 6    4  0.3995738E-003  0.1294051E+03  0.7818608E-02  0.1228341E+00
         -4   -1    0    0    0  501 -0.00000000000E+00  0.00000000000E+00  0.12682836740E+02  0.12746264071E+02  0.12700000000E+01 0. -1.
         21   -1    0    0  501  502  0.00000000000E+00 -0.00000000000E+00 -0.56857183950E+03  0.56857183950E+03  0.00000000000E+00 0. -1.
         25    2    1    2    0    0 -0.25629572819E+02  0.21509181683E+02 -0.35918532547E+03  0.38178497484E+03  0.12500459626E+03 0.  0.
    9000005    1    3    3    0    0 -0.56864877639E+02  0.15325252932E+02 -0.72852810905E+02  0.93685696577E+02  0.10000000000E+01 0.  0.
    9000005    1    3    3    0    0  0.31235304820E+02  0.61839287511E+01 -0.28633251456E+03  0.28809927827E+03  0.10000000000E+01 0.  0.
         -4    1    1    2    0  502  0.25629572819E+02 -0.21509181683E+02 -0.19670367729E+03  0.19953312873E+03  0.12700000000E+01 0.  1.
<mgrwt>
<rscale>  1 0.12940506E+03</rscale>
<asrwt>0</asrwt>
<pdfrwt beam="2">  1       21 0.87472571E-01 0.12940506E+03</pdfrwt>
<pdfrwt beam="1">  1       -4 0.19561942E-02 0.12940506E+03</pdfrwt>
<totfact> 0.48115746E+04</totfact>
</mgrwt>
</event>
<event>
 6    4  0.3995738E-003  0.1276217E+03  0.7818608E-02  0.1231028E+00
         -4   -1    0    0    0  501 -0.00000000000E+00  0.00000000000E+00  0.80209266586E+02  0.80219320281E+02  0.12700000000E+01 0.  1.
         21   -1    0    0  501  502  0.00000000000E+00 -0.00000000000E+00 -0.14432971852E+03  0.14432971852E+03  0.00000000000E+00 0. -1.
         25    2    1    2    0    0 -0.22932025441E+02 -0.11692682711E+02  0.26492314522E+02  0.13034244155E+03  0.12499885088E+03 0.  0.
    9000005    1    3    3    0    0  0.36778030502E+02 -0.45327003349E+02  0.19009551501E+02  0.61396447850E+02  0.10000000000E+01 0.  0.
    9000005    1    3    3    0    0 -0.59710055944E+02  0.33634320638E+02  0.74827630207E+01  0.68945993705E+02  0.10000000000E+01 0.  0.
         -4    1    1    2    0  502  0.22932025441E+02  0.11692682711E+02 -0.90612766455E+02  0.94206597245E+02  0.12700000000E+01 0. -1.
<mgrwt>
<rscale>  1 0.12762174E+03</rscale>
<asrwt>0</asrwt>
<pdfrwt beam="2">  1       21 0.22204572E-01 0.12762174E+03</pdfrwt>
<pdfrwt beam="1">  1       -4 0.12341090E-01 0.12762174E+03</pdfrwt>
<totfact> 0.40520776E+04</totfact>
</mgrwt>
</event>
<event>
 6    4  0.3995738E-003  0.1469038E+03  0.7818608E-02  0.1204330E+00
         21   -1    0    0  501  502  0.00000000000E+00  0.00000000000E+00  0.26064542762E+03  0.26064542762E+03  0.00000000000E+00 0.  1.
          4   -1    0    0  502    0 -0.00000000000E+00 -0.00000000000E+00 -0.81246523669E+02  0.81256449026E+02  0.12700000000E+01 0. -1.
         25    2    1    2    0    0 -0.30306727419E+02  0.70977367343E+02  0.32853299677E+00  0.14690419703E+03  0.12499780306E+03 0.  0.
    9000005    1    3    3    0    0 -0.35717058052E+02 -0.29312137881E+02 -0.38581500801E+01  0.46376664230E+02  0.10000000000E+01 0.  0.
    9000005    1    3    3    0    0  0.54103306329E+01  0.10028950522E+03  0.41866830769E+01  0.10052753280E+03  0.10000000000E+01 0.  0.
          4    1    1    2  501    0  0.30306727419E+02 -0.70977367343E+02  0.17907037096E+03  0.19499767962E+03  0.12700000000E+01 0.  1.
<mgrwt>
<rscale>  1 0.14690383E+03</rscale>
<asrwt>0</asrwt>
<pdfrwt beam="1">  1       21 0.40099296E-01 0.14690383E+03</pdfrwt>
<pdfrwt beam="2">  1        4 0.12500467E-01 0.14690383E+03</pdfrwt>
<totfact> 0.12820846E+04</totfact>
</mgrwt>
</event>
<event>
 6    4  0.3995738E-003  0.1326218E+03  0.7818608E-02  0.1223617E+00
         21   -1    0    0  501  502  0.00000000000E+00  0.00000000000E+00  0.10758772121E+03  0.10758772121E+03  0.00000000000E+00 0. -1.
         -4   -1    0    0    0  501 -0.00000000000E+00 -0.00000000000E+00 -0.18545547870E+03  0.18545982714E+03  0.12700000000E+01 0.  1.
         25    2    1    2    0    0 -0.44192846038E+02  0.30059033212E+01 -0.15506043402E+03  0.20403987843E+03  0.12500596264E+03 0.  0.
    9000005    1    3    3    0    0 -0.12000952095E+02  0.11518975355E+02  0.19888578035E+02  0.25947354020E+02  0.10000000000E+01 0.  0.
    9000005    1    3    3    0    0 -0.32191893943E+02 -0.85130720338E+01 -0.17494901205E+03  0.17809252441E+03  0.10000000000E+01 0.  0.
         -4    1    1    2    0  502  0.44192846038E+02 -0.30059033212E+01  0.77192676520E+02  0.89007669917E+02  0.12700000000E+01 0. -1.
<mgrwt>
<rscale>  1 0.13262177E+03</rscale>
<asrwt>0</asrwt>
<pdfrwt beam="1">  1       21 0.16551957E-01 0.13262177E+03</pdfrwt>
<pdfrwt beam="2">  1       -4 0.28532523E-01 0.13262177E+03</pdfrwt>
<totfact> 0.15621246E+04</totfact>
</mgrwt>
</event>
<event>
 6    4  0.3995738E-003  0.1354276E+03  0.7818608E-02  0.1219617E+00
          4   -1    0    0  502    0 -0.00000000000E+00  0.00000000000E+00  0.37134093580E+03  0.37134310751E+03  0.12700000000E+01 0.  1.
         21   -1    0    0  501  502  0.00000000000E+00 -0.00000000000E+00 -0.30006304373E+02  0.30006304373E+02  0.00000000000E+00 0.  1.
         25    2    1    2    0    0 -0.28799557968E+02 -0.43443956752E+02  0.31512661899E+03  0.34299476569E+03  0.12499532542E+03 0.  0.
    9000005    1    3    3    0    0  0.87932681859E+01  0.39904470481E+02  0.13400645200E+03  0.14010145433E+03  0.10000000000E+01 0.  0.
    9000005    1    3    3    0    0 -0.37592826154E+02 -0.83348427233E+02  0.18112016699E+03  0.20289331135E+03  0.10000000000E+01 0.  0.
          4    1    1    2  501    0  0.28799557968E+02  0.43443956752E+02  0.26208012436E+02  0.58354646202E+02  0.12700000000E+01 0. -1.
<mgrwt>
<rscale>  1 0.13542756E+03</rscale>
<asrwt>0</asrwt>
<pdfrwt beam="2">  1       21 0.46163548E-02 0.13542756E+03</pdfrwt>
<pdfrwt beam="1">  1        4 0.57131606E-01 0.13542756E+03</pdfrwt>
<totfact> 0.36660253E+04</totfact>
</mgrwt>
</event>
<event>
 6    4  0.3995738E-003  0.1300741E+03  0.7818608E-02  0.1227346E+00
          4   -1    0    0  502    0 -0.00000000000E+00  0.00000000000E+00  0.14656823447E+03  0.14657373658E+03  0.12700000000E+01 0.  1.
         21   -1    0    0  501  502  0.00000000000E+00 -0.00000000000E+00 -0.51632316839E+02  0.51632316839E+02  0.00000000000E+00 0.  1.
         25    2    1    2    0    0  0.30618753315E+02  0.18902100208E+02  0.96818110239E+02  0.16215119250E+03  0.12499786123E+03 0.  0.
    9000005    1    3    3    0    0  0.60978390716E+01  0.63076319267E+02  0.91545227441E+02  0.11134331754E+03  0.10000000000E+01 0.  0.
    9000005    1    3    3    0    0  0.24520914244E+02 -0.44174219059E+02  0.52728827984E+01  0.50807874959E+02  0.10000000000E+01 0.  0.
          4    1    1    2  501    0 -0.30618753315E+02 -0.18902100208E+02 -0.18821926113E+01  0.36054860919E+02  0.12700000000E+01 0. -1.
<mgrwt>
<rscale>  1 0.13007407E+03</rscale>
<asrwt>0</asrwt>
<pdfrwt beam="2">  1       21 0.79434335E-02 0.13007407E+03</pdfrwt>
<pdfrwt beam="1">  1        4 0.22550584E-01 0.13007407E+03</pdfrwt>
<totfact> 0.88184638E+04</totfact>
</mgrwt>
</event>
<event>
 6    4  0.3995738E-003  0.1295330E+03  0.7818608E-02  0.1228150E+00
          4   -1    0    0  502    0 -0.00000000000E+00  0.00000000000E+00  0.92783394020E+01  0.93648535525E+01  0.12700000000E+01 0.  1.
         21   -1    0    0  501  502  0.00000000000E+00 -0.00000000000E+00 -0.73243042667E+03  0.73243042667E+03  0.00000000000E+00 0.  1.
         25    2    1    2    0    0  0.22980694827E+02 -0.25107925828E+02 -0.52545353345E+03  0.54118408573E+03  0.12498111280E+03 0.  0.
    9000005    1    3    3    0    0  0.32623796627E+02  0.35748002122E+02 -0.97913400285E+02  0.10922575574E+03  0.10000000000E+01 0.  0.
    9000005    1    3    3    0    0 -0.96431017998E+01 -0.60855927950E+02 -0.42754013317E+03  0.43195832999E+03  0.10000000000E+01 0.  0.
          4    1    1    2  501    0 -0.22980694827E+02  0.25107925828E+02 -0.19769855381E+03  0.20061119449E+03  0.12700000000E+01 0. -1.
<mgrwt>
<rscale>  1 0.12953300E+03</rscale>
<asrwt>0</asrwt>
<pdfrwt beam="2">  1       21 0.11268161E+00 0.12953300E+03</pdfrwt>
<pdfrwt beam="1">  1        4 0.14341764E-02 0.12953300E+03</pdfrwt>
<totfact> 0.42791057E+04</totfact>
</mgrwt>
</event>
<event>
 6    4  0.3995738E-003  0.1338724E+03  0.7818608E-02  0.1221820E+00
         -4   -1    0    0    0  501 -0.00000000000E+00  0.00000000000E+00  0.14434080248E+03  0.14434638950E+03  0.12700000000E+01 0.  1.
         21   -1    0    0  501  502  0.00000000000E+00 -0.00000000000E+00 -0.75801888973E+02  0.75801888973E+02  0.00000000000E+00 0. -1.
         25    2    1    2    0    0  0.14864100106E+02 -0.45567262817E+02  0.96146510008E+02  0.16482098686E+03  0.12499795762E+03 0.  0.
    9000005    1    3    3    0    0  0.33610985424E+02 -0.84350264425E+00 -0.19874406672E+02  0.39069193470E+02  0.10000000000E+01 0.  0.
    9000005    1    3    3    0    0 -0.18746885317E+02 -0.44723760173E+02  0.11602091668E+03  0.12575179339E+03  0.10000000000E+01 0.  0.
         -4    1    1    2    0  502 -0.14864100106E+02  0.45567262817E+02 -0.27607596500E+02  0.55327291612E+02  0.12700000000E+01 0. -1.
<mgrwt>
<rscale>  1 0.13387235E+03</rscale>
<asrwt>0</asrwt>
<pdfrwt beam="2">  1       21 0.11661829E-01 0.13387235E+03</pdfrwt>
<pdfrwt beam="1">  1       -4 0.22207525E-01 0.13387235E+03</pdfrwt>
<totfact> 0.46555911E+04</totfact>
</mgrwt>
</event>
<event>
 6    4  0.3995738E-003  0.1384977E+03  0.7818608E-02  0.1215365E+00
         -4   -1    0    0    0  501 -0.00000000000E+00  0.00000000000E+00  0.19304655990E+03  0.19305073734E+03  0.12700000000E+01 0.  1.
         21   -1    0    0  501  502  0.00000000000E+00 -0.00000000000E+00 -0.14631934679E+03  0.14631934679E+03  0.00000000000E+00 0. -1.
         25    2    1    2    0    0 -0.27015384081E+02  0.53168089099E+02  0.15983777124E+03  0.21149401939E+03  0.12499972179E+03 0.  0.
    9000005    1    3    3    0    0  0.40895753570E+02 -0.11656753625E+02  0.67654243808E+02  0.79915200497E+02  0.10000000000E+01 0.  0.
    9000005    1    3    3    0    0 -0.67911137651E+02  0.64824842723E+02  0.92183527428E+02  0.13157881889E+03  0.10000000000E+01 0.  0.
         -4    1    1    2    0  502  0.27015384081E+02 -0.53168089099E+02 -0.11311055813E+03  0.12787606475E+03  0.12700000000E+01 0. -1.
<mgrwt>
<rscale>  1 0.13849768E+03</rscale>
<asrwt>0</asrwt>
<pdfrwt beam="2">  1       21 0.22510669E-01 0.13849768E+03</pdfrwt>
<pdfrwt beam="1">  1       -4 0.29700216E-01 0.13849768E+03</pdfrwt>
<totfact> 0.82425385E+03</totfact>
</mgrwt>
</event>
<event>
 6    4  0.3995738E-003  0.1587287E+03  0.7818608E-02  0.1190140E+00
         -4   -1    0    0    0  501 -0.00000000000E+00  0.00000000000E+00  0.27905526686E+03  0.27905815677E+03  0.12700000000E+01 0. -1.
         21   -1    0    0  501  502  0.00000000000E+00 -0.00000000000E+00 -0.63136019671E+03  0.63136019671E+03  0.00000000000E+00 0.  1.
         25    2    1    2    0    0 -0.81469119185E+02  0.54146307343E+02  0.25223042002E+03  0.29801844972E+03  0.12500308639E+03 0.  0.
    9000005    1    3    3    0    0 -0.92694961225E+02  0.61370514713E+01  0.22077579609E+03  0.23952655673E+03  0.10000000000E+01 0.  0.
    9000005    1    3    3    0    0  0.11225842040E+02  0.48009255872E+02  0.31454623929E+02  0.58491892988E+02  0.10000000000E+01 0.  0.
         -4    1    1    2    0  502  0.81469119185E+02 -0.54146307343E+02 -0.60453534987E+03  0.61239990376E+03  0.12700000000E+01 0.  1.
<mgrwt>
<rscale>  1 0.15872874E+03</rscale>
<asrwt>0</asrwt>
<pdfrwt beam="2">  1       21 0.97132337E-01 0.15872874E+03</pdfrwt>
<pdfrwt beam="1">  1       -4 0.42931900E-01 0.15872874E+03</pdfrwt>
<totfact> 0.19663743E+02</totfact>
</mgrwt>
</event>
<event>
 6    4  0.3995738E-003  0.1267108E+03  0.7818608E-02  0.1232420E+00
         -4   -1    0    0    0  501 -0.00000000000E+00  0.00000000000E+00  0.80076916914E+03  0.80077017623E+03  0.12700000000E+01 0. -1.
         21   -1    0    0  501  502  0.00000000000E+00 -0.00000000000E+00 -0.10295987228E+02  0.10295987228E+02  0.00000000000E+00 0.  1.
         25    2    1    2    0    0  0.22406744964E+01  0.20447350211E+02  0.77501281721E+03  0.78530280713E+03  0.12503006555E+03 0.  0.
    9000005    1    3    3    0    0 -0.21900643257E+02  0.56434264786E+02  0.65334775045E+03  0.65614689471E+03  0.10000000000E+01 0.  0.
    9000005    1    3    3    0    0  0.24141317753E+02 -0.35986914575E+02  0.12166506675E+03  0.12915591242E+03  0.10000000000E+01 0.  0.
         -4    1    1    2    0  502 -0.22406744964E+01 -0.20447350211E+02  0.15460364702E+02  0.25763356334E+02  0.12700000000E+01 0.  1.
<mgrwt>
<rscale>  1 0.12671082E+03</rscale>
<asrwt>0</asrwt>
<pdfrwt beam="2">  1       21 0.15839987E-02 0.12671082E+03</pdfrwt>
<pdfrwt beam="1">  1       -4 0.12320131E+00 0.12671082E+03</pdfrwt>
<totfact> 0.37492844E+04</totfact>
</mgrwt>
</event>
<event>
 6    4  0.3995738E-003  0.1350359E+03  0.7818608E-02  0.1220169E+00
          4   -1    0    0  502    0 -0.00000000000E+00  0.00000000000E+00  0.98210861929E+01  0.99028598904E+01  0.12700000000E+01 0. -1.
         21   -1    0    0  501  502  0.00000000000E+00 -0.00000000000E+00 -0.93505659942E+03  0.93505659942E+03  0.00000000000E+00 0.  1.
         25    2    1    2    0    0 -0.49640186314E+02  0.12069139940E+02 -0.55382328801E+03  0.57004818157E+03  0.12499953093E+03 0.  0.
    9000005    1    3    3    0    0 -0.56017042164E+02 -0.45046107171E+02 -0.38646546373E+03  0.39309491912E+03  0.10000000000E+01 0.  0.
    9000005    1    3    3    0    0  0.63768558498E+01  0.57115247111E+02 -0.16735782429E+03  0.17695326245E+03  0.10000000000E+01 0.  0.
          4    1    1    2  501    0  0.49640186314E+02 -0.12069139940E+02 -0.37141222521E+03  0.37491127773E+03  0.12700000000E+01 0.  1.
<mgrwt>
<rscale>  1 0.13503590E+03</rscale>
<asrwt>0</asrwt>
<pdfrwt beam="2">  1       21 0.14385490E+00 0.13503590E+03</pdfrwt>
<pdfrwt beam="1">  1        4 0.15172926E-02 0.13503590E+03</pdfrwt>
<totfact> 0.21503837E+04</totfact>
</mgrwt>
</event>
<event>
 6    4  0.3995738E-003  0.1301068E+03  0.7818608E-02  0.1227297E+00
         21   -1    0    0  501  502  0.00000000000E+00  0.00000000000E+00  0.29502683936E+03  0.29502683936E+03  0.00000000000E+00 0.  1.
          4   -1    0    0  502    0 -0.00000000000E+00 -0.00000000000E+00 -0.38911991612E+02  0.38932711069E+02  0.12700000000E+01 0. -1.
         25    2    1    2    0    0  0.34416493627E+02  0.10885850229E+02  0.76884174417E+02  0.15112562597E+03  0.12499912712E+03 0.  0.
    9000005    1    3    3    0    0  0.53611042243E+02 -0.43517108459E+02  0.24737126924E+02  0.73353991217E+02  0.10000000000E+01 0.  0.
    9000005    1    3    3    0    0 -0.19194548616E+02  0.54402958688E+02  0.52147047493E+02  0.77771634757E+02  0.10000000000E+01 0.  0.
          4    1    1    2  501    0 -0.34416493627E+02 -0.10885850229E+02  0.17923067333E+03  0.18283392445E+03  0.12700000000E+01 0.  1.
<mgrwt>
<rscale>  1 0.13010680E+03</rscale>
<asrwt>0</asrwt>
<pdfrwt beam="1">  1       21 0.45388743E-01 0.13010680E+03</pdfrwt>
<pdfrwt beam="2">  1        4 0.59882645E-02 0.13010680E+03</pdfrwt>
<totfact> 0.33710445E+04</totfact>
</mgrwt>
</event>
<event>
 6    4  0.3995738E-003  0.1294983E+03  0.7818608E-02  0.1228202E+00
          4   -1    0    0  502    0 -0.00000000000E+00  0.00000000000E+00  0.19625428047E+03  0.19625838963E+03  0.12700000000E+01 0. -1.
         21   -1    0    0  501  502  0.00000000000E+00 -0.00000000000E+00 -0.34387310825E+02  0.34387310825E+02  0.00000000000E+00 0. -1.
         25    2    1    2    0    0  0.29523417498E+02 -0.16547202556E+02  0.13778451658E+03  0.18908827587E+03  0.12499744385E+03 0.  0.
    9000005    1    3    3    0    0 -0.42841635410E+02  0.12629667803E+02  0.81271589295E+02  0.92741498047E+02  0.10000000000E+01 0.  0.
    9000005    1    3    3    0    0  0.72365052908E+02 -0.29176870359E+02  0.56512927288E+02  0.96346777823E+02  0.10000000000E+01 0.  0.
          4    1    1    2  501    0 -0.29523417498E+02  0.16547202556E+02  0.24082453059E+02  0.41557424590E+02  0.12700000000E+01 0.  1.
<mgrwt>
<rscale>  1 0.12949827E+03</rscale>
<asrwt>0</asrwt>
<pdfrwt beam="2">  1       21 0.52903557E-02 0.12949827E+03</pdfrwt>
<pdfrwt beam="1">  1        4 0.30195086E-01 0.12949827E+03</pdfrwt>
<totfact> 0.10249197E+05</totfact>
</mgrwt>
</event>
<event>
 6    4  0.3995738E-003  0.1276070E+03  0.7818608E-02  0.1231050E+00
         21   -1    0    0  501  502  0.00000000000E+00  0.00000000000E+00  0.16134232955E+03  0.16134232955E+03  0.00000000000E+00 0.  1.
         -4   -1    0    0    0  501 -0.00000000000E+00 -0.00000000000E+00 -0.22171772493E+03  0.22172136218E+03  0.12700000000E+01 0. -1.
         25    2    1    2    0    0  0.44285736186E+01  0.25277387474E+02 -0.20210781521E+03  0.23902116221E+03  0.12499995374E+03 0.  0.
    9000005    1    3    3    0    0 -0.56907921162E+02 -0.85151524152E+01 -0.89039350263E+02  0.10601898512E+03  0.10000000000E+01 0.  0.
    9000005    1    3    3    0    0  0.61336494781E+02  0.33792539889E+02 -0.11306846494E+03  0.13300217708E+03  0.10000000000E+01 0.  0.
         -4    1    1    2    0  502 -0.44285736186E+01 -0.25277387474E+02  0.14173241983E+03  0.14404252953E+03  0.12700000000E+01 0.  1.
<mgrwt>
<rscale>  1 0.12760700E+03</rscale>
<asrwt>0</asrwt>
<pdfrwt beam="1">  1       21 0.24821897E-01 0.12760700E+03</pdfrwt>
<pdfrwt beam="2">  1       -4 0.34111083E-01 0.12760700E+03</pdfrwt>
<totfact> 0.52376032E+03</totfact>
</mgrwt>
</event>
<event>
 6    4  0.3995738E-003  0.1449418E+03  0.7818608E-02  0.1206830E+00
         -4   -1    0    0    0  501 -0.00000000000E+00  0.00000000000E+00  0.26777056346E+03  0.26777357517E+03  0.12700000000E+01 0. -1.
         21   -1    0    0  501  502  0.00000000000E+00 -0.00000000000E+00 -0.10260548906E+03  0.10260548906E+03  0.00000000000E+00 0.  1.
         25    2    1    2    0    0  0.10027885518E+02  0.72678936823E+02  0.23039776399E+03  0.27219707485E+03  0.12500132622E+03 0.  0.
    9000005    1    3    3    0    0  0.56834116132E+02 -0.18794003827E+01  0.93109218393E+02  0.10910534108E+03  0.10000000000E+01 0.  0.
    9000005    1    3    3    0    0 -0.46806230614E+02  0.74558337205E+02  0.13728854560E+03  0.16309173377E+03  0.10000000000E+01 0.  0.
         -4    1    1    2    0  502 -0.10027885518E+02 -0.72678936823E+02 -0.65232689589E+02  0.98181989370E+02  0.12700000000E+01 0.  1.
<mgrwt>
<rscale>  1 0.14494177E+03</rscale>
<asrwt>0</asrwt>
<pdfrwt beam="2">  1       21 0.15785460E-01 0.14494177E+03</pdfrwt>
<pdfrwt beam="1">  1       -4 0.41196307E-01 0.14494177E+03</pdfrwt>
<totfact> 0.84553851E+03</totfact>
</mgrwt>
</event>
<event>
 6    4  0.3995738E-003  0.1268266E+03  0.7818608E-02  0.1232242E+00
         21   -1    0    0  501  502  0.00000000000E+00  0.00000000000E+00  0.14792145881E+03  0.14792145881E+03  0.00000000000E+00 0. -1.
         -4   -1    0    0    0  501 -0.00000000000E+00 -0.00000000000E+00 -0.51370290689E+02  0.51385987054E+02  0.12700000000E+01 0.  1.
         25    2    1    2    0    0  0.12669273393E+02 -0.17286224001E+02  0.31323659519E+02  0.13063747567E+03  0.12500261747E+03 0.  0.
    9000005    1    3    3    0    0  0.15257333818E+02  0.42067028736E+02  0.51178250116E+02  0.67989958279E+02  0.10000000000E+01 0.  0.
    9000005    1    3    3    0    0 -0.25880604249E+01 -0.59353252736E+02 -0.19854590597E+02  0.62647517388E+02  0.10000000000E+01 0.  0.
         -4    1    1    2    0  502 -0.12669273393E+02  0.17286224001E+02  0.65227508603E+02  0.68669970198E+02  0.12700000000E+01 0. -1.
<mgrwt>
<rscale>  1 0.12682657E+03</rscale>
<asrwt>0</asrwt>
<pdfrwt beam="1">  1       21 0.22757147E-01 0.12682657E+03</pdfrwt>
<pdfrwt beam="2">  1       -4 0.79047485E-02 0.12682657E+03</pdfrwt>
<totfact> 0.81788953E+04</totfact>
</mgrwt>
</event>
<event>
 6    4  0.3995738E-003  0.1321941E+03  0.7818608E-02  0.1224236E+00
         -4   -1    0    0    0  501 -0.00000000000E+00  0.00000000000E+00  0.38906081422E+02  0.38926804025E+02  0.12700000000E+01 0.  1.
         21   -1    0    0  501  502  0.00000000000E+00 -0.00000000000E+00 -0.20630908430E+03  0.20630908430E+03  0.00000000000E+00 0.  1.
         25    2    1    2    0    0  0.38661068065E+02 -0.18844684667E+02 -0.10210140764E+03  0.16703287327E+03  0.12500193192E+03 0.  0.
    9000005    1    3    3    0    0  0.61404189621E+02  0.17723519222E+02 -0.91300070158E+01  0.64567442762E+02  0.10000000000E+01 0.  0.
    9000005    1    3    3    0    0 -0.22743121556E+02 -0.36568203889E+02 -0.92971400627E+02  0.10246543050E+03  0.10000000000E+01 0.  0.
         -4    1    1    2    0  502 -0.38661068065E+02  0.18844684667E+02 -0.65301595233E+02  0.78203015057E+02  0.12700000000E+01 0. -1.
<mgrwt>
<rscale>  1 0.13219411E+03</rscale>
<asrwt>0</asrwt>
<pdfrwt beam="2">  1       21 0.31739859E-01 0.13219411E+03</pdfrwt>
<pdfrwt beam="1">  1       -4 0.59874457E-02 0.13219411E+03</pdfrwt>
<totfact> 0.68753226E+04</totfact>
</mgrwt>
</event>
<event>
 6    4  0.3995738E-003  0.1524510E+03  0.7818608E-02  0.1197493E+00
          4   -1    0    0  502    0 -0.00000000000E+00  0.00000000000E+00  0.12805992252E+04  0.12805998549E+04  0.12700000000E+01 0. -1.
         21   -1    0    0  501  502  0.00000000000E+00 -0.00000000000E+00 -0.13576445850E+02  0.13576445850E+02  0.00000000000E+00 0.  1.
         25    2    1    2    0    0 -0.85202110939E+02 -0.18890784103E+02  0.10370929760E+04  0.10482381199E+04  0.12500021518E+03 0.  0.
    9000005    1    3    3    0    0 -0.91332438718E+02 -0.54875629937E+02  0.58134946180E+03  0.59103396337E+03  0.10000000000E+01 0.  0.
    9000005    1    3    3    0    0  0.61303277789E+01  0.35984845834E+02  0.45574351420E+03  0.45720415657E+03  0.10000000000E+01 0.  0.
          4    1    1    2  501    0  0.85202110939E+02  0.18890784103E+02  0.22992980334E+03  0.24593818084E+03  0.12700000000E+01 0.  1.
<mgrwt>
<rscale>  1 0.15245103E+03</rscale>
<asrwt>0</asrwt>
<pdfrwt beam="2">  1       21 0.20886850E-02 0.15245103E+03</pdfrwt>
<pdfrwt beam="1">  1        4 0.19701979E+00 0.15245103E+03</pdfrwt>
<totfact> 0.72193773E+03</totfact>
</mgrwt>
</event>
<event>
 6    4  0.3995738E-003  0.1267064E+03  0.7818608E-02  0.1232426E+00
         21   -1    0    0  501  502  0.00000000000E+00  0.00000000000E+00  0.10496940534E+03  0.10496940534E+03  0.00000000000E+00 0.  1.
         -4   -1    0    0    0  501 -0.00000000000E+00 -0.00000000000E+00 -0.51819612655E+02  0.51835172959E+02  0.12700000000E+01 0.  1.
         25    2    1    2    0    0  0.45985265329E+01 -0.20225456002E+02  0.44459906814E+02  0.13428031287E+03  0.12499721434E+03 0.  0.
    9000005    1    3    3    0    0  0.33220761994E+02  0.24450487373E+02 -0.23944133653E+02  0.47704998654E+02  0.10000000000E+01 0.  0.
    9000005    1    3    3    0    0 -0.28622235461E+02 -0.44675943374E+02  0.68404040467E+02  0.86575314215E+02  0.10000000000E+01 0.  0.
         -4    1    1    2    0  502 -0.45985265329E+01  0.20225456002E+02  0.86898858735E+01  0.22524265432E+02  0.12700000000E+01 0. -1.
<mgrwt>
<rscale>  1 0.12670643E+03</rscale>
<asrwt>0</asrwt>
<pdfrwt beam="1">  1       21 0.16149139E-01 0.12670643E+03</pdfrwt>
<pdfrwt beam="2">  1       -4 0.79740361E-02 0.12670643E+03</pdfrwt>
<totfact> 0.15157197E+05</totfact>
</mgrwt>
</event>
<event>
 6    4  0.3995738E-003  0.1326001E+03  0.7818608E-02  0.1223648E+00
         21   -1    0    0  501  502  0.00000000000E+00  0.00000000000E+00  0.49894904904E+02  0.49894904904E+02  0.00000000000E+00 0. -1.
          4   -1    0    0  502    0 -0.00000000000E+00 -0.00000000000E+00 -0.16756691344E+03  0.16757172608E+03  0.12700000000E+01 0. -1.
         25    2    1    2    0    0  0.31260450960E+02  0.31307676218E+02 -0.11054598047E+03  0.17263606596E+03  0.12500164433E+03 0.  0.
    9000005    1    3    3    0    0  0.63966574978E+02  0.36839391003E+02 -0.11746499199E+03  0.13873675716E+03  0.10000000000E+01 0.  0.
    9000005    1    3    3    0    0 -0.32706124018E+02 -0.55317147849E+01  0.69190115162E+01  0.33899308800E+02  0.10000000000E+01 0.  0.
          4    1    1    2  501    0 -0.31260450960E+02 -0.31307676218E+02 -0.71260280675E+01  0.44830565025E+02  0.12700000000E+01 0.  1.
<mgrwt>
<rscale>  1 0.13260014E+03</rscale>
<asrwt>0</asrwt>
<pdfrwt beam="1">  1       21 0.76761392E-02 0.13260014E+03</pdfrwt>
<pdfrwt beam="2">  1        4 0.25781139E-01 0.13260014E+03</pdfrwt>
<totfact> 0.73343186E+04</totfact>
</mgrwt>
</event>
<event>
 6    4  0.3995738E-003  0.1307349E+03  0.7818608E-02  0.1226369E+00
         -4   -1    0    0    0  501 -0.00000000000E+00  0.00000000000E+00  0.31184474227E+03  0.31184732832E+03  0.12700000000E+01 0. -1.
         21   -1    0    0  501  502  0.00000000000E+00 -0.00000000000E+00 -0.24205682915E+02  0.24205682915E+02  0.00000000000E+00 0. -1.
         25    2    1    2    0    0  0.27283996246E+02 -0.26874400912E+02  0.18530979141E+03  0.22678480061E+03  0.12499990848E+03 0.  0.
    9000005    1    3    3    0    0  0.49945487185E+02 -0.44151110026E+02  0.18669047398E+03  0.19823774939E+03  0.10000000000E+01 0.  0.
    9000005    1    3    3    0    0 -0.22661490939E+02  0.17276709114E+02 -0.13806825667E+01  0.28547051227E+02  0.10000000000E+01 0.  0.
         -4    1    1    2    0  502 -0.27283996246E+02  0.26874400912E+02  0.10232926794E+03  0.10926821062E+03  0.12700000000E+01 0.  1.
<mgrwt>
<rscale>  1 0.13073495E+03</rscale>
<asrwt>0</asrwt>
<pdfrwt beam="2">  1       21 0.37239515E-02 0.13073495E+03</pdfrwt>
<pdfrwt beam="1">  1       -4 0.47978873E-01 0.13073495E+03</pdfrwt>
<totfact> 0.74672769E+04</totfact>
</mgrwt>
</event>
<event>
 6    4  0.3995738E-003  0.1266490E+03  0.7818608E-02  0.1232514E+00
         21   -1    0    0  501  502  0.00000000000E+00  0.00000000000E+00  0.27103251969E+02  0.27103251969E+02  0.00000000000E+00 0.  1.
         -4   -1    0    0    0  501 -0.00000000000E+00 -0.00000000000E+00 -0.23264171461E+03  0.23264518107E+03  0.12700000000E+01 0.  1.
         25    2    1    2    0    0 -0.13868829708E+02  0.14947498633E+02 -0.20285275999E+03  0.23914265590E+03  0.12499678189E+03 0.  0.
    9000005    1    3    3    0    0  0.45206372335E+02  0.46725829557E+01 -0.15757014679E+03  0.16399634231E+03  0.10000000000E+01 0.  0.
    9000005    1    3    3    0    0 -0.59075202043E+02  0.10274915677E+02 -0.45282613200E+02  0.75146313594E+02  0.10000000000E+01 0.  0.
         -4    1    1    2    0  502  0.13868829708E+02 -0.14947498633E+02 -0.26857026516E+01  0.20605777141E+02  0.12700000000E+01 0. -1.
<mgrwt>
<rscale>  1 0.12664899E+03</rscale>
<asrwt>0</asrwt>
<pdfrwt beam="1">  1       21 0.41697313E-02 0.12664899E+03</pdfrwt>
<pdfrwt beam="2">  1       -4 0.35793587E-01 0.12664899E+03</pdfrwt>
<totfact> 0.10993501E+05</totfact>
</mgrwt>
</event>
<event>
 6    4  0.3995738E-003  0.1302108E+03  0.7818608E-02  0.1227143E+00
         -4   -1    0    0    0  501 -0.00000000000E+00  0.00000000000E+00  0.12239806099E+02  0.12305517191E+02  0.12700000000E+01 0.  1.
         21   -1    0    0  501  502  0.00000000000E+00 -0.00000000000E+00 -0.71902746788E+03  0.71902746788E+03  0.00000000000E+00 0. -1.
         25    2    1    2    0    0  0.61084749930E+01 -0.35985507540E+02 -0.36368913216E+03  0.38629605350E+03  0.12499034314E+03 0.  0.
    9000005    1    3    3    0    0 -0.26068170638E+02 -0.59769935624E+02 -0.98687028432E+02  0.11828831010E+03  0.10000000000E+01 0.  0.
    9000005    1    3    3    0    0  0.32176645631E+02  0.23784428085E+02 -0.26500210373E+03  0.26800774340E+03  0.10000000000E+01 0.  0.
         -4    1    1    2    0  502 -0.61084749930E+01  0.35985507540E+02 -0.34309852963E+03  0.34503693158E+03  0.12700000000E+01 0. -1.
<mgrwt>
<rscale>  1 0.13021081E+03</rscale>
<asrwt>0</asrwt>
<pdfrwt beam="2">  1       21 0.11061965E+00 0.13021081E+03</pdfrwt>
<pdfrwt beam="1">  1       -4 0.18881874E-02 0.13021081E+03</pdfrwt>
<totfact> 0.29390829E+04</totfact>
</mgrwt>
</event>
<event>
 6    4  0.3995738E-003  0.1306058E+03  0.7818608E-02  0.1226560E+00
         21   -1    0    0  501  502  0.00000000000E+00  0.00000000000E+00  0.55117020338E+03  0.55117020338E+03  0.00000000000E+00 0. -1.
         -4   -1    0    0    0  501 -0.00000000000E+00 -0.00000000000E+00 -0.29398151187E+02  0.29425570397E+02  0.12700000000E+01 0.  1.
         25    2    1    2    0    0  0.76751245358E+01  0.37032697161E+02  0.12100171633E+03  0.17804291613E+03  0.12501014532E+03 0.  0.
    9000005    1    3    3    0    0 -0.50947845805E+02  0.23572309263E+02  0.99333120822E+02  0.11410261017E+03  0.10000000000E+01 0.  0.
    9000005    1    3    3    0    0  0.58622970341E+02  0.13460387898E+02  0.21668595509E+02  0.63940305953E+02  0.10000000000E+01 0.  0.
         -4    1    1    2    0  502 -0.76751245358E+01 -0.37032697161E+02  0.40077033586E+03  0.40255285765E+03  0.12700000000E+01 0. -1.
<mgrwt>
<rscale>  1 0.13060576E+03</rscale>
<asrwt>0</asrwt>
<pdfrwt beam="1">  1       21 0.84795408E-01 0.13060576E+03</pdfrwt>
<pdfrwt beam="2">  1       -4 0.45250146E-02 0.13060576E+03</pdfrwt>
<totfact> 0.13901873E+04</totfact>
</mgrwt>
</event>
<event>
 6    4  0.3995738E-003  0.1266852E+03  0.7818608E-02  0.1232459E+00
         -4   -1    0    0    0  501 -0.00000000000E+00  0.00000000000E+00  0.41246733033E+03  0.41246928551E+03  0.12700000000E+01 0.  1.
         21   -1    0    0  501  502  0.00000000000E+00 -0.00000000000E+00 -0.14238842181E+02  0.14238842181E+02  0.00000000000E+00 0.  1.
         25    2    1    2    0    0  0.11571200585E+02  0.17038744101E+02  0.37405019295E+03  0.39492111238E+03  0.12499970670E+03 0.  0.
    9000005    1    3    3    0    0  0.55891274275E+02  0.20690126511E+02  0.93618178634E+02  0.11098323858E+03  0.10000000000E+01 0.  0.
    9000005    1    3    3    0    0 -0.44320073690E+02 -0.36513824104E+01  0.28043201432E+03  0.28393787380E+03  0.10000000000E+01 0.  0.
         -4    1    1    2    0  502 -0.11571200585E+02 -0.17038744101E+02  0.24178295196E+02  0.31787015307E+02  0.12700000000E+01 0. -1.
<mgrwt>
<rscale>  1 0.12668519E+03</rscale>
<asrwt>0</asrwt>
<pdfrwt beam="2">  1       21 0.21905914E-02 0.12668519E+03</pdfrwt>
<pdfrwt beam="1">  1       -4 0.63461010E-01 0.12668519E+03</pdfrwt>
<totfact> 0.99335421E+04</totfact>
</mgrwt>
</event>
<event>
 6    4  0.3995738E-003  0.1687311E+03  0.7818608E-02  0.1179178E+00
         21   -1    0    0  501  502  0.00000000000E+00  0.00000000000E+00  0.20026188437E+02  0.20026188437E+02  0.00000000000E+00 0. -1.
          4   -1    0    0  502    0 -0.00000000000E+00 -0.00000000000E+00 -0.23114275421E+04  0.23114278910E+04  0.12700000000E+01 0.  1.
         25    2    1    2    0    0  0.80982031884E+01  0.11304512290E+03 -0.21153766324E+04  0.21220953058E+04  0.12500163703E+03 0.  0.
    9000005    1    3    3    0    0  0.34330631186E+00  0.88605882807E+02 -0.60063282367E+03  0.60713417726E+03  0.10000000000E+01 0.  0.
    9000005    1    3    3    0    0  0.77548968765E+01  0.24439240095E+02 -0.15147438087E+04  0.15149611285E+04  0.10000000000E+01 0.  0.
          4    1    1    2  501    0 -0.80982031884E+01 -0.11304512290E+03 -0.17602472129E+03  0.20935877367E+03  0.12700000000E+01 0. -1.
<mgrwt>
<rscale>  1 0.16873112E+03</rscale>
<asrwt>0</asrwt>
<pdfrwt beam="1">  1       21 0.30809546E-02 0.16873112E+03</pdfrwt>
<pdfrwt beam="2">  1        4 0.35560707E+00 0.16873112E+03</pdfrwt>
<totfact> 0.43961945E+02</totfact>
</mgrwt>
</event>
<event>
 6    4  0.3995738E-003  0.1283062E+03  0.7818608E-02  0.1229991E+00
         21   -1    0    0  501  502  0.00000000000E+00  0.00000000000E+00  0.69026324574E+03  0.69026324574E+03  0.00000000000E+00 0. -1.
         -4   -1    0    0    0  501 -0.00000000000E+00 -0.00000000000E+00 -0.91128484503E+01  0.92009188062E+01  0.12700000000E+01 0. -1.
         25    2    1    2    0    0 -0.18792962678E+02  0.22012692293E+02  0.51081318870E+03  0.52668074057E+03  0.12499901871E+03 0.  0.
    9000005    1    3    3    0    0 -0.28169368964E+02 -0.35846045792E+02  0.38714968697E+03  0.38982602847E+03  0.10000000000E+01 0.  0.
    9000005    1    3    3    0    0  0.93764062860E+01  0.57858738084E+02  0.12366350172E+03  0.13685471211E+03  0.10000000000E+01 0.  0.
         -4    1    1    2    0  502  0.18792962678E+02 -0.22012692293E+02  0.17033720860E+03  0.17278342398E+03  0.12700000000E+01 0.  1.
<mgrwt>
<rscale>  1 0.12830623E+03</rscale>
<asrwt>0</asrwt>
<pdfrwt beam="1">  1       21 0.10619430E+00 0.12830623E+03</pdfrwt>
<pdfrwt beam="2">  1       -4 0.14088417E-02 0.12830623E+03</pdfrwt>
<totfact> 0.50604703E+04</totfact>
</mgrwt>
</event>
<event>
 6    4  0.3995738E-003  0.1358988E+03  0.7818608E-02  0.1218956E+00
          4   -1    0    0  502    0 -0.00000000000E+00  0.00000000000E+00  0.14482749210E+03  0.14483306035E+03  0.12700000000E+01 0.  1.
         21   -1    0    0  501  502  0.00000000000E+00 -0.00000000000E+00 -0.63508908268E+02  0.63508908268E+02  0.00000000000E+00 0. -1.
         25    2    1    2    0    0  0.40959995363E+02  0.34254783170E+02  0.73071374206E+02  0.15429809054E+03  0.12496945077E+03 0.  0.
    9000005    1    3    3    0    0  0.38816561501E+02  0.98855741093E+01  0.10596805120E+03  0.11329023744E+03  0.10000000000E+01 0.  0.
    9000005    1    3    3    0    0  0.21434338621E+01  0.24369209061E+02 -0.32896676998E+02  0.41007853107E+02  0.10000000000E+01 0.  0.
          4    1    1    2  501    0 -0.40959995363E+02 -0.34254783170E+02  0.82472096296E+01  0.54043878070E+02  0.12700000000E+01 0. -1.
<mgrwt>
<rscale>  1 0.13589877E+03</rscale>
<asrwt>0</asrwt>
<pdfrwt beam="2">  1       21 0.97706013E-02 0.13589877E+03</pdfrwt>
<pdfrwt beam="1">  1        4 0.22282558E-01 0.13589877E+03</pdfrwt>
<totfact> 0.63281276E+04</totfact>
</mgrwt>
</event>
<event>
 6    4  0.3995738E-003  0.1287184E+03  0.7818608E-02  0.1229370E+00
          4   -1    0    0  502    0 -0.00000000000E+00  0.00000000000E+00  0.19267582984E+01  0.23076606207E+01  0.12700000000E+01 0. -1.
         21   -1    0    0  501  502  0.00000000000E+00 -0.00000000000E+00 -0.31607174823E+04  0.31607174823E+04  0.00000000000E+00 0.  1.
         25    2    1    2    0    0  0.73776171848E+01 -0.29816718575E+02 -0.22176318059E+04  0.22213642762E+04  0.12499981990E+03 0.  0.
    9000005    1    3    3    0    0 -0.29885968039E+02 -0.17565341415E+02 -0.19949746742E+04  0.19952760869E+04  0.10000000000E+01 0.  0.
    9000005    1    3    3    0    0  0.37263585224E+02 -0.12251377161E+02 -0.22265713167E+03  0.22608818923E+03  0.10000000000E+01 0.  0.
          4    1    1    2  501    0 -0.73776171848E+01  0.29816718575E+02 -0.94115891807E+03  0.94166086672E+03  0.12700000000E+01 0.  1.
<mgrwt>
<rscale>  1 0.12871838E+03</rscale>
<asrwt>0</asrwt>
<pdfrwt beam="2">  1       21 0.48626219E+00 0.12871838E+03</pdfrwt>
<pdfrwt beam="1">  1        4 0.32574553E-03 0.12871838E+03</pdfrwt>
<totfact> 0.16567449E+03</totfact>
</mgrwt>
</event>
<event>
 6    4  0.3995738E-003  0.1292107E+03  0.7818608E-02  0.1228632E+00
         -4   -1    0    0    0  501 -0.00000000000E+00  0.00000000000E+00  0.18570297722E+03  0.18570731986E+03  0.12700000000E+01 0.  1.
         21   -1    0    0  501  502  0.00000000000E+00 -0.00000000000E+00 -0.37291060027E+02  0.37291060027E+02  0.00000000000E+00 0.  1.
         25    2    1    2    0    0  0.30127238489E+02 -0.12751645492E+02  0.95095683626E+02  0.16043250561E+03  0.12500057940E+03 0.  0.
    9000005    1    3    3    0    0  0.77304012018E+02 -0.10430944915E+02  0.39393927060E+02  0.87393342853E+02  0.10000000000E+01 0.  0.
    9000005    1    3    3    0    0 -0.47176773528E+02 -0.23207005776E+01  0.55701756566E+02  0.73039162757E+02  0.10000000000E+01 0.  0.
         -4    1    1    2    0  502 -0.30127238489E+02  0.12751645492E+02  0.53316233566E+02  0.62565874272E+02  0.12700000000E+01 0. -1.
<mgrwt>
<rscale>  1 0.12921068E+03</rscale>
<asrwt>0</asrwt>
<pdfrwt beam="2">  1       21 0.57370863E-02 0.12921068E+03</pdfrwt>
<pdfrwt beam="1">  1       -4 0.28571686E-01 0.12921068E+03</pdfrwt>
<totfact> 0.99153398E+04</totfact>
</mgrwt>
</event>
<event>
 6    4  0.3995738E-003  0.1397611E+03  0.7818608E-02  0.1213651E+00
          4   -1    0    0  502    0 -0.00000000000E+00  0.00000000000E+00  0.74841608445E+03  0.74841716200E+03  0.12700000000E+01 0.  1.
         21   -1    0    0  501  502  0.00000000000E+00 -0.00000000000E+00 -0.13773510461E+02  0.13773510461E+02  0.00000000000E+00 0.  1.
         25    2    1    2    0    0 -0.31635659127E+02  0.53922163058E+02  0.47577884496E+03  0.49588172085E+03  0.12499902865E+03 0.  0.
    9000005    1    3    3    0    0 -0.49421548997E+02 -0.27349675840E+02  0.19996075639E+03  0.20778786868E+03  0.10000000000E+01 0.  0.
    9000005    1    3    3    0    0  0.17785889870E+02  0.81271838898E+02  0.27581808857E+03  0.28809385217E+03  0.10000000000E+01 0.  0.
          4    1    1    2  501    0  0.31635659127E+02 -0.53922163058E+02  0.25886372904E+03  0.26630895161E+03  0.12700000000E+01 0. -1.
<mgrwt>
<rscale>  1 0.13976112E+03</rscale>
<asrwt>0</asrwt>
<pdfrwt beam="2">  1       21 0.21190022E-02 0.13976112E+03</pdfrwt>
<pdfrwt beam="1">  1        4 0.11514549E+00 0.13976112E+03</pdfrwt>
<totfact> 0.27925810E+04</totfact>
</mgrwt>
</event>
<event>
 6    4  0.3995738E-003  0.1278673E+03  0.7818608E-02  0.1230655E+00
         21   -1    0    0  501  502  0.00000000000E+00  0.00000000000E+00  0.11603449664E+03  0.11603449664E+03  0.00000000000E+00 0.  1.
          4   -1    0    0  502    0 -0.00000000000E+00 -0.00000000000E+00 -0.11242798779E+03  0.11243516060E+03  0.12700000000E+01 0. -1.
         25    2    1    2    0    0 -0.93650777251E+01  0.25249484092E+02 -0.73013501053E+02  0.14724478454E+03  0.12499925644E+03 0.  0.
    9000005    1    3    3    0    0 -0.56028322272E+02  0.18858167657E+02  0.14355565108E+01  0.59142744327E+02  0.10000000000E+01 0.  0.
    9000005    1    3    3    0    0  0.46663244547E+02  0.63913164357E+01 -0.74449057564E+02  0.88102040213E+02  0.10000000000E+01 0.  0.
          4    1    1    2  501    0  0.93650777251E+01 -0.25249484092E+02  0.76620009902E+02  0.81224872700E+02  0.12700000000E+01 0.  1.
<mgrwt>
<rscale>  1 0.12786733E+03</rscale>
<asrwt>0</asrwt>
<pdfrwt beam="1">  1       21 0.17851461E-01 0.12786733E+03</pdfrwt>
<pdfrwt beam="2">  1        4 0.17297700E-01 0.12786733E+03</pdfrwt>
<totfact> 0.33710309E+04</totfact>
</mgrwt>
</event>
<event>
 6    4  0.3995738E-003  0.1269417E+03  0.7818608E-02  0.1232065E+00
          4   -1    0    0  502    0 -0.00000000000E+00  0.00000000000E+00  0.23516786110E+03  0.23517129033E+03  0.12700000000E+01 0. -1.
         21   -1    0    0  501  502  0.00000000000E+00 -0.00000000000E+00 -0.24539342840E+02  0.24539342840E+02  0.00000000000E+00 0. -1.
         25    2    1    2    0    0  0.17568388505E+02 -0.13428506154E+02  0.19470681983E+03  0.23243268542E+03  0.12500093805E+03 0.  0.
    9000005    1    3    3    0    0 -0.22038438435E+02 -0.19814821593E+02 -0.38127941551E+01  0.29897446758E+02  0.10000000000E+01 0.  0.
    9000005    1    3    3    0    0  0.39606826940E+02  0.63863154391E+01  0.19851961398E+03  0.20253523867E+03  0.10000000000E+01 0.  0.
          4    1    1    2  501    0 -0.17568388505E+02  0.13428506154E+02  0.15921698432E+02  0.27277947745E+02  0.12700000000E+01 0.  1.
<mgrwt>
<rscale>  1 0.12694175E+03</rscale>
<asrwt>0</asrwt>
<pdfrwt beam="2">  1       21 0.37752837E-02 0.12694175E+03</pdfrwt>
<pdfrwt beam="1">  1        4 0.36182461E-01 0.12694175E+03</pdfrwt>
<totfact> 0.12701059E+05</totfact>
</mgrwt>
</event>
<event>
 6    4  0.3995738E-003  0.1272640E+03  0.7818608E-02  0.1231573E+00
          4   -1    0    0  502    0 -0.00000000000E+00  0.00000000000E+00  0.11920011548E+03  0.11920688080E+03  0.12700000000E+01 0. -1.
         21   -1    0    0  501  502  0.00000000000E+00 -0.00000000000E+00 -0.23889469719E+03  0.23889469719E+03  0.00000000000E+00 0.  1.
         25    2    1    2    0    0  0.13792293646E+02  0.19531101549E+02  0.84335380145E+02  0.15267146937E+03  0.12499771967E+03 0.  0.
    9000005    1    3    3    0    0 -0.39381907809E+02  0.47223535777E+02  0.65443235569E+02  0.89804309895E+02  0.10000000000E+01 0.  0.
    9000005    1    3    3    0    0  0.53174201455E+02 -0.27692434229E+02  0.18892144576E+02  0.62867159476E+02  0.10000000000E+01 0.  0.
          4    1    1    2  501    0 -0.13792293646E+02 -0.19531101549E+02 -0.20402996186E+03  0.20543010862E+03  0.12700000000E+01 0.  1.
<mgrwt>
<rscale>  1 0.12726398E+03</rscale>
<asrwt>0</asrwt>
<pdfrwt beam="2">  1       21 0.36753030E-01 0.12726398E+03</pdfrwt>
<pdfrwt beam="1">  1        4 0.18339259E-01 0.12726398E+03</pdfrwt>
<totfact> 0.77186192E+03</totfact>
</mgrwt>
</event>
<event>
 6    4  0.3995738E-003  0.1276561E+03  0.7818608E-02  0.1230976E+00
         21   -1    0    0  501  502  0.00000000000E+00  0.00000000000E+00  0.81781874296E+02  0.81781874296E+02  0.00000000000E+00 0.  1.
         -4   -1    0    0    0  501 -0.00000000000E+00 -0.00000000000E+00 -0.10033425603E+03  0.10034229334E+03  0.12700000000E+01 0. -1.
         25    2    1    2    0    0 -0.25009407356E+02 -0.66983153620E+01 -0.53666797227E+02  0.13847817171E+03  0.12500296409E+03 0.  0.
    9000005    1    3    3    0    0 -0.24385697176E+02  0.53311857178E+02 -0.10243259427E+01  0.58641841600E+02  0.10000000000E+01 0.  0.
    9000005    1    3    3    0    0 -0.62371018055E+00 -0.60010172540E+02 -0.52642471284E+02  0.79836330111E+02  0.10000000000E+01 0.  0.
         -4    1    1    2    0  502  0.25009407356E+02  0.66983153620E+01  0.35114415493E+02  0.43645995927E+02  0.12700000000E+01 0.  1.
<mgrwt>
<rscale>  1 0.12765610E+03</rscale>
<asrwt>0</asrwt>
<pdfrwt beam="1">  1       21 0.12581827E-01 0.12765610E+03</pdfrwt>
<pdfrwt beam="2">  1       -4 0.15437416E-01 0.12765610E+03</pdfrwt>
<totfact> 0.77342274E+04</totfact>
</mgrwt>
</event>
<event>
 6    4  0.3995738E-003  0.1318298E+03  0.7818608E-02  0.1224766E+00
         -4   -1    0    0    0  501 -0.00000000000E+00  0.00000000000E+00  0.66105818265E+02  0.66118016520E+02  0.12700000000E+01 0. -1.
         21   -1    0    0  501  502  0.00000000000E+00 -0.00000000000E+00 -0.16312777955E+03  0.16312777955E+03  0.00000000000E+00 0.  1.
         25    2    1    2    0    0  0.14370900635E+02 -0.39337023974E+02 -0.94518241530E+01  0.13216816704E+03  0.12500065264E+03 0.  0.
    9000005    1    3    3    0    0  0.43728993023E+02 -0.74095882948E+02 -0.20977199881E+01  0.86068723295E+02  0.10000000000E+01 0.  0.
    9000005    1    3    3    0    0 -0.29358092387E+02  0.34758858974E+02 -0.73541041649E+01  0.46099443748E+02  0.10000000000E+01 0.  0.
         -4    1    1    2    0  502 -0.14370900635E+02  0.39337023974E+02 -0.87570137132E+02  0.97077629027E+02  0.12700000000E+01 0.  1.
<mgrwt>
<rscale>  1 0.13182977E+03</rscale>
<asrwt>0</asrwt>
<pdfrwt beam="2">  1       21 0.25096581E-01 0.13182977E+03</pdfrwt>
<pdfrwt beam="1">  1       -4 0.10171445E-01 0.13182977E+03</pdfrwt>
<totfact> 0.44882428E+04</totfact>
</mgrwt>
</event>
<event>
 6    4  0.3995738E-003  0.2305547E+03  0.7818608E-02  0.1126250E+00
         21   -1    0    0  501  502  0.00000000000E+00  0.00000000000E+00  0.26163978936E+03  0.26163978936E+03  0.00000000000E+00 0. -1.
          4   -1    0    0  502    0 -0.00000000000E+00 -0.00000000000E+00 -0.17782322835E+03  0.17782776342E+03  0.12700000000E+01 0.  1.
         25    2    1    2    0    0  0.15228964582E+03  0.11974341028E+03  0.58323505902E+01  0.23062845082E+03  0.12499938193E+03 0.  0.
    9000005    1    3    3    0    0  0.14169068411E+03  0.39891588833E+02 -0.13384351306E+02  0.14780977533E+03  0.10000000000E+01 0.  0.
    9000005    1    3    3    0    0  0.10598961712E+02  0.79851821452E+02  0.19216701897E+02  0.82818675492E+02  0.10000000000E+01 0.  0.
          4    1    1    2  501    0 -0.15228964582E+03 -0.11974341028E+03  0.77984210415E+02  0.20883910195E+03  0.12700000000E+01 0. -1.
<mgrwt>
<rscale>  1 0.23055469E+03</rscale>
<asrwt>0</asrwt>
<pdfrwt beam="1">  1       21 0.40252275E-01 0.23055469E+03</pdfrwt>
<pdfrwt beam="2">  1        4 0.27358006E-01 0.23055469E+03</pdfrwt>
<totfact> 0.31787039E+03</totfact>
</mgrwt>
</event>
<event>
 6    4  0.3995738E-003  0.1266986E+03  0.7818608E-02  0.1232438E+00
         -4   -1    0    0    0  501 -0.00000000000E+00  0.00000000000E+00  0.12311671281E+03  0.12312326292E+03  0.12700000000E+01 0. -1.
         21   -1    0    0  501  502  0.00000000000E+00 -0.00000000000E+00 -0.11456435464E+03  0.11456435464E+03  0.00000000000E+00 0.  1.
         25    2    1    2    0    0 -0.18815181431E+02 -0.85555193467E+01  0.88859726887E+02  0.15475334037E+03  0.12500134931E+03 0.  0.
    9000005    1    3    3    0    0 -0.26022403498E+02  0.54917315792E+02  0.57152320186E+02  0.83429399856E+02  0.10000000000E+01 0.  0.
    9000005    1    3    3    0    0  0.72072220675E+01 -0.63472835139E+02  0.31707406701E+02  0.71323940512E+02  0.10000000000E+01 0.  0.
         -4    1    1    2    0  502  0.18815181431E+02  0.85555193467E+01 -0.80307368715E+02  0.82934277193E+02  0.12700000000E+01 0.  1.
<mgrwt>
<rscale>  1 0.12669864E+03</rscale>
<asrwt>0</asrwt>
<pdfrwt beam="2">  1       21 0.17625285E-01 0.12669864E+03</pdfrwt>
<pdfrwt beam="1">  1       -4 0.18942078E-01 0.12669864E+03</pdfrwt>
<totfact> 0.29332452E+04</totfact>
</mgrwt>
</event>
<event>
 6    4  0.3995738E-003  0.1392463E+03  0.7818608E-02  0.1214347E+00
         21   -1    0    0  501  502  0.00000000000E+00  0.00000000000E+00  0.41760232457E+02  0.41760232457E+02  0.00000000000E+00 0. -1.
          4   -1    0    0  502    0 -0.00000000000E+00 -0.00000000000E+00 -0.39587180443E+03  0.39587384157E+03  0.12700000000E+01 0.  1.
         25    2    1    2    0    0  0.33524908476E+02  0.51378892329E+02 -0.34936055784E+03  0.37608819602E+03  0.12500328693E+03 0.  0.
    9000005    1    3    3    0    0  0.18701192293E+02 -0.10672231277E+01  0.34659075403E+01  0.19075798108E+02  0.10000000000E+01 0.  0.
    9000005    1    3    3    0    0  0.14823716183E+02  0.52446115457E+02 -0.35282646538E+03  0.35701239791E+03  0.10000000000E+01 0.  0.
          4    1    1    2  501    0 -0.33524908476E+02 -0.51378892329E+02 -0.47510141330E+01  0.61545878015E+02  0.12700000000E+01 0. -1.
<mgrwt>
<rscale>  1 0.13924630E+03</rscale>
<asrwt>0</asrwt>
<pdfrwt beam="1">  1       21 0.64246514E-02 0.13924630E+03</pdfrwt>
<pdfrwt beam="2">  1        4 0.60904995E-01 0.13924630E+03</pdfrwt>
<totfact> 0.18398456E+04</totfact>
</mgrwt>
</event>
<event>
 6    4  0.3995738E-003  0.1284635E+03  0.7818608E-02  0.1229754E+00
         -4   -1    0    0    0  501 -0.00000000000E+00  0.00000000000E+00  0.29632206629E+01  0.32239070546E+01  0.12700000000E+01 0.  1.
         21   -1    0    0  501  502  0.00000000000E+00 -0.00000000000E+00 -0.20559913594E+04  0.20559913594E+04  0.00000000000E+00 0.  1.
         25    2    1    2    0    0  0.15690455084E+02  0.25132047632E+02 -0.15503801317E+04  0.15556932292E+04  0.12500024070E+03 0.  0.
    9000005    1    3    3    0    0  0.57994964509E+02  0.52341917051E+02 -0.95809174149E+03  0.96127201005E+03  0.10000000000E+01 0.  0.
    9000005    1    3    3    0    0 -0.42304509425E+02 -0.27209869419E+02 -0.59228839025E+03  0.59442121912E+03  0.10000000000E+01 0.  0.
         -4    1    1    2    0  502 -0.15690455084E+02 -0.25132047632E+02 -0.50264800700E+03  0.50352203730E+03  0.12700000000E+01 0. -1.
<mgrwt>
<rscale>  1 0.12846350E+03</rscale>
<asrwt>0</asrwt>
<pdfrwt beam="2">  1       21 0.31630592E+00 0.12846350E+03</pdfrwt>
<pdfrwt beam="1">  1       -4 0.47596374E-03 0.12846350E+03</pdfrwt>
<totfact> 0.10592505E+04</totfact>
</mgrwt>
</event>
<event>
 6    4  0.3995738E-003  0.1267258E+03  0.7818608E-02  0.1232397E+00
         21   -1    0    0  501  502  0.00000000000E+00  0.00000000000E+00  0.25946645449E+03  0.25946645449E+03  0.00000000000E+00 0. -1.
         -4   -1    0    0    0  501 -0.00000000000E+00 -0.00000000000E+00 -0.70900408128E+02  0.70911781621E+02  0.12700000000E+01 0. -1.
         25    2    1    2    0    0 -0.13589724895E+02  0.15963352712E+02 -0.13300682893E+02  0.12742184047E+03  0.12497963038E+03 0.  0.
    9000005    1    3    3    0    0  0.52571614336E+02 -0.93206132523E+01  0.66944373430E+01  0.53818806719E+02  0.10000000000E+01 0.  0.
    9000005    1    3    3    0    0 -0.66161339231E+02  0.25283965965E+02 -0.19995120236E+02  0.73603033749E+02  0.10000000000E+01 0.  0.
         -4    1    1    2    0  502  0.13589724895E+02 -0.15963352712E+02  0.20186672925E+03  0.20295639564E+03  0.12700000000E+01 0.  1.
<mgrwt>
<rscale>  1 0.12672576E+03</rscale>
<asrwt>0</asrwt>
<pdfrwt beam="1">  1       21 0.39917916E-01 0.12672576E+03</pdfrwt>
<pdfrwt beam="2">  1       -4 0.10908869E-01 0.12672576E+03</pdfrwt>
<totfact> 0.16125089E+04</totfact>
</mgrwt>
</event>
<event>
 6    4  0.3995738E-003  0.1273241E+03  0.7818608E-02  0.1231481E+00
         21   -1    0    0  501  502  0.00000000000E+00  0.00000000000E+00  0.45615379603E+02  0.45615379603E+02  0.00000000000E+00 0.  1.
          4   -1    0    0  502    0 -0.00000000000E+00 -0.00000000000E+00 -0.17375094087E+03  0.17375558222E+03  0.12700000000E+01 0. -1.
         25    2    1    2    0    0  0.20116023501E+02  0.13508554166E+02 -0.14256189823E+03  0.19114211956E+03  0.12499711840E+03 0.  0.
    9000005    1    3    3    0    0  0.62629534155E+02 -0.23006313891E+02 -0.51830312224E+02  0.84493374253E+02  0.10000000000E+01 0.  0.
    9000005    1    3    3    0    0 -0.42513510654E+02  0.36514868057E+02 -0.90731586005E+02  0.10664874531E+03  0.10000000000E+01 0.  0.
          4    1    1    2  501    0 -0.20116023501E+02 -0.13508554166E+02  0.14426336964E+02  0.28228842260E+02  0.12700000000E+01 0.  1.
<mgrwt>
<rscale>  1 0.12732406E+03</rscale>
<asrwt>0</asrwt>
<pdfrwt beam="1">  1       21 0.70177508E-02 0.12732406E+03</pdfrwt>
<pdfrwt beam="2">  1        4 0.26732631E-01 0.12732406E+03</pdfrwt>
<totfact> 0.79526338E+04</totfact>
</mgrwt>
</event>
<event>
 6    4  0.3995738E-003  0.1285431E+03  0.7818608E-02  0.1229634E+00
         21   -1    0    0  501  502  0.00000000000E+00  0.00000000000E+00  0.50080655293E+02  0.50080655293E+02  0.00000000000E+00 0.  1.
          4   -1    0    0  502    0 -0.00000000000E+00 -0.00000000000E+00 -0.13088612988E+03  0.13089229119E+03  0.12700000000E+01 0.  1.
         25    2    1    2    0    0  0.52724697775E+01 -0.29500267979E+02 -0.79097759293E+02  0.15092974526E+03  0.12500107092E+03 0.  0.
    9000005    1    3    3    0    0 -0.20438214542E+02  0.44447737664E+02 -0.41087796613E+02  0.63894671355E+02  0.10000000000E+01 0.  0.
    9000005    1    3    3    0    0  0.25710684319E+02 -0.73948005643E+02 -0.38009962680E+02  0.87035073905E+02  0.10000000000E+01 0.  0.
          4    1    1    2  501    0 -0.52724697775E+01  0.29500267979E+02 -0.17077152899E+01  0.30043201226E+02  0.12700000000E+01 0. -1.
<mgrwt>
<rscale>  1 0.12854312E+03</rscale>
<asrwt>0</asrwt>
<pdfrwt beam="1">  1       21 0.77047163E-02 0.12854312E+03</pdfrwt>
<pdfrwt beam="2">  1        4 0.20138040E-01 0.12854312E+03</pdfrwt>
<totfact> 0.11387078E+05</totfact>
</mgrwt>
</event>
<event>
 6    4  0.3995738E-003  0.1281534E+03  0.7818608E-02  0.1230222E+00
          4   -1    0    0  502    0 -0.00000000000E+00  0.00000000000E+00  0.35320829158E+01  0.37534663611E+01  0.12700000000E+01 0. -1.
         21   -1    0    0  501  502  0.00000000000E+00 -0.00000000000E+00 -0.16867843003E+04  0.16867843003E+04  0.00000000000E+00 0. -1.
         25    2    1    2    0    0 -0.24750266720E+02 -0.13647682674E+02 -0.14190862763E+04  0.14248610980E+04  0.12499781618E+03 0.  0.
    9000005    1    3    3    0    0 -0.74270997159E+02 -0.20796946993E+02 -0.94412238931E+03  0.94726806133E+03  0.10000000000E+01 0.  0.
    9000005    1    3    3    0    0  0.49520730439E+02  0.71492643196E+01 -0.47496388700E+03  0.47759303667E+03  0.10000000000E+01 0.  0.
          4    1    1    2  501    0  0.24750266720E+02  0.13647682674E+02 -0.26416594105E+03  0.26567666863E+03  0.12700000000E+01 0.  1.
<mgrwt>
<rscale>  1 0.12815338E+03</rscale>
<asrwt>0</asrwt>
<pdfrwt beam="2">  1       21 0.25950593E+00 0.12815338E+03</pdfrwt>
<pdfrwt beam="1">  1        4 0.56046224E-03 0.12815338E+03</pdfrwt>
<totfact> 0.17376241E+04</totfact>
</mgrwt>
</event>
<event>
 6    4  0.3995738E-003  0.1267612E+03  0.7818608E-02  0.1232342E+00
          4   -1    0    0  502    0 -0.00000000000E+00  0.00000000000E+00  0.98761478203E+02  0.98769643499E+02  0.12700000000E+01 0.  1.
         21   -1    0    0  501  502  0.00000000000E+00 -0.00000000000E+00 -0.55717582943E+02  0.55717582943E+02  0.00000000000E+00 0.  1.
         25    2    1    2    0    0 -0.20298546354E+02 -0.56643285750E+01  0.41226937367E+02  0.13329690228E+03  0.12499715272E+03 0.  0.
    9000005    1    3    3    0    0  0.13786138499E+02 -0.29906188982E+02  0.73441879965E+02  0.80493151801E+02  0.10000000000E+01 0.  0.
    9000005    1    3    3    0    0 -0.34084684853E+02  0.24241860407E+02 -0.32214942598E+02  0.52803750474E+02  0.10000000000E+01 0.  0.
          4    1    1    2  501    0  0.20298546354E+02  0.56643285750E+01  0.18169578934E+01  0.21190324166E+02  0.12700000000E+01 0. -1.
<mgrwt>
<rscale>  1 0.12676121E+03</rscale>
<asrwt>0</asrwt>
<pdfrwt beam="2">  1       21 0.85719359E-02 0.12676121E+03</pdfrwt>
<pdfrwt beam="1">  1        4 0.15195815E-01 0.12676121E+03</pdfrwt>
<totfact> 0.15566027E+05</totfact>
</mgrwt>
</event>
<event>
 6    4  0.3995738E-003  0.1282796E+03  0.7818608E-02  0.1230031E+00
         -4   -1    0    0    0  501 -0.00000000000E+00  0.00000000000E+00  0.69066321299E+02  0.69077996770E+02  0.12700000000E+01 0. -1.
         21   -1    0    0  501  502  0.00000000000E+00 -0.00000000000E+00 -0.47745901035E+03  0.47745901035E+03  0.00000000000E+00 0.  1.
         25    2    1    2    0    0  0.21348687870E+01  0.28660802478E+02  0.85864879052E+01  0.12856661800E+03  0.12501859152E+03 0.  0.
    9000005    1    3    3    0    0  0.62182662585E+02  0.12588813338E+02 -0.86823259676E+01  0.64043302004E+02  0.10000000000E+01 0.  0.
    9000005    1    3    3    0    0 -0.60047793798E+02  0.16071989140E+02  0.17268813873E+02  0.64523315999E+02  0.10000000000E+01 0.  0.
         -4    1    1    2    0  502 -0.21348687870E+01 -0.28660802478E+02 -0.41697917696E+03  0.41797038912E+03  0.12700000000E+01 0.  1.
<mgrwt>
<rscale>  1 0.12827957E+03</rscale>
<asrwt>0</asrwt>
<pdfrwt beam="2">  1       21 0.73455235E-01 0.12827957E+03</pdfrwt>
<pdfrwt beam="1">  1       -4 0.10626616E-01 0.12827957E+03</pdfrwt>
<totfact> 0.47123112E+03</totfact>
</mgrwt>
</event>
<event>
 6    4  0.3995738E-003  0.1303362E+03  0.7818608E-02  0.1226958E+00
         21   -1    0    0  501  502  0.00000000000E+00  0.00000000000E+00  0.17033153029E+02  0.17033153029E+02  0.00000000000E+00 0.  1.
          4   -1    0    0  502    0 -0.00000000000E+00 -0.00000000000E+00 -0.46366917155E+03  0.46367091083E+03  0.12700000000E+01 0.  1.
         25    2    1    2    0    0 -0.36696569981E+02 -0.43727553324E+01 -0.26470336992E+03  0.29505153690E+03  0.12498710391E+03 0.  0.
    9000005    1    3    3    0    0 -0.65705656986E+02  0.40227910711E+02 -0.16140415081E+03  0.17885138540E+03  0.10000000000E+01 0.  0.
    9000005    1    3    3    0    0  0.29009087005E+02 -0.44600666044E+02 -0.10329921911E+03  0.11620015150E+03  0.10000000000E+01 0.  0.
          4    1    1    2  501    0  0.36696569981E+02  0.43727553324E+01 -0.18193264860E+03  0.18565252696E+03  0.12700000000E+01 0. -1.
<mgrwt>
<rscale>  1 0.13033624E+03</rscale>
<asrwt>0</asrwt>
<pdfrwt beam="1">  1       21 0.26204854E-02 0.13033624E+03</pdfrwt>
<pdfrwt beam="2">  1        4 0.71337485E-01 0.13033624E+03</pdfrwt>
<totfact> 0.58039314E+04</totfact>
</mgrwt>
</event>
<event>
 6    4  0.3995738E-003  0.1354876E+03  0.7818608E-02  0.1219533E+00
         21   -1    0    0  501  502  0.00000000000E+00  0.00000000000E+00  0.10595789637E+03  0.10595789637E+03  0.00000000000E+00 0. -1.
          4   -1    0    0  502    0 -0.00000000000E+00 -0.00000000000E+00 -0.88274801134E+02  0.88283936337E+02  0.12700000000E+01 0. -1.
         25    2    1    2    0    0  0.48327829150E+02 -0.19916942994E+02  0.33589793613E+02  0.13958929716E+03  0.12499853582E+03 0.  0.
    9000005    1    3    3    0    0  0.47316219722E+02 -0.49381120392E+02  0.66497839114E+02  0.95395399820E+02  0.10000000000E+01 0.  0.
    9000005    1    3    3    0    0  0.10116094286E+01  0.29464177398E+02 -0.32908045501E+02  0.44193897340E+02  0.10000000000E+01 0.  0.
          4    1    1    2  501    0 -0.48327829150E+02  0.19916942994E+02 -0.15906698376E+02  0.54652535548E+02  0.12700000000E+01 0.  1.
<mgrwt>
<rscale>  1 0.13548763E+03</rscale>
<asrwt>0</asrwt>
<pdfrwt beam="1">  1       21 0.16301215E-01 0.13548763E+03</pdfrwt>
<pdfrwt beam="2">  1        4 0.13582027E-01 0.13548763E+03</pdfrwt>
<totfact> 0.61139565E+04</totfact>
</mgrwt>
</event>
<event>
 6    4  0.3995738E-003  0.1290908E+03  0.7818608E-02  0.1228811E+00
         21   -1    0    0  501  502  0.00000000000E+00  0.00000000000E+00  0.10177234677E+02  0.10177234677E+02  0.00000000000E+00 0.  1.
         -4   -1    0    0    0  501 -0.00000000000E+00 -0.00000000000E+00 -0.63992403295E+03  0.63992529318E+03  0.12700000000E+01 0.  1.
         25    2    1    2    0    0  0.28714513863E+02 -0.14708800503E+02 -0.50859828226E+03  0.52472530524E+03  0.12499424435E+03 0.  0.
    9000005    1    3    3    0    0  0.60130356756E+02 -0.52547085141E+02 -0.32096151561E+03  0.33074786540E+03  0.10000000000E+01 0.  0.
    9000005    1    3    3    0    0 -0.31415842893E+02  0.37838284638E+02 -0.18763676665E+03  0.19397743984E+03  0.10000000000E+01 0.  0.
         -4    1    1    2    0  502 -0.28714513863E+02  0.14708800503E+02 -0.12114851601E+03  0.12537722261E+03  0.12700000000E+01 0. -1.
<mgrwt>
<rscale>  1 0.12909079E+03</rscale>
<asrwt>0</asrwt>
<pdfrwt beam="1">  1       21 0.15657287E-02 0.12909079E+03</pdfrwt>
<pdfrwt beam="2">  1       -4 0.98456024E-01 0.12909079E+03</pdfrwt>
<totfact> 0.64937387E+04</totfact>
</mgrwt>
</event>
<event>
 6    4  0.3995738E-003  0.1266902E+03  0.7818608E-02  0.1232451E+00
         21   -1    0    0  501  502  0.00000000000E+00  0.00000000000E+00  0.54886152446E+02  0.54886152446E+02  0.00000000000E+00 0.  1.
          4   -1    0    0  502    0 -0.00000000000E+00 -0.00000000000E+00 -0.10149782795E+03  0.10150577313E+03  0.12700000000E+01 0.  1.
         25    2    1    2    0    0  0.20461363993E+02 -0.26065833177E+01 -0.30825070025E+02  0.13038632030E+03  0.12499978355E+03 0.  0.
    9000005    1    3    3    0    0  0.34487465040E+02  0.13589619060E+02  0.41085517803E+02  0.55345124123E+02  0.10000000000E+01 0.  0.
    9000005    1    3    3    0    0 -0.14026101047E+02 -0.16196202378E+02 -0.71910587828E+02  0.75041196178E+02  0.10000000000E+01 0.  0.
          4    1    1    2  501    0 -0.20461363993E+02  0.26065833177E+01 -0.15786605476E+02  0.26005605271E+02  0.12700000000E+01 0. -1.
<mgrwt>
<rscale>  1 0.12669020E+03</rscale>
<asrwt>0</asrwt>
<pdfrwt beam="1">  1       21 0.84440235E-02 0.12669020E+03</pdfrwt>
<pdfrwt beam="2">  1        4 0.15616792E-01 0.12669020E+03</pdfrwt>
<totfact> 0.15229648E+05</totfact>
</mgrwt>
</event>
<event>
 6    4  0.3995738E-003  0.1266419E+03  0.7818608E-02  0.1232525E+00
         21   -1    0    0  501  502  0.00000000000E+00  0.00000000000E+00  0.10767966781E+03  0.10767966781E+03  0.00000000000E+00 0. -1.
          4   -1    0    0  502    0 -0.00000000000E+00 -0.00000000000E+00 -0.71275253470E+02  0.71286567159E+02  0.12700000000E+01 0.  1.
         25    2    1    2    0    0 -0.13414715556E+02  0.15378902819E+02 -0.11220071222E+02  0.12713796305E+03  0.12498682492E+03 0.  0.
    9000005    1    3    3    0    0 -0.34758924466E+02  0.19722646782E+02 -0.60919741872E+02  0.72865496470E+02  0.10000000000E+01 0.  0.
    9000005    1    3    3    0    0  0.21344208909E+02 -0.43437439634E+01  0.49699670650E+02  0.54272466577E+02  0.10000000000E+01 0.  0.
          4    1    1    2  501    0  0.13414715556E+02 -0.15378902819E+02  0.47624485560E+02  0.51828271920E+02  0.12700000000E+01 0. -1.
<mgrwt>
<rscale>  1 0.12664190E+03</rscale>
<asrwt>0</asrwt>
<pdfrwt beam="1">  1       21 0.16566103E-01 0.12664190E+03</pdfrwt>
<pdfrwt beam="2">  1        4 0.10966870E-01 0.12664190E+03</pdfrwt>
<totfact> 0.84883770E+04</totfact>
</mgrwt>
</event>
<event>
 6    4  0.3995738E-003  0.1267374E+03  0.7818608E-02  0.1232379E+00
         -4   -1    0    0    0  501 -0.00000000000E+00  0.00000000000E+00  0.48118825745E+03  0.48118993340E+03  0.12700000000E+01 0.  1.
         21   -1    0    0  501  502  0.00000000000E+00 -0.00000000000E+00 -0.14377484663E+02  0.14377484663E+02  0.00000000000E+00 0.  1.
         25    2    1    2    0    0  0.11215108621E+02  0.17659513345E+02  0.45317573446E+03  0.47056413342E+03  0.12499888112E+03 0.  0.
    9000005    1    3    3    0    0  0.20466155868E+02  0.29519365599E+02  0.29150496933E+02  0.46271027143E+02  0.10000000000E+01 0.  0.
    9000005    1    3    3    0    0 -0.92510472473E+01 -0.11859852254E+02  0.42402523753E+03  0.42429310628E+03  0.10000000000E+01 0.  0.
         -4    1    1    2    0  502 -0.11215108621E+02 -0.17659513345E+02  0.13635038323E+02  0.25003284645E+02  0.12700000000E+01 0. -1.
<mgrwt>
<rscale>  1 0.12673736E+03</rscale>
<asrwt>0</asrwt>
<pdfrwt beam="2">  1       21 0.22119211E-02 0.12673736E+03</pdfrwt>
<pdfrwt beam="1">  1       -4 0.74033394E-01 0.12673736E+03</pdfrwt>
<totfact> 0.70255266E+04</totfact>
</mgrwt>
</event>
<event>
 6    4  0.3995738E-003  0.1283261E+03  0.7818608E-02  0.1229961E+00
         21   -1    0    0  501  502  0.00000000000E+00  0.00000000000E+00  0.75735547150E+02  0.75735547150E+02  0.00000000000E+00 0.  1.
         -4   -1    0    0    0  501 -0.00000000000E+00 -0.00000000000E+00 -0.12742700945E+03  0.12743333801E+03  0.12700000000E+01 0. -1.
         25    2    1    2    0    0  0.12234544107E+02 -0.26320293556E+02 -0.88789514719E+02  0.15604861017E+03  0.12500059555E+03 0.  0.
    9000005    1    3    3    0    0  0.30272241073E+02 -0.59722422767E+02 -0.96343939321E+02  0.11733000897E+03  0.10000000000E+01 0.  0.
    9000005    1    3    3    0    0 -0.18037696966E+02  0.33402129211E+02  0.75544246018E+01  0.38718601198E+02  0.10000000000E+01 0.  0.
         -4    1    1    2    0  502 -0.12234544107E+02  0.26320293556E+02  0.37098052420E+02  0.47120274997E+02  0.12700000000E+01 0.  1.
<mgrwt>
<rscale>  1 0.12832611E+03</rscale>
<asrwt>0</asrwt>
<pdfrwt beam="1">  1       21 0.11651623E-01 0.12832611E+03</pdfrwt>
<pdfrwt beam="2">  1       -4 0.19605461E-01 0.12832611E+03</pdfrwt>
<totfact> 0.58089607E+04</totfact>
</mgrwt>
</event>
<event>
 6    4  0.3995738E-003  0.1442170E+03  0.7818608E-02  0.1207765E+00
         21   -1    0    0  501  502  0.00000000000E+00  0.00000000000E+00  0.48663050382E+02  0.48663050382E+02  0.00000000000E+00 0. -1.
         -4   -1    0    0    0  501 -0.00000000000E+00 -0.00000000000E+00 -0.31758869477E+03  0.31759123405E+03  0.12700000000E+01 0.  1.
         25    2    1    2    0    0 -0.48661340286E+02 -0.52980091345E+02 -0.25502211666E+03  0.29297579441E+03  0.12499487992E+03 0.  0.
    9000005    1    3    3    0    0  0.24032829273E+02 -0.58964055518E+02 -0.16654512471E+03  0.17830483811E+03  0.10000000000E+01 0.  0.
    9000005    1    3    3    0    0 -0.72694169559E+02  0.59839641727E+01 -0.88476991949E+02  0.11467095630E+03  0.10000000000E+01 0.  0.
         -4    1    1    2    0  502  0.48661340286E+02  0.52980091345E+02 -0.13903527727E+02  0.73278490027E+02  0.12700000000E+01 0. -1.
<mgrwt>
<rscale>  1 0.14421698E+03</rscale>
<asrwt>0</asrwt>
<pdfrwt beam="1">  1       21 0.74866230E-02 0.14421698E+03</pdfrwt>
<pdfrwt beam="2">  1       -4 0.48861270E-01 0.14421698E+03</pdfrwt>
<totfact> 0.22408629E+04</totfact>
</mgrwt>
</event>
<event>
 6    4  0.3995738E-003  0.1272947E+03  0.7818608E-02  0.1231526E+00
         -4   -1    0    0    0  501 -0.00000000000E+00  0.00000000000E+00  0.17259634455E+03  0.17260101695E+03  0.12700000000E+01 0. -1.
         21   -1    0    0  501  502  0.00000000000E+00 -0.00000000000E+00 -0.35712333846E+02  0.35712333846E+02  0.00000000000E+00 0. -1.
         25    2    1    2    0    0 -0.13739990455E+02  0.19780691843E+02  0.90999124958E+02  0.15647611758E+03  0.12499548601E+03 0.  0.
    9000005    1    3    3    0    0 -0.25070986891E+02  0.20329535229E+02 -0.24426082464E+02  0.40490466666E+02  0.10000000000E+01 0.  0.
    9000005    1    3    3    0    0  0.11330996435E+02 -0.54884338640E+00  0.11542520742E+03  0.11598565091E+03  0.10000000000E+01 0.  0.
         -4    1    1    2    0  502  0.13739990455E+02 -0.19780691843E+02  0.45884885743E+02  0.51837233213E+02  0.12700000000E+01 0.  1.
<mgrwt>
<rscale>  1 0.12729468E+03</rscale>
<asrwt>0</asrwt>
<pdfrwt beam="2">  1       21 0.54942053E-02 0.12729468E+03</pdfrwt>
<pdfrwt beam="1">  1       -4 0.26555380E-01 0.12729468E+03</pdfrwt>
<totfact> 0.12201255E+05</totfact>
</mgrwt>
</event>
<event>
 6    4  0.3995738E-003  0.1268367E+03  0.7818608E-02  0.1232226E+00
         21   -1    0    0  501  502  0.00000000000E+00  0.00000000000E+00  0.94455836301E+01  0.94455836301E+01  0.00000000000E+00 0.  1.
         -4   -1    0    0    0  501 -0.00000000000E+00 -0.00000000000E+00 -0.58315329242E+03  0.58315467533E+03  0.12700000000E+01 0.  1.
         25    2    1    2    0    0  0.33313424656E+01 -0.21250174054E+02 -0.49600183423E+03  0.51196228043E+03  0.12499955715E+03 0.  0.
    9000005    1    3    3    0    0 -0.38159101193E+02  0.11714592650E+02 -0.40256082446E+03  0.40453623580E+03  0.10000000000E+01 0.  0.
    9000005    1    3    3    0    0  0.41490443659E+02 -0.32964766704E+02 -0.93441009773E+02  0.10742604464E+03  0.10000000000E+01 0.  0.
         -4    1    1    2    0  502 -0.33313424656E+01  0.21250174054E+02 -0.77705874558E+02  0.80637978526E+02  0.12700000000E+01 0. -1.
<mgrwt>
<rscale>  1 0.12683673E+03</rscale>
<asrwt>0</asrwt>
<pdfrwt beam="1">  1       21 0.14531663E-02 0.12683673E+03</pdfrwt>
<pdfrwt beam="2">  1       -4 0.89722590E-01 0.12683673E+03</pdfrwt>
<totfact> 0.90149272E+04</totfact>
</mgrwt>
</event>
<event>
 6    4  0.3995738E-003  0.1266325E+03  0.7818608E-02  0.1232540E+00
          4   -1    0    0  502    0 -0.00000000000E+00  0.00000000000E+00  0.41952374293E+03  0.41952566523E+03  0.12700000000E+01 0.  1.
         21   -1    0    0  501  502  0.00000000000E+00 -0.00000000000E+00 -0.26963629711E+02  0.26963629711E+02  0.00000000000E+00 0.  1.
         25    2    1    2    0    0  0.76670645962E+01 -0.18761523858E+02  0.40386132689E+03  0.42324904994E+03  0.12500003303E+03 0.  0.
    9000005    1    3    3    0    0 -0.57159437156E+02 -0.15195846014E+02  0.15071439114E+03  0.16190720395E+03  0.10000000000E+01 0.  0.
    9000005    1    3    3    0    0  0.64826501752E+02 -0.35656778442E+01  0.25314693575E+03  0.26134184600E+03  0.10000000000E+01 0.  0.
          4    1    1    2  501    0 -0.76670645962E+01  0.18761523858E+02 -0.11301213672E+02  0.23240244996E+02  0.12700000000E+01 0. -1.
<mgrwt>
<rscale>  1 0.12663249E+03</rscale>
<asrwt>0</asrwt>
<pdfrwt beam="2">  1       21 0.41482510E-02 0.12663249E+03</pdfrwt>
<pdfrwt beam="1">  1        4 0.64544558E-01 0.12663249E+03</pdfrwt>
<totfact> 0.33628657E+04</totfact>
</mgrwt>
</event>
<event>
 6    4  0.3995738E-003  0.1277191E+03  0.7818608E-02  0.1230880E+00
         21   -1    0    0  501  502  0.00000000000E+00  0.00000000000E+00  0.30603099960E+02  0.30603099960E+02  0.00000000000E+00 0. -1.
          4   -1    0    0  502    0 -0.00000000000E+00 -0.00000000000E+00 -0.25141823179E+03  0.25142143938E+03  0.12700000000E+01 0.  1.
         25    2    1    2    0    0 -0.42350194595E+01  0.25830950539E+02 -0.22163935380E+03  0.25580497341E+03  0.12500803123E+03 0.  0.
    9000005    1    3    3    0    0 -0.15381283291E+02  0.58247575232E+01 -0.23060324238E+03  0.23119119160E+03  0.10000000000E+01 0.  0.
    9000005    1    3    3    0    0  0.11146263831E+02  0.20006193016E+02  0.89638885830E+01  0.24613781809E+02  0.10000000000E+01 0.  0.
          4    1    1    2  501    0  0.42350194595E+01 -0.25830950539E+02  0.82422196690E+00  0.26219565928E+02  0.12700000000E+01 0. -1.
<mgrwt>
<rscale>  1 0.12771915E+03</rscale>
<asrwt>0</asrwt>
<pdfrwt beam="1">  1       21 0.47081694E-02 0.12771915E+03</pdfrwt>
<pdfrwt beam="2">  1        4 0.38682000E-01 0.12771915E+03</pdfrwt>
<totfact> 0.77288366E+04</totfact>
</mgrwt>
</event>
<event>
 6    4  0.3995738E-003  0.1278253E+03  0.7818608E-02  0.1230719E+00
         21   -1    0    0  501  502  0.00000000000E+00  0.00000000000E+00  0.25378620805E+03  0.25378620805E+03  0.00000000000E+00 0.  1.
         -4   -1    0    0    0  501 -0.00000000000E+00 -0.00000000000E+00 -0.25229326265E+02  0.25261270827E+02  0.12700000000E+01 0.  1.
         25    2    1    2    0    0 -0.22666632575E+02  0.14152982830E+02  0.15579098266E+03  0.20151959917E+03  0.12500094167E+03 0.  0.
    9000005    1    3    3    0    0 -0.44608633928E+02  0.37637085823E+02  0.19588057868E+02  0.61572497604E+02  0.10000000000E+01 0.  0.
    9000005    1    3    3    0    0  0.21942001353E+02 -0.23484102994E+02  0.13620292479E+03  0.13994710157E+03  0.10000000000E+01 0.  0.
         -4    1    1    2    0  502  0.22666632575E+02 -0.14152982830E+02  0.72765899127E+02  0.77527879701E+02  0.12700000000E+01 0. -1.
<mgrwt>
<rscale>  1 0.12782534E+03</rscale>
<asrwt>0</asrwt>
<pdfrwt beam="1">  1       21 0.39044030E-01 0.12782534E+03</pdfrwt>
<pdfrwt beam="2">  1       -4 0.38841367E-02 0.12782534E+03</pdfrwt>
<totfact> 0.91182999E+04</totfact>
</mgrwt>
</event>
<event>
 6    4  0.3995738E-003  0.1300873E+03  0.7818608E-02  0.1227326E+00
         21   -1    0    0  501  502  0.00000000000E+00  0.00000000000E+00  0.28084594435E+02  0.28084594435E+02  0.00000000000E+00 0.  1.
          4   -1    0    0  502    0 -0.00000000000E+00 -0.00000000000E+00 -0.46820222151E+03  0.46820394395E+03  0.12700000000E+01 0. -1.
         25    2    1    2    0    0 -0.11829838672E+02 -0.34040849723E+02 -0.44143546155E+03  0.46020427422E+03  0.12499593097E+03 0.  0.
    9000005    1    3    3    0    0  0.39914334678E+02 -0.54021652529E+02 -0.31579867275E+03  0.32286420483E+03  0.10000000000E+01 0.  0.
    9000005    1    3    3    0    0 -0.51744173350E+02  0.19980802806E+02 -0.12563678881E+03  0.13734006938E+03  0.10000000000E+01 0.  0.
          4    1    1    2  501    0  0.11829838672E+02  0.34040849723E+02  0.13178344743E+01  0.36084264169E+02  0.12700000000E+01 0.  1.
<mgrwt>
<rscale>  1 0.13008731E+03</rscale>
<asrwt>0</asrwt>
<pdfrwt beam="1">  1       21 0.43207071E-02 0.13008731E+03</pdfrwt>
<pdfrwt beam="2">  1        4 0.72033447E-01 0.13008731E+03</pdfrwt>
<totfact> 0.24912273E+04</totfact>
</mgrwt>
</event>
<event>
 6    4  0.3995738E-003  0.1477818E+03  0.7818608E-02  0.1203225E+00
         21   -1    0    0  501  502  0.00000000000E+00  0.00000000000E+00  0.33833921455E+04  0.33833921455E+04  0.00000000000E+00 0.  1.
          4   -1    0    0  502    0 -0.00000000000E+00 -0.00000000000E+00 -0.12740322261E+02  0.12803464817E+02  0.12700000000E+01 0. -1.
         25    2    1    2    0    0 -0.72566067927E+02  0.30805239612E+02  0.43372161541E+03  0.45820727550E+03  0.12499868255E+03 0.  0.
    9000005    1    3    3    0    0 -0.99932233945E+02  0.21843164485E+02  0.40424362723E+03  0.41698619326E+03  0.10000000000E+01 0.  0.
    9000005    1    3    3    0    0  0.27366166017E+02  0.89620751277E+01  0.29477988182E+02  0.41221082231E+02  0.10000000000E+01 0.  0.
          4    1    1    2  501    0  0.72566067927E+02 -0.30805239612E+02  0.29369302079E+04  0.29379883349E+04  0.12700000000E+01 0.  1.
<mgrwt>
<rscale>  1 0.14778182E+03</rscale>
<asrwt>0</asrwt>
<pdfrwt beam="1">  1       21 0.52052116E+00 0.14778182E+03</pdfrwt>
<pdfrwt beam="2">  1        4 0.19649277E-02 0.14778182E+03</pdfrwt>
<totfact> 0.62895953E+01</totfact>
</mgrwt>
</event>
<event>
 6    4  0.3995738E-003  0.1282098E+03  0.7818608E-02  0.1230136E+00
         -4   -1    0    0    0  501 -0.00000000000E+00  0.00000000000E+00  0.65223057700E+03  0.65223181345E+03  0.12700000000E+01 0.  1.
         21   -1    0    0  501  502  0.00000000000E+00 -0.00000000000E+00 -0.18353447709E+02  0.18353447709E+02  0.00000000000E+00 0.  1.
         25    2    1    2    0    0  0.90317148343E+01  0.27035318471E+02  0.62863426358E+03  0.64157524809E+03  0.12500112516E+03 0.  0.
    9000005    1    3    3    0    0 -0.85816493656E+01  0.62673370418E+02  0.17293530217E+03  0.18414454866E+03  0.10000000000E+01 0.  0.
    9000005    1    3    3    0    0  0.17613364200E+02 -0.35638051947E+02  0.45569896141E+03  0.45743069943E+03  0.10000000000E+01 0.  0.
         -4    1    1    2    0  502 -0.90317148343E+01 -0.27035318471E+02  0.52428657152E+01  0.29010013074E+02  0.12700000000E+01 0. -1.
<mgrwt>
<rscale>  1 0.12820983E+03</rscale>
<asrwt>0</asrwt>
<pdfrwt beam="2">  1       21 0.28236078E-02 0.12820983E+03</pdfrwt>
<pdfrwt beam="1">  1       -4 0.10034662E+00 0.12820983E+03</pdfrwt>
<totfact> 0.23934824E+04</totfact>
</mgrwt>
</event>
<event>
 6    4  0.3995738E-003  0.1417602E+03  0.7818608E-02  0.1210980E+00
          4   -1    0    0  502    0 -0.00000000000E+00  0.00000000000E+00  0.10385201285E+03  0.10385977794E+03  0.12700000000E+01 0. -1.
         21   -1    0    0  501  502  0.00000000000E+00 -0.00000000000E+00 -0.13911457851E+03  0.13911457851E+03  0.00000000000E+00 0. -1.
         25    2    1    2    0    0 -0.18904373807E+02 -0.64143266083E+02  0.34949514156E+02  0.14600486133E+03  0.12499686820E+03 0.  0.
    9000005    1    3    3    0    0 -0.48808200688E+02 -0.56061952617E+02  0.67962975692E+02  0.10072313066E+03  0.10000000000E+01 0.  0.
    9000005    1    3    3    0    0  0.29903826881E+02 -0.80813134666E+01 -0.33013461536E+02  0.45281730665E+02  0.10000000000E+01 0.  0.
          4    1    1    2  501    0  0.18904373807E+02  0.64143266083E+02 -0.70212079818E+02  0.96969495127E+02  0.12700000000E+01 0.  1.
<mgrwt>
<rscale>  1 0.14176019E+03</rscale>
<asrwt>0</asrwt>
<pdfrwt beam="2">  1       21 0.21402243E-01 0.14176019E+03</pdfrwt>
<pdfrwt beam="1">  1        4 0.15978276E-01 0.14176019E+03</pdfrwt>
<totfact> 0.28040311E+04</totfact>
</mgrwt>
</event>
<event>
 6    4  0.3995738E-003  0.1364227E+03  0.7818608E-02  0.1218225E+00
         21   -1    0    0  501  502  0.00000000000E+00  0.00000000000E+00  0.59925058808E+02  0.59925058808E+02  0.00000000000E+00 0. -1.
         -4   -1    0    0    0  501 -0.00000000000E+00 -0.00000000000E+00 -0.15654687490E+03  0.15655202631E+03  0.12700000000E+01 0. -1.
         25    2    1    2    0    0 -0.12539303662E+02 -0.53186967312E+02 -0.52294483606E+02  0.14610228186E+03  0.12500030448E+03 0.  0.
    9000005    1    3    3    0    0 -0.15348443517E+01  0.41257736394E+02 -0.17370539333E+02  0.44802814602E+02  0.10000000000E+01 0.  0.
    9000005    1    3    3    0    0 -0.11004459310E+02 -0.94444703706E+02 -0.34923944273E+02  0.10129946726E+03  0.10000000000E+01 0.  0.
         -4    1    1    2    0  502  0.12539303662E+02  0.53186967312E+02 -0.44327332490E+02  0.70374803260E+02  0.12700000000E+01 0.  1.
<mgrwt>
<rscale>  1 0.13642274E+03</rscale>
<asrwt>0</asrwt>
<pdfrwt beam="1">  1       21 0.92192400E-02 0.13642274E+03</pdfrwt>
<pdfrwt beam="2">  1       -4 0.24085566E-01 0.13642274E+03</pdfrwt>
<totfact> 0.60771196E+04</totfact>
</mgrwt>
</event>
<event>
 6    4  0.3995738E-003  0.1327463E+03  0.7818608E-02  0.1223437E+00
          4   -1    0    0  502    0 -0.00000000000E+00  0.00000000000E+00  0.41434922740E+02  0.41454381221E+02  0.12700000000E+01 0.  1.
         21   -1    0    0  501  502  0.00000000000E+00 -0.00000000000E+00 -0.19534712646E+03  0.19534712646E+03  0.00000000000E+00 0.  1.
         25    2    1    2    0    0  0.44167983178E+02 -0.67727324870E+01 -0.96885520944E+02  0.16434230473E+03  0.12499963325E+03 0.  0.
    9000005    1    3    3    0    0  0.72513826359E+02 -0.19336858009E+02 -0.10788846509E+03  0.13142712806E+03  0.10000000000E+01 0.  0.
    9000005    1    3    3    0    0 -0.28345843182E+02  0.12564125522E+02  0.11002944142E+02  0.32915176676E+02  0.10000000000E+01 0.  0.
          4    1    1    2  501    0 -0.44167983178E+02  0.67727324870E+01 -0.57026682778E+02  0.72459202949E+02  0.12700000000E+01 0. -1.
<mgrwt>
<rscale>  1 0.13274633E+03</rscale>
<asrwt>0</asrwt>
<pdfrwt beam="2">  1       21 0.30053404E-01 0.13274633E+03</pdfrwt>
<pdfrwt beam="1">  1        4 0.63764180E-02 0.13274633E+03</pdfrwt>
<totfact> 0.69016152E+04</totfact>
</mgrwt>
</event>
<event>
 6    4  0.3995738E-003  0.1307385E+03  0.7818608E-02  0.1226364E+00
          4   -1    0    0  502    0 -0.00000000000E+00  0.00000000000E+00  0.15305409016E+04  0.15305414285E+04  0.12700000000E+01 0. -1.
         21   -1    0    0  501  502  0.00000000000E+00 -0.00000000000E+00 -0.83282713933E+01  0.83282713933E+01  0.00000000000E+00 0.  1.
         25    2    1    2    0    0 -0.37866982413E+02  0.67316569584E+01  0.14591354073E+04  0.14649807798E+04  0.12495329043E+03 0.  0.
    9000005    1    3    3    0    0 -0.81879913058E+02  0.86485443235E+00  0.11128270624E+04  0.11158360717E+04  0.10000000000E+01 0.  0.
    9000005    1    3    3    0    0  0.44012930646E+02  0.58668025260E+01  0.34630834488E+03  0.34914470806E+03  0.10000000000E+01 0.  0.
          4    1    1    2  501    0  0.37866982413E+02 -0.67316569584E+01  0.63077222862E+02  0.73888920052E+02  0.12700000000E+01 0.  1.
<mgrwt>
<rscale>  1 0.13073847E+03</rscale>
<asrwt>0</asrwt>
<pdfrwt beam="2">  1       21 0.12812737E-02 0.13073847E+03</pdfrwt>
<pdfrwt beam="1">  1        4 0.23547510E+00 0.13073847E+03</pdfrwt>
<totfact> 0.91831497E+03</totfact>
</mgrwt>
</event>
<event>
 6    4  0.3995738E-003  0.1266632E+03  0.7818608E-02  0.1232493E+00
         21   -1    0    0  501  502  0.00000000000E+00  0.00000000000E+00  0.10347172969E+03  0.10347172969E+03  0.00000000000E+00 0. -1.
         -4   -1    0    0    0  501 -0.00000000000E+00 -0.00000000000E+00 -0.56060868587E+02  0.56075251998E+02  0.12700000000E+01 0. -1.
         25    2    1    2    0    0 -0.10657302113E+02 -0.17469089862E+02  0.24879514904E+02  0.12908353391E+03  0.12499928510E+03 0.  0.
    9000005    1    3    3    0    0 -0.18995304905E+02  0.18606983176E+02  0.67536311064E+02  0.72589219196E+02  0.10000000000E+01 0.  0.
    9000005    1    3    3    0    0  0.83380027922E+01 -0.36076073038E+02 -0.42656796160E+02  0.56494314714E+02  0.10000000000E+01 0.  0.
         -4    1    1    2    0  502  0.10657302113E+02  0.17469089862E+02  0.22531346195E+02  0.30463447774E+02  0.12700000000E+01 0.  1.
<mgrwt>
<rscale>  1 0.12666321E+03</rscale>
<asrwt>0</asrwt>
<pdfrwt beam="1">  1       21 0.15918728E-01 0.12666321E+03</pdfrwt>
<pdfrwt beam="2">  1       -4 0.86264550E-02 0.12666321E+03</pdfrwt>
<totfact> 0.13654004E+05</totfact>
</mgrwt>
</event>
<event>
 6    4  0.3995738E-003  0.1266640E+03  0.7818608E-02  0.1232491E+00
          4   -1    0    0  502    0 -0.00000000000E+00  0.00000000000E+00  0.46391293732E+03  0.46391467568E+03  0.12700000000E+01 0.  1.
         21   -1    0    0  501  502  0.00000000000E+00 -0.00000000000E+00 -0.15659075595E+02  0.15659075595E+02  0.00000000000E+00 0.  1.
         25    2    1    2    0    0  0.97515697607E+01 -0.18178713135E+02  0.25010882688E+03  0.28035370595E+03  0.12497286279E+03 0.  0.
    9000005    1    3    3    0    0 -0.11306730864E+02  0.25011919391E+02  0.22396286677E+03  0.22564087388E+03  0.10000000000E+01 0.  0.
    9000005    1    3    3    0    0  0.21058300625E+02 -0.43190632526E+02  0.26145960107E+02  0.54712832070E+02  0.10000000000E+01 0.  0.
          4    1    1    2  501    0 -0.97515697607E+01  0.18178713135E+02  0.19814503485E+03  0.19922004532E+03  0.12700000000E+01 0. -1.
<mgrwt>
<rscale>  1 0.12666402E+03</rscale>
<asrwt>0</asrwt>
<pdfrwt beam="2">  1       21 0.24090889E-02 0.12666402E+03</pdfrwt>
<pdfrwt beam="1">  1        4 0.71375306E-01 0.12666402E+03</pdfrwt>
<totfact> 0.66212927E+04</totfact>
</mgrwt>
</event>
<event>
 6    4  0.3995738E-003  0.1275331E+03  0.7818608E-02  0.1231163E+00
         -4   -1    0    0    0  501 -0.00000000000E+00  0.00000000000E+00  0.42509648838E+01  0.44366206107E+01  0.12700000000E+01 0.  1.
         21   -1    0    0  501  502  0.00000000000E+00 -0.00000000000E+00 -0.19392277698E+04  0.19392277698E+04  0.00000000000E+00 0.  1.
         25    2    1    2    0    0  0.25053929270E+02 -0.38661874905E+01 -0.96928175651E+03  0.97763582655E+03  0.12498815574E+03 0.  0.
    9000005    1    3    3    0    0  0.30085010606E+02 -0.22177537967E+02 -0.94935669174E+03  0.95009266875E+03  0.10000000000E+01 0.  0.
    9000005    1    3    3    0    0 -0.50310813363E+01  0.18311350477E+02 -0.19925064766E+02  0.27543157801E+02  0.10000000000E+01 0.  0.
         -4    1    1    2    0  502 -0.25053929270E+02  0.38661874905E+01 -0.96569504844E+03  0.96602856389E+03  0.12700000000E+01 0. -1.
<mgrwt>
<rscale>  1 0.12753308E+03</rscale>
<asrwt>0</asrwt>
<pdfrwt beam="2">  1       21 0.29834323E+00 0.12753308E+03</pdfrwt>
<pdfrwt beam="1">  1       -4 0.66830669E-03 0.12753308E+03</pdfrwt>
<totfact> 0.80869320E+03</totfact>
</mgrwt>
</event>
<event>
 6    4  0.3995738E-003  0.1326686E+03  0.7818608E-02  0.1223549E+00
          4   -1    0    0  502    0 -0.00000000000E+00  0.00000000000E+00  0.14679945560E+03  0.14680494905E+03  0.12700000000E+01 0. -1.
         21   -1    0    0  501  502  0.00000000000E+00 -0.00000000000E+00 -0.83753863711E+02  0.83753863711E+02  0.00000000000E+00 0.  1.
         25    2    1    2    0    0  0.42982654479E+02 -0.11338760267E+02  0.10517483565E+03  0.16930065289E+03  0.12499955577E+03 0.  0.
    9000005    1    3    3    0    0  0.13090093842E+02 -0.45002314617E+02  0.11413477561E+03  0.12338681405E+03  0.10000000000E+01 0.  0.
    9000005    1    3    3    0    0  0.29892560637E+02  0.33663554350E+02 -0.89599399588E+01  0.45913838840E+02  0.10000000000E+01 0.  0.
          4    1    1    2  501    0 -0.42982654479E+02  0.11338760267E+02 -0.42129243762E+02  0.61258159868E+02  0.12700000000E+01 0.  1.
<mgrwt>
<rscale>  1 0.13266863E+03</rscale>
<asrwt>0</asrwt>
<pdfrwt beam="2">  1       21 0.12885210E-01 0.13266863E+03</pdfrwt>
<pdfrwt beam="1">  1        4 0.22585695E-01 0.13266863E+03</pdfrwt>
<totfact> 0.37777768E+04</totfact>
</mgrwt>
</event>
<event>
 6    4  0.3995738E-003  0.1339768E+03  0.7818608E-02  0.1221671E+00
         21   -1    0    0  501  502  0.00000000000E+00  0.00000000000E+00  0.16434905507E+03  0.16434905507E+03  0.00000000000E+00 0. -1.
         -4   -1    0    0    0  501 -0.00000000000E+00 -0.00000000000E+00 -0.54588870943E+02  0.54603642102E+02  0.12700000000E+01 0.  1.
         25    2    1    2    0    0 -0.31042088308E+02 -0.36893527378E+02  0.52028925158E+02  0.14372467865E+03  0.12500012236E+03 0.  0.
    9000005    1    3    3    0    0 -0.73761952359E+02  0.47577664017E+01  0.23380047697E+02  0.77531210408E+02  0.10000000000E+01 0.  0.
    9000005    1    3    3    0    0  0.42719864051E+02 -0.41651293779E+02  0.28648877460E+02  0.66193468241E+02  0.10000000000E+01 0.  0.
         -4    1    1    2    0  502  0.31042088308E+02  0.36893527378E+02  0.57731258972E+02  0.75228018526E+02  0.12700000000E+01 0. -1.
<mgrwt>
<rscale>  1 0.13397677E+03</rscale>
<asrwt>0</asrwt>
<pdfrwt beam="1">  1       21 0.25284470E-01 0.13397677E+03</pdfrwt>
<pdfrwt beam="2">  1       -4 0.83998016E-02 0.13397677E+03</pdfrwt>
<totfact> 0.61077775E+04</totfact>
</mgrwt>
</event>
<event>
 6    4  0.3995738E-003  0.1547851E+03  0.7818608E-02  0.1194713E+00
         -4   -1    0    0    0  501 -0.00000000000E+00  0.00000000000E+00  0.34957254015E+02  0.34980316011E+02  0.12700000000E+01 0. -1.
         21   -1    0    0  501  502  0.00000000000E+00 -0.00000000000E+00 -0.48200024583E+03  0.48200024583E+03  0.00000000000E+00 0.  1.
         25    2    1    2    0    0  0.27954540249E+02  0.86900233938E+02 -0.19533199070E+03  0.24922480007E+03  0.12500122959E+03 0.  0.
    9000005    1    3    3    0    0  0.56297806903E+01  0.51537357978E+02 -0.25067584363E+01  0.51914136185E+02  0.10000000000E+01 0.  0.
    9000005    1    3    3    0    0  0.22324759558E+02  0.35362875959E+02 -0.19282523226E+03  0.19731066388E+03  0.10000000000E+01 0.  0.
         -4    1    1    2    0  502 -0.27954540249E+02 -0.86900233938E+02 -0.25171100112E+03  0.26775576177E+03  0.12700000000E+01 0.  1.
<mgrwt>
<rscale>  1 0.15478506E+03</rscale>
<asrwt>0</asrwt>
<pdfrwt beam="2">  1       21 0.74153876E-01 0.15478506E+03</pdfrwt>
<pdfrwt beam="1">  1       -4 0.53799424E-02 0.15478506E+03</pdfrwt>
<totfact> 0.14378025E+04</totfact>
</mgrwt>
</event>
<event>
 6    4  0.3995738E-003  0.1275616E+03  0.7818608E-02  0.1231119E+00
         -4   -1    0    0    0  501 -0.00000000000E+00  0.00000000000E+00  0.27529187914E+03  0.27529480856E+03  0.12700000000E+01 0.  1.
         21   -1    0    0  501  502  0.00000000000E+00 -0.00000000000E+00 -0.27853330466E+02  0.27853330466E+02  0.00000000000E+00 0.  1.
         25    2    1    2    0    0 -0.14871717007E+02  0.20617291701E+02  0.12682894731E+03  0.17988204667E+03  0.12500291258E+03 0.  0.
    9000005    1    3    3    0    0  0.35457342134E+02  0.55668461215E+02  0.60545794216E+02  0.89571166580E+02  0.10000000000E+01 0.  0.
    9000005    1    3    3    0    0 -0.50329059141E+02 -0.35051169514E+02  0.66283153089E+02  0.90310880085E+02  0.10000000000E+01 0.  0.
         -4    1    1    2    0  502  0.14871717007E+02 -0.20617291701E+02  0.12060960137E+03  0.12326609236E+03  0.12700000000E+01 0. -1.
<mgrwt>
<rscale>  1 0.12756163E+03</rscale>
<asrwt>0</asrwt>
<pdfrwt beam="2">  1       21 0.42851280E-02 0.12756163E+03</pdfrwt>
<pdfrwt beam="1">  1       -4 0.42355047E-01 0.12756163E+03</pdfrwt>
<totfact> 0.75643785E+04</totfact>
</mgrwt>
</event>
<event>
 6    4  0.3995738E-003  0.1332301E+03  0.7818608E-02  0.1222740E+00
         -4   -1    0    0    0  501 -0.00000000000E+00  0.00000000000E+00  0.99050728149E+02  0.99058869602E+02  0.12700000000E+01 0.  1.
         21   -1    0    0  501  502  0.00000000000E+00 -0.00000000000E+00 -0.82548283956E+02  0.82548283956E+02  0.00000000000E+00 0.  1.
         25    2    1    2    0    0  0.44385268167E+02 -0.12455844228E+02  0.22448246244E+02  0.13510806166E+03  0.12500025792E+03 0.  0.
    9000005    1    3    3    0    0 -0.40063307136E+02  0.76942743224E+01 -0.10672561420E+02  0.42180256084E+02  0.10000000000E+01 0.  0.
    9000005    1    3    3    0    0  0.84448575303E+02 -0.20150118551E+02  0.33120807664E+02  0.92927805573E+02  0.10000000000E+01 0.  0.
         -4    1    1    2    0  502 -0.44385268167E+02  0.12455844228E+02 -0.59458020507E+01  0.46499091902E+02  0.12700000000E+01 0. -1.
<mgrwt>
<rscale>  1 0.13323012E+03</rscale>
<asrwt>0</asrwt>
<pdfrwt beam="2">  1       21 0.12699736E-01 0.13323012E+03</pdfrwt>
<pdfrwt beam="1">  1       -4 0.15239951E-01 0.13323012E+03</pdfrwt>
<totfact> 0.78250380E+04</totfact>
</mgrwt>
</event>
<event>
 6    4  0.3995738E-003  0.1281688E+03  0.7818608E-02  0.1230198E+00
         21   -1    0    0  501  502  0.00000000000E+00  0.00000000000E+00  0.18118438041E+03  0.18118438041E+03  0.00000000000E+00 0.  1.
         -4   -1    0    0    0  501 -0.00000000000E+00 -0.00000000000E+00 -0.16283592093E+03  0.16284087339E+03  0.12700000000E+01 0. -1.
         25    2    1    2    0    0 -0.18553023135E+02 -0.21415146401E+02 -0.13612557529E+03  0.18696901075E+03  0.12499766226E+03 0.  0.
    9000005    1    3    3    0    0 -0.54381959918E+02 -0.21690349609E+02 -0.13917867441E+03  0.15099527225E+03  0.10000000000E+01 0.  0.
    9000005    1    3    3    0    0  0.35828936783E+02  0.27520320761E+00  0.30530991203E+01  0.35973738505E+02  0.10000000000E+01 0.  0.
         -4    1    1    2    0  502  0.18553023135E+02  0.21415146401E+02  0.15447403477E+03  0.15705624305E+03  0.12700000000E+01 0.  1.
<mgrwt>
<rscale>  1 0.12816879E+03</rscale>
<asrwt>0</asrwt>
<pdfrwt beam="1">  1       21 0.27874520E-01 0.12816879E+03</pdfrwt>
<pdfrwt beam="2">  1       -4 0.25052404E-01 0.12816879E+03</pdfrwt>
<totfact> 0.75126239E+03</totfact>
</mgrwt>
</event>
<event>
 6    4  0.3995738E-003  0.1267434E+03  0.7818608E-02  0.1232370E+00
          4   -1    0    0  502    0 -0.00000000000E+00  0.00000000000E+00  0.86013397446E+02  0.86022772800E+02  0.12700000000E+01 0.  1.
         21   -1    0    0  501  502  0.00000000000E+00 -0.00000000000E+00 -0.64139944119E+02  0.64139944119E+02  0.00000000000E+00 0.  1.
         25    2    1    2    0    0 -0.18614585447E+02 -0.95806437719E+01  0.24290300797E+02  0.12905002931E+03  0.12500239928E+03 0.  0.
    9000005    1    3    3    0    0  0.24910593744E+02  0.36075677950E+02  0.44822584090E+02  0.62706110266E+02  0.10000000000E+01 0.  0.
    9000005    1    3    3    0    0 -0.43525179191E+02 -0.45656321721E+02 -0.20532283293E+02  0.66343919043E+02  0.10000000000E+01 0.  0.
          4    1    1    2  501    0  0.18614585447E+02  0.95806437719E+01 -0.24168474701E+01  0.21112687610E+02  0.12700000000E+01 0. -1.
<mgrwt>
<rscale>  1 0.12674341E+03</rscale>
<asrwt>0</asrwt>
<pdfrwt beam="2">  1       21 0.98676837E-02 0.12674341E+03</pdfrwt>
<pdfrwt beam="1">  1        4 0.13234519E-01 0.12674341E+03</pdfrwt>
<totfact> 0.15486288E+05</totfact>
</mgrwt>
</event>
