<event>
 6    3  0.7601760E-003  0.1360651E+03  0.7818608E-02  0.1218724E+00
         -4   -1    0    0    0  501 -0.00000000000E+00  0.00000000000E+00  0.62587470828E+02  0.62600354668E+02  0.12700000000E+01 0. -1.
         21   -1    0    0  501  502  0.00000000000E+00 -0.00000000000E+00 -0.18166907812E+03  0.18166907812E+03  0.00000000000E+00 0.  1.
         25    2    1    2    0    0 -0.25716677132E+00  0.53754153234E+02 -0.28632945335E+02  0.13904515577E+03  0.12499653859E+03 0.  0.
    9000005    1    3    3    0    0 -0.29764937488E+02 -0.31100063867E+02 -0.23498592886E+02  0.49054554771E+02  0.10000000000E+01 0.  0.
    9000005    1    3    3    0    0  0.29507770717E+02  0.84854217101E+02 -0.51343524485E+01  0.89990600996E+02  0.10000000000E+01 0.  0.
         -4    1    1    2    0  502  0.25716677132E+00 -0.53754153234E+02 -0.90448661954E+02  0.10522427702E+03  0.12700000000E+01 0.  1.
<mgrwt>
<rscale>  1 0.13606509E+03</rscale>
<asrwt>0</asrwt>
<pdfrwt beam="2">  1       21 0.27949089E-01 0.13606509E+03</pdfrwt>
<pdfrwt beam="1">  1       -4 0.96301743E-02 0.13606509E+03</pdfrwt>
<totfact> 0.40230555E+04</totfact>
</mgrwt>
</event>
<event>
 6    3  0.7601760E-003  0.1286746E+03  0.7818608E-02  0.1229436E+00
         21   -1    0    0  501  502  0.00000000000E+00  0.00000000000E+00  0.82902004545E+01  0.82902004545E+01  0.00000000000E+00 0. -1.
          4   -1    0    0  502    0 -0.00000000000E+00 -0.00000000000E+00 -0.11779721492E+04  0.11779728338E+04  0.12700000000E+01 0. -1.
         25    2    1    2    0    0  0.12714085167E+02 -0.27793388899E+02 -0.11236522356E+04  0.11309957942E+04  0.12499207815E+03 0.  0.
    9000005    1    3    3    0    0  0.62351330451E+02 -0.29776804393E+02 -0.85495300248E+03  0.85774120977E+03  0.10000000000E+01 0.  0.
    9000005    1    3    3    0    0 -0.49637245284E+02  0.19834154944E+01 -0.26869923310E+03  0.27325458446E+03  0.10000000000E+01 0.  0.
          4    1    1    2  501    0 -0.12714085167E+02  0.27793388899E+02 -0.46029713202E+02  0.55267240076E+02  0.12700000000E+01 0.  1.
<mgrwt>
<rscale>  1 0.12867455E+03</rscale>
<asrwt>0</asrwt>
<pdfrwt beam="1">  1       21 0.12754158E-02 0.12867455E+03</pdfrwt>
<pdfrwt beam="2">  1        4 0.18123397E+00 0.12867455E+03</pdfrwt>
<totfact> 0.19825752E+04</totfact>
</mgrwt>
</event>
<event>
 6    3  0.7601760E-003  0.1299846E+03  0.7818608E-02  0.1227479E+00
         21   -1    0    0  501  502  0.00000000000E+00  0.00000000000E+00  0.46106982204E+01  0.46106982204E+01  0.00000000000E+00 0.  1.
          4   -1    0    0  502    0 -0.00000000000E+00 -0.00000000000E+00 -0.14922593553E+04  0.14922598958E+04  0.12700000000E+01 0.  1.
         25    2    1    2    0    0  0.34108800994E+01 -0.35482889433E+02 -0.11996521657E+04  0.12066736583E+04  0.12500131708E+03 0.  0.
    9000005    1    3    3    0    0  0.45463480280E+02 -0.32201679514E+02 -0.10415192570E+04  0.10430087434E+04  0.10000000000E+01 0.  0.
    9000005    1    3    3    0    0 -0.42052600180E+02 -0.32812099191E+01 -0.15813290876E+03  0.16366491485E+03  0.10000000000E+01 0.  0.
          4    1    1    2  501    0 -0.34108800994E+01  0.35482889433E+02 -0.28799649138E+03  0.29019693570E+03  0.12700000000E+01 0. -1.
<mgrwt>
<rscale>  1 0.12998461E+03</rscale>
<asrwt>0</asrwt>
<pdfrwt beam="1">  1       21 0.70933770E-03 0.12998461E+03</pdfrwt>
<pdfrwt beam="2">  1        4 0.22959201E+00 0.12998461E+03</pdfrwt>
<totfact> 0.25200292E+04</totfact>
</mgrwt>
</event>
<event>
 6    3  0.7601760E-003  0.1314081E+03  0.7818608E-02  0.1225381E+00
         21   -1    0    0  501  502  0.00000000000E+00  0.00000000000E+00  0.96634302667E+02  0.96634302667E+02  0.00000000000E+00 0. -1.
          4   -1    0    0  502    0 -0.00000000000E+00 -0.00000000000E+00 -0.83518286316E+02  0.83527941727E+02  0.12700000000E+01 0.  1.
         25    2    1    2    0    0  0.32452316748E+02  0.24277268776E+02  0.32278148895E+02  0.13531429165E+03  0.12500215993E+03 0.  0.
    9000005    1    3    3    0    0  0.67807076505E+02  0.48935247781E+02  0.39403816114E+01  0.83719679328E+02  0.10000000000E+01 0.  0.
    9000005    1    3    3    0    0 -0.35354759758E+02 -0.24657979005E+02  0.28337767284E+02  0.51594612323E+02  0.10000000000E+01 0.  0.
          4    1    1    2  501    0 -0.32452316748E+02 -0.24277268776E+02 -0.19162132544E+02  0.44847952742E+02  0.12700000000E+01 0. -1.
<mgrwt>
<rscale>  1 0.13140806E+03</rscale>
<asrwt>0</asrwt>
<pdfrwt beam="1">  1       21 0.14866816E-01 0.13140806E+03</pdfrwt>
<pdfrwt beam="2">  1        4 0.12850352E-01 0.13140806E+03</pdfrwt>
<totfact> 0.79165119E+04</totfact>
</mgrwt>
</event>
<event>
 6    3  0.7601760E-003  0.1287248E+03  0.7818608E-02  0.1229360E+00
         21   -1    0    0  501  502  0.00000000000E+00  0.00000000000E+00  0.57899251909E+02  0.57899251909E+02  0.00000000000E+00 0.  1.
          4   -1    0    0  502    0 -0.00000000000E+00 -0.00000000000E+00 -0.10993384209E+03  0.10994117762E+03  0.12700000000E+01 0.  1.
         25    2    1    2    0    0  0.15454586770E+01  0.30732865940E+02 -0.40354298633E+02  0.13490200816E+03  0.12499273937E+03 0.  0.
    9000005    1    3    3    0    0 -0.64219485706E+01 -0.38212816713E+02  0.19370483844E+02  0.43332163907E+02  0.10000000000E+01 0.  0.
    9000005    1    3    3    0    0  0.79674072476E+01  0.68945682653E+02 -0.59724782476E+02  0.91569844253E+02  0.10000000000E+01 0.  0.
          4    1    1    2  501    0 -0.15454586770E+01 -0.30732865940E+02 -0.11680291545E+02  0.32938421365E+02  0.12700000000E+01 0. -1.
<mgrwt>
<rscale>  1 0.12872483E+03</rscale>
<asrwt>0</asrwt>
<pdfrwt beam="1">  1       21 0.89075773E-02 0.12872483E+03</pdfrwt>
<pdfrwt beam="2">  1        4 0.16914534E-01 0.12872483E+03</pdfrwt>
<totfact> 0.12094838E+05</totfact>
</mgrwt>
</event>
<event>
 6    3  0.7601760E-003  0.1288269E+03  0.7818608E-02  0.1229207E+00
         21   -1    0    0  501  502  0.00000000000E+00  0.00000000000E+00  0.33202075516E+02  0.33202075516E+02  0.00000000000E+00 0.  1.
          4   -1    0    0  502    0 -0.00000000000E+00 -0.00000000000E+00 -0.67671897558E+03  0.67672016729E+03  0.12700000000E+01 0. -1.
         25    2    1    2    0    0  0.13903544587E+02  0.27881043872E+02 -0.66149941577E+03  0.67392717466E+03  0.12500279410E+03 0.  0.
    9000005    1    3    3    0    0 -0.35327360627E+02  0.82088807997E+00 -0.58757785561E+02  0.68572396999E+02  0.10000000000E+01 0.  0.
    9000005    1    3    3    0    0  0.49230905214E+02  0.27060155792E+02 -0.60274163021E+03  0.60535477767E+03  0.10000000000E+01 0.  0.
          4    1    1    2  501    0 -0.13903544587E+02 -0.27881043872E+02  0.17982515700E+02  0.35995068139E+02  0.12700000000E+01 0.  1.
<mgrwt>
<rscale>  1 0.12882686E+03</rscale>
<asrwt>0</asrwt>
<pdfrwt beam="1">  1       21 0.51080118E-02 0.12882686E+03</pdfrwt>
<pdfrwt beam="2">  1        4 0.10411257E+00 0.12882686E+03</pdfrwt>
<totfact> 0.82284132E+03</totfact>
</mgrwt>
</event>
<event>
 6    3  0.7601760E-003  0.1380037E+03  0.7818608E-02  0.1216041E+00
          4   -1    0    0  502    0 -0.00000000000E+00  0.00000000000E+00  0.12696731542E+03  0.12697366690E+03  0.12700000000E+01 0. -1.
         21   -1    0    0  501  502  0.00000000000E+00 -0.00000000000E+00 -0.95966342750E+02  0.95966342750E+02  0.00000000000E+00 0.  1.
         25    2    1    2    0    0  0.25976488832E+01 -0.58394779889E+02  0.67900356364E+02  0.15380336586E+03  0.12501327472E+03 0.  0.
    9000005    1    3    3    0    0 -0.31058433065E+02 -0.10215401689E+02  0.86235530036E+02  0.92230945657E+02  0.10000000000E+01 0.  0.
    9000005    1    3    3    0    0  0.33656081949E+02 -0.48179378199E+02 -0.18335173672E+02  0.61572420201E+02  0.10000000000E+01 0.  0.
          4    1    1    2  501    0 -0.25976488832E+01  0.58394779889E+02 -0.36899383691E+02  0.69136643792E+02  0.12700000000E+01 0.  1.
<mgrwt>
<rscale>  1 0.13800368E+03</rscale>
<asrwt>0</asrwt>
<pdfrwt beam="2">  1       21 0.14764053E-01 0.13800368E+03</pdfrwt>
<pdfrwt beam="1">  1        4 0.19534568E-01 0.13800368E+03</pdfrwt>
<totfact> 0.38650118E+04</totfact>
</mgrwt>
</event>
<event>
 6    3  0.7601760E-003  0.1266039E+03  0.7818608E-02  0.1232584E+00
         21   -1    0    0  501  502  0.00000000000E+00  0.00000000000E+00  0.44037721376E+03  0.44037721376E+03  0.00000000000E+00 0. -1.
          4   -1    0    0  502    0 -0.00000000000E+00 -0.00000000000E+00 -0.36487681429E+02  0.36509776719E+02  0.12700000000E+01 0. -1.
         25    2    1    2    0    0 -0.12102158677E+02 -0.16035616589E+02  0.74529160946E+02  0.14691203630E+03  0.12499978934E+03 0.  0.
    9000005    1    3    3    0    0  0.83317913620E+01 -0.13101378880E+02 -0.33493101977E+02  0.36930377142E+02  0.10000000000E+01 0.  0.
    9000005    1    3    3    0    0 -0.20433950039E+02 -0.29342377088E+01  0.10802226292E+03  0.10998165916E+03  0.10000000000E+01 0.  0.
          4    1    1    2  501    0  0.12102158677E+02  0.16035616589E+02  0.32936037139E+03  0.32997495418E+03  0.12700000000E+01 0.  1.
<mgrwt>
<rscale>  1 0.12660391E+03</rscale>
<asrwt>0</asrwt>
<pdfrwt beam="1">  1       21 0.67750337E-01 0.12660391E+03</pdfrwt>
<pdfrwt beam="2">  1        4 0.56153303E-02 0.12660391E+03</pdfrwt>
<totfact> 0.16105623E+04</totfact>
</mgrwt>
</event>
<event>
 6    3  0.7601760E-003  0.1289968E+03  0.7818608E-02  0.1228952E+00
         21   -1    0    0  501  502  0.00000000000E+00  0.00000000000E+00  0.81336131870E+02  0.81336131870E+02  0.00000000000E+00 0. -1.
         -4   -1    0    0    0  501 -0.00000000000E+00 -0.00000000000E+00 -0.84276631216E+02  0.84286199755E+02  0.12700000000E+01 0. -1.
         25    2    1    2    0    0  0.25499696278E+02  0.19247369362E+02 -0.18058692041E+02  0.13025471384E+03  0.12497791157E+03 0.  0.
    9000005    1    3    3    0    0  0.64668082420E+01  0.29566011532E+01 -0.71165453492E+02  0.71526798264E+02  0.10000000000E+01 0.  0.
    9000005    1    3    3    0    0  0.19032888036E+02  0.16290768209E+02  0.53106761451E+02  0.58727915574E+02  0.10000000000E+01 0.  0.
         -4    1    1    2    0  502 -0.25499696278E+02 -0.19247369362E+02  0.15118192695E+02  0.35367617788E+02  0.12700000000E+01 0.  1.
<mgrwt>
<rscale>  1 0.12899680E+03</rscale>
<asrwt>0</asrwt>
<pdfrwt beam="1">  1       21 0.12513251E-01 0.12899680E+03</pdfrwt>
<pdfrwt beam="2">  1       -4 0.12967134E-01 0.12899680E+03</pdfrwt>
<totfact> 0.10583228E+05</totfact>
</mgrwt>
</event>
<event>
 6    3  0.7601760E-003  0.1316236E+03  0.7818608E-02  0.1225066E+00
          4   -1    0    0  502    0 -0.00000000000E+00  0.00000000000E+00  0.10605908926E+04  0.10605916530E+04  0.12700000000E+01 0. -1.
         21   -1    0    0  501  502  0.00000000000E+00 -0.00000000000E+00 -0.74349210798E+01  0.74349210798E+01  0.00000000000E+00 0. -1.
         25    2    1    2    0    0 -0.44107846707E+00 -0.41231874649E+02  0.89273900167E+03  0.90238998645E+03  0.12499800203E+03 0.  0.
    9000005    1    3    3    0    0  0.61519922300E+02 -0.11487713032E+02  0.45570528801E+03  0.45998367135E+03  0.10000000000E+01 0.  0.
    9000005    1    3    3    0    0 -0.61961000767E+02 -0.29744161617E+02  0.43703371366E+03  0.44240631510E+03  0.10000000000E+01 0.  0.
          4    1    1    2  501    0  0.44107846707E+00  0.41231874649E+02  0.16041696987E+03  0.16563658763E+03  0.12700000000E+01 0.  1.
<mgrwt>
<rscale>  1 0.13162356E+03</rscale>
<asrwt>0</asrwt>
<pdfrwt beam="2">  1       21 0.11438349E-02 0.13162356E+03</pdfrwt>
<pdfrwt beam="1">  1        4 0.16317611E+00 0.13162356E+03</pdfrwt>
<totfact> 0.31260029E+04</totfact>
</mgrwt>
</event>
<event>
 6    3  0.7601760E-003  0.1324515E+03  0.7818608E-02  0.1223863E+00
         -4   -1    0    0    0  501 -0.00000000000E+00  0.00000000000E+00  0.24927274724E+02  0.24959605870E+02  0.12700000000E+01 0.  1.
         21   -1    0    0  501  502  0.00000000000E+00 -0.00000000000E+00 -0.35275520921E+03  0.35275520921E+03  0.00000000000E+00 0.  1.
         25    2    1    2    0    0  0.42442580283E+02 -0.10842033536E+02 -0.17969020792E+03  0.22323076656E+03  0.12499792801E+03 0.  0.
    9000005    1    3    3    0    0  0.25194232688E+02  0.28158841266E+02  0.76195468357E+00  0.37805426557E+02  0.10000000000E+01 0.  0.
    9000005    1    3    3    0    0  0.17248347595E+02 -0.39000874802E+02 -0.18045216260E+03  0.18542534001E+03  0.10000000000E+01 0.  0.
         -4    1    1    2    0  502 -0.42442580283E+02  0.10842033536E+02 -0.14813772657E+03  0.15448404851E+03  0.12700000000E+01 0. -1.
<mgrwt>
<rscale>  1 0.13245152E+03</rscale>
<asrwt>0</asrwt>
<pdfrwt beam="2">  1       21 0.54270026E-01 0.13245152E+03</pdfrwt>
<pdfrwt beam="1">  1       -4 0.38376287E-02 0.13245152E+03</pdfrwt>
<totfact> 0.47678598E+04</totfact>
</mgrwt>
</event>
<event>
 6    3  0.7601760E-003  0.1286061E+03  0.7818608E-02  0.1229539E+00
          4   -1    0    0  502    0 -0.00000000000E+00  0.00000000000E+00  0.16436815532E+04  0.16436820439E+04  0.12700000000E+01 0.  1.
         21   -1    0    0  501  502  0.00000000000E+00 -0.00000000000E+00 -0.55076398789E+01  0.55076398789E+01  0.00000000000E+00 0.  1.
         25    2    1    2    0    0 -0.74012996609E+01 -0.29322585134E+02  0.15610496985E+04  0.15663383069E+04  0.12499974839E+03 0.  0.
    9000005    1    3    3    0    0 -0.37149639782E+02 -0.62770423884E+02  0.12447095598E+04  0.12468452631E+04  0.10000000000E+01 0.  0.
    9000005    1    3    3    0    0  0.29748340121E+02  0.33447838751E+02  0.31634013877E+03  0.31949304383E+03  0.10000000000E+01 0.  0.
          4    1    1    2  501    0  0.74012996609E+01  0.29322585134E+02  0.77124214793E+02  0.82851376832E+02  0.12700000000E+01 0. -1.
<mgrwt>
<rscale>  1 0.12860611E+03</rscale>
<asrwt>0</asrwt>
<pdfrwt beam="2">  1       21 0.84733052E-03 0.12860611E+03</pdfrwt>
<pdfrwt beam="1">  1        4 0.25288499E+00 0.12860611E+03</pdfrwt>
<totfact> 0.13967907E+04</totfact>
</mgrwt>
</event>
<event>
 6    3  0.7601760E-003  0.1361447E+03  0.7818608E-02  0.1218613E+00
         -4   -1    0    0    0  501 -0.00000000000E+00  0.00000000000E+00  0.29921192123E+02  0.29948132463E+02  0.12700000000E+01 0.  1.
         21   -1    0    0  501  502  0.00000000000E+00 -0.00000000000E+00 -0.87127425668E+03  0.87127425668E+03  0.00000000000E+00 0. -1.
         25    2    1    2    0    0  0.99402187773E+01 -0.53052770480E+02 -0.13137717088E+03  0.18919655611E+03  0.12498788506E+03 0.  0.
    9000005    1    3    3    0    0  0.64466167114E+00 -0.20349404754E+02  0.23222287097E+02  0.30899651786E+02  0.10000000000E+01 0.  0.
    9000005    1    3    3    0    0  0.92955571062E+01 -0.32703365726E+02 -0.15459945798E+03  0.15829690433E+03  0.10000000000E+01 0.  0.
         -4    1    1    2    0  502 -0.99402187773E+01  0.53052770480E+02 -0.70997589367E+03  0.71202583303E+03  0.12700000000E+01 0. -1.
<mgrwt>
<rscale>  1 0.13614469E+03</rscale>
<asrwt>0</asrwt>
<pdfrwt beam="2">  1       21 0.13404219E+00 0.13614469E+03</pdfrwt>
<pdfrwt beam="1">  1       -4 0.46054038E-02 0.13614469E+03</pdfrwt>
<totfact> 0.45569225E+03</totfact>
</mgrwt>
</event>
<event>
 6    3  0.7601760E-003  0.1291105E+03  0.7818608E-02  0.1228782E+00
         -4   -1    0    0    0  501 -0.00000000000E+00  0.00000000000E+00  0.19869829727E+03  0.19870235589E+03  0.12700000000E+01 0. -1.
         21   -1    0    0  501  502  0.00000000000E+00 -0.00000000000E+00 -0.58352831868E+02  0.58352831868E+02  0.00000000000E+00 0.  1.
         25    2    1    2    0    0  0.29936916255E+02  0.12164044479E+02  0.16980150166E+03  0.21331214368E+03  0.12500135098E+03 0.  0.
    9000005    1    3    3    0    0  0.24230197796E+02 -0.55822495717E+02  0.81675778344E+02  0.10185865835E+03  0.10000000000E+01 0.  0.
    9000005    1    3    3    0    0  0.57067184597E+01  0.67986540196E+02  0.88125723311E+02  0.11145348533E+03  0.10000000000E+01 0.  0.
         -4    1    1    2    0  502 -0.29936916255E+02 -0.12164044479E+02 -0.29456036256E+02  0.43743044075E+02  0.12700000000E+01 0.  1.
<mgrwt>
<rscale>  1 0.12911050E+03</rscale>
<asrwt>0</asrwt>
<pdfrwt beam="2">  1       21 0.89773589E-02 0.12911050E+03</pdfrwt>
<pdfrwt beam="1">  1       -4 0.30570344E-01 0.12911050E+03</pdfrwt>
<totfact> 0.40526917E+04</totfact>
</mgrwt>
</event>
<event>
 6    3  0.7601760E-003  0.1276812E+03  0.7818608E-02  0.1230938E+00
         -4   -1    0    0    0  501 -0.00000000000E+00  0.00000000000E+00  0.31246898714E+03  0.31247156803E+03  0.12700000000E+01 0. -1.
         21   -1    0    0  501  502  0.00000000000E+00 -0.00000000000E+00 -0.58326253382E+02  0.58326253382E+02  0.00000000000E+00 0.  1.
         25    2    1    2    0    0  0.22465217241E+02  0.13117219958E+02  0.29551008385E+03  0.32191410225E+03  0.12500292847E+03 0.  0.
    9000005    1    3    3    0    0 -0.14723426914E+02 -0.46555104104E+02  0.18155630909E+03  0.18801024011E+03  0.10000000000E+01 0.  0.
    9000005    1    3    3    0    0  0.37188644155E+02  0.59672324062E+02  0.11395377476E+03  0.13390386214E+03  0.10000000000E+01 0.  0.
         -4    1    1    2    0  502 -0.22465217241E+02 -0.13117219958E+02 -0.41367350090E+02  0.48883719157E+02  0.12700000000E+01 0.  1.
<mgrwt>
<rscale>  1 0.12768116E+03</rscale>
<asrwt>0</asrwt>
<pdfrwt beam="2">  1       21 0.89732699E-02 0.12768116E+03</pdfrwt>
<pdfrwt beam="1">  1       -4 0.48073413E-01 0.12768116E+03</pdfrwt>
<totfact> 0.16721413E+04</totfact>
</mgrwt>
</event>
<event>
 6    3  0.7601760E-003  0.1383729E+03  0.7818608E-02  0.1215535E+00
         -4   -1    0    0    0  501 -0.00000000000E+00  0.00000000000E+00  0.16730785452E+02  0.16778917780E+02  0.12700000000E+01 0. -1.
         21   -1    0    0  501  502  0.00000000000E+00 -0.00000000000E+00 -0.61355421619E+03  0.61355421619E+03  0.00000000000E+00 0.  1.
         25    2    1    2    0    0 -0.53005258675E+02 -0.26700506311E+02 -0.34742399296E+03  0.37396588383E+03  0.12499830757E+03 0.  0.
    9000005    1    3    3    0    0 -0.29663743815E+02 -0.31938278745E+01 -0.33826768367E+03  0.33958233766E+03  0.10000000000E+01 0.  0.
    9000005    1    3    3    0    0 -0.23341514859E+02 -0.23506678437E+02 -0.91563092910E+01  0.34383546165E+02  0.10000000000E+01 0.  0.
         -4    1    1    2    0  502  0.53005258675E+02  0.26700506311E+02 -0.24939943778E+03  0.25636725015E+03  0.12700000000E+01 0.  1.
<mgrwt>
<rscale>  1 0.13837287E+03</rscale>
<asrwt>0</asrwt>
<pdfrwt beam="2">  1       21 0.94392931E-01 0.13837287E+03</pdfrwt>
<pdfrwt beam="1">  1       -4 0.25777713E-02 0.13837287E+03</pdfrwt>
<totfact> 0.26525541E+04</totfact>
</mgrwt>
</event>
<event>
 6    3  0.7601760E-003  0.1626521E+03  0.7818608E-02  0.1185735E+00
         -4   -1    0    0    0  501 -0.00000000000E+00  0.00000000000E+00  0.25525822090E+02  0.25557396060E+02  0.12700000000E+01 0. -1.
         21   -1    0    0  501  502  0.00000000000E+00 -0.00000000000E+00 -0.71594304883E+03  0.71594304883E+03  0.00000000000E+00 0.  1.
         25    2    1    2    0    0  0.80628041276E+02 -0.65809180022E+02 -0.35909848513E+03  0.39421749014E+03  0.12499591312E+03 0.  0.
    9000005    1    3    3    0    0 -0.25747966761E+02 -0.20467574823E+01 -0.18630812566E+02  0.31863053610E+02  0.10000000000E+01 0.  0.
    9000005    1    3    3    0    0  0.10637600804E+03 -0.63762422539E+02 -0.34046767257E+03  0.36235443653E+03  0.10000000000E+01 0.  0.
         -4    1    1    2    0  502 -0.80628041276E+02  0.65809180022E+02 -0.33131874161E+03  0.34728295475E+03  0.12700000000E+01 0.  1.
<mgrwt>
<rscale>  1 0.16265211E+03</rscale>
<asrwt>0</asrwt>
<pdfrwt beam="2">  1       21 0.11014509E+00 0.16265211E+03</pdfrwt>
<pdfrwt beam="1">  1       -4 0.39295648E-02 0.16265211E+03</pdfrwt>
<totfact> 0.95830843E+03</totfact>
</mgrwt>
</event>
<event>
 6    3  0.7601760E-003  0.1351900E+03  0.7818608E-02  0.1219952E+00
         21   -1    0    0  501  502  0.00000000000E+00  0.00000000000E+00  0.12125372258E+03  0.12125372258E+03  0.00000000000E+00 0.  1.
         -4   -1    0    0    0  501 -0.00000000000E+00 -0.00000000000E+00 -0.11095282675E+03  0.11096009491E+03  0.12700000000E+01 0. -1.
         25    2    1    2    0    0 -0.44420352815E+02 -0.26057241875E+02 -0.57628325070E+02  0.14696043310E+03  0.12499678975E+03 0.  0.
    9000005    1    3    3    0    0 -0.59930773565E+01 -0.73668981331E+02 -0.34014920805E+02  0.81369838539E+02  0.10000000000E+01 0.  0.
    9000005    1    3    3    0    0 -0.38427275459E+02  0.47611739456E+02 -0.23613404265E+02  0.65590594556E+02  0.10000000000E+01 0.  0.
         -4    1    1    2    0  502  0.44420352815E+02  0.26057241875E+02  0.67929220907E+02  0.85253384398E+02  0.12700000000E+01 0.  1.
<mgrwt>
<rscale>  1 0.13519003E+03</rscale>
<asrwt>0</asrwt>
<pdfrwt beam="1">  1       21 0.18654419E-01 0.13519003E+03</pdfrwt>
<pdfrwt beam="2">  1       -4 0.17070736E-01 0.13519003E+03</pdfrwt>
<totfact> 0.32030210E+04</totfact>
</mgrwt>
</event>
<event>
 6    3  0.7601760E-003  0.1356014E+03  0.7818608E-02  0.1219373E+00
         -4   -1    0    0    0  501 -0.00000000000E+00  0.00000000000E+00  0.43182624183E+03  0.43182810936E+03  0.12700000000E+01 0. -1.
         21   -1    0    0  501  502  0.00000000000E+00 -0.00000000000E+00 -0.31985380271E+02  0.31985380271E+02  0.00000000000E+00 0. -1.
         25    2    1    2    0    0  0.40626937809E+02 -0.33351759901E+02  0.38645912818E+03  0.40955879719E+03  0.12499945053E+03 0.  0.
    9000005    1    3    3    0    0  0.14049438194E+02 -0.69705810753E+02  0.32873750280E+03  0.33634154146E+03  0.10000000000E+01 0.  0.
    9000005    1    3    3    0    0  0.26577499615E+02  0.36354050852E+02  0.57721625385E+02  0.73217255727E+02  0.10000000000E+01 0.  0.
         -4    1    1    2    0  502 -0.40626937809E+02  0.33351759901E+02  0.13381733380E+02  0.54254692447E+02  0.12700000000E+01 0.  1.
<mgrwt>
<rscale>  1 0.13560144E+03</rscale>
<asrwt>0</asrwt>
<pdfrwt beam="2">  1       21 0.49208281E-02 0.13560144E+03</pdfrwt>
<pdfrwt beam="1">  1       -4 0.66436885E-01 0.13560144E+03</pdfrwt>
<totfact> 0.23959397E+04</totfact>
</mgrwt>
</event>
<event>
 6    3  0.7601760E-003  0.1272371E+03  0.7818608E-02  0.1231614E+00
         -4   -1    0    0    0  501 -0.00000000000E+00  0.00000000000E+00  0.35702096146E+03  0.35702322029E+03  0.12700000000E+01 0. -1.
         21   -1    0    0  501  502  0.00000000000E+00 -0.00000000000E+00 -0.34640693050E+02  0.34640693050E+02  0.00000000000E+00 0.  1.
         25    2    1    2    0    0 -0.15725667349E+02 -0.17798917236E+02  0.33936767143E+03  0.36243579623E+03  0.12500076762E+03 0.  0.
    9000005    1    3    3    0    0 -0.32918173550E+01 -0.23368129450E+01 -0.10868281513E+02  0.11636850918E+02  0.10000000000E+01 0.  0.
    9000005    1    3    3    0    0 -0.12433849995E+02 -0.15462104291E+02  0.35023595295E+03  0.35079894531E+03  0.10000000000E+01 0.  0.
         -4    1    1    2    0  502  0.15725667349E+02  0.17798917236E+02 -0.16987403019E+02  0.29228117108E+02  0.12700000000E+01 0.  1.
<mgrwt>
<rscale>  1 0.12723714E+03</rscale>
<asrwt>0</asrwt>
<pdfrwt beam="2">  1       21 0.53293377E-02 0.12723714E+03</pdfrwt>
<pdfrwt beam="1">  1       -4 0.54928264E-01 0.12723714E+03</pdfrwt>
<totfact> 0.31015036E+04</totfact>
</mgrwt>
</event>
<event>
 6    3  0.7601760E-003  0.1309469E+03  0.7818608E-02  0.1226057E+00
         21   -1    0    0  501  502  0.00000000000E+00  0.00000000000E+00  0.29391135450E+01  0.29391135450E+01  0.00000000000E+00 0. -1.
         -4   -1    0    0    0  501 -0.00000000000E+00 -0.00000000000E+00 -0.26341190540E+04  0.26341193602E+04  0.12700000000E+01 0. -1.
         25    2    1    2    0    0  0.10849889884E+02 -0.37473706544E+02 -0.22704075857E+04  0.22741806655E+04  0.12500038226E+03 0.  0.
    9000005    1    3    3    0    0 -0.20289198076E+02 -0.64019137693E+02 -0.19517277784E+04  0.19528831052E+04  0.10000000000E+01 0.  0.
    9000005    1    3    3    0    0  0.31139087960E+02  0.26545431149E+02 -0.31867980726E+03  0.32129756032E+03  0.10000000000E+01 0.  0.
         -4    1    1    2    0  502 -0.10849889884E+02  0.37473706544E+02 -0.36077235477E+03  0.36287780817E+03  0.12700000000E+01 0.  1.
<mgrwt>
<rscale>  1 0.13094691E+03</rscale>
<asrwt>0</asrwt>
<pdfrwt beam="1">  1       21 0.45217069E-03 0.13094691E+03</pdfrwt>
<pdfrwt beam="2">  1       -4 0.40527078E+00 0.13094691E+03</pdfrwt>
<totfact> 0.45036176E+03</totfact>
</mgrwt>
</event>
<event>
 6    3  0.7601760E-003  0.1306921E+03  0.7818608E-02  0.1226432E+00
         21   -1    0    0  501  502  0.00000000000E+00  0.00000000000E+00  0.10074647151E+03  0.10074647151E+03  0.00000000000E+00 0.  1.
          4   -1    0    0  502    0 -0.00000000000E+00 -0.00000000000E+00 -0.85966166174E+02  0.85975546678E+02  0.12700000000E+01 0. -1.
         25    2    1    2    0    0 -0.22473773712E+02  0.30831343526E+02 -0.23355791163E+02  0.13276261674E+03  0.12499910870E+03 0.  0.
    9000005    1    3    3    0    0 -0.60281525813E+02 -0.18222551427E+02  0.77345039867E+01  0.63456648877E+02  0.10000000000E+01 0.  0.
    9000005    1    3    3    0    0  0.37807752101E+02  0.49053894953E+02 -0.31090295149E+02  0.69305967863E+02  0.10000000000E+01 0.  0.
          4    1    1    2  501    0  0.22473773712E+02 -0.30831343526E+02  0.38136096501E+02  0.53959401450E+02  0.12700000000E+01 0.  1.
<mgrwt>
<rscale>  1 0.13069208E+03</rscale>
<asrwt>0</asrwt>
<pdfrwt beam="1">  1       21 0.15499457E-01 0.13069208E+03</pdfrwt>
<pdfrwt beam="2">  1        4 0.13226901E-01 0.13069208E+03</pdfrwt>
<totfact> 0.69814611E+04</totfact>
</mgrwt>
</event>
<event>
 6    3  0.7601760E-003  0.1286347E+03  0.7818608E-02  0.1229496E+00
         21   -1    0    0  501  502  0.00000000000E+00  0.00000000000E+00  0.24575821163E+02  0.24575821163E+02  0.00000000000E+00 0. -1.
          4   -1    0    0  502    0 -0.00000000000E+00 -0.00000000000E+00 -0.30510032241E+03  0.30510296563E+03  0.12700000000E+01 0.  1.
         25    2    1    2    0    0 -0.29651062353E+02 -0.64581555533E+01 -0.26712058022E+03  0.29647982189E+03  0.12500394849E+03 0.  0.
    9000005    1    3    3    0    0 -0.45940727280E+02  0.43672095468E+02 -0.20713852577E+03  0.21662218539E+03  0.10000000000E+01 0.  0.
    9000005    1    3    3    0    0  0.16289664927E+02 -0.50130251022E+02 -0.59982054446E+02  0.79857636494E+02  0.10000000000E+01 0.  0.
          4    1    1    2  501    0  0.29651062353E+02  0.64581555533E+01 -0.13403921031E+02  0.33198964906E+02  0.12700000000E+01 0. -1.
<mgrwt>
<rscale>  1 0.12863468E+03</rscale>
<asrwt>0</asrwt>
<pdfrwt beam="1">  1       21 0.37808957E-02 0.12863468E+03</pdfrwt>
<pdfrwt beam="2">  1        4 0.46941237E-01 0.12863468E+03</pdfrwt>
<totfact> 0.75928085E+04</totfact>
</mgrwt>
</event>
<event>
 6    3  0.7601760E-003  0.1267913E+03  0.7818608E-02  0.1232296E+00
          4   -1    0    0  502    0 -0.00000000000E+00  0.00000000000E+00  0.70992599837E+02  0.71003958563E+02  0.12700000000E+01 0. -1.
         21   -1    0    0  501  502  0.00000000000E+00 -0.00000000000E+00 -0.33052362054E+03  0.33052362054E+03  0.00000000000E+00 0.  1.
         25    2    1    2    0    0 -0.21243875706E+02 -0.30584831129E+00  0.13645196932E+02  0.12752346494E+03  0.12499858764E+03 0.  0.
    9000005    1    3    3    0    0 -0.55847784736E+02 -0.42037977997E+02 -0.52464563546E+01  0.70104864013E+02  0.10000000000E+01 0.  0.
    9000005    1    3    3    0    0  0.34603909031E+02  0.41732129686E+02  0.18891653286E+02  0.57418600925E+02  0.10000000000E+01 0.  0.
          4    1    1    2  501    0  0.21243875706E+02  0.30584831129E+00 -0.27317621763E+03  0.27400411416E+03  0.12700000000E+01 0.  1.
<mgrwt>
<rscale>  1 0.12679134E+03</rscale>
<asrwt>0</asrwt>
<pdfrwt beam="2">  1       21 0.50849788E-01 0.12679134E+03</pdfrwt>
<pdfrwt beam="1">  1        4 0.10923000E-01 0.12679134E+03</pdfrwt>
<totfact> 0.98398723E+03</totfact>
</mgrwt>
</event>
<event>
 6    3  0.7601760E-003  0.1275056E+03  0.7818608E-02  0.1231205E+00
         -4   -1    0    0    0  501 -0.00000000000E+00  0.00000000000E+00  0.11683386867E+03  0.11684077100E+03  0.12700000000E+01 0.  1.
         21   -1    0    0  501  502  0.00000000000E+00 -0.00000000000E+00 -0.55770750911E+02  0.55770750911E+02  0.00000000000E+00 0. -1.
         25    2    1    2    0    0 -0.16574841015E+02 -0.18686933874E+02  0.70715905820E+02  0.14580264149E+03  0.12503497142E+03 0.  0.
    9000005    1    3    3    0    0  0.23923898979E+02  0.18875649518E+02  0.83675259794E+02  0.89057241080E+02  0.10000000000E+01 0.  0.
    9000005    1    3    3    0    0 -0.40498739994E+02 -0.37562583393E+02 -0.12959353975E+02  0.56745400410E+02  0.10000000000E+01 0.  0.
         -4    1    1    2    0  502  0.16574841015E+02  0.18686933874E+02 -0.96527880593E+01  0.26808880424E+02  0.12700000000E+01 0. -1.
<mgrwt>
<rscale>  1 0.12750557E+03</rscale>
<asrwt>0</asrwt>
<pdfrwt beam="2">  1       21 0.85801156E-02 0.12750557E+03</pdfrwt>
<pdfrwt beam="1">  1       -4 0.17976084E-01 0.12750557E+03</pdfrwt>
<totfact> 0.11571414E+05</totfact>
</mgrwt>
</event>
<event>
 6    3  0.7601760E-003  0.1303142E+03  0.7818608E-02  0.1226990E+00
         21   -1    0    0  501  502  0.00000000000E+00  0.00000000000E+00  0.40778532887E+02  0.40778532887E+02  0.00000000000E+00 0. -1.
          4   -1    0    0  502    0 -0.00000000000E+00 -0.00000000000E+00 -0.19517555208E+03  0.19517968396E+03  0.12700000000E+01 0. -1.
         25    2    1    2    0    0 -0.59777105856E+01 -0.36365842527E+02 -0.79966184904E+02  0.15289336556E+03  0.12499433178E+03 0.  0.
    9000005    1    3    3    0    0 -0.16152287635E+02 -0.42907322397E+02 -0.11071471453E+03  0.11983606604E+03  0.10000000000E+01 0.  0.
    9000005    1    3    3    0    0  0.10174577049E+02  0.65414798699E+01  0.30748529626E+02  0.33057299514E+02  0.10000000000E+01 0.  0.
          4    1    1    2  501    0  0.59777105856E+01  0.36365842527E+02 -0.74430834289E+02  0.83064851288E+02  0.12700000000E+01 0.  1.
<mgrwt>
<rscale>  1 0.13031420E+03</rscale>
<asrwt>0</asrwt>
<pdfrwt beam="1">  1       21 0.62736203E-02 0.13031420E+03</pdfrwt>
<pdfrwt beam="2">  1        4 0.30028848E-01 0.13031420E+03</pdfrwt>
<totfact> 0.77684315E+04</totfact>
</mgrwt>
</event>
<event>
 6    3  0.7601760E-003  0.1267687E+03  0.7818608E-02  0.1232331E+00
         21   -1    0    0  501  502  0.00000000000E+00  0.00000000000E+00  0.16222272791E+03  0.16222272791E+03  0.00000000000E+00 0.  1.
         -4   -1    0    0    0  501 -0.00000000000E+00 -0.00000000000E+00 -0.44261772808E+02  0.44279989071E+02  0.12700000000E+01 0.  1.
         25    2    1    2    0    0  0.20900974602E+02 -0.31311120779E+01  0.51638059171E+02  0.13688236057E+03  0.12499454739E+03 0.  0.
    9000005    1    3    3    0    0  0.26773677110E+02 -0.51191200851E+02 -0.98511659218E+01  0.58612407395E+02  0.10000000000E+01 0.  0.
    9000005    1    3    3    0    0 -0.58727025088E+01  0.48060088773E+02  0.61489225093E+02  0.78269953175E+02  0.10000000000E+01 0.  0.
         -4    1    1    2    0  502 -0.20900974602E+02  0.31311120779E+01  0.66322895934E+02  0.69620356414E+02  0.12700000000E+01 0. -1.
<mgrwt>
<rscale>  1 0.12676865E+03</rscale>
<asrwt>0</asrwt>
<pdfrwt beam="1">  1       21 0.24957342E-01 0.12676865E+03</pdfrwt>
<pdfrwt beam="2">  1       -4 0.68112873E-02 0.12676865E+03</pdfrwt>
<totfact> 0.87832822E+04</totfact>
</mgrwt>
</event>
<event>
 6    3  0.7601760E-003  0.1347652E+03  0.7818608E-02  0.1220551E+00
          4   -1    0    0  502    0 -0.00000000000E+00  0.00000000000E+00  0.27479511341E+03  0.27479804812E+03  0.12700000000E+01 0. -1.
         21   -1    0    0  501  502  0.00000000000E+00 -0.00000000000E+00 -0.10089873326E+03  0.10089873326E+03  0.00000000000E+00 0.  1.
         25    2    1    2    0    0  0.49934622221E+02 -0.65814882308E+01  0.25024327148E+03  0.28422414504E+03  0.12499954889E+03 0.  0.
    9000005    1    3    3    0    0  0.58284217404E+02  0.30908378128E+00  0.33550989519E+02  0.67259307378E+02  0.10000000000E+01 0.  0.
    9000005    1    3    3    0    0 -0.83495951838E+01 -0.68905720121E+01  0.21669228196E+03  0.21696483766E+03  0.10000000000E+01 0.  0.
          4    1    1    2  501    0 -0.49934622221E+02  0.65814882308E+01 -0.76346891334E+02  0.91472636346E+02  0.12700000000E+01 0.  1.
<mgrwt>
<rscale>  1 0.13476524E+03</rscale>
<asrwt>0</asrwt>
<pdfrwt beam="2">  1       21 0.15522882E-01 0.13476524E+03</pdfrwt>
<pdfrwt beam="1">  1        4 0.42277011E-01 0.13476524E+03</pdfrwt>
<totfact> 0.82336509E+03</totfact>
</mgrwt>
</event>
<event>
 6    3  0.7601760E-003  0.1278345E+03  0.7818608E-02  0.1230705E+00
         21   -1    0    0  501  502  0.00000000000E+00  0.00000000000E+00  0.45803237020E+03  0.45803237020E+03  0.00000000000E+00 0. -1.
         -4   -1    0    0    0  501 -0.00000000000E+00 -0.00000000000E+00 -0.23845530988E+02  0.23879326793E+02  0.12700000000E+01 0.  1.
         25    2    1    2    0    0 -0.39998016344E+01  0.26462528648E+02  0.15266939083E+03  0.19912211006E+03  0.12500163192E+03 0.  0.
    9000005    1    3    3    0    0 -0.63731854684E+02  0.18008948654E+02  0.65871281797E+02  0.93413581982E+02  0.10000000000E+01 0.  0.
    9000005    1    3    3    0    0  0.59732053050E+02  0.84535799939E+01  0.86798109034E+02  0.10570852808E+03  0.10000000000E+01 0.  0.
         -4    1    1    2    0  502  0.39998016344E+01 -0.26462528648E+02  0.28151744838E+03  0.28278958693E+03  0.12700000000E+01 0. -1.
<mgrwt>
<rscale>  1 0.12783455E+03</rscale>
<asrwt>0</asrwt>
<pdfrwt beam="1">  1       21 0.70466512E-01 0.12783455E+03</pdfrwt>
<pdfrwt beam="2">  1       -4 0.36712787E-02 0.12783455E+03</pdfrwt>
<totfact> 0.29174539E+04</totfact>
</mgrwt>
</event>
<event>
 6    3  0.7601760E-003  0.1447853E+03  0.7818608E-02  0.1207031E+00
         21   -1    0    0  501  502  0.00000000000E+00  0.00000000000E+00  0.39832081114E+02  0.39832081114E+02  0.00000000000E+00 0. -1.
          4   -1    0    0  502    0 -0.00000000000E+00 -0.00000000000E+00 -0.31212839877E+03  0.31213098247E+03  0.12700000000E+01 0. -1.
         25    2    1    2    0    0  0.51287453261E+02 -0.52030935044E+02 -0.21453329735E+03  0.25881908644E+03  0.12500065108E+03 0.  0.
    9000005    1    3    3    0    0 -0.37220701835E+02 -0.35721115695E+02 -0.53418907320E+02  0.74269498523E+02  0.10000000000E+01 0.  0.
    9000005    1    3    3    0    0  0.88508155096E+02 -0.16309819350E+02 -0.16111439003E+03  0.18454958792E+03  0.10000000000E+01 0.  0.
          4    1    1    2  501    0 -0.51287453261E+02  0.52030935044E+02 -0.57763020301E+02  0.93143977142E+02  0.12700000000E+01 0.  1.
<mgrwt>
<rscale>  1 0.14478530E+03</rscale>
<asrwt>0</asrwt>
<pdfrwt beam="1">  1       21 0.61280125E-02 0.14478530E+03</pdfrwt>
<pdfrwt beam="2">  1        4 0.48021509E-01 0.14478530E+03</pdfrwt>
<totfact> 0.32718410E+04</totfact>
</mgrwt>
</event>
<event>
 6    3  0.7601760E-003  0.1272492E+03  0.7818608E-02  0.1231595E+00
         21   -1    0    0  501  502  0.00000000000E+00  0.00000000000E+00  0.10296733136E+03  0.10296733136E+03  0.00000000000E+00 0. -1.
         -4   -1    0    0    0  501 -0.00000000000E+00 -0.00000000000E+00 -0.71195490744E+02  0.71206817106E+02  0.12700000000E+01 0. -1.
         25    2    1    2    0    0  0.14095072658E+01  0.23770460432E+02 -0.83262205656E+01  0.12752129314E+03  0.12500133101E+03 0.  0.
    9000005    1    3    3    0    0  0.27217761527E+02 -0.42053112549E+02  0.16235585450E+02  0.52667495218E+02  0.10000000000E+01 0.  0.
    9000005    1    3    3    0    0 -0.25808254261E+02  0.65823572981E+02 -0.24561806016E+02  0.74853797918E+02  0.10000000000E+01 0.  0.
         -4    1    1    2    0  502 -0.14095072658E+01 -0.23770460432E+02  0.40098061179E+02  0.46652855327E+02  0.12700000000E+01 0.  1.
<mgrwt>
<rscale>  1 0.12724918E+03</rscale>
<asrwt>0</asrwt>
<pdfrwt beam="1">  1       21 0.15841128E-01 0.12724918E+03</pdfrwt>
<pdfrwt beam="2">  1       -4 0.10954626E-01 0.12724918E+03</pdfrwt>
<totfact> 0.92293436E+04</totfact>
</mgrwt>
</event>
<event>
 6    3  0.7601760E-003  0.1270613E+03  0.7818608E-02  0.1231883E+00
         21   -1    0    0  501  502  0.00000000000E+00  0.00000000000E+00  0.15462501807E+03  0.15462501807E+03  0.00000000000E+00 0. -1.
         -4   -1    0    0    0  501 -0.00000000000E+00 -0.00000000000E+00 -0.48281013104E+02  0.48297713469E+02  0.12700000000E+01 0. -1.
         25    2    1    2    0    0  0.22785777127E+02  0.56113018208E+00  0.40696738059E+02  0.13341961608E+03  0.12500025184E+03 0.  0.
    9000005    1    3    3    0    0  0.30992105591E+02  0.51414471266E+02  0.53403581722E+02  0.80354844318E+02  0.10000000000E+01 0.  0.
    9000005    1    3    3    0    0 -0.82063284640E+01 -0.50853341084E+02 -0.12706843663E+02  0.53064771762E+02  0.10000000000E+01 0.  0.
         -4    1    1    2    0  502 -0.22785777127E+02 -0.56113018208E+00  0.65647266910E+02  0.69503115464E+02  0.12700000000E+01 0.  1.
<mgrwt>
<rscale>  1 0.12706128E+03</rscale>
<asrwt>0</asrwt>
<pdfrwt beam="1">  1       21 0.23788464E-01 0.12706128E+03</pdfrwt>
<pdfrwt beam="2">  1       -4 0.74295341E-02 0.12706128E+03</pdfrwt>
<totfact> 0.83390263E+04</totfact>
</mgrwt>
</event>
<event>
 6    3  0.7601760E-003  0.1432501E+03  0.7818608E-02  0.1209021E+00
         21   -1    0    0  501  502  0.00000000000E+00  0.00000000000E+00  0.62255220857E+03  0.62255220857E+03  0.00000000000E+00 0. -1.
          4   -1    0    0  502    0 -0.00000000000E+00 -0.00000000000E+00 -0.31609864943E+02  0.31635367261E+02  0.12700000000E+01 0.  1.
         25    2    1    2    0    0 -0.53361085413E+02  0.45257817153E+02  0.14882450390E+03  0.20656555609E+03  0.12499968221E+03 0.  0.
    9000005    1    3    3    0    0 -0.32018056173E+02  0.73565882746E+02  0.35353594006E+02  0.87681079113E+02  0.10000000000E+01 0.  0.
    9000005    1    3    3    0    0 -0.21343029240E+02 -0.28308065592E+02  0.11347090989E+03  0.11888447698E+03  0.10000000000E+01 0.  0.
          4    1    1    2  501    0  0.53361085413E+02 -0.45257817153E+02  0.44211783973E+03  0.44762201974E+03  0.12700000000E+01 0. -1.
<mgrwt>
<rscale>  1 0.14325012E+03</rscale>
<asrwt>0</asrwt>
<pdfrwt beam="1">  1       21 0.95777254E-01 0.14325012E+03</pdfrwt>
<pdfrwt beam="2">  1        4 0.48651180E-02 0.14325012E+03</pdfrwt>
<totfact> 0.94198861E+03</totfact>
</mgrwt>
</event>
<event>
 6    3  0.7601760E-003  0.1277603E+03  0.7818608E-02  0.1230817E+00
         21   -1    0    0  501  502  0.00000000000E+00  0.00000000000E+00  0.46115432506E+02  0.46115432506E+02  0.00000000000E+00 0.  1.
          4   -1    0    0  502    0 -0.00000000000E+00 -0.00000000000E+00 -0.14079124817E+03  0.14079697604E+03  0.12700000000E+01 0.  1.
         25    2    1    2    0    0 -0.22803529386E+02 -0.13381279449E+02 -0.54723570436E+02  0.13898689977E+03  0.12499451810E+03 0.  0.
    9000005    1    3    3    0    0 -0.44781138598E+02  0.44642786312E+02 -0.14025754028E+02  0.64776928917E+02  0.10000000000E+01 0.  0.
    9000005    1    3    3    0    0  0.21977609212E+02 -0.58024065761E+02 -0.40697816409E+02  0.74209970857E+02  0.10000000000E+01 0.  0.
          4    1    1    2  501    0  0.22803529386E+02  0.13381279449E+02 -0.39952245227E+02  0.47925508770E+02  0.12700000000E+01 0. -1.
<mgrwt>
<rscale>  1 0.12776028E+03</rscale>
<asrwt>0</asrwt>
<pdfrwt beam="1">  1       21 0.70946821E-02 0.12776028E+03</pdfrwt>
<pdfrwt beam="2">  1        4 0.21661977E-01 0.12776028E+03</pdfrwt>
<totfact> 0.11489006E+05</totfact>
</mgrwt>
</event>
<event>
 6    3  0.7601760E-003  0.1269317E+03  0.7818608E-02  0.1232081E+00
         21   -1    0    0  501  502  0.00000000000E+00  0.00000000000E+00  0.10600762420E+03  0.10600762420E+03  0.00000000000E+00 0. -1.
         -4   -1    0    0    0  501 -0.00000000000E+00 -0.00000000000E+00 -0.53563765022E+02  0.53578818794E+02  0.12700000000E+01 0. -1.
         25    2    1    2    0    0  0.41693635900E+01  0.21677504009E+02  0.35717393355E+02  0.13186126794E+03  0.12499745606E+03 0.  0.
    9000005    1    3    3    0    0  0.37441059217E+02  0.20746862811E+02  0.71274249039E+02  0.83146159309E+02  0.10000000000E+01 0.  0.
    9000005    1    3    3    0    0 -0.33271695627E+02  0.93064119748E+00 -0.35556855684E+02  0.48715108632E+02  0.10000000000E+01 0.  0.
         -4    1    1    2    0  502 -0.41693635900E+01 -0.21677504009E+02  0.16726465823E+02  0.27725175053E+02  0.12700000000E+01 0.  1.
<mgrwt>
<rscale>  1 0.12693172E+03</rscale>
<asrwt>0</asrwt>
<pdfrwt beam="1">  1       21 0.16308865E-01 0.12693172E+03</pdfrwt>
<pdfrwt beam="2">  1       -4 0.82423224E-02 0.12693172E+03</pdfrwt>
<totfact> 0.14098892E+05</totfact>
</mgrwt>
</event>
<event>
 6    3  0.7601760E-003  0.1380206E+03  0.7818608E-02  0.1216018E+00
         -4   -1    0    0    0  501 -0.00000000000E+00  0.00000000000E+00  0.56147606708E+03  0.56147750339E+03  0.12700000000E+01 0.  1.
         21   -1    0    0  501  502  0.00000000000E+00 -0.00000000000E+00 -0.31971265850E+02  0.31971265850E+02  0.00000000000E+00 0. -1.
         25    2    1    2    0    0 -0.39569339594E+02  0.43125953792E+02  0.51494791471E+03  0.53312384593E+03  0.12499639877E+03 0.  0.
    9000005    1    3    3    0    0 -0.72115453473E+02  0.85740615364E+01  0.42743539598E+03  0.43356218804E+03  0.10000000000E+01 0.  0.
    9000005    1    3    3    0    0  0.32546113879E+02  0.34551892255E+02  0.87512518730E+02  0.99561657888E+02  0.10000000000E+01 0.  0.
         -4    1    1    2    0  502  0.39569339594E+02 -0.43125953792E+02  0.14556886520E+02  0.60324923303E+02  0.12700000000E+01 0. -1.
<mgrwt>
<rscale>  1 0.13802058E+03</rscale>
<asrwt>0</asrwt>
<pdfrwt beam="2">  1       21 0.49186567E-02 0.13802058E+03</pdfrwt>
<pdfrwt beam="1">  1       -4 0.86382977E-01 0.13802058E+03</pdfrwt>
<totfact> 0.13518589E+04</totfact>
</mgrwt>
</event>
<event>
 6    3  0.7601760E-003  0.1271393E+03  0.7818608E-02  0.1231763E+00
          4   -1    0    0  502    0 -0.00000000000E+00  0.00000000000E+00  0.14799499113E+03  0.14800044020E+03  0.12700000000E+01 0.  1.
         21   -1    0    0  501  502  0.00000000000E+00 -0.00000000000E+00 -0.67460846045E+02  0.67460846045E+02  0.00000000000E+00 0. -1.
         25    2    1    2    0    0 -0.22570469261E+02  0.43655892801E+01  0.11670674402E+03  0.17258292030E+03  0.12504365568E+03 0.  0.
    9000005    1    3    3    0    0  0.19441220611E+02  0.40688439759E+00  0.12752990468E+03  0.12900776411E+03  0.10000000000E+01 0.  0.
    9000005    1    3    3    0    0 -0.42011689872E+02  0.39587048825E+01 -0.10823160657E+02  0.43575156189E+02  0.10000000000E+01 0.  0.
          4    1    1    2  501    0  0.22570469261E+02 -0.43655892801E+01 -0.36172598935E+02  0.42878365946E+02  0.12700000000E+01 0. -1.
<mgrwt>
<rscale>  1 0.12713929E+03</rscale>
<asrwt>0</asrwt>
<pdfrwt beam="2">  1       21 0.10378592E-01 0.12713929E+03</pdfrwt>
<pdfrwt beam="1">  1        4 0.22769799E-01 0.12713929E+03</pdfrwt>
<totfact> 0.54267729E+04</totfact>
</mgrwt>
</event>
<event>
 6    3  0.7601760E-003  0.1474972E+03  0.7818608E-02  0.1203583E+00
          4   -1    0    0  502    0 -0.00000000000E+00  0.00000000000E+00  0.96533852531E+03  0.96533936071E+03  0.12700000000E+01 0.  1.
         21   -1    0    0  501  502  0.00000000000E+00 -0.00000000000E+00 -0.20683332203E+02  0.20683332203E+02  0.00000000000E+00 0. -1.
         25    2    1    2    0    0  0.77606939788E+02  0.10357103648E+02  0.85216790294E+03  0.86483845945E+03  0.12500127775E+03 0.  0.
    9000005    1    3    3    0    0  0.11089900290E+03  0.10598820839E+02  0.71833479981E+03  0.72692283529E+03  0.10000000000E+01 0.  0.
    9000005    1    3    3    0    0 -0.33292063113E+02 -0.24171719132E+00  0.13383310313E+03  0.13791562416E+03  0.10000000000E+01 0.  0.
          4    1    1    2  501    0 -0.77606939788E+02 -0.10357103648E+02  0.92487290162E+02  0.12118423347E+03  0.12700000000E+01 0. -1.
<mgrwt>
<rscale>  1 0.14749721E+03</rscale>
<asrwt>0</asrwt>
<pdfrwt beam="2">  1       21 0.31820518E-02 0.14749721E+03</pdfrwt>
<pdfrwt beam="1">  1        4 0.14851665E+00 0.14749721E+03</pdfrwt>
<totfact> 0.77230089E+03</totfact>
</mgrwt>
</event>
<event>
 6    3  0.7601760E-003  0.1283083E+03  0.7818608E-02  0.1229988E+00
          4   -1    0    0  502    0 -0.00000000000E+00  0.00000000000E+00  0.67415274099E+02  0.67427235461E+02  0.12700000000E+01 0. -1.
         21   -1    0    0  501  502  0.00000000000E+00 -0.00000000000E+00 -0.11835485348E+03  0.11835485348E+03  0.00000000000E+00 0.  1.
         25    2    1    2    0    0 -0.10801632247E+02 -0.26854156079E+02 -0.13106658993E+01  0.12831502958E+03  0.12500083205E+03 0.  0.
    9000005    1    3    3    0    0 -0.61292280722E+02 -0.82411706302E+01  0.27015738206E+02  0.67494523335E+02  0.10000000000E+01 0.  0.
    9000005    1    3    3    0    0  0.50490648474E+02 -0.18612985449E+02 -0.28326404105E+02  0.60820506248E+02  0.10000000000E+01 0.  0.
          4    1    1    2  501    0  0.10801632247E+02  0.26854156079E+02 -0.49628913484E+02  0.57467059361E+02  0.12700000000E+01 0.  1.
<mgrwt>
<rscale>  1 0.12830834E+03</rscale>
<asrwt>0</asrwt>
<pdfrwt beam="2">  1       21 0.18208439E-01 0.12830834E+03</pdfrwt>
<pdfrwt beam="1">  1        4 0.10373025E-01 0.12830834E+03</pdfrwt>
<totfact> 0.78630981E+04</totfact>
</mgrwt>
</event>
<event>
 6    3  0.7601760E-003  0.1295519E+03  0.7818608E-02  0.1228122E+00
         21   -1    0    0  501  502  0.00000000000E+00  0.00000000000E+00  0.11788203648E+03  0.11788203648E+03  0.00000000000E+00 0.  1.
          4   -1    0    0  502    0 -0.00000000000E+00 -0.00000000000E+00 -0.74419689175E+02  0.74430524900E+02  0.12700000000E+01 0.  1.
         25    2    1    2    0    0 -0.33032280661E+02 -0.83348564001E+01 -0.88703001815E+01  0.12985521362E+03  0.12499237129E+03 0.  0.
    9000005    1    3    3    0    0 -0.22298939251E+02 -0.56241762021E+02 -0.39238953823E+02  0.72118471865E+02  0.10000000000E+01 0.  0.
    9000005    1    3    3    0    0 -0.10733341411E+02  0.47906905621E+02  0.30368653641E+02  0.57736741751E+02  0.10000000000E+01 0.  0.
          4    1    1    2  501    0  0.33032280661E+02  0.83348564001E+01  0.52332647490E+02  0.62457347768E+02  0.12700000000E+01 0. -1.
<mgrwt>
<rscale>  1 0.12955190E+03</rscale>
<asrwt>0</asrwt>
<pdfrwt beam="1">  1       21 0.18135698E-01 0.12955190E+03</pdfrwt>
<pdfrwt beam="2">  1        4 0.11450543E-01 0.12955190E+03</pdfrwt>
<totfact> 0.67078661E+04</totfact>
</mgrwt>
</event>
<event>
 6    3  0.7601760E-003  0.1268153E+03  0.7818608E-02  0.1232259E+00
         21   -1    0    0  501  502  0.00000000000E+00  0.00000000000E+00  0.35017226444E+03  0.35017226444E+03  0.00000000000E+00 0.  1.
         -4   -1    0    0    0  501 -0.00000000000E+00 -0.00000000000E+00 -0.47122999230E+02  0.47140109848E+02  0.12700000000E+01 0. -1.
         25    2    1    2    0    0 -0.78521540062E+00  0.21368010544E+02  0.39400662248E+02  0.13279506449E+03  0.12499963412E+03 0.  0.
    9000005    1    3    3    0    0 -0.62266363620E+02  0.12207718846E+02  0.28964911770E+02  0.69757397828E+02  0.10000000000E+01 0.  0.
    9000005    1    3    3    0    0  0.61481148220E+02  0.91602916976E+01  0.10435750478E+02  0.63037666664E+02  0.10000000000E+01 0.  0.
         -4    1    1    2    0  502  0.78521540062E+00 -0.21368010544E+02  0.26364860296E+03  0.26451730980E+03  0.12700000000E+01 0.  1.
<mgrwt>
<rscale>  1 0.12681529E+03</rscale>
<asrwt>0</asrwt>
<pdfrwt beam="1">  1       21 0.53872655E-01 0.12681529E+03</pdfrwt>
<pdfrwt beam="2">  1       -4 0.72511857E-02 0.12681529E+03</pdfrwt>
<totfact> 0.17285580E+04</totfact>
</mgrwt>
</event>
<event>
 6    3  0.7601760E-003  0.1490821E+03  0.7818608E-02  0.1201605E+00
          4   -1    0    0  502    0 -0.00000000000E+00  0.00000000000E+00  0.50972489345E+03  0.50972647558E+03  0.12700000000E+01 0.  1.
         21   -1    0    0  501  502  0.00000000000E+00 -0.00000000000E+00 -0.42043653080E+02  0.42043653080E+02  0.00000000000E+00 0. -1.
         25    2    1    2    0    0  0.69471622106E+02 -0.42114908145E+02  0.44214391689E+03  0.46660124023E+03  0.12500200947E+03 0.  0.
    9000005    1    3    3    0    0  0.37379099613E+02 -0.82357543405E+02  0.34499224946E+03  0.35665195111E+03  0.10000000000E+01 0.  0.
    9000005    1    3    3    0    0  0.32092522493E+02  0.40242635259E+02  0.97151667434E+02  0.10994928912E+03  0.10000000000E+01 0.  0.
          4    1    1    2  501    0 -0.69471622106E+02  0.42114908145E+02  0.25537323482E+02  0.85168888432E+02  0.12700000000E+01 0. -1.
<mgrwt>
<rscale>  1 0.14908211E+03</rscale>
<asrwt>0</asrwt>
<pdfrwt beam="2">  1       21 0.64682547E-02 0.14908211E+03</pdfrwt>
<pdfrwt beam="1">  1        4 0.78420807E-01 0.14908211E+03</pdfrwt>
<totfact> 0.10614165E+04</totfact>
</mgrwt>
</event>
<event>
 6    3  0.7601760E-003  0.1277739E+03  0.7818608E-02  0.1230797E+00
          4   -1    0    0  502    0 -0.00000000000E+00  0.00000000000E+00  0.21781691397E+03  0.21782061636E+03  0.12700000000E+01 0. -1.
         21   -1    0    0  501  502  0.00000000000E+00 -0.00000000000E+00 -0.12347706121E+03  0.12347706121E+03  0.00000000000E+00 0.  1.
         25    2    1    2    0    0  0.16263806596E+02 -0.20914477340E+02  0.19725314433E+03  0.23502122086E+03  0.12499697811E+03 0.  0.
    9000005    1    3    3    0    0 -0.24568975946E+02 -0.30355275019E+02  0.63603828233E+01  0.39579436203E+02  0.10000000000E+01 0.  0.
    9000005    1    3    3    0    0  0.40832782542E+02  0.94407976786E+01  0.19089276151E+03  0.19544178465E+03  0.10000000000E+01 0.  0.
          4    1    1    2  501    0 -0.16263806596E+02  0.20914477340E+02 -0.10291329158E+03  0.10627645671E+03  0.12700000000E+01 0.  1.
<mgrwt>
<rscale>  1 0.12777391E+03</rscale>
<asrwt>0</asrwt>
<pdfrwt beam="2">  1       21 0.18996471E-01 0.12777391E+03</pdfrwt>
<pdfrwt beam="1">  1        4 0.33511082E-01 0.12777391E+03</pdfrwt>
<totfact> 0.89206245E+03</totfact>
</mgrwt>
</event>
<event>
 6    3  0.7601760E-003  0.1322285E+03  0.7818608E-02  0.1224186E+00
         21   -1    0    0  501  502  0.00000000000E+00  0.00000000000E+00  0.23931403357E+03  0.23931403357E+03  0.00000000000E+00 0. -1.
         -4   -1    0    0    0  501 -0.00000000000E+00 -0.00000000000E+00 -0.32239942104E+02  0.32264946410E+02  0.12700000000E+01 0. -1.
         25    2    1    2    0    0  0.39671007538E+02 -0.16850784322E+02  0.16347748710E+03  0.21026002219E+03  0.12500660132E+03 0.  0.
    9000005    1    3    3    0    0  0.17600649756E+02  0.32253005472E+02 -0.14301946407E+01  0.36784299511E+02  0.10000000000E+01 0.  0.
    9000005    1    3    3    0    0  0.22070357782E+02 -0.49103789794E+02  0.16490768174E+03  0.17347572268E+03  0.10000000000E+01 0.  0.
         -4    1    1    2    0  502 -0.39671007538E+02  0.16850784322E+02  0.43596604371E+02  0.61318957787E+02  0.12700000000E+01 0.  1.
<mgrwt>
<rscale>  1 0.13222855E+03</rscale>
<asrwt>0</asrwt>
<pdfrwt beam="1">  1       21 0.36817542E-01 0.13222855E+03</pdfrwt>
<pdfrwt beam="2">  1       -4 0.49621739E-02 0.13222855E+03</pdfrwt>
<totfact> 0.69614267E+04</totfact>
</mgrwt>
</event>
<event>
 6    3  0.7601760E-003  0.1315933E+03  0.7818608E-02  0.1225111E+00
         -4   -1    0    0    0  501 -0.00000000000E+00  0.00000000000E+00  0.14031272372E+02  0.14088630322E+02  0.12700000000E+01 0. -1.
         21   -1    0    0  501  502  0.00000000000E+00 -0.00000000000E+00 -0.68613602950E+03  0.68613602950E+03  0.00000000000E+00 0.  1.
         25    2    1    2    0    0 -0.21242318448E+02 -0.35220255869E+02 -0.32411601653E+03  0.34981136242E+03  0.12500037835E+03 0.  0.
    9000005    1    3    3    0    0 -0.37236481895E+02  0.58692475194E+01 -0.29399408933E+03  0.29640264542E+03  0.10000000000E+01 0.  0.
    9000005    1    3    3    0    0  0.15994163447E+02 -0.41089503389E+02 -0.30121927203E+02  0.53408716999E+02  0.10000000000E+01 0.  0.
         -4    1    1    2    0  502  0.21242318448E+02  0.35220255869E+02 -0.34798874059E+03  0.35041329740E+03  0.12700000000E+01 0.  1.
<mgrwt>
<rscale>  1 0.13159330E+03</rscale>
<asrwt>0</asrwt>
<pdfrwt beam="2">  1       21 0.10555936E+00 0.13159330E+03</pdfrwt>
<pdfrwt beam="1">  1       -4 0.21631603E-02 0.13159330E+03</pdfrwt>
<totfact> 0.26675778E+04</totfact>
</mgrwt>
</event>
<event>
 6    3  0.7601760E-003  0.1272386E+03  0.7818608E-02  0.1231612E+00
          4   -1    0    0  502    0 -0.00000000000E+00  0.00000000000E+00  0.49768721228E+02  0.49784922544E+02  0.12700000000E+01 0.  1.
         21   -1    0    0  501  502  0.00000000000E+00 -0.00000000000E+00 -0.28420667794E+03  0.28420667794E+03  0.00000000000E+00 0. -1.
         25    2    1    2    0    0 -0.18147493243E+02  0.15297327635E+02 -0.33394473761E+02  0.13154794244E+03  0.12500532205E+03 0.  0.
    9000005    1    3    3    0    0 -0.93162087427E+01 -0.44681111174E+02  0.20852509693E+02  0.50189845602E+02  0.10000000000E+01 0.  0.
    9000005    1    3    3    0    0 -0.88312844998E+01  0.59978438809E+02 -0.54246983454E+02  0.81358096842E+02  0.10000000000E+01 0.  0.
          4    1    1    2  501    0  0.18147493243E+02 -0.15297327635E+02 -0.20104348295E+03  0.20244365804E+03  0.12700000000E+01 0. -1.
<mgrwt>
<rscale>  1 0.12723864E+03</rscale>
<asrwt>0</asrwt>
<pdfrwt beam="2">  1       21 0.43724104E-01 0.12723864E+03</pdfrwt>
<pdfrwt beam="1">  1        4 0.76581908E-02 0.12723864E+03</pdfrwt>
<totfact> 0.24261616E+04</totfact>
</mgrwt>
</event>
<event>
 6    3  0.7601760E-003  0.1292683E+03  0.7818608E-02  0.1228545E+00
          4   -1    0    0  502    0 -0.00000000000E+00  0.00000000000E+00  0.66281013324E+02  0.66293179342E+02  0.12700000000E+01 0. -1.
         21   -1    0    0  501  502  0.00000000000E+00 -0.00000000000E+00 -0.19105180963E+03  0.19105180963E+03  0.00000000000E+00 0.  1.
         25    2    1    2    0    0  0.43482907910E+01 -0.32657508900E+02 -0.10146629946E+01  0.12927229886E+03  0.12499950876E+03 0.  0.
    9000005    1    3    3    0    0  0.61295179693E+02  0.10048782401E+01 -0.11221168611E+02  0.62329956352E+02  0.10000000000E+01 0.  0.
    9000005    1    3    3    0    0 -0.56946888902E+02 -0.33662387140E+02  0.10206505616E+02  0.66942342508E+02  0.10000000000E+01 0.  0.
          4    1    1    2  501    0 -0.43482907910E+01  0.32657508900E+02 -0.12375613331E+03  0.12807269012E+03  0.12700000000E+01 0.  1.
<mgrwt>
<rscale>  1 0.12926832E+03</rscale>
<asrwt>0</asrwt>
<pdfrwt beam="2">  1       21 0.29392585E-01 0.12926832E+03</pdfrwt>
<pdfrwt beam="1">  1        4 0.10198340E-01 0.12926832E+03</pdfrwt>
<totfact> 0.32980943E+04</totfact>
</mgrwt>
</event>
<event>
 6    3  0.7601760E-003  0.1503606E+03  0.7818608E-02  0.1200031E+00
         21   -1    0    0  501  502  0.00000000000E+00  0.00000000000E+00  0.16057113396E+02  0.16057113396E+02  0.00000000000E+00 0. -1.
          4   -1    0    0  502    0 -0.00000000000E+00 -0.00000000000E+00 -0.96700373206E+03  0.96700456602E+03  0.12700000000E+01 0.  1.
         25    2    1    2    0    0  0.67655657054E+02  0.49049167258E+02 -0.75836700058E+03  0.77312923567E+03  0.12500079494E+03 0.  0.
    9000005    1    3    3    0    0 -0.22727211294E+02 -0.87349625812E+01 -0.35191240737E+03  0.35275511076E+03  0.10000000000E+01 0.  0.
    9000005    1    3    3    0    0  0.90382868348E+02  0.57784129839E+02 -0.40645459321E+03  0.42037412491E+03  0.10000000000E+01 0.  0.
          4    1    1    2  501    0 -0.67655657054E+02 -0.49049167258E+02 -0.19257961808E+03  0.20993244375E+03  0.12700000000E+01 0. -1.
<mgrwt>
<rscale>  1 0.15036059E+03</rscale>
<asrwt>0</asrwt>
<pdfrwt beam="1">  1       21 0.24703243E-02 0.15036059E+03</pdfrwt>
<pdfrwt beam="2">  1        4 0.14877378E+00 0.15036059E+03</pdfrwt>
<totfact> 0.11667271E+04</totfact>
</mgrwt>
</event>
<event>
 6    3  0.7601760E-003  0.1399903E+03  0.7818608E-02  0.1213342E+00
          4   -1    0    0  502    0 -0.00000000000E+00  0.00000000000E+00  0.15090822182E+02  0.15144167660E+02  0.12700000000E+01 0. -1.
         21   -1    0    0  501  502  0.00000000000E+00 -0.00000000000E+00 -0.82666236745E+03  0.82666236745E+03  0.00000000000E+00 0.  1.
         25    2    1    2    0    0 -0.47703416601E+02  0.41198466522E+02 -0.69809886172E+03  0.71199670339E+03  0.12499742120E+03 0.  0.
    9000005    1    3    3    0    0 -0.70023513916E+02  0.68151928053E+02 -0.39611682637E+03  0.40799205621E+03  0.10000000000E+01 0.  0.
    9000005    1    3    3    0    0  0.22320097315E+02 -0.26953461530E+02 -0.30198203535E+03  0.30400464718E+03  0.10000000000E+01 0.  0.
          4    1    1    2  501    0  0.47703416601E+02 -0.41198466522E+02 -0.11347268355E+03  0.12980983172E+03  0.12700000000E+01 0.  1.
<mgrwt>
<rscale>  1 0.13999030E+03</rscale>
<asrwt>0</asrwt>
<pdfrwt beam="2">  1       21 0.12717885E+00 0.13999030E+03</pdfrwt>
<pdfrwt beam="1">  1        4 0.23258431E-02 0.13999030E+03</pdfrwt>
<totfact> 0.15246999E+04</totfact>
</mgrwt>
</event>
<event>
 6    3  0.7601760E-003  0.1267849E+03  0.7818608E-02  0.1232306E+00
         -4   -1    0    0    0  501 -0.00000000000E+00  0.00000000000E+00  0.12650595207E+03  0.12651232671E+03  0.12700000000E+01 0. -1.
         21   -1    0    0  501  502  0.00000000000E+00 -0.00000000000E+00 -0.49023851922E+02  0.49023851922E+02  0.00000000000E+00 0.  1.
         25    2    1    2    0    0  0.21030254289E+02 -0.26030104449E+01  0.85415788093E+02  0.15287335526E+03  0.12500143453E+03 0.  0.
    9000005    1    3    3    0    0  0.22016814573E+02  0.60045204047E+02  0.39321711630E+02  0.75082379148E+02  0.10000000000E+01 0.  0.
    9000005    1    3    3    0    0 -0.98656028436E+00 -0.62648214491E+02  0.46094076463E+02  0.77790976116E+02  0.10000000000E+01 0.  0.
         -4    1    1    2    0  502 -0.21030254289E+02  0.26030104449E+01 -0.79336879401E+01  0.22662823371E+02  0.12700000000E+01 0.  1.
<mgrwt>
<rscale>  1 0.12678488E+03</rscale>
<asrwt>0</asrwt>
<pdfrwt beam="2">  1       21 0.75421312E-02 0.12678488E+03</pdfrwt>
<pdfrwt beam="1">  1       -4 0.19464210E-01 0.12678488E+03</pdfrwt>
<totfact> 0.12530451E+05</totfact>
</mgrwt>
</event>
<event>
 6    3  0.7601760E-003  0.1268531E+03  0.7818608E-02  0.1232201E+00
         21   -1    0    0  501  502  0.00000000000E+00  0.00000000000E+00  0.21940113380E+02  0.21940113380E+02  0.00000000000E+00 0. -1.
         -4   -1    0    0    0  501 -0.00000000000E+00 -0.00000000000E+00 -0.45479685881E+03  0.45479863201E+03  0.12700000000E+01 0.  1.
         25    2    1    2    0    0  0.16107249257E+02  0.14491050335E+02 -0.43665265392E+03  0.45470568297E+03  0.12498913525E+03 0.  0.
    9000005    1    3    3    0    0  0.76967163237E+01 -0.39707553013E+01 -0.43415297439E+03  0.43424049963E+03  0.10000000000E+01 0.  0.
    9000005    1    3    3    0    0  0.84105329328E+01  0.18461805637E+02 -0.24996795283E+01  0.20465183345E+02  0.10000000000E+01 0.  0.
         -4    1    1    2    0  502 -0.16107249257E+02 -0.14491050335E+02  0.37959084950E+01  0.22033062423E+02  0.12700000000E+01 0. -1.
<mgrwt>
<rscale>  1 0.12685314E+03</rscale>
<asrwt>0</asrwt>
<pdfrwt beam="1">  1       21 0.33754022E-02 0.12685314E+03</pdfrwt>
<pdfrwt beam="2">  1       -4 0.69971709E-01 0.12685314E+03</pdfrwt>
<totfact> 0.39813750E+04</totfact>
</mgrwt>
</event>
<event>
 6    3  0.7601760E-003  0.1269805E+03  0.7818608E-02  0.1232006E+00
         21   -1    0    0  501  502  0.00000000000E+00  0.00000000000E+00  0.16804946437E+03  0.16804946437E+03  0.00000000000E+00 0.  1.
         -4   -1    0    0    0  501 -0.00000000000E+00 -0.00000000000E+00 -0.40947122692E+02  0.40966812871E+02  0.12700000000E+01 0.  1.
         25    2    1    2    0    0  0.67898981974E+00  0.22334219515E+02  0.64273897318E+02  0.14232066487E+03  0.12499903753E+03 0.  0.
    9000005    1    3    3    0    0 -0.38289131174E+01  0.42394044421E+02  0.95704958768E+02  0.10474900816E+03  0.10000000000E+01 0.  0.
    9000005    1    3    3    0    0  0.45079029371E+01 -0.20059824905E+02 -0.31431061450E+02  0.37571656711E+02  0.10000000000E+01 0.  0.
         -4    1    1    2    0  502 -0.67898981974E+00 -0.22334219515E+02  0.62828444359E+02  0.66695612368E+02  0.12700000000E+01 0. -1.
<mgrwt>
<rscale>  1 0.12698046E+03</rscale>
<asrwt>0</asrwt>
<pdfrwt beam="1">  1       21 0.25853763E-01 0.12698046E+03</pdfrwt>
<pdfrwt beam="2">  1       -4 0.63014412E-02 0.12698046E+03</pdfrwt>
<totfact> 0.93305557E+04</totfact>
</mgrwt>
</event>
<event>
 6    3  0.7601760E-003  0.1303687E+03  0.7818608E-02  0.1226910E+00
         -4   -1    0    0    0  501 -0.00000000000E+00  0.00000000000E+00  0.90445460295E+03  0.90445549459E+03  0.12700000000E+01 0. -1.
         21   -1    0    0  501  502  0.00000000000E+00 -0.00000000000E+00 -0.25551138849E+02  0.25551138849E+02  0.00000000000E+00 0.  1.
         25    2    1    2    0    0  0.36064892360E+02  0.83380995910E+01  0.88315496755E+03  0.89272542441E+03  0.12500314518E+03 0.  0.
    9000005    1    3    3    0    0 -0.30041224385E+02 -0.79116972468E+00  0.62454744197E+02  0.69315915811E+02  0.10000000000E+01 0.  0.
    9000005    1    3    3    0    0  0.66106116745E+02  0.91292693157E+01  0.82070022335E+03  0.82340950859E+03  0.10000000000E+01 0.  0.
         -4    1    1    2    0  502 -0.36064892360E+02 -0.83380995910E+01 -0.42515034476E+01  0.37281209037E+02  0.12700000000E+01 0.  1.
<mgrwt>
<rscale>  1 0.13036866E+03</rscale>
<asrwt>0</asrwt>
<pdfrwt beam="2">  1       21 0.39309451E-02 0.13036866E+03</pdfrwt>
<pdfrwt beam="1">  1       -4 0.13914933E+00 0.13036866E+03</pdfrwt>
<totfact> 0.63540621E+03</totfact>
</mgrwt>
</event>
<event>
 6    3  0.7601760E-003  0.1279838E+03  0.7818608E-02  0.1230478E+00
          4   -1    0    0  502    0 -0.00000000000E+00  0.00000000000E+00  0.13356620096E+04  0.13356626134E+04  0.12700000000E+01 0. -1.
         21   -1    0    0  501  502  0.00000000000E+00 -0.00000000000E+00 -0.47580603501E+01  0.47580603501E+01  0.00000000000E+00 0. -1.
         25    2    1    2    0    0  0.27159818555E+02  0.39100450619E+01  0.11901278558E+04  0.11969896256E+04  0.12500762506E+03 0.  0.
    9000005    1    3    3    0    0  0.15944887601E+02 -0.57909859529E+02  0.41591790194E+03  0.42023385445E+03  0.10000000000E+01 0.  0.
    9000005    1    3    3    0    0  0.11214930955E+02  0.61819904591E+02  0.77420995387E+03  0.77675577111E+03  0.10000000000E+01 0.  0.
          4    1    1    2  501    0 -0.27159818555E+02 -0.39100450619E+01  0.14077609347E+03  0.14343104821E+03  0.12700000000E+01 0.  1.
<mgrwt>
<rscale>  1 0.12798379E+03</rscale>
<asrwt>0</asrwt>
<pdfrwt beam="2">  1       21 0.73201035E-03 0.12798379E+03</pdfrwt>
<pdfrwt beam="1">  1        4 0.20549925E+00 0.12798379E+03</pdfrwt>
<totfact> 0.33378705E+04</totfact>
</mgrwt>
</event>
<event>
 6    3  0.7601760E-003  0.1482972E+03  0.7818608E-02  0.1202581E+00
          4   -1    0    0  502    0 -0.00000000000E+00  0.00000000000E+00  0.26492457861E+03  0.26492762266E+03  0.12700000000E+01 0.  1.
         21   -1    0    0  501  502  0.00000000000E+00 -0.00000000000E+00 -0.66725747205E+02  0.66725747205E+02  0.00000000000E+00 0. -1.
         25    2    1    2    0    0 -0.66048038920E+02  0.44776779876E+02  0.20335100543E+03  0.25168174203E+03  0.12499905761E+03 0.  0.
    9000005    1    3    3    0    0 -0.61297475795E+02  0.19130883689E+02  0.21140627022E+02  0.67611370053E+02  0.10000000000E+01 0.  0.
    9000005    1    3    3    0    0 -0.47505631249E+01  0.25645896187E+02  0.18221037841E+03  0.18407037198E+03  0.10000000000E+01 0.  0.
          4    1    1    2  501    0  0.66048038920E+02 -0.44776779876E+02 -0.51521740298E+01  0.79971627834E+02  0.12700000000E+01 0. -1.
<mgrwt>
<rscale>  1 0.14829723E+03</rscale>
<asrwt>0</asrwt>
<pdfrwt beam="2">  1       21 0.10265500E-01 0.14829723E+03</pdfrwt>
<pdfrwt beam="1">  1        4 0.40758791E-01 0.14829723E+03</pdfrwt>
<totfact> 0.18660772E+04</totfact>
</mgrwt>
</event>
<event>
 6    3  0.7601760E-003  0.1309364E+03  0.7818608E-02  0.1226073E+00
         21   -1    0    0  501  502  0.00000000000E+00  0.00000000000E+00  0.14931350383E+02  0.14931350383E+02  0.00000000000E+00 0. -1.
          4   -1    0    0  502    0 -0.00000000000E+00 -0.00000000000E+00 -0.48536478578E+03  0.48536644731E+03  0.12700000000E+01 0. -1.
         25    2    1    2    0    0 -0.15966144179E+02  0.35574329548E+02 -0.37477712936E+03  0.39699149359E+03  0.12499559436E+03 0.  0.
    9000005    1    3    3    0    0 -0.31686298809E+02 -0.40315009452E+02 -0.11543773779E+03  0.12631782466E+03  0.10000000000E+01 0.  0.
    9000005    1    3    3    0    0  0.15720154630E+02  0.75889339001E+02 -0.25933939156E+03  0.27067366893E+03  0.10000000000E+01 0.  0.
          4    1    1    2  501    0  0.15966144179E+02 -0.35574329548E+02 -0.95656306036E+02  0.10330630410E+03  0.12700000000E+01 0.  1.
<mgrwt>
<rscale>  1 0.13093643E+03</rscale>
<asrwt>0</asrwt>
<pdfrwt beam="1">  1       21 0.22971309E-02 0.13093643E+03</pdfrwt>
<pdfrwt beam="2">  1        4 0.74675785E-01 0.13093643E+03</pdfrwt>
<totfact> 0.65149168E+04</totfact>
</mgrwt>
</event>
<event>
 6    3  0.7601760E-003  0.1267055E+03  0.7818608E-02  0.1232428E+00
          4   -1    0    0  502    0 -0.00000000000E+00  0.00000000000E+00  0.54640383761E+03  0.54640531353E+03  0.12700000000E+01 0. -1.
         21   -1    0    0  501  502  0.00000000000E+00 -0.00000000000E+00 -0.10281483763E+02  0.10281483763E+02  0.00000000000E+00 0.  1.
         25    2    1    2    0    0 -0.20648561270E+02  0.11919953292E+01  0.41875976680E+03  0.43750888964E+03  0.12500600899E+03 0.  0.
    9000005    1    3    3    0    0 -0.62865856036E+02 -0.27096971872E+02  0.16381141295E+03  0.17754306732E+03  0.10000000000E+01 0.  0.
    9000005    1    3    3    0    0  0.42217294766E+02  0.28288967201E+02  0.25494835385E+03  0.25996582232E+03  0.10000000000E+01 0.  0.
          4    1    1    2  501    0  0.20648561270E+02 -0.11919953292E+01  0.11736258704E+03  0.11917790765E+03  0.12700000000E+01 0.  1.
<mgrwt>
<rscale>  1 0.12670551E+03</rscale>
<asrwt>0</asrwt>
<pdfrwt beam="2">  1       21 0.15817672E-02 0.12670551E+03</pdfrwt>
<pdfrwt beam="1">  1        4 0.84068253E-01 0.12670551E+03</pdfrwt>
<totfact> 0.91080054E+04</totfact>
</mgrwt>
</event>
<event>
 6    3  0.7601760E-003  0.1346077E+03  0.7818608E-02  0.1220775E+00
          4   -1    0    0  502    0 -0.00000000000E+00  0.00000000000E+00  0.90670070704E+03  0.90670159647E+03  0.12700000000E+01 0.  1.
         21   -1    0    0  501  502  0.00000000000E+00 -0.00000000000E+00 -0.48609546694E+02  0.48609546694E+02  0.00000000000E+00 0. -1.
         25    2    1    2    0    0  0.23147945537E+02 -0.44255980214E+02  0.88729111530E+03  0.89744345411E+03  0.12499924345E+03 0.  0.
    9000005    1    3    3    0    0  0.46156638339E+02 -0.14436104931E+02  0.12220583980E+03  0.13143098443E+03  0.10000000000E+01 0.  0.
    9000005    1    3    3    0    0 -0.23008692802E+02 -0.29819875283E+02  0.76508527551E+03  0.76601246968E+03  0.10000000000E+01 0.  0.
          4    1    1    2  501    0 -0.23147945537E+02  0.44255980214E+02 -0.29199954957E+02  0.57867689057E+02  0.12700000000E+01 0. -1.
<mgrwt>
<rscale>  1 0.13460769E+03</rscale>
<asrwt>0</asrwt>
<pdfrwt beam="2">  1       21 0.74783925E-02 0.13460769E+03</pdfrwt>
<pdfrwt beam="1">  1        4 0.13949375E+00 0.13460769E+03</pdfrwt>
<totfact> 0.21365485E+03</totfact>
</mgrwt>
</event>
<event>
 6    3  0.7601760E-003  0.1268473E+03  0.7818608E-02  0.1232210E+00
         21   -1    0    0  501  502  0.00000000000E+00  0.00000000000E+00  0.46364124445E+02  0.46364124445E+02  0.00000000000E+00 0. -1.
          4   -1    0    0  502    0 -0.00000000000E+00 -0.00000000000E+00 -0.22590706786E+03  0.22591063766E+03  0.12700000000E+01 0. -1.
         25    2    1    2    0    0 -0.16447196897E+02 -0.13947906941E+02 -0.20363786650E+03  0.23991378850E+03  0.12500076338E+03 0.  0.
    9000005    1    3    3    0    0  0.24134241347E+02 -0.27255278652E+02 -0.19229635761E+03  0.19571459059E+03  0.10000000000E+01 0.  0.
    9000005    1    3    3    0    0 -0.40581438244E+02  0.13307371711E+02 -0.11341508891E+02  0.44199197908E+02  0.10000000000E+01 0.  0.
          4    1    1    2  501    0  0.16447196897E+02  0.13947906941E+02  0.24094923092E+02  0.32360973604E+02  0.12700000000E+01 0.  1.
<mgrwt>
<rscale>  1 0.12684733E+03</rscale>
<asrwt>0</asrwt>
<pdfrwt beam="1">  1       21 0.71329420E-02 0.12684733E+03</pdfrwt>
<pdfrwt beam="2">  1        4 0.34756547E-01 0.12684733E+03</pdfrwt>
<totfact> 0.47049794E+04</totfact>
</mgrwt>
</event>
<event>
 6    3  0.7601760E-003  0.1314926E+03  0.7818608E-02  0.1225258E+00
         21   -1    0    0  501  502  0.00000000000E+00  0.00000000000E+00  0.15425895550E+02  0.15425895550E+02  0.00000000000E+00 0.  1.
          4   -1    0    0  502    0 -0.00000000000E+00 -0.00000000000E+00 -0.28869157982E+04  0.28869160775E+04  0.12700000000E+01 0. -1.
         25    2    1    2    0    0  0.24538268746E+01 -0.40737120169E+02 -0.28554463748E+04  0.28584723718E+04  0.12499906837E+03 0.  0.
    9000005    1    3    3    0    0 -0.48715386323E+02  0.18840699911E+00 -0.19707978213E+04  0.19714000803E+04  0.10000000000E+01 0.  0.
    9000005    1    3    3    0    0  0.51169213197E+02 -0.40925527168E+02 -0.88464855350E+03  0.88707229151E+03  0.10000000000E+01 0.  0.
          4    1    1    2  501    0 -0.24538268746E+01  0.40737120169E+02 -0.16043527834E+02  0.43869601222E+02  0.12700000000E+01 0.  1.
<mgrwt>
<rscale>  1 0.13149259E+03</rscale>
<asrwt>0</asrwt>
<pdfrwt beam="1">  1       21 0.23732133E-02 0.13149259E+03</pdfrwt>
<pdfrwt beam="2">  1        4 0.44414520E+00 0.13149259E+03</pdfrwt>
<totfact> 0.17784342E+02</totfact>
</mgrwt>
</event>
<event>
 6    3  0.7601760E-003  0.1289441E+03  0.7818608E-02  0.1229031E+00
         21   -1    0    0  501  502  0.00000000000E+00  0.00000000000E+00  0.92594943844E+02  0.92594943844E+02  0.00000000000E+00 0. -1.
         -4   -1    0    0    0  501 -0.00000000000E+00 -0.00000000000E+00 -0.69643175643E+02  0.69654754423E+02  0.12700000000E+01 0.  1.
         25    2    1    2    0    0  0.15668000039E+02 -0.27496309325E+02  0.18138619352E+02  0.13021358500E+03  0.12500013981E+03 0.  0.
    9000005    1    3    3    0    0 -0.32906190632E+02  0.31311500929E+02 -0.13848245779E+02  0.47497382912E+02  0.10000000000E+01 0.  0.
    9000005    1    3    3    0    0  0.48574190671E+02 -0.58807810254E+02  0.31986865130E+02  0.82716202083E+02  0.10000000000E+01 0.  0.
         -4    1    1    2    0  502 -0.15668000039E+02  0.27496309325E+02  0.48131488495E+01  0.32036113272E+02  0.12700000000E+01 0. -1.
<mgrwt>
<rscale>  1 0.12894405E+03</rscale>
<asrwt>0</asrwt>
<pdfrwt beam="1">  1       21 0.14245376E-01 0.12894405E+03</pdfrwt>
<pdfrwt beam="2">  1       -4 0.10715895E-01 0.12894405E+03</pdfrwt>
<totfact> 0.11622797E+05</totfact>
</mgrwt>
</event>
<event>
 6    3  0.7601760E-003  0.1872352E+03  0.7818608E-02  0.1160979E+00
         21   -1    0    0  501  502  0.00000000000E+00  0.00000000000E+00  0.15651504398E+03  0.15651504398E+03  0.00000000000E+00 0. -1.
          4   -1    0    0  502    0 -0.00000000000E+00 -0.00000000000E+00 -0.25779653553E+03  0.25779966376E+03  0.12700000000E+01 0.  1.
         25    2    1    2    0    0 -0.68891075252E+02 -0.12118820822E+03 -0.17528824607E+03  0.25648196502E+03  0.12499786841E+03 0.  0.
    9000005    1    3    3    0    0 -0.48425592607E+02 -0.95371019138E+02 -0.19180493264E+03  0.21961512128E+03  0.10000000000E+01 0.  0.
    9000005    1    3    3    0    0 -0.20465482645E+02 -0.25817189083E+02  0.16516686567E+02  0.36866843738E+02  0.10000000000E+01 0.  0.
          4    1    1    2  501    0  0.68891075252E+02  0.12118820822E+03  0.74006754519E+02  0.15783274272E+03  0.12700000000E+01 0. -1.
<mgrwt>
<rscale>  1 0.18723522E+03</rscale>
<asrwt>0</asrwt>
<pdfrwt beam="1">  1       21 0.24079238E-01 0.18723522E+03</pdfrwt>
<pdfrwt beam="2">  1        4 0.39661642E-01 0.18723522E+03</pdfrwt>
<totfact> 0.42262238E+03</totfact>
</mgrwt>
</event>
<event>
 6    3  0.7601760E-003  0.1313948E+03  0.7818608E-02  0.1225401E+00
         21   -1    0    0  501  502  0.00000000000E+00  0.00000000000E+00  0.13850311182E+03  0.13850311182E+03  0.00000000000E+00 0.  1.
          4   -1    0    0  502    0 -0.00000000000E+00 -0.00000000000E+00 -0.87985186242E+02  0.87994351512E+02  0.12700000000E+01 0. -1.
         25    2    1    2    0    0  0.28653774369E+02 -0.28662810244E+02 -0.31398658157E+02  0.13509431750E+03  0.12498801307E+03 0.  0.
    9000005    1    3    3    0    0  0.53412472835E+02  0.87226333321E+00  0.30981884703E+02  0.61761883694E+02  0.10000000000E+01 0.  0.
    9000005    1    3    3    0    0 -0.24758698466E+02 -0.29535073577E+02 -0.62380542859E+02  0.73332433809E+02  0.10000000000E+01 0.  0.
          4    1    1    2  501    0 -0.28653774369E+02  0.28662810244E+02  0.81916583733E+02  0.91403145828E+02  0.12700000000E+01 0.  1.
<mgrwt>
<rscale>  1 0.13139482E+03</rscale>
<asrwt>0</asrwt>
<pdfrwt beam="1">  1       21 0.21308171E-01 0.13139482E+03</pdfrwt>
<pdfrwt beam="2">  1        4 0.13537335E-01 0.13139482E+03</pdfrwt>
<totfact> 0.37444283E+04</totfact>
</mgrwt>
</event>
<event>
 6    3  0.7601760E-003  0.1551392E+03  0.7818608E-02  0.1194296E+00
         21   -1    0    0  501  502  0.00000000000E+00  0.00000000000E+00  0.46068686746E+03  0.46068686746E+03  0.00000000000E+00 0.  1.
          4   -1    0    0  502    0 -0.00000000000E+00 -0.00000000000E+00 -0.33176780049E+02  0.33201078814E+02  0.12700000000E+01 0. -1.
         25    2    1    2    0    0 -0.78030732939E+01  0.91553370457E+02  0.25714338207E+03  0.30031797240E+03  0.12500103204E+03 0.  0.
    9000005    1    3    3    0    0  0.34351399770E+02  0.44048036570E+01  0.11861856361E+02  0.36621368049E+02  0.10000000000E+01 0.  0.
    9000005    1    3    3    0    0 -0.42154473064E+02  0.87148566800E+02  0.24528152570E+03  0.26369660435E+03  0.10000000000E+01 0.  0.
          4    1    1    2  501    0  0.78030732939E+01 -0.91553370457E+02  0.17036670534E+03  0.19356997387E+03  0.12700000000E+01 0.  1.
<mgrwt>
<rscale>  1 0.15513918E+03</rscale>
<asrwt>0</asrwt>
<pdfrwt beam="1">  1       21 0.70874898E-01 0.15513918E+03</pdfrwt>
<pdfrwt beam="2">  1        4 0.51061241E-02 0.15513918E+03</pdfrwt>
<totfact> 0.17288674E+04</totfact>
</mgrwt>
</event>
<event>
 6    3  0.7601760E-003  0.1361922E+03  0.7818608E-02  0.1218546E+00
         21   -1    0    0  501  502  0.00000000000E+00  0.00000000000E+00  0.26093571440E+03  0.26093571440E+03  0.00000000000E+00 0. -1.
          4   -1    0    0  502    0 -0.00000000000E+00 -0.00000000000E+00 -0.36587356979E+02  0.36609392111E+02  0.12700000000E+01 0. -1.
         25    2    1    2    0    0  0.53002318603E+02  0.10594433500E+02  0.12714465147E+03  0.18631713723E+03  0.12500730151E+03 0.  0.
    9000005    1    3    3    0    0  0.30459189866E+01  0.48903741961E+02  0.11097024891E+03  0.12131055083E+03  0.10000000000E+01 0.  0.
    9000005    1    3    3    0    0  0.49956399617E+02 -0.38309308461E+02  0.16174402559E+02  0.65006586402E+02  0.10000000000E+01 0.  0.
          4    1    1    2  501    0 -0.53002318603E+02 -0.10594433500E+02  0.97203705952E+02  0.11122796928E+03  0.12700000000E+01 0.  1.
<mgrwt>
<rscale>  1 0.13619219E+03</rscale>
<asrwt>0</asrwt>
<pdfrwt beam="1">  1       21 0.40143955E-01 0.13619219E+03</pdfrwt>
<pdfrwt beam="2">  1        4 0.56307571E-02 0.13619219E+03</pdfrwt>
<totfact> 0.47957040E+04</totfact>
</mgrwt>
</event>
<event>
 6    3  0.7601760E-003  0.1303365E+03  0.7818608E-02  0.1226957E+00
         21   -1    0    0  501  502  0.00000000000E+00  0.00000000000E+00  0.17919661312E+04  0.17919661312E+04  0.00000000000E+00 0. -1.
         -4   -1    0    0    0  501 -0.00000000000E+00 -0.00000000000E+00 -0.30688450039E+02  0.30714717414E+02  0.12700000000E+01 0.  1.
         25    2    1    2    0    0 -0.19723840921E+02  0.31194264094E+02  0.10876877868E+03  0.16975937508E+03  0.12500194477E+03 0.  0.
    9000005    1    3    3    0    0 -0.26252696139E+02  0.70873433798E+02  0.10497448511E+03  0.12935567323E+03  0.10000000000E+01 0.  0.
    9000005    1    3    3    0    0  0.65288552183E+01 -0.39679169704E+02  0.37942935692E+01  0.40403701842E+02  0.10000000000E+01 0.  0.
         -4    1    1    2    0  502  0.19723840921E+02 -0.31194264094E+02  0.16525089025E+04  0.16529214736E+04  0.12700000000E+01 0. -1.
<mgrwt>
<rscale>  1 0.13033648E+03</rscale>
<asrwt>0</asrwt>
<pdfrwt beam="1">  1       21 0.27568702E+00 0.13033648E+03</pdfrwt>
<pdfrwt beam="2">  1       -4 0.47233566E-02 0.13033648E+03</pdfrwt>
<totfact> 0.53696680E+02</totfact>
</mgrwt>
</event>
<event>
 6    3  0.7601760E-003  0.1417140E+03  0.7818608E-02  0.1211041E+00
         -4   -1    0    0    0  501 -0.00000000000E+00  0.00000000000E+00  0.23296771135E+02  0.23331361840E+02  0.12700000000E+01 0. -1.
         21   -1    0    0  501  502  0.00000000000E+00 -0.00000000000E+00 -0.73425522690E+03  0.73425522690E+03  0.00000000000E+00 0.  1.
         25    2    1    2    0    0  0.77104604368E+01  0.66335146931E+02 -0.21727823587E+03  0.25940833215E+03  0.12499219211E+03 0.  0.
    9000005    1    3    3    0    0 -0.39362102029E+02 -0.18132741887E+02 -0.86557727772E+02  0.96806051678E+02  0.10000000000E+01 0.  0.
    9000005    1    3    3    0    0  0.47072562466E+02  0.84467888818E+02 -0.13072050810E+03  0.16260228048E+03  0.10000000000E+01 0.  0.
         -4    1    1    2    0  502 -0.77104604368E+01 -0.66335146931E+02 -0.49368021990E+03  0.49817825659E+03  0.12700000000E+01 0.  1.
<mgrwt>
<rscale>  1 0.14171398E+03</rscale>
<asrwt>0</asrwt>
<pdfrwt beam="2">  1       21 0.11296234E+00 0.14171398E+03</pdfrwt>
<pdfrwt beam="1">  1       -4 0.35868640E-02 0.14171398E+03</pdfrwt>
<totfact> 0.10349260E+04</totfact>
</mgrwt>
</event>
<event>
 6    3  0.7601760E-003  0.1334417E+03  0.7818608E-02  0.1222436E+00
          4   -1    0    0  502    0 -0.00000000000E+00  0.00000000000E+00  0.82989336468E+01  0.83955464190E+01  0.12700000000E+01 0. -1.
         21   -1    0    0  501  502  0.00000000000E+00 -0.00000000000E+00 -0.10138198200E+04  0.10138198200E+04  0.00000000000E+00 0.  1.
         25    2    1    2    0    0 -0.46512713678E+02  0.43082663866E+01 -0.64342838198E+03  0.65712005241E+03  0.12499874735E+03 0.  0.
    9000005    1    3    3    0    0  0.30282754501E+02  0.71876592498E+01 -0.41382499978E+03  0.41499498565E+03  0.10000000000E+01 0.  0.
    9000005    1    3    3    0    0 -0.76795468179E+02 -0.28793928632E+01 -0.22960338220E+03  0.24212506676E+03  0.10000000000E+01 0.  0.
          4    1    1    2  501    0  0.46512713678E+02 -0.43082663866E+01 -0.36209250434E+03  0.36509531399E+03  0.12700000000E+01 0.  1.
<mgrwt>
<rscale>  1 0.13344167E+03</rscale>
<asrwt>0</asrwt>
<pdfrwt beam="2">  1       21 0.15597220E+00 0.13344167E+03</pdfrwt>
<pdfrwt beam="1">  1        4 0.12842526E-02 0.13344167E+03</pdfrwt>
<totfact> 0.22450454E+04</totfact>
</mgrwt>
</event>
<event>
 6    3  0.7601760E-003  0.1267324E+03  0.7818608E-02  0.1232386E+00
          4   -1    0    0  502    0 -0.00000000000E+00  0.00000000000E+00  0.28353168729E+03  0.28353453158E+03  0.12700000000E+01 0.  1.
         21   -1    0    0  501  502  0.00000000000E+00 -0.00000000000E+00 -0.21380157655E+02  0.21380157655E+02  0.00000000000E+00 0.  1.
         25    2    1    2    0    0  0.20302021411E+02 -0.50842170242E+01  0.25096768943E+03  0.28115100859E+03  0.12499234839E+03 0.  0.
    9000005    1    3    3    0    0 -0.24382419509E+02 -0.54528575283E+02  0.12894523540E+03  0.14211172237E+03  0.10000000000E+01 0.  0.
    9000005    1    3    3    0    0  0.44684440920E+02  0.49444358259E+02  0.12202245403E+03  0.13903928622E+03  0.10000000000E+01 0.  0.
          4    1    1    2  501    0 -0.20302021411E+02  0.50842170242E+01  0.11183840209E+02  0.23763680648E+02  0.12700000000E+01 0. -1.
<mgrwt>
<rscale>  1 0.12673243E+03</rscale>
<asrwt>0</asrwt>
<pdfrwt beam="2">  1       21 0.32892552E-02 0.12673243E+03</pdfrwt>
<pdfrwt beam="1">  1        4 0.43623377E-01 0.12673243E+03</pdfrwt>
<totfact> 0.11043140E+05</totfact>
</mgrwt>
</event>
<event>
 6    3  0.7601760E-003  0.1278918E+03  0.7818608E-02  0.1230618E+00
         21   -1    0    0  501  502  0.00000000000E+00  0.00000000000E+00  0.18128010327E+03  0.18128010327E+03  0.00000000000E+00 0.  1.
         -4   -1    0    0    0  501 -0.00000000000E+00 -0.00000000000E+00 -0.38318909633E+02  0.38339949602E+02  0.12700000000E+01 0.  1.
         25    2    1    2    0    0 -0.19406380688E+02  0.18878043576E+02  0.79433721152E+02  0.15055239908E+03  0.12499328250E+03 0.  0.
    9000005    1    3    3    0    0 -0.65811612560E+02 -0.18125301415E+02  0.47280154136E+02  0.83042807480E+02  0.10000000000E+01 0.  0.
    9000005    1    3    3    0    0  0.46405231872E+02  0.37003344990E+02  0.32153567017E+02  0.67509591596E+02  0.10000000000E+01 0.  0.
         -4    1    1    2    0  502  0.19406380688E+02 -0.18878043576E+02  0.63527472488E+02  0.69067653799E+02  0.12700000000E+01 0. -1.
<mgrwt>
<rscale>  1 0.12789179E+03</rscale>
<asrwt>0</asrwt>
<pdfrwt beam="1">  1       21 0.27889246E-01 0.12789179E+03</pdfrwt>
<pdfrwt beam="2">  1       -4 0.58971776E-02 0.12789179E+03</pdfrwt>
<totfact> 0.90040967E+04</totfact>
</mgrwt>
</event>
<event>
 6    3  0.7601760E-003  0.1321635E+03  0.7818608E-02  0.1224280E+00
         21   -1    0    0  501  502  0.00000000000E+00  0.00000000000E+00  0.25644684642E+03  0.25644684642E+03  0.00000000000E+00 0. -1.
          4   -1    0    0  502    0 -0.00000000000E+00 -0.00000000000E+00 -0.42989707278E+02  0.43008462329E+02  0.12700000000E+01 0.  1.
         25    2    1    2    0    0  0.16441629488E+02 -0.39657821676E+02  0.69694270345E+02  0.14941383000E+03  0.12499652506E+03 0.  0.
    9000005    1    3    3    0    0  0.11094776587E+02 -0.30189010874E+02  0.10637843273E+03  0.11113883838E+03  0.10000000000E+01 0.  0.
    9000005    1    3    3    0    0  0.53468529004E+01 -0.94688108016E+01 -0.36684162386E+02  0.38274991625E+02  0.10000000000E+01 0.  0.
          4    1    1    2  501    0 -0.16441629488E+02  0.39657821676E+02  0.14376286880E+03  0.15004147875E+03  0.12700000000E+01 0. -1.
<mgrwt>
<rscale>  1 0.13216354E+03</rscale>
<asrwt>0</asrwt>
<pdfrwt beam="1">  1       21 0.39453360E-01 0.13216354E+03</pdfrwt>
<pdfrwt beam="2">  1        4 0.66154859E-02 0.13216354E+03</pdfrwt>
<totfact> 0.38080504E+04</totfact>
</mgrwt>
</event>
<event>
 6    3  0.7601760E-003  0.1330778E+03  0.7818608E-02  0.1222959E+00
          4   -1    0    0  502    0 -0.00000000000E+00  0.00000000000E+00  0.10173124136E+03  0.10173916831E+03  0.12700000000E+01 0.  1.
         21   -1    0    0  501  502  0.00000000000E+00 -0.00000000000E+00 -0.20485473044E+03  0.20485473044E+03  0.00000000000E+00 0. -1.
         25    2    1    2    0    0  0.79938606598E+01 -0.44937261133E+02  0.53515877034E+02  0.14343519330E+03  0.12500578521E+03 0.  0.
    9000005    1    3    3    0    0  0.17779403366E+02  0.24766038358E+02 -0.23935783828E+02  0.38773516573E+02  0.10000000000E+01 0.  0.
    9000005    1    3    3    0    0 -0.97855427064E+01 -0.69703299491E+02  0.77451660862E+02  0.10466167673E+03  0.10000000000E+01 0.  0.
          4    1    1    2  501    0 -0.79938606598E+01  0.44937261133E+02 -0.15663936611E+03  0.16315870544E+03  0.12700000000E+01 0. -1.
<mgrwt>
<rscale>  1 0.13307782E+03</rscale>
<asrwt>0</asrwt>
<pdfrwt beam="2">  1       21 0.31516112E-01 0.13307782E+03</pdfrwt>
<pdfrwt beam="1">  1        4 0.15651873E-01 0.13307782E+03</pdfrwt>
<totfact> 0.13847493E+04</totfact>
</mgrwt>
</event>
<event>
 6    3  0.7601760E-003  0.1438776E+03  0.7818608E-02  0.1208205E+00
         21   -1    0    0  501  502  0.00000000000E+00  0.00000000000E+00  0.73499323014E+03  0.73499323014E+03  0.00000000000E+00 0. -1.
         -4   -1    0    0    0  501 -0.00000000000E+00 -0.00000000000E+00 -0.38407856176E+02  0.38428847446E+02  0.12700000000E+01 0.  1.
         25    2    1    2    0    0 -0.50831996669E+02  0.49922517235E+02  0.10638933609E+03  0.17893984434E+03  0.12499850979E+03 0.  0.
    9000005    1    3    3    0    0  0.26201542377E+02 -0.16884546911E+02 -0.52805219049E+00  0.31191145962E+02  0.10000000000E+01 0.  0.
    9000005    1    3    3    0    0 -0.77033539046E+02  0.66807064146E+02  0.10691738828E+03  0.14774869838E+03  0.10000000000E+01 0.  0.
         -4    1    1    2    0  502  0.50831996669E+02 -0.49922517235E+02  0.59019603788E+03  0.59448223324E+03  0.12700000000E+01 0. -1.
<mgrwt>
<rscale>  1 0.14387765E+03</rscale>
<asrwt>0</asrwt>
<pdfrwt beam="1">  1       21 0.11307587E+00 0.14387765E+03</pdfrwt>
<pdfrwt beam="2">  1       -4 0.59106006E-02 0.14387765E+03</pdfrwt>
<totfact> 0.46405919E+03</totfact>
</mgrwt>
</event>
<event>
 6    3  0.7601760E-003  0.1333861E+03  0.7818608E-02  0.1222516E+00
         21   -1    0    0  501  502  0.00000000000E+00  0.00000000000E+00  0.57265410217E+02  0.57265410217E+02  0.00000000000E+00 0. -1.
         -4   -1    0    0    0  501 -0.00000000000E+00 -0.00000000000E+00 -0.21702316372E+03  0.21702687965E+03  0.12700000000E+01 0.  1.
         25    2    1    2    0    0 -0.46039391627E+02 -0.67848535870E+01 -0.17957651069E+03  0.22369529533E+03  0.12500480846E+03 0.  0.
    9000005    1    3    3    0    0 -0.44389307722E+02 -0.61879948007E+02 -0.12322668286E+03  0.14486322505E+03  0.10000000000E+01 0.  0.
    9000005    1    3    3    0    0 -0.16500839049E+01  0.55095094419E+02 -0.56349827839E+02  0.78832070273E+02  0.10000000000E+01 0.  0.
         -4    1    1    2    0  502  0.46039391627E+02  0.67848535870E+01  0.19818757195E+02  0.50596994538E+02  0.12700000000E+01 0. -1.
<mgrwt>
<rscale>  1 0.13338614E+03</rscale>
<asrwt>0</asrwt>
<pdfrwt beam="1">  1       21 0.88100632E-02 0.13338614E+03</pdfrwt>
<pdfrwt beam="2">  1       -4 0.33389548E-01 0.13338614E+03</pdfrwt>
<totfact> 0.35537276E+04</totfact>
</mgrwt>
</event>
<event>
 6    3  0.7601760E-003  0.1351546E+03  0.7818608E-02  0.1220002E+00
          4   -1    0    0  502    0 -0.00000000000E+00  0.00000000000E+00  0.54265128628E+02  0.54279987887E+02  0.12700000000E+01 0. -1.
         21   -1    0    0  501  502  0.00000000000E+00 -0.00000000000E+00 -0.16272679561E+03  0.16272679561E+03  0.00000000000E+00 0. -1.
         25    2    1    2    0    0  0.30374348475E+02  0.41450659116E+02 -0.90044405728E+02  0.16240306020E+03  0.12500400302E+03 0.  0.
    9000005    1    3    3    0    0  0.64900744510E+02 -0.15787714530E+02 -0.57072706154E+02  0.87861552204E+02  0.10000000000E+01 0.  0.
    9000005    1    3    3    0    0 -0.34526396035E+02  0.57238373647E+02 -0.32971699574E+02  0.74541507992E+02  0.10000000000E+01 0.  0.
          4    1    1    2  501    0 -0.30374348475E+02 -0.41450659116E+02 -0.18417261259E+02  0.54603723305E+02  0.12700000000E+01 0.  1.
<mgrwt>
<rscale>  1 0.13515457E+03</rscale>
<asrwt>0</asrwt>
<pdfrwt beam="2">  1       21 0.25034892E-01 0.13515457E+03</pdfrwt>
<pdfrwt beam="1">  1        4 0.83500055E-02 0.13515457E+03</pdfrwt>
<totfact> 0.62917736E+04</totfact>
</mgrwt>
</event>
<event>
 6    3  0.7601760E-003  0.1278805E+03  0.7818608E-02  0.1230635E+00
          4   -1    0    0  502    0 -0.00000000000E+00  0.00000000000E+00  0.34656524122E+03  0.34656756820E+03  0.12700000000E+01 0. -1.
         21   -1    0    0  501  502  0.00000000000E+00 -0.00000000000E+00 -0.30522439179E+02  0.30522439179E+02  0.00000000000E+00 0.  1.
         25    2    1    2    0    0 -0.11998981433E+02  0.24187231048E+02  0.32448304656E+03  0.34877308083E+03  0.12499766682E+03 0.  0.
    9000005    1    3    3    0    0 -0.26648082433E+02  0.72056494243E+02  0.21697610340E+03  0.23017794879E+03  0.10000000000E+01 0.  0.
    9000005    1    3    3    0    0  0.14649101000E+02 -0.47869263195E+02  0.10750694315E+03  0.11859513205E+03  0.10000000000E+01 0.  0.
          4    1    1    2  501    0  0.11998981433E+02 -0.24187231048E+02 -0.84402445118E+01  0.28316926539E+02  0.12700000000E+01 0.  1.
<mgrwt>
<rscale>  1 0.12788047E+03</rscale>
<asrwt>0</asrwt>
<pdfrwt beam="2">  1       21 0.46957601E-02 0.12788047E+03</pdfrwt>
<pdfrwt beam="1">  1        4 0.53319938E-01 0.12788047E+03</pdfrwt>
<totfact> 0.40807852E+04</totfact>
</mgrwt>
</event>
<event>
 6    3  0.7601760E-003  0.1359646E+03  0.7818608E-02  0.1218864E+00
         21   -1    0    0  501  502  0.00000000000E+00  0.00000000000E+00  0.84611889138E+03  0.84611889138E+03  0.00000000000E+00 0.  1.
         -4   -1    0    0    0  501 -0.00000000000E+00 -0.00000000000E+00 -0.37005052389E+02  0.37026838945E+02  0.12700000000E+01 0. -1.
         25    2    1    2    0    0 -0.50406390297E+02 -0.17901725009E+02  0.92291383375E+02  0.16432911830E+03  0.12500033495E+03 0.  0.
    9000005    1    3    3    0    0 -0.47971049837E+02  0.47454183545E+02  0.29470581260E+02  0.73638551847E+02  0.10000000000E+01 0.  0.
    9000005    1    3    3    0    0 -0.24353404601E+01 -0.65355908553E+02  0.62820802115E+02  0.90690566458E+02  0.10000000000E+01 0.  0.
         -4    1    1    2    0  502  0.50406390297E+02  0.17901725009E+02  0.71682245561E+03  0.71881661202E+03  0.12700000000E+01 0.  1.
<mgrwt>
<rscale>  1 0.13596455E+03</rscale>
<asrwt>0</asrwt>
<pdfrwt beam="1">  1       21 0.13017212E+00 0.13596455E+03</pdfrwt>
<pdfrwt beam="2">  1       -4 0.56948348E-02 0.13596455E+03</pdfrwt>
<totfact> 0.34832910E+03</totfact>
</mgrwt>
</event>
<event>
 6    3  0.7601760E-003  0.1296687E+03  0.7818608E-02  0.1227948E+00
         -4   -1    0    0    0  501 -0.00000000000E+00  0.00000000000E+00  0.75079390663E+02  0.75090131192E+02  0.12700000000E+01 0.  1.
         21   -1    0    0  501  502  0.00000000000E+00 -0.00000000000E+00 -0.17021932885E+03  0.17021932885E+03  0.00000000000E+00 0. -1.
         25    2    1    2    0    0  0.18872891608E+02  0.28857184116E+02  0.14398048885E+02  0.13046562423E+03  0.12500020872E+03 0.  0.
    9000005    1    3    3    0    0  0.64675788463E+02  0.43224069812E+02  0.24176276011E+02  0.81466374329E+02  0.10000000000E+01 0.  0.
    9000005    1    3    3    0    0 -0.45802896855E+02 -0.14366885696E+02 -0.97782271262E+01  0.48999249899E+02  0.10000000000E+01 0.  0.
         -4    1    1    2    0  502 -0.18872891608E+02 -0.28857184116E+02 -0.10953798707E+03  0.11484383582E+03  0.12700000000E+01 0. -1.
<mgrwt>
<rscale>  1 0.12966871E+03</rscale>
<asrwt>0</asrwt>
<pdfrwt beam="2">  1       21 0.26187589E-01 0.12966871E+03</pdfrwt>
<pdfrwt beam="1">  1       -4 0.11551866E-01 0.12966871E+03</pdfrwt>
<totfact> 0.33309817E+04</totfact>
</mgrwt>
</event>
<event>
 6    3  0.7601760E-003  0.1282795E+03  0.7818608E-02  0.1230031E+00
         21   -1    0    0  501  502  0.00000000000E+00  0.00000000000E+00  0.13858695773E+02  0.13858695773E+02  0.00000000000E+00 0.  1.
         -4   -1    0    0    0  501 -0.00000000000E+00 -0.00000000000E+00 -0.45958406500E+03  0.45958581974E+03  0.12700000000E+01 0.  1.
         25    2    1    2    0    0 -0.20716007703E+02  0.20041033618E+02 -0.39209672295E+03  0.41254754838E+03  0.12499937410E+03 0.  0.
    9000005    1    3    3    0    0 -0.14661728168E+01  0.11440213135E+02 -0.39125181349E+03  0.39142305719E+03  0.10000000000E+01 0.  0.
    9000005    1    3    3    0    0 -0.19249834886E+02  0.86008204834E+01 -0.84490945583E+00  0.21124491192E+02  0.10000000000E+01 0.  0.
         -4    1    1    2    0  502  0.20716007703E+02 -0.20041033618E+02 -0.53628646281E+02  0.60896967129E+02  0.12700000000E+01 0. -1.
<mgrwt>
<rscale>  1 0.12827954E+03</rscale>
<asrwt>0</asrwt>
<pdfrwt beam="1">  1       21 0.21321072E-02 0.12827954E+03</pdfrwt>
<pdfrwt beam="2">  1       -4 0.70709845E-01 0.12827954E+03</pdfrwt>
<totfact> 0.82510473E+04</totfact>
</mgrwt>
</event>
<event>
 6    3  0.7601760E-003  0.2107783E+03  0.7818608E-02  0.1140951E+00
         21   -1    0    0  501  502  0.00000000000E+00  0.00000000000E+00  0.21739646562E+03  0.21739646562E+03  0.00000000000E+00 0. -1.
         -4   -1    0    0    0  501 -0.00000000000E+00 -0.00000000000E+00 -0.16968213374E+03  0.16968688638E+03  0.12700000000E+01 0.  1.
         25    2    1    2    0    0  0.59192967299E+02 -0.15905306373E+03 -0.36868031253E-01  0.21077829124E+03  0.12500320892E+03 0.  0.
    9000005    1    3    3    0    0 -0.37287425017E+02 -0.69043866939E+02 -0.58990445805E+01  0.78696927216E+02  0.10000000000E+01 0.  0.
    9000005    1    3    3    0    0  0.96480392316E+02 -0.90009196789E+02  0.58621765492E+01  0.13208136402E+03  0.10000000000E+01 0.  0.
         -4    1    1    2    0  502 -0.59192967299E+02  0.15905306373E+03  0.47751199915E+02  0.17630506077E+03  0.12700000000E+01 0. -1.
<mgrwt>
<rscale>  1 0.21077829E+03</rscale>
<asrwt>0</asrwt>
<pdfrwt beam="1">  1       21 0.33445610E-01 0.21077829E+03</pdfrwt>
<pdfrwt beam="2">  1       -4 0.26105595E-01 0.21077829E+03</pdfrwt>
<totfact> 0.50190185E+03</totfact>
</mgrwt>
</event>
<event>
 6    3  0.7601760E-003  0.1266930E+03  0.7818608E-02  0.1232447E+00
         21   -1    0    0  501  502  0.00000000000E+00  0.00000000000E+00  0.73107179658E+02  0.73107179658E+02  0.00000000000E+00 0.  1.
         -4   -1    0    0    0  501 -0.00000000000E+00 -0.00000000000E+00 -0.29529427128E+03  0.29529700227E+03  0.12700000000E+01 0. -1.
         25    2    1    2    0    0  0.20570419910E+02  0.17668118691E+01 -0.27982355921E+03  0.30716825216E+03  0.12499938819E+03 0.  0.
    9000005    1    3    3    0    0 -0.26640033906E+02  0.45098231754E+02 -0.18819285465E+03  0.19534864334E+03  0.10000000000E+01 0.  0.
    9000005    1    3    3    0    0  0.47210453816E+02 -0.43331419885E+02 -0.91630704553E+02  0.11181960882E+03  0.10000000000E+01 0.  0.
         -4    1    1    2    0  502 -0.20570419910E+02 -0.17668118691E+01  0.57636467583E+02  0.61235929771E+02  0.12700000000E+01 0.  1.
<mgrwt>
<rscale>  1 0.12669298E+03</rscale>
<asrwt>0</asrwt>
<pdfrwt beam="1">  1       21 0.11247259E-01 0.12669298E+03</pdfrwt>
<pdfrwt beam="2">  1       -4 0.45430946E-01 0.12669298E+03</pdfrwt>
<totfact> 0.12610528E+04</totfact>
</mgrwt>
</event>
<event>
 6    3  0.7601760E-003  0.1278567E+03  0.7818608E-02  0.1230671E+00
         -4   -1    0    0    0  501 -0.00000000000E+00  0.00000000000E+00  0.31875330247E+03  0.31875583248E+03  0.12700000000E+01 0.  1.
         21   -1    0    0  501  502  0.00000000000E+00 -0.00000000000E+00 -0.76496388928E+02  0.76496388928E+02  0.00000000000E+00 0. -1.
         25    2    1    2    0    0 -0.26433409669E+02  0.47394522907E+01  0.30297499921E+03  0.32884825780E+03  0.12500455575E+03 0.  0.
    9000005    1    3    3    0    0 -0.29346014194E+02  0.47300053579E+02  0.26786354942E+03  0.27358794697E+03  0.10000000000E+01 0.  0.
    9000005    1    3    3    0    0  0.29126045249E+01 -0.42560601288E+02  0.35111449791E+02  0.55260310835E+02  0.10000000000E+01 0.  0.
         -4    1    1    2    0  502  0.26433409669E+02 -0.47394522907E+01 -0.60718085668E+02  0.66403963601E+02  0.12700000000E+01 0. -1.
<mgrwt>
<rscale>  1 0.12785666E+03</rscale>
<asrwt>0</asrwt>
<pdfrwt beam="2">  1       21 0.11768675E-01 0.12785666E+03</pdfrwt>
<pdfrwt beam="1">  1       -4 0.49039975E-01 0.12785666E+03</pdfrwt>
<totfact> 0.99872901E+03</totfact>
</mgrwt>
</event>
<event>
 6    3  0.7601760E-003  0.1276668E+03  0.7818608E-02  0.1230959E+00
         -4   -1    0    0    0  501 -0.00000000000E+00  0.00000000000E+00  0.38932913438E+03  0.38933120575E+03  0.12700000000E+01 0. -1.
         21   -1    0    0  501  502  0.00000000000E+00 -0.00000000000E+00 -0.28287615135E+03  0.28287615135E+03  0.00000000000E+00 0.  1.
         25    2    1    2    0    0 -0.25617108025E+02  0.42390546569E+01  0.37822728243E+03  0.39919254336E+03  0.12499841476E+03 0.  0.
    9000005    1    3    3    0    0 -0.67875733832E+02 -0.16536226741E+02  0.29871500278E+03  0.30677714212E+03  0.10000000000E+01 0.  0.
    9000005    1    3    3    0    0  0.42258625808E+02  0.20775281398E+02  0.79512279647E+02  0.92415401243E+02  0.10000000000E+01 0.  0.
         -4    1    1    2    0  502  0.25617108025E+02 -0.42390546569E+01 -0.27177429940E+03  0.27301481375E+03  0.12700000000E+01 0.  1.
<mgrwt>
<rscale>  1 0.12766679E+03</rscale>
<asrwt>0</asrwt>
<pdfrwt beam="2">  1       21 0.43519408E-01 0.12766679E+03</pdfrwt>
<pdfrwt beam="1">  1       -4 0.59897169E-01 0.12766679E+03</pdfrwt>
<totfact> 0.56672310E+02</totfact>
</mgrwt>
</event>
<event>
 6    3  0.7601760E-003  0.1612220E+03  0.7818608E-02  0.1187324E+00
          4   -1    0    0  502    0 -0.00000000000E+00  0.00000000000E+00  0.22595628355E+02  0.22631290745E+02  0.12700000000E+01 0. -1.
         21   -1    0    0  501  502  0.00000000000E+00 -0.00000000000E+00 -0.92521054225E+03  0.92521054225E+03  0.00000000000E+00 0.  1.
         25    2    1    2    0    0  0.38931353069E+02  0.94082564652E+02 -0.34252574529E+03  0.37857153787E+03  0.12500137549E+03 0.  0.
    9000005    1    3    3    0    0  0.38201165198E+02  0.22872815319E+02 -0.28084497576E+03  0.28435434780E+03  0.10000000000E+01 0.  0.
    9000005    1    3    3    0    0  0.73018787167E+00  0.71209749333E+02 -0.61680769524E+02  0.94217190063E+02  0.10000000000E+01 0.  0.
          4    1    1    2  501    0 -0.38931353069E+02 -0.94082564652E+02 -0.56008916860E+03  0.56927029513E+03  0.12700000000E+01 0.  1.
<mgrwt>
<rscale>  1 0.16122197E+03</rscale>
<asrwt>0</asrwt>
<pdfrwt beam="2">  1       21 0.14234009E+00 0.16122197E+03</pdfrwt>
<pdfrwt beam="1">  1        4 0.34790607E-02 0.16122197E+03</pdfrwt>
<totfact> 0.61441636E+03</totfact>
</mgrwt>
</event>
<event>
 6    3  0.7601760E-003  0.1301064E+03  0.7818608E-02  0.1227298E+00
         21   -1    0    0  501  502  0.00000000000E+00  0.00000000000E+00  0.45548151758E+02  0.45548151758E+02  0.00000000000E+00 0.  1.
          4   -1    0    0  502    0 -0.00000000000E+00 -0.00000000000E+00 -0.15925476660E+03  0.15925983042E+03  0.12700000000E+01 0.  1.
         25    2    1    2    0    0 -0.33459749793E+02 -0.13552672241E+02 -0.10612248898E+03  0.16789779868E+03  0.12499783339E+03 0.  0.
    9000005    1    3    3    0    0  0.39467483206E+02 -0.36029830765E+02 -0.37805210903E+02  0.65468044930E+02  0.10000000000E+01 0.  0.
    9000005    1    3    3    0    0 -0.72927232999E+02  0.22477158524E+02 -0.68317278081E+02  0.10242975375E+03  0.10000000000E+01 0.  0.
          4    1    1    2  501    0  0.33459749793E+02  0.13552672241E+02 -0.75841258602E+01  0.36910183502E+02  0.12700000000E+01 0. -1.
<mgrwt>
<rscale>  1 0.13010645E+03</rscale>
<asrwt>0</asrwt>
<pdfrwt beam="1">  1       21 0.70074080E-02 0.13010645E+03</pdfrwt>
<pdfrwt beam="2">  1        4 0.24502485E-01 0.13010645E+03</pdfrwt>
<totfact> 0.93953017E+04</totfact>
</mgrwt>
</event>
<event>
 6    3  0.7601760E-003  0.1266365E+03  0.7818608E-02  0.1232534E+00
         21   -1    0    0  501  502  0.00000000000E+00  0.00000000000E+00  0.95216000559E+03  0.95216000559E+03  0.00000000000E+00 0. -1.
         -4   -1    0    0    0  501 -0.00000000000E+00 -0.00000000000E+00 -0.61657719226E+01  0.62952079713E+01  0.12700000000E+01 0. -1.
         25    2    1    2    0    0  0.18662559701E+02  0.78761209519E+01  0.68024924656E+03  0.69193629212E+03  0.12500588180E+03 0.  0.
    9000005    1    3    3    0    0 -0.37502653956E+02  0.69178169024E+01  0.75573533117E+02  0.84656152477E+02  0.10000000000E+01 0.  0.
    9000005    1    3    3    0    0  0.56165213657E+02  0.95830404955E+00  0.60467571345E+03  0.60728013964E+03  0.10000000000E+01 0.  0.
         -4    1    1    2    0  502 -0.18662559701E+02 -0.78761209519E+01  0.26574498710E+03  0.26651892144E+03  0.12700000000E+01 0.  1.
<mgrwt>
<rscale>  1 0.12663647E+03</rscale>
<asrwt>0</asrwt>
<pdfrwt beam="1">  1       21 0.14648604E+00 0.12663647E+03</pdfrwt>
<pdfrwt beam="2">  1       -4 0.95860282E-03 0.12663647E+03</pdfrwt>
<totfact> 0.40935752E+04</totfact>
</mgrwt>
</event>
<event>
 6    3  0.7601760E-003  0.1387176E+03  0.7818608E-02  0.1215065E+00
         21   -1    0    0  501  502  0.00000000000E+00  0.00000000000E+00  0.17022828460E+03  0.17022828460E+03  0.00000000000E+00 0.  1.
         -4   -1    0    0    0  501 -0.00000000000E+00 -0.00000000000E+00 -0.94676337879E+02  0.94684855464E+02  0.12700000000E+01 0. -1.
         25    2    1    2    0    0 -0.59205066018E+02  0.10570941276E+02 -0.31379749299E+02  0.14222253262E+03  0.12500230189E+03 0.  0.
    9000005    1    3    3    0    0 -0.13764917646E+02 -0.42269388700E+02  0.26379531197E+02  0.51701584550E+02  0.10000000000E+01 0.  0.
    9000005    1    3    3    0    0 -0.45440148372E+02  0.52840329975E+02 -0.57759280495E+02  0.90520948069E+02  0.10000000000E+01 0.  0.
         -4    1    1    2    0  502  0.59205066018E+02 -0.10570941276E+02  0.10693169602E+03  0.12269060744E+03  0.12700000000E+01 0.  1.
<mgrwt>
<rscale>  1 0.13871756E+03</rscale>
<asrwt>0</asrwt>
<pdfrwt beam="1">  1       21 0.26188967E-01 0.13871756E+03</pdfrwt>
<pdfrwt beam="2">  1       -4 0.14566610E-01 0.13871756E+03</pdfrwt>
<totfact> 0.22493486E+04</totfact>
</mgrwt>
</event>
<event>
 6    3  0.7601760E-003  0.1278011E+03  0.7818608E-02  0.1230756E+00
         -4   -1    0    0    0  501 -0.00000000000E+00  0.00000000000E+00  0.21630142165E+03  0.21630514998E+03  0.12700000000E+01 0.  1.
         21   -1    0    0  501  502  0.00000000000E+00 -0.00000000000E+00 -0.10116827612E+03  0.10116827612E+03  0.00000000000E+00 0. -1.
         25    2    1    2    0    0  0.11984497713E+02  0.23761007802E+02  0.19507377462E+03  0.23320996572E+03  0.12499958757E+03 0.  0.
    9000005    1    3    3    0    0  0.25107662102E+02 -0.45814532257E+02  0.11502454616E+03  0.12633689992E+03  0.10000000000E+01 0.  0.
    9000005    1    3    3    0    0 -0.13123164388E+02  0.69575540060E+02  0.80049228455E+02  0.10687306580E+03  0.10000000000E+01 0.  0.
         -4    1    1    2    0  502 -0.11984497713E+02 -0.23761007802E+02 -0.79940629079E+02  0.84263460378E+02  0.12700000000E+01 0. -1.
<mgrwt>
<rscale>  1 0.12780106E+03</rscale>
<asrwt>0</asrwt>
<pdfrwt beam="2">  1       21 0.15564350E-01 0.12780106E+03</pdfrwt>
<pdfrwt beam="1">  1       -4 0.33278042E-01 0.12780106E+03</pdfrwt>
<totfact> 0.13000735E+04</totfact>
</mgrwt>
</event>
<event>
 6    3  0.7601760E-003  0.1337849E+03  0.7818608E-02  0.1221945E+00
         -4   -1    0    0    0  501 -0.00000000000E+00  0.00000000000E+00  0.66033503518E+02  0.66045715128E+02  0.12700000000E+01 0.  1.
         21   -1    0    0  501  502  0.00000000000E+00 -0.00000000000E+00 -0.14570522538E+03  0.14570522538E+03  0.00000000000E+00 0.  1.
         25    2    1    2    0    0  0.33115474290E+02  0.34296117685E+02 -0.19856614449E+02  0.13525049410E+03  0.12500221075E+03 0.  0.
    9000005    1    3    3    0    0 -0.80121780719E+01  0.16248882080E+01 -0.65282355503E+02  0.65799857136E+02  0.10000000000E+01 0.  0.
    9000005    1    3    3    0    0  0.41127652362E+02  0.32671229477E+02  0.45425741054E+02  0.69450636964E+02  0.10000000000E+01 0.  0.
         -4    1    1    2    0  502 -0.33115474290E+02 -0.34296117685E+02 -0.59815107413E+02  0.76500446407E+02  0.12700000000E+01 0. -1.
<mgrwt>
<rscale>  1 0.13378494E+03</rscale>
<asrwt>0</asrwt>
<pdfrwt beam="2">  1       21 0.22416188E-01 0.13378494E+03</pdfrwt>
<pdfrwt beam="1">  1       -4 0.10160366E-01 0.13378494E+03</pdfrwt>
<totfact> 0.55704297E+04</totfact>
</mgrwt>
</event>
<event>
 6    3  0.7601760E-003  0.1354985E+03  0.7818608E-02  0.1219518E+00
         -4   -1    0    0    0  501 -0.00000000000E+00  0.00000000000E+00  0.15610334186E+02  0.15661910273E+02  0.12700000000E+01 0.  1.
         21   -1    0    0  501  502  0.00000000000E+00 -0.00000000000E+00 -0.58926933678E+03  0.58926933678E+03  0.00000000000E+00 0.  1.
         25    2    1    2    0    0 -0.47281724209E+02  0.22330785693E+02 -0.46498080891E+03  0.48432118065E+03  0.12500251175E+03 0.  0.
    9000005    1    3    3    0    0  0.82548051209E+01 -0.45533961277E+02 -0.19659825811E+03  0.20197365801E+03  0.10000000000E+01 0.  0.
    9000005    1    3    3    0    0 -0.55536529329E+02  0.67864746970E+02 -0.26838255080E+03  0.28234752265E+03  0.10000000000E+01 0.  0.
         -4    1    1    2    0  502  0.47281724209E+02 -0.22330785693E+02 -0.10867819368E+03  0.12061006640E+03  0.12700000000E+01 0. -1.
<mgrwt>
<rscale>  1 0.13549854E+03</rscale>
<asrwt>0</asrwt>
<pdfrwt beam="2">  1       21 0.90656825E-01 0.13549854E+03</pdfrwt>
<pdfrwt beam="1">  1       -4 0.24056624E-02 0.13549854E+03</pdfrwt>
<totfact> 0.32355493E+04</totfact>
</mgrwt>
</event>
<event>
 6    3  0.7601760E-003  0.1372913E+03  0.7818608E-02  0.1217021E+00
         -4   -1    0    0    0  501 -0.00000000000E+00  0.00000000000E+00  0.12180206297E+03  0.12180868378E+03  0.12700000000E+01 0.  1.
         21   -1    0    0  501  502  0.00000000000E+00 -0.00000000000E+00 -0.77359338329E+02  0.77359338329E+02  0.00000000000E+00 0.  1.
         25    2    1    2    0    0 -0.52934566490E+02 -0.20535381279E+02  0.29133983154E+02  0.14034846176E+03  0.12500052612E+03 0.  0.
    9000005    1    3    3    0    0 -0.30031895853E+02  0.25767857778E+02 -0.38512334906E+02  0.55227685113E+02  0.10000000000E+01 0.  0.
    9000005    1    3    3    0    0 -0.22902670637E+02 -0.46303239057E+02  0.67646318060E+02  0.85120776644E+02  0.10000000000E+01 0.  0.
         -4    1    1    2    0  502  0.52934566490E+02  0.20535381279E+02  0.15308741488E+02  0.58819560350E+02  0.12700000000E+01 0. -1.
<mgrwt>
<rscale>  1 0.13729130E+03</rscale>
<asrwt>0</asrwt>
<pdfrwt beam="2">  1       21 0.11901437E-01 0.13729130E+03</pdfrwt>
<pdfrwt beam="1">  1       -4 0.18740090E-01 0.13729130E+03</pdfrwt>
<totfact> 0.61175003E+04</totfact>
</mgrwt>
</event>
<event>
 6    3  0.7601760E-003  0.1279149E+03  0.7818608E-02  0.1230583E+00
          4   -1    0    0  502    0 -0.00000000000E+00  0.00000000000E+00  0.89191683142E+02  0.89200724446E+02  0.12700000000E+01 0. -1.
         21   -1    0    0  501  502  0.00000000000E+00 -0.00000000000E+00 -0.39864177375E+03  0.39864177375E+03  0.00000000000E+00 0.  1.
         25    2    1    2    0    0  0.13486412422E+02  0.23575522342E+02  0.42540526999E+02  0.13480327041E+03  0.12499814679E+03 0.  0.
    9000005    1    3    3    0    0 -0.53917119111E+02  0.21976162274E+02  0.32328790971E+02  0.66604490593E+02  0.10000000000E+01 0.  0.
    9000005    1    3    3    0    0  0.67403531533E+02  0.15993600672E+01  0.10211736028E+02  0.68198779816E+02  0.10000000000E+01 0.  0.
          4    1    1    2  501    0 -0.13486412422E+02 -0.23575522342E+02 -0.35199061760E+03  0.35303922778E+03  0.12700000000E+01 0.  1.
<mgrwt>
<rscale>  1 0.12791491E+03</rscale>
<asrwt>0</asrwt>
<pdfrwt beam="2">  1       21 0.61329504E-01 0.12791491E+03</pdfrwt>
<pdfrwt beam="1">  1        4 0.13722648E-01 0.12791491E+03</pdfrwt>
<totfact> 0.44967883E+03</totfact>
</mgrwt>
</event>
<event>
 6    3  0.7601760E-003  0.1312290E+03  0.7818608E-02  0.1225643E+00
          4   -1    0    0  502    0 -0.00000000000E+00  0.00000000000E+00  0.18550024926E+03  0.18550459665E+03  0.12700000000E+01 0.  1.
         21   -1    0    0  501  502  0.00000000000E+00 -0.00000000000E+00 -0.17533643980E+03  0.17533643980E+03  0.00000000000E+00 0. -1.
         25    2    1    2    0    0  0.29011984554E+02 -0.27561706492E+02  0.15931868364E+03  0.20640615599E+03  0.12497885966E+03 0.  0.
    9000005    1    3    3    0    0  0.53837583640E+02  0.12596030985E+02  0.14778916557E+03  0.15779665038E+03  0.10000000000E+01 0.  0.
    9000005    1    3    3    0    0 -0.24825599086E+02 -0.40157737477E+02  0.11529518061E+02  0.48609505613E+02  0.10000000000E+01 0.  0.
          4    1    1    2  501    0 -0.29011984554E+02  0.27561706492E+02 -0.14915487418E+03  0.15443488046E+03  0.12700000000E+01 0. -1.
<mgrwt>
<rscale>  1 0.13122903E+03</rscale>
<asrwt>0</asrwt>
<pdfrwt beam="2">  1       21 0.26974837E-01 0.13122903E+03</pdfrwt>
<pdfrwt beam="1">  1        4 0.28539188E-01 0.13122903E+03</pdfrwt>
<totfact> 0.62881049E+03</totfact>
</mgrwt>
</event>
<event>
 6    3  0.7601760E-003  0.1310063E+03  0.7818608E-02  0.1225970E+00
          4   -1    0    0  502    0 -0.00000000000E+00  0.00000000000E+00  0.25737233561E+03  0.25737546899E+03  0.12700000000E+01 0.  1.
         21   -1    0    0  501  502  0.00000000000E+00 -0.00000000000E+00 -0.11579930120E+03  0.11579930120E+03  0.00000000000E+00 0. -1.
         25    2    1    2    0    0  0.12306758143E+02 -0.37237413907E+02  0.23655384464E+03  0.27040780808E+03  0.12499831985E+03 0.  0.
    9000005    1    3    3    0    0  0.33619890405E+02 -0.68883416165E+02  0.21095533656E+03  0.22445127773E+03  0.10000000000E+01 0.  0.
    9000005    1    3    3    0    0 -0.21313132261E+02  0.31646002258E+02  0.25598508087E+02  0.45956530352E+02  0.10000000000E+01 0.  0.
          4    1    1    2  501    0 -0.12306758143E+02  0.37237413907E+02 -0.94980810229E+02  0.10276696211E+03  0.12700000000E+01 0. -1.
<mgrwt>
<rscale>  1 0.13100634E+03</rscale>
<asrwt>0</asrwt>
<pdfrwt beam="2">  1       21 0.17815277E-01 0.13100634E+03</pdfrwt>
<pdfrwt beam="1">  1        4 0.39596520E-01 0.13100634E+03</pdfrwt>
<totfact> 0.72764293E+03</totfact>
</mgrwt>
</event>
<event>
 6    3  0.7601760E-003  0.1273065E+03  0.7818608E-02  0.1231508E+00
         21   -1    0    0  501  502  0.00000000000E+00  0.00000000000E+00  0.49083372213E+02  0.49083372213E+02  0.00000000000E+00 0.  1.
          4   -1    0    0  502    0 -0.00000000000E+00 -0.00000000000E+00 -0.14101981696E+03  0.14102553555E+03  0.12700000000E+01 0.  1.
         25    2    1    2    0    0 -0.23443475923E+02  0.57833965824E+01 -0.10277190770E+03  0.16361240994E+03  0.12499564566E+03 0.  0.
    9000005    1    3    3    0    0 -0.45992320718E+02 -0.45565101799E+02 -0.80385760976E+02  0.10321987519E+03  0.10000000000E+01 0.  0.
    9000005    1    3    3    0    0  0.22548844795E+02  0.51348498382E+02 -0.22386146728E+02  0.60392534746E+02  0.10000000000E+01 0.  0.
          4    1    1    2  501    0  0.23443475923E+02 -0.57833965824E+01  0.10835462954E+02  0.26496497821E+02  0.12700000000E+01 0. -1.
<mgrwt>
<rscale>  1 0.12730654E+03</rscale>
<asrwt>0</asrwt>
<pdfrwt beam="1">  1       21 0.75512880E-02 0.12730654E+03</pdfrwt>
<pdfrwt beam="2">  1        4 0.21697060E-01 0.12730654E+03</pdfrwt>
<totfact> 0.10288126E+05</totfact>
</mgrwt>
</event>
<event>
 6    3  0.7601760E-003  0.1440864E+03  0.7818608E-02  0.1207934E+00
         21   -1    0    0  501  502  0.00000000000E+00  0.00000000000E+00  0.30966034828E+02  0.30966034828E+02  0.00000000000E+00 0.  1.
          4   -1    0    0  502    0 -0.00000000000E+00 -0.00000000000E+00 -0.44038327954E+03  0.44038511079E+03  0.12700000000E+01 0.  1.
         25    2    1    2    0    0 -0.68090105238E+02 -0.22402283494E+02 -0.17758038514E+03  0.22868250920E+03  0.12499108806E+03 0.  0.
    9000005    1    3    3    0    0  0.24999345450E+02 -0.41762277287E+02 -0.53085376276E+02  0.72028551641E+02  0.10000000000E+01 0.  0.
    9000005    1    3    3    0    0 -0.93089450688E+02  0.19359993793E+02 -0.12449500886E+03  0.15665395756E+03  0.10000000000E+01 0.  0.
          4    1    1    2  501    0  0.68090105238E+02  0.22402283494E+02 -0.23183685958E+03  0.24266863641E+03  0.12700000000E+01 0. -1.
<mgrwt>
<rscale>  1 0.14408642E+03</rscale>
<asrwt>0</asrwt>
<pdfrwt beam="1">  1       21 0.47640054E-02 0.14408642E+03</pdfrwt>
<pdfrwt beam="2">  1        4 0.67753418E-01 0.14408642E+03</pdfrwt>
<totfact> 0.24416538E+04</totfact>
</mgrwt>
</event>
<event>
 6    3  0.7601760E-003  0.1337560E+03  0.7818608E-02  0.1221987E+00
          4   -1    0    0  502    0 -0.00000000000E+00  0.00000000000E+00  0.78064968755E+02  0.78075298570E+02  0.12700000000E+01 0. -1.
         21   -1    0    0  501  502  0.00000000000E+00 -0.00000000000E+00 -0.12374053197E+03  0.12374053197E+03  0.00000000000E+00 0.  1.
         25    2    1    2    0    0  0.38376283032E+02  0.28157520412E+02  0.29107755746E+01  0.13378767261E+03  0.12500033469E+03 0.  0.
    9000005    1    3    3    0    0  0.83619486980E+02  0.27229455870E+02 -0.38008258053E+01  0.88029018775E+02  0.10000000000E+01 0.  0.
    9000005    1    3    3    0    0 -0.45243203948E+02  0.92806454175E+00  0.67116013800E+01  0.45758653830E+02  0.10000000000E+01 0.  0.
          4    1    1    2  501    0 -0.38376283032E+02 -0.28157520412E+02 -0.48586338792E+02  0.68028157937E+02  0.12700000000E+01 0.  1.
<mgrwt>
<rscale>  1 0.13375600E+03</rscale>
<asrwt>0</asrwt>
<pdfrwt beam="2">  1       21 0.19037005E-01 0.13375600E+03</pdfrwt>
<pdfrwt beam="1">  1        4 0.12011291E-01 0.13375600E+03</pdfrwt>
<totfact> 0.56780879E+04</totfact>
</mgrwt>
</event>
<event>
 6    3  0.7601760E-003  0.1300394E+03  0.7818608E-02  0.1227397E+00
          4   -1    0    0  502    0 -0.00000000000E+00  0.00000000000E+00  0.15779888560E+03  0.15780399613E+03  0.12700000000E+01 0. -1.
         21   -1    0    0  501  502  0.00000000000E+00 -0.00000000000E+00 -0.49075002415E+02  0.49075002415E+02  0.00000000000E+00 0.  1.
         25    2    1    2    0    0 -0.59425077645E+01 -0.35415351994E+02  0.11086291699E+03  0.17088248593E+03  0.12498270711E+03 0.  0.
    9000005    1    3    3    0    0  0.48479551621E+02 -0.53921264062E+02  0.63684290299E+02  0.96511442194E+02  0.10000000000E+01 0.  0.
    9000005    1    3    3    0    0 -0.54422059386E+02  0.18505912068E+02  0.47178626694E+02  0.74371043734E+02  0.10000000000E+01 0.  0.
          4    1    1    2  501    0  0.59425077645E+01  0.35415351994E+02 -0.21390338102E+01  0.35996512623E+02  0.12700000000E+01 0.  1.
<mgrwt>
<rscale>  1 0.13003937E+03</rscale>
<asrwt>0</asrwt>
<pdfrwt beam="2">  1       21 0.75500005E-02 0.13003937E+03</pdfrwt>
<pdfrwt beam="1">  1        4 0.24278408E-01 0.13003937E+03</pdfrwt>
<totfact> 0.84076433E+04</totfact>
</mgrwt>
</event>
<event>
 6    3  0.7601760E-003  0.1278537E+03  0.7818608E-02  0.1230676E+00
          4   -1    0    0  502    0 -0.00000000000E+00  0.00000000000E+00  0.22384701562E+03  0.22385061828E+03  0.12700000000E+01 0.  1.
         21   -1    0    0  501  502  0.00000000000E+00 -0.00000000000E+00 -0.39950743162E+02  0.39950743162E+02  0.00000000000E+00 0. -1.
         25    2    1    2    0    0  0.20895603319E+02  0.16784824269E+02  0.19628054618E+03  0.23424904005E+03  0.12501281292E+03 0.  0.
    9000005    1    3    3    0    0  0.42502802374E+02 -0.21364793275E+02  0.18201618037E+03  0.18813248661E+03  0.10000000000E+01 0.  0.
    9000005    1    3    3    0    0 -0.21607199055E+02  0.38149617544E+02  0.14264365806E+02  0.46116553444E+02  0.10000000000E+01 0.  0.
          4    1    1    2  501    0 -0.20895603319E+02 -0.16784824269E+02 -0.12384273716E+02  0.29552321385E+02  0.12700000000E+01 0. -1.
<mgrwt>
<rscale>  1 0.12785367E+03</rscale>
<asrwt>0</asrwt>
<pdfrwt beam="2">  1       21 0.61462684E-02 0.12785367E+03</pdfrwt>
<pdfrwt beam="1">  1        4 0.34439831E-01 0.12785367E+03</pdfrwt>
<totfact> 0.61786192E+04</totfact>
</mgrwt>
</event>
<event>
 6    3  0.7601760E-003  0.1296168E+03  0.7818608E-02  0.1228025E+00
         21   -1    0    0  501  502  0.00000000000E+00  0.00000000000E+00  0.17392182731E+04  0.17392182731E+04  0.00000000000E+00 0.  1.
          4   -1    0    0  502    0 -0.00000000000E+00 -0.00000000000E+00 -0.37784968057E+01  0.39862185227E+01  0.12700000000E+01 0.  1.
         25    2    1    2    0    0 -0.66923802416E+01 -0.33637142198E+02  0.14198795333E+04  0.14257834382E+04  0.12499711322E+03 0.  0.
    9000005    1    3    3    0    0 -0.13107021217E+02 -0.65622516977E+02  0.12943924836E+04  0.12961215260E+04  0.10000000000E+01 0.  0.
    9000005    1    3    3    0    0  0.64146409758E+01  0.31985374779E+02  0.12548704969E+03  0.12966191214E+03  0.10000000000E+01 0.  0.
          4    1    1    2  501    0  0.66923802416E+01  0.33637142198E+02  0.31556024305E+03  0.31742105346E+03  0.12700000000E+01 0. -1.
<mgrwt>
<rscale>  1 0.12961683E+03</rscale>
<asrwt>0</asrwt>
<pdfrwt beam="1">  1       21 0.26757142E+00 0.12961683E+03</pdfrwt>
<pdfrwt beam="2">  1        4 0.59732285E-03 0.12961683E+03</pdfrwt>
<totfact> 0.14229164E+04</totfact>
</mgrwt>
</event>
<event>
 6    3  0.7601760E-003  0.1266638E+03  0.7818608E-02  0.1232492E+00
         -4   -1    0    0    0  501 -0.00000000000E+00  0.00000000000E+00  0.51804804986E+03  0.51804960656E+03  0.12700000000E+01 0. -1.
         21   -1    0    0  501  502  0.00000000000E+00 -0.00000000000E+00 -0.10712963298E+02  0.10712963298E+02  0.00000000000E+00 0. -1.
         25    2    1    2    0    0  0.13965329178E+02 -0.14899057549E+02  0.46153055885E+03  0.47859604722E+03  0.12500682914E+03 0.  0.
    9000005    1    3    3    0    0  0.28879333293E+02 -0.55662545083E+02  0.38930923106E+03  0.39432855870E+03  0.10000000000E+01 0.  0.
    9000005    1    3    3    0    0 -0.14914004116E+02  0.40763487534E+02  0.72221327782E+02  0.84267488519E+02  0.10000000000E+01 0.  0.
         -4    1    1    2    0  502 -0.13965329178E+02  0.14899057549E+02  0.45804527714E+02  0.50166522642E+02  0.12700000000E+01 0.  1.
<mgrwt>
<rscale>  1 0.12666381E+03</rscale>
<asrwt>0</asrwt>
<pdfrwt beam="2">  1       21 0.16481486E-02 0.12666381E+03</pdfrwt>
<pdfrwt beam="1">  1       -4 0.79705591E-01 0.12666381E+03</pdfrwt>
<totfact> 0.95968324E+04</totfact>
</mgrwt>
</event>
<event>
 6    3  0.7601760E-003  0.1266803E+03  0.7818608E-02  0.1232466E+00
         -4   -1    0    0    0  501 -0.00000000000E+00  0.00000000000E+00  0.33272729580E+03  0.33272971955E+03  0.12700000000E+01 0. -1.
         21   -1    0    0  501  502  0.00000000000E+00 -0.00000000000E+00 -0.20556454176E+02  0.20556454176E+02  0.00000000000E+00 0.  1.
         25    2    1    2    0    0  0.16228353564E+02 -0.12685774337E+02  0.30685413331E+03  0.33197494154E+03  0.12499445728E+03 0.  0.
    9000005    1    3    3    0    0 -0.25723106508E+02  0.27686323412E+02  0.24150416655E+03  0.24444523553E+03  0.10000000000E+01 0.  0.
    9000005    1    3    3    0    0  0.41951460072E+02 -0.40372097749E+02  0.65349966763E+02  0.87529706013E+02  0.10000000000E+01 0.  0.
         -4    1    1    2    0  502 -0.16228353564E+02  0.12685774337E+02  0.53167083153E+01  0.21311232185E+02  0.12700000000E+01 0.  1.
<mgrwt>
<rscale>  1 0.12668032E+03</rscale>
<asrwt>0</asrwt>
<pdfrwt beam="2">  1       21 0.31625317E-02 0.12668032E+03</pdfrwt>
<pdfrwt beam="1">  1       -4 0.51192015E-01 0.12668032E+03</pdfrwt>
<totfact> 0.85319994E+04</totfact>
</mgrwt>
</event>
<event>
 6    3  0.7601760E-003  0.1277249E+03  0.7818608E-02  0.1230871E+00
          4   -1    0    0  502    0 -0.00000000000E+00  0.00000000000E+00  0.12386229871E+04  0.12386236382E+04  0.12700000000E+01 0. -1.
         21   -1    0    0  501  502  0.00000000000E+00 -0.00000000000E+00 -0.51902884572E+01  0.51902884572E+01  0.00000000000E+00 0. -1.
         25    2    1    2    0    0 -0.67464517403E+01 -0.25366708676E+02  0.11256805208E+04  0.11329034706E+04  0.12499861748E+03 0.  0.
    9000005    1    3    3    0    0  0.53404764358E+01  0.33366378771E+02  0.85459426628E+03  0.85526264731E+03  0.10000000000E+01 0.  0.
    9000005    1    3    3    0    0 -0.12086928176E+02 -0.58733087447E+02  0.27108625447E+03  0.27764082329E+03  0.10000000000E+01 0.  0.
          4    1    1    2  501    0  0.67464517403E+01  0.25366708676E+02  0.10775217793E+03  0.11091045609E+03  0.12700000000E+01 0.  1.
<mgrwt>
<rscale>  1 0.12772486E+03</rscale>
<asrwt>0</asrwt>
<pdfrwt beam="2">  1       21 0.79850691E-03 0.12772486E+03</pdfrwt>
<pdfrwt beam="1">  1        4 0.19056915E+00 0.12772486E+03</pdfrwt>
<totfact> 0.36087067E+04</totfact>
</mgrwt>
</event>
<event>
 6    3  0.7601760E-003  0.1279176E+03  0.7818608E-02  0.1230579E+00
         21   -1    0    0  501  502  0.00000000000E+00  0.00000000000E+00  0.20856739197E+02  0.20856739197E+02  0.00000000000E+00 0. -1.
         -4   -1    0    0    0  501 -0.00000000000E+00 -0.00000000000E+00 -0.28942912902E+03  0.28943191536E+03  0.12700000000E+01 0. -1.
         25    2    1    2    0    0 -0.21886110372E+02  0.16153745082E+02 -0.22781408116E+03  0.26127031173E+03  0.12499189938E+03 0.  0.
    9000005    1    3    3    0    0  0.48221461048E+02  0.52387115378E+01 -0.14119000360E+03  0.14929290178E+03  0.10000000000E+01 0.  0.
    9000005    1    3    3    0    0 -0.70107571420E+02  0.10915033544E+02 -0.86624077554E+02  0.11197740995E+03  0.10000000000E+01 0.  0.
         -4    1    1    2    0  502  0.21886110372E+02 -0.16153745082E+02 -0.40758308668E+02  0.49018342820E+02  0.12700000000E+01 0.  1.
<mgrwt>
<rscale>  1 0.12791763E+03</rscale>
<asrwt>0</asrwt>
<pdfrwt beam="1">  1       21 0.32087294E-02 0.12791763E+03</pdfrwt>
<pdfrwt beam="2">  1       -4 0.44530743E-01 0.12791763E+03</pdfrwt>
<totfact> 0.11055757E+05</totfact>
</mgrwt>
</event>
<event>
 6    3  0.7601760E-003  0.1373547E+03  0.7818608E-02  0.1216933E+00
         -4   -1    0    0    0  501 -0.00000000000E+00  0.00000000000E+00  0.37188516325E+02  0.37210195464E+02  0.12700000000E+01 0. -1.
         21   -1    0    0  501  502  0.00000000000E+00 -0.00000000000E+00 -0.32651488588E+03  0.32651488588E+03  0.00000000000E+00 0. -1.
         25    2    1    2    0    0  0.39508229787E+02  0.40995999688E+02 -0.11122642405E+03  0.17674172460E+03  0.12499899038E+03 0.  0.
    9000005    1    3    3    0    0  0.49990981190E+01 -0.42720674916E+02 -0.56201701229E+02  0.70779080725E+02  0.10000000000E+01 0.  0.
    9000005    1    3    3    0    0  0.34509131668E+02  0.83716674604E+02 -0.55024722824E+02  0.10596264388E+03  0.10000000000E+01 0.  0.
         -4    1    1    2    0  502 -0.39508229787E+02 -0.40995999688E+02 -0.17809994550E+03  0.18698335674E+03  0.12700000000E+01 0.  1.
<mgrwt>
<rscale>  1 0.13735472E+03</rscale>
<asrwt>0</asrwt>
<pdfrwt beam="2">  1       21 0.50233059E-01 0.13735472E+03</pdfrwt>
<pdfrwt beam="1">  1       -4 0.57231679E-02 0.13735472E+03</pdfrwt>
<totfact> 0.29622595E+04</totfact>
</mgrwt>
</event>
<event>
 6    3  0.7601760E-003  0.1274502E+03  0.7818608E-02  0.1231289E+00
          4   -1    0    0  502    0 -0.00000000000E+00  0.00000000000E+00  0.18365225961E+03  0.18365665074E+03  0.12700000000E+01 0. -1.
         21   -1    0    0  501  502  0.00000000000E+00 -0.00000000000E+00 -0.36158271736E+02  0.36158271736E+02  0.00000000000E+00 0. -1.
         25    2    1    2    0    0 -0.17682112733E+02  0.17498584735E+02  0.14746067494E+03  0.19490565536E+03  0.12499882503E+03 0.  0.
    9000005    1    3    3    0    0 -0.67518473400E+02  0.90144167762E+01  0.48020405231E+02  0.83348444968E+02  0.10000000000E+01 0.  0.
    9000005    1    3    3    0    0  0.49836360667E+02  0.84841679584E+01  0.99440269711E+02  0.11155721039E+03  0.10000000000E+01 0.  0.
          4    1    1    2  501    0  0.17682112733E+02 -0.17498584735E+02  0.33312934791E-01  0.24909267114E+02  0.12700000000E+01 0.  1.
<mgrwt>
<rscale>  1 0.12745024E+03</rscale>
<asrwt>0</asrwt>
<pdfrwt beam="2">  1       21 0.55628111E-02 0.12745024E+03</pdfrwt>
<pdfrwt beam="1">  1        4 0.28256247E-01 0.12745024E+03</pdfrwt>
<totfact> 0.10643958E+05</totfact>
</mgrwt>
</event>
<event>
 6    3  0.7601760E-003  0.1272696E+03  0.7818608E-02  0.1231564E+00
         21   -1    0    0  501  502  0.00000000000E+00  0.00000000000E+00  0.69229823258E+02  0.69229823258E+02  0.00000000000E+00 0. -1.
         -4   -1    0    0    0  501 -0.00000000000E+00 -0.00000000000E+00 -0.10963030751E+03  0.10963766335E+03  0.12700000000E+01 0. -1.
         25    2    1    2    0    0 -0.12739904837E+02  0.20145838461E+02 -0.66418854010E+02  0.14355844459E+03  0.12501761021E+03 0.  0.
    9000005    1    3    3    0    0 -0.31576679598E+02 -0.23127710187E+02  0.20836178277E+02  0.44352271623E+02  0.10000000000E+01 0.  0.
    9000005    1    3    3    0    0  0.18836774760E+02  0.43273548648E+02 -0.87255032288E+02  0.99206172971E+02  0.10000000000E+01 0.  0.
         -4    1    1    2    0  502  0.12739904837E+02 -0.20145838461E+02  0.26018369762E+02  0.35309042010E+02  0.12700000000E+01 0.  1.
<mgrwt>
<rscale>  1 0.12726965E+03</rscale>
<asrwt>0</asrwt>
<pdfrwt beam="1">  1       21 0.10650742E-01 0.12726965E+03</pdfrwt>
<pdfrwt beam="2">  1       -4 0.16867663E-01 0.12726965E+03</pdfrwt>
<totfact> 0.88814784E+04</totfact>
</mgrwt>
</event>
<event>
 6    3  0.7601760E-003  0.1273225E+03  0.7818608E-02  0.1231484E+00
         21   -1    0    0  501  502  0.00000000000E+00  0.00000000000E+00  0.32576967322E+03  0.32576967322E+03  0.00000000000E+00 0.  1.
          4   -1    0    0  502    0 -0.00000000000E+00 -0.00000000000E+00 -0.17972324339E+02  0.18017140232E+02  0.12700000000E+01 0.  1.
         25    2    1    2    0    0  0.24006332149E+02  0.29782924606E+01  0.23817927692E+03  0.27007478558E+03  0.12500339053E+03 0.  0.
    9000005    1    3    3    0    0 -0.44361759983E+02 -0.10409917069E+02  0.15504198154E+03  0.16160243860E+03  0.10000000000E+01 0.  0.
    9000005    1    3    3    0    0  0.68368092132E+02  0.13388209529E+02  0.83137295380E+02  0.10847234698E+03  0.10000000000E+01 0.  0.
          4    1    1    2  501    0 -0.24006332149E+02 -0.29782924606E+01  0.69618071956E+02  0.73712027866E+02  0.12700000000E+01 0. -1.
<mgrwt>
<rscale>  1 0.12732251E+03</rscale>
<asrwt>0</asrwt>
<pdfrwt beam="1">  1       21 0.50118407E-01 0.12732251E+03</pdfrwt>
<pdfrwt beam="2">  1        4 0.27686110E-02 0.12732251E+03</pdfrwt>
<totfact> 0.93517820E+04</totfact>
</mgrwt>
</event>
<event>
 6    3  0.7601760E-003  0.1266879E+03  0.7818608E-02  0.1232455E+00
         -4   -1    0    0    0  501 -0.00000000000E+00  0.00000000000E+00  0.38976463162E+03  0.38976670068E+03  0.12700000000E+01 0. -1.
         21   -1    0    0  501  502  0.00000000000E+00 -0.00000000000E+00 -0.14403665481E+02  0.14403665481E+02  0.00000000000E+00 0. -1.
         25    2    1    2    0    0 -0.17003822049E+01  0.20515552935E+02  0.29204738335E+03  0.31834178591E+03  0.12500415721E+03 0.  0.
    9000005    1    3    3    0    0  0.19777028124E+02 -0.17746949837E+02  0.26595682916E+03  0.26728284653E+03  0.10000000000E+01 0.  0.
    9000005    1    3    3    0    0 -0.21477410328E+02  0.38262502773E+02  0.26090554192E+02  0.51058939383E+02  0.10000000000E+01 0.  0.
         -4    1    1    2    0  502  0.17003822049E+01 -0.20515552935E+02  0.83313582782E+02  0.85828580251E+02  0.12700000000E+01 0.  1.
<mgrwt>
<rscale>  1 0.12668788E+03</rscale>
<asrwt>0</asrwt>
<pdfrwt beam="2">  1       21 0.22159488E-02 0.12668788E+03</pdfrwt>
<pdfrwt beam="1">  1       -4 0.59968247E-01 0.12668788E+03</pdfrwt>
<totfact> 0.10985280E+05</totfact>
</mgrwt>
</event>
<event>
 6    3  0.7601760E-003  0.1290977E+03  0.7818608E-02  0.1228801E+00
         -4   -1    0    0    0  501 -0.00000000000E+00  0.00000000000E+00  0.27063830767E+03  0.27064128746E+03  0.12700000000E+01 0.  1.
         21   -1    0    0  501  502  0.00000000000E+00 -0.00000000000E+00 -0.38542923057E+02  0.38542923057E+02  0.00000000000E+00 0. -1.
         25    2    1    2    0    0 -0.24629868689E+02 -0.20862823443E+02  0.24293850165E+03  0.27510967573E+03  0.12499732102E+03 0.  0.
    9000005    1    3    3    0    0 -0.10163464555E+02  0.48933265725E+02  0.56131918771E+02  0.75163507177E+02  0.10000000000E+01 0.  0.
    9000005    1    3    3    0    0 -0.14466404134E+02 -0.69796089168E+02  0.18680658288E+03  0.19994616856E+03  0.10000000000E+01 0.  0.
         -4    1    1    2    0  502  0.24629868689E+02  0.20862823443E+02 -0.10843117041E+02  0.34074534785E+02  0.12700000000E+01 0. -1.
<mgrwt>
<rscale>  1 0.12909771E+03</rscale>
<asrwt>0</asrwt>
<pdfrwt beam="2">  1       21 0.59296807E-02 0.12909771E+03</pdfrwt>
<pdfrwt beam="1">  1       -4 0.41638500E-01 0.12909771E+03</pdfrwt>
<totfact> 0.45408504E+04</totfact>
</mgrwt>
</event>
<event>
 6    3  0.7601760E-003  0.1310580E+03  0.7818608E-02  0.1225894E+00
         -4   -1    0    0    0  501 -0.00000000000E+00  0.00000000000E+00  0.63541581687E+03  0.63541708603E+03  0.12700000000E+01 0. -1.
         21   -1    0    0  501  502  0.00000000000E+00 -0.00000000000E+00 -0.11436199132E+02  0.11436199132E+02  0.00000000000E+00 0. -1.
         25    2    1    2    0    0 -0.37229160466E+02 -0.12860667174E+02  0.48468431142E+03  0.50209071262E+03  0.12499917925E+03 0.  0.
    9000005    1    3    3    0    0  0.58171306391E+01  0.40432810862E+02  0.33486100693E+03  0.33734484607E+03  0.10000000000E+01 0.  0.
    9000005    1    3    3    0    0 -0.43046291105E+02 -0.53293478036E+02  0.14982330448E+03  0.16474586655E+03  0.10000000000E+01 0.  0.
         -4    1    1    2    0  502  0.37229160466E+02  0.12860667174E+02  0.13929530632E+03  0.14476257255E+03  0.12700000000E+01 0.  1.
<mgrwt>
<rscale>  1 0.13105801E+03</rscale>
<asrwt>0</asrwt>
<pdfrwt beam="2">  1       21 0.17594158E-02 0.13105801E+03</pdfrwt>
<pdfrwt beam="1">  1       -4 0.97761773E-01 0.13105801E+03</pdfrwt>
<totfact> 0.54862780E+04</totfact>
</mgrwt>
</event>
<event>
 6    3  0.7601760E-003  0.1362684E+03  0.7818608E-02  0.1218440E+00
          4   -1    0    0  502    0 -0.00000000000E+00  0.00000000000E+00  0.96471499909E+02  0.96479859010E+02  0.12700000000E+01 0.  1.
         21   -1    0    0  501  502  0.00000000000E+00 -0.00000000000E+00 -0.99156706119E+02  0.99156706119E+02  0.00000000000E+00 0.  1.
         25    2    1    2    0    0 -0.45774107951E+02  0.29096138945E+02  0.18247385472E+02  0.13748469023E+03  0.12500887452E+03 0.  0.
    9000005    1    3    3    0    0 -0.49299285387E+01  0.40950913924E+02 -0.45133816388E+02  0.61150167034E+02  0.10000000000E+01 0.  0.
    9000005    1    3    3    0    0 -0.40844179413E+02 -0.11854774979E+02  0.63381201860E+02  0.76334523192E+02  0.10000000000E+01 0.  0.
          4    1    1    2  501    0  0.45774107951E+02 -0.29096138945E+02 -0.20932591682E+02  0.58151874903E+02  0.12700000000E+01 0. -1.
<mgrwt>
<rscale>  1 0.13626839E+03</rscale>
<asrwt>0</asrwt>
<pdfrwt beam="2">  1       21 0.15254878E-01 0.13626839E+03</pdfrwt>
<pdfrwt beam="1">  1        4 0.14843038E-01 0.13626839E+03</pdfrwt>
<totfact> 0.59137524E+04</totfact>
</mgrwt>
</event>
<event>
 6    3  0.7601760E-003  0.1357930E+03  0.7818608E-02  0.1219105E+00
          4   -1    0    0  502    0 -0.00000000000E+00  0.00000000000E+00  0.11418217602E+03  0.11418923864E+03  0.12700000000E+01 0.  1.
         21   -1    0    0  501  502  0.00000000000E+00 -0.00000000000E+00 -0.82014260770E+02  0.82014260770E+02  0.00000000000E+00 0.  1.
         25    2    1    2    0    0 -0.43974286684E+02 -0.29673542834E+02  0.42199295939E+02  0.14219888356E+03  0.12500193949E+03 0.  0.
    9000005    1    3    3    0    0 -0.70490198438E+02 -0.19176167244E+02 -0.18292712046E+02  0.75314120722E+02  0.10000000000E+01 0.  0.
    9000005    1    3    3    0    0  0.26515911754E+02 -0.10497375590E+02  0.60492007986E+02  0.66884762843E+02  0.10000000000E+01 0.  0.
          4    1    1    2  501    0  0.43974286684E+02  0.29673542834E+02 -0.10031380691E+02  0.54004615842E+02  0.12700000000E+01 0. -1.
<mgrwt>
<rscale>  1 0.13579301E+03</rscale>
<asrwt>0</asrwt>
<pdfrwt beam="2">  1       21 0.12617579E-01 0.13579301E+03</pdfrwt>
<pdfrwt beam="1">  1        4 0.17567788E-01 0.13579301E+03</pdfrwt>
<totfact> 0.61778927E+04</totfact>
</mgrwt>
</event>
<event>
 6    3  0.7601760E-003  0.1838118E+03  0.7818608E-02  0.1164164E+00
          4   -1    0    0  502    0 -0.00000000000E+00  0.00000000000E+00  0.43732294889E+03  0.43732479295E+03  0.12700000000E+01 0.  1.
         21   -1    0    0  501  502  0.00000000000E+00 -0.00000000000E+00 -0.16344442172E+03  0.16344442172E+03  0.00000000000E+00 0. -1.
         25    2    1    2    0    0 -0.65403648743E+02 -0.11783162195E+03  0.38465236477E+03  0.42631468078E+03  0.12499934770E+03 0.  0.
    9000005    1    3    3    0    0 -0.66995815056E+01 -0.11291157336E+03  0.17365939739E+03  0.20724983497E+03  0.10000000000E+01 0.  0.
    9000005    1    3    3    0    0 -0.58704067237E+02 -0.49200485881E+01  0.21099296737E+03  0.21906484581E+03  0.10000000000E+01 0.  0.
          4    1    1    2  501    0  0.65403648743E+02  0.11783162195E+03 -0.11077383760E+03  0.17445453389E+03  0.12700000000E+01 0. -1.
<mgrwt>
<rscale>  1 0.18381177E+03</rscale>
<asrwt>0</asrwt>
<pdfrwt beam="2">  1       21 0.25145296E-01 0.18381177E+03</pdfrwt>
<pdfrwt beam="1">  1        4 0.67280975E-01 0.18381177E+03</pdfrwt>
<totfact> 0.13071397E+03</totfact>
</mgrwt>
</event>
<event>
 6    3  0.7601760E-003  0.1319287E+03  0.7818608E-02  0.1224622E+00
         21   -1    0    0  501  502  0.00000000000E+00  0.00000000000E+00  0.30756696701E+03  0.30756696701E+03  0.00000000000E+00 0. -1.
         -4   -1    0    0    0  501 -0.00000000000E+00 -0.00000000000E+00 -0.55329173933E+02  0.55343747507E+02  0.12700000000E+01 0.  1.
         25    2    1    2    0    0 -0.27312115689E+01  0.42120652409E+02  0.28175488125E+02  0.13490383244E+03  0.12499430787E+03 0.  0.
    9000005    1    3    3    0    0  0.18900701876E+02 -0.39660548792E+02 -0.45820385227E+01  0.44183602602E+02  0.10000000000E+01 0.  0.
    9000005    1    3    3    0    0 -0.21631913445E+02  0.81781201200E+02  0.32757526647E+02  0.90720229834E+02  0.10000000000E+01 0.  0.
         -4    1    1    2    0  502  0.27312115689E+01 -0.42120652409E+02  0.22406230495E+03  0.22800688208E+03  0.12700000000E+01 0. -1.
<mgrwt>
<rscale>  1 0.13192872E+03</rscale>
<asrwt>0</asrwt>
<pdfrwt beam="1">  1       21 0.47317994E-01 0.13192872E+03</pdfrwt>
<pdfrwt beam="2">  1       -4 0.85135036E-02 0.13192872E+03</pdfrwt>
<totfact> 0.17394575E+04</totfact>
</mgrwt>
</event>
<event>
 6    3  0.7601760E-003  0.1297959E+03  0.7818608E-02  0.1227759E+00
         -4   -1    0    0    0  501 -0.00000000000E+00  0.00000000000E+00  0.27139036242E+03  0.27139333395E+03  0.12700000000E+01 0.  1.
         21   -1    0    0  501  502  0.00000000000E+00 -0.00000000000E+00 -0.40419536003E+02  0.40419536003E+02  0.00000000000E+00 0. -1.
         25    2    1    2    0    0 -0.31386927659E+02  0.14927071628E+02  0.24260147843E+03  0.27514078709E+03  0.12505606220E+03 0.  0.
    9000005    1    3    3    0    0 -0.45485767816E+02 -0.25085115348E+02  0.22194549531E+03  0.22794521486E+03  0.10000000000E+01 0.  0.
    9000005    1    3    3    0    0  0.14098840156E+02  0.40012186976E+02  0.20655983113E+02  0.47195572236E+02  0.10000000000E+01 0.  0.
         -4    1    1    2    0  502  0.31386927659E+02 -0.14927071628E+02 -0.11630652012E+02  0.36672082863E+02  0.12700000000E+01 0. -1.
<mgrwt>
<rscale>  1 0.12979590E+03</rscale>
<asrwt>0</asrwt>
<pdfrwt beam="2">  1       21 0.62183903E-02 0.12979590E+03</pdfrwt>
<pdfrwt beam="1">  1       -4 0.41754126E-01 0.12979590E+03</pdfrwt>
<totfact> 0.41689068E+04</totfact>
</mgrwt>
</event>
<event>
 6    3  0.7601760E-003  0.1301638E+03  0.7818608E-02  0.1227213E+00
         -4   -1    0    0    0  501 -0.00000000000E+00  0.00000000000E+00  0.13333559797E+03  0.13334164611E+03  0.12700000000E+01 0. -1.
         21   -1    0    0  501  502  0.00000000000E+00 -0.00000000000E+00 -0.73814944672E+02  0.73814944672E+02  0.00000000000E+00 0.  1.
         25    2    1    2    0    0 -0.25642556265E+02 -0.25700386235E+02  0.91218240171E+02  0.15894455434E+03  0.12499821386E+03 0.  0.
    9000005    1    3    3    0    0 -0.14158812092E+02 -0.48622127912E+02  0.11392822784E+03  0.12468048917E+03  0.10000000000E+01 0.  0.
    9000005    1    3    3    0    0 -0.11483744174E+02  0.22921741677E+02 -0.22709987666E+02  0.34264065163E+02  0.10000000000E+01 0.  0.
         -4    1    1    2    0  502  0.25642556265E+02  0.25700386235E+02 -0.31697586870E+02  0.48212036442E+02  0.12700000000E+01 0.  1.
<mgrwt>
<rscale>  1 0.13016376E+03</rscale>
<asrwt>0</asrwt>
<pdfrwt beam="2">  1       21 0.11356145E-01 0.13016376E+03</pdfrwt>
<pdfrwt beam="1">  1       -4 0.20514475E-01 0.13016376E+03</pdfrwt>
<totfact> 0.56133118E+04</totfact>
</mgrwt>
</event>
<event>
 6    3  0.7601760E-003  0.1282413E+03  0.7818608E-02  0.1230089E+00
         21   -1    0    0  501  502  0.00000000000E+00  0.00000000000E+00  0.15811628234E+03  0.15811628234E+03  0.00000000000E+00 0. -1.
          4   -1    0    0  502    0 -0.00000000000E+00 -0.00000000000E+00 -0.68467113168E+02  0.68478890802E+02  0.12700000000E+01 0.  1.
         25    2    1    2    0    0 -0.46270365014E+01  0.28278317714E+02 -0.43523310633E+01  0.12831512600E+03  0.12499902422E+03 0.  0.
    9000005    1    3    3    0    0 -0.38559347623E+02  0.79802148812E+00 -0.51302981264E+02  0.64190778262E+02  0.10000000000E+01 0.  0.
    9000005    1    3    3    0    0  0.33932311121E+02  0.27480296226E+02  0.46950650200E+02  0.64124347739E+02  0.10000000000E+01 0.  0.
          4    1    1    2  501    0  0.46270365014E+01 -0.28278317714E+02  0.94001500239E+02  0.98280047145E+02  0.12700000000E+01 0. -1.
<mgrwt>
<rscale>  1 0.12824129E+03</rscale>
<asrwt>0</asrwt>
<pdfrwt beam="1">  1       21 0.24325582E-01 0.12824129E+03</pdfrwt>
<pdfrwt beam="2">  1        4 0.10534700E-01 0.12824129E+03</pdfrwt>
<totfact> 0.44722569E+04</totfact>
</mgrwt>
</event>
<event>
 6    3  0.7601760E-003  0.1269276E+03  0.7818608E-02  0.1232087E+00
          4   -1    0    0  502    0 -0.00000000000E+00  0.00000000000E+00  0.33538803922E+02  0.33562840590E+02  0.12700000000E+01 0. -1.
         21   -1    0    0  501  502  0.00000000000E+00 -0.00000000000E+00 -0.22164354812E+03  0.22164354812E+03  0.00000000000E+00 0. -1.
         25    2    1    2    0    0 -0.18662760878E+01 -0.21958395699E+02 -0.92423415852E+02  0.15701176756E+03  0.12499981291E+03 0.  0.
    9000005    1    3    3    0    0 -0.99782782897E+01 -0.73658713705E+02 -0.49383801198E+02  0.89246467511E+02  0.10000000000E+01 0.  0.
    9000005    1    3    3    0    0  0.81120022019E+01  0.51700318006E+02 -0.43039614654E+02  0.67765300053E+02  0.10000000000E+01 0.  0.
          4    1    1    2  501    0  0.18662760878E+01  0.21958395699E+02 -0.95681328350E+02  0.98194621150E+02  0.12700000000E+01 0.  1.
<mgrwt>
<rscale>  1 0.12692757E+03</rscale>
<asrwt>0</asrwt>
<pdfrwt beam="2">  1       21 0.34099009E-01 0.12692757E+03</pdfrwt>
<pdfrwt beam="1">  1        4 0.51619447E-02 0.12692757E+03</pdfrwt>
<totfact> 0.75596413E+04</totfact>
</mgrwt>
</event>
<event>
 6    3  0.7601760E-003  0.1272011E+03  0.7818608E-02  0.1231669E+00
         21   -1    0    0  501  502  0.00000000000E+00  0.00000000000E+00  0.11685222178E+02  0.11685222178E+02  0.00000000000E+00 0. -1.
          4   -1    0    0  502    0 -0.00000000000E+00 -0.00000000000E+00 -0.74514565615E+03  0.74514673842E+03  0.12700000000E+01 0. -1.
         25    2    1    2    0    0  0.16983489230E+02  0.16770119472E+02 -0.71605274659E+03  0.72726312069E+03  0.12494172644E+03 0.  0.
    9000005    1    3    3    0    0  0.34255540835E+02  0.29731103504E+02 -0.89546580850E+02  0.10038411595E+03  0.10000000000E+01 0.  0.
    9000005    1    3    3    0    0 -0.17272051605E+02 -0.12960984032E+02 -0.62650616574E+03  0.62687900474E+03  0.10000000000E+01 0.  0.
          4    1    1    2  501    0 -0.16983489230E+02 -0.16770119472E+02 -0.17407687385E+02  0.29568839910E+02  0.12700000000E+01 0.  1.
<mgrwt>
<rscale>  1 0.12720106E+03</rscale>
<asrwt>0</asrwt>
<pdfrwt beam="1">  1       21 0.17977258E-02 0.12720106E+03</pdfrwt>
<pdfrwt beam="2">  1        4 0.11464323E+00 0.12720106E+03</pdfrwt>
<totfact> 0.36380170E+04</totfact>
</mgrwt>
</event>
<event>
 6    3  0.7601760E-003  0.1273838E+03  0.7818608E-02  0.1231390E+00
          4   -1    0    0  502    0 -0.00000000000E+00  0.00000000000E+00  0.59953175686E+02  0.59966625508E+02  0.12700000000E+01 0.  1.
         21   -1    0    0  501  502  0.00000000000E+00 -0.00000000000E+00 -0.10163897986E+03  0.10163897986E+03  0.00000000000E+00 0.  1.
         25    2    1    2    0    0  0.32605654423E+01  0.24329821408E+02 -0.48165467139E+02  0.13618572281E+03  0.12499626945E+03 0.  0.
    9000005    1    3    3    0    0 -0.52409277457E+02 -0.24858285579E+01  0.75013844251E+01  0.53011154255E+02  0.10000000000E+01 0.  0.
    9000005    1    3    3    0    0  0.55669842899E+02  0.26815649965E+02 -0.55666851564E+02  0.83174568557E+02  0.10000000000E+01 0.  0.
          4    1    1    2  501    0 -0.32605654423E+01 -0.24329821408E+02  0.64796629697E+01  0.25419882551E+02  0.12700000000E+01 0. -1.
<mgrwt>
<rscale>  1 0.12738383E+03</rscale>
<asrwt>0</asrwt>
<pdfrwt beam="2">  1       21 0.15636766E-01 0.12738383E+03</pdfrwt>
<pdfrwt beam="1">  1        4 0.92252105E-02 0.12738383E+03</pdfrwt>
<totfact> 0.12619982E+05</totfact>
</mgrwt>
</event>
<event>
 6    3  0.7601760E-003  0.1270070E+03  0.7818608E-02  0.1231966E+00
         21   -1    0    0  501  502  0.00000000000E+00  0.00000000000E+00  0.35617038486E+03  0.35617038486E+03  0.00000000000E+00 0.  1.
          4   -1    0    0  502    0 -0.00000000000E+00 -0.00000000000E+00 -0.29861565721E+02  0.29888559807E+02  0.12700000000E+01 0. -1.
         25    2    1    2    0    0  0.21666788141E+02 -0.60373589933E+01  0.10836616886E+03  0.16695506264E+03  0.12499946789E+03 0.  0.
    9000005    1    3    3    0    0 -0.17363954799E+02 -0.48911347275E+02  0.93735292148E+02  0.10715004346E+03  0.10000000000E+01 0.  0.
    9000005    1    3    3    0    0  0.39030742940E+02  0.42873988282E+02  0.14630876715E+02  0.59805019180E+02  0.10000000000E+01 0.  0.
          4    1    1    2  501    0 -0.21666788141E+02  0.60373589933E+01  0.21794265027E+03  0.21910388203E+03  0.12700000000E+01 0.  1.
<mgrwt>
<rscale>  1 0.12700695E+03</rscale>
<asrwt>0</asrwt>
<pdfrwt beam="1">  1       21 0.54795441E-01 0.12700695E+03</pdfrwt>
<pdfrwt beam="2">  1        4 0.45963379E-02 0.12700695E+03</pdfrwt>
<totfact> 0.34915028E+04</totfact>
</mgrwt>
</event>
<event>
 6    3  0.7601760E-003  0.1267062E+03  0.7818608E-02  0.1232427E+00
         21   -1    0    0  501  502  0.00000000000E+00  0.00000000000E+00  0.64026144886E+03  0.64026144886E+03  0.00000000000E+00 0.  1.
         -4   -1    0    0    0  501 -0.00000000000E+00 -0.00000000000E+00 -0.98973492950E+01  0.99784980366E+01  0.12700000000E+01 0.  1.
         25    2    1    2    0    0 -0.54701620419E+01  0.19961010789E+02  0.41582098636E+03  0.43469708585E+03  0.12500439642E+03 0.  0.
    9000005    1    3    3    0    0 -0.36991501640E+02 -0.28046441697E+02  0.69105762610E+02  0.83256113958E+02  0.10000000000E+01 0.  0.
    9000005    1    3    3    0    0  0.31521339599E+02  0.48007452486E+02  0.34671522375E+03  0.35144097190E+03  0.10000000000E+01 0.  0.
         -4    1    1    2    0  502  0.54701620419E+01 -0.19961010789E+02  0.21454311320E+03  0.21554286104E+03  0.12700000000E+01 0. -1.
<mgrwt>
<rscale>  1 0.12670621E+03</rscale>
<asrwt>0</asrwt>
<pdfrwt beam="1">  1       21 0.98501729E-01 0.12670621E+03</pdfrwt>
<pdfrwt beam="2">  1       -4 0.15290087E-02 0.12670621E+03</pdfrwt>
<totfact> 0.53270119E+04</totfact>
</mgrwt>
</event>
<event>
 6    3  0.7601760E-003  0.1301984E+03  0.7818608E-02  0.1227162E+00
          4   -1    0    0  502    0 -0.00000000000E+00  0.00000000000E+00  0.50398338328E+02  0.50414337308E+02  0.12700000000E+01 0.  1.
         21   -1    0    0  501  502  0.00000000000E+00 -0.00000000000E+00 -0.15229634786E+03  0.15229634786E+03  0.00000000000E+00 0.  1.
         25    2    1    2    0    0  0.18585418223E+02  0.31319951168E+02 -0.10336387425E+03  0.16623989177E+03  0.12500101601E+03 0.  0.
    9000005    1    3    3    0    0  0.54406195855E+02  0.30230894254E+02 -0.11309219052E+03  0.12909215574E+03  0.10000000000E+01 0.  0.
    9000005    1    3    3    0    0 -0.35820777632E+02  0.10890569142E+01  0.97283162700E+01  0.37147736035E+02  0.10000000000E+01 0.  0.
          4    1    1    2  501    0 -0.18585418223E+02 -0.31319951168E+02  0.14658647218E+01  0.36470793398E+02  0.12700000000E+01 0. -1.
<mgrwt>
<rscale>  1 0.13019835E+03</rscale>
<asrwt>0</asrwt>
<pdfrwt beam="2">  1       21 0.23430207E-01 0.13019835E+03</pdfrwt>
<pdfrwt beam="1">  1        4 0.77552286E-02 0.13019835E+03</pdfrwt>
<totfact> 0.80197839E+04</totfact>
</mgrwt>
</event>
<event>
 6    3  0.7601760E-003  0.1285915E+03  0.7818608E-02  0.1229561E+00
         21   -1    0    0  501  502  0.00000000000E+00  0.00000000000E+00  0.11061692097E+03  0.11061692097E+03  0.00000000000E+00 0. -1.
         -4   -1    0    0    0  501 -0.00000000000E+00 -0.00000000000E+00 -0.59406497927E+02  0.59420071491E+02  0.12700000000E+01 0. -1.
         25    2    1    2    0    0  0.64150079655E+01 -0.29497310665E+02  0.27180467283E+02  0.13143264896E+03  0.12499807897E+03 0.  0.
    9000005    1    3    3    0    0 -0.10374596532E+02  0.19909174907E+02  0.63822513683E+02  0.67663289541E+02  0.10000000000E+01 0.  0.
    9000005    1    3    3    0    0  0.16789604497E+02 -0.49406485572E+02 -0.36642046400E+02  0.63769359414E+02  0.10000000000E+01 0.  0.
         -4    1    1    2    0  502 -0.64150079655E+01  0.29497310665E+02  0.24029955759E+02  0.38604343505E+02  0.12700000000E+01 0.  1.
<mgrwt>
<rscale>  1 0.12859146E+03</rscale>
<asrwt>0</asrwt>
<pdfrwt beam="1">  1       21 0.17017988E-01 0.12859146E+03</pdfrwt>
<pdfrwt beam="2">  1       -4 0.91410662E-02 0.12859146E+03</pdfrwt>
<totfact> 0.11004833E+05</totfact>
</mgrwt>
</event>
<event>
 6    3  0.7601760E-003  0.1271062E+03  0.7818608E-02  0.1231814E+00
         21   -1    0    0  501  502  0.00000000000E+00  0.00000000000E+00  0.89031723808E+02  0.89031723808E+02  0.00000000000E+00 0.  1.
         -4   -1    0    0    0  501 -0.00000000000E+00 -0.00000000000E+00 -0.97456268247E+02  0.97464542889E+02  0.12700000000E+01 0.  1.
         25    2    1    2    0    0 -0.26515943870E+01 -0.22885822767E+02 -0.51886750756E+02  0.13728886772E+03  0.12500082583E+03 0.  0.
    9000005    1    3    3    0    0 -0.85306637377E+00 -0.74933961642E+02 -0.28334166564E+02  0.80122726641E+02  0.10000000000E+01 0.  0.
    9000005    1    3    3    0    0 -0.17985280133E+01  0.52048138875E+02 -0.23552584192E+02  0.57166141075E+02  0.10000000000E+01 0.  0.
         -4    1    1    2    0  502  0.26515943870E+01  0.22885822767E+02  0.43462206317E+02  0.49207398981E+02  0.12700000000E+01 0. -1.
<mgrwt>
<rscale>  1 0.12710625E+03</rscale>
<asrwt>0</asrwt>
<pdfrwt beam="1">  1       21 0.13697188E-01 0.12710625E+03</pdfrwt>
<pdfrwt beam="2">  1       -4 0.14994605E-01 0.12710625E+03</pdfrwt>
<totfact> 0.69896033E+04</totfact>
</mgrwt>
</event>
<event>
 6    3  0.7601760E-003  0.1267069E+03  0.7818608E-02  0.1232426E+00
         -4   -1    0    0    0  501 -0.00000000000E+00  0.00000000000E+00  0.43546652506E+03  0.43546837698E+03  0.12700000000E+01 0.  1.
         21   -1    0    0  501  502  0.00000000000E+00 -0.00000000000E+00 -0.12673769254E+02  0.12673769254E+02  0.00000000000E+00 0.  1.
         25    2    1    2    0    0 -0.20292972514E+02 -0.42757632998E+01  0.34189252279E+03  0.36461641674E+03  0.12499818931E+03 0.  0.
    9000005    1    3    3    0    0 -0.36753727677E+02  0.16506422262E+02  0.26779260240E+02  0.48388296654E+02  0.10000000000E+01 0.  0.
    9000005    1    3    3    0    0  0.16460755164E+02 -0.20782185562E+02  0.31511326255E+03  0.31622812008E+03  0.10000000000E+01 0.  0.
         -4    1    1    2    0  502  0.20292972514E+02  0.42757632998E+01  0.80900233014E+02  0.83525729491E+02  0.12700000000E+01 0. -1.
<mgrwt>
<rscale>  1 0.12670688E+03</rscale>
<asrwt>0</asrwt>
<pdfrwt beam="2">  1       21 0.19498110E-02 0.12670688E+03</pdfrwt>
<pdfrwt beam="1">  1       -4 0.66999875E-01 0.12670688E+03</pdfrwt>
<totfact> 0.10681887E+05</totfact>
</mgrwt>
</event>
<event>
 6    3  0.7601760E-003  0.1266725E+03  0.7818608E-02  0.1232478E+00
         -4   -1    0    0    0  501 -0.00000000000E+00  0.00000000000E+00  0.12161471462E+03  0.12162134563E+03  0.12700000000E+01 0. -1.
         21   -1    0    0  501  502  0.00000000000E+00 -0.00000000000E+00 -0.45430523272E+02  0.45430523272E+02  0.00000000000E+00 0.  1.
         25    2    1    2    0    0 -0.20357783886E+02  0.26602576202E+01  0.73100746415E+02  0.14625194419E+03  0.12499758285E+03 0.  0.
    9000005    1    3    3    0    0 -0.52822064977E+02 -0.33787309898E+02  0.74539752650E+02  0.97411126591E+02  0.10000000000E+01 0.  0.
    9000005    1    3    3    0    0  0.32464281091E+02  0.36447567519E+02 -0.14390062345E+01  0.48840817599E+02  0.10000000000E+01 0.  0.
         -4    1    1    2    0  502  0.20357783886E+02 -0.26602576202E+01  0.30834449352E+01  0.20799924712E+02  0.12700000000E+01 0.  1.
<mgrwt>
<rscale>  1 0.12667246E+03</rscale>
<asrwt>0</asrwt>
<pdfrwt beam="2">  1       21 0.69893114E-02 0.12667246E+03</pdfrwt>
<pdfrwt beam="1">  1       -4 0.18711831E-01 0.12667246E+03</pdfrwt>
<totfact> 0.15316307E+05</totfact>
</mgrwt>
</event>
<event>
 6    3  0.7601760E-003  0.1268481E+03  0.7818608E-02  0.1232209E+00
         -4   -1    0    0    0  501 -0.00000000000E+00  0.00000000000E+00  0.13971375857E+02  0.14028978699E+02  0.12700000000E+01 0. -1.
         21   -1    0    0  501  502  0.00000000000E+00 -0.00000000000E+00 -0.52331364363E+03  0.52331364363E+03  0.00000000000E+00 0. -1.
         25    2    1    2    0    0  0.18518643631E+02  0.10996191572E+02 -0.28486408206E+03  0.31183003919E+03  0.12500628666E+03 0.  0.
    9000005    1    3    3    0    0 -0.45004097877E+02 -0.15929162174E+02 -0.60373360980E+02  0.76974344748E+02  0.10000000000E+01 0.  0.
    9000005    1    3    3    0    0  0.63522741508E+02  0.26925353746E+02 -0.22449072108E+03  0.23485569445E+03  0.10000000000E+01 0.  0.
         -4    1    1    2    0  502 -0.18518643631E+02 -0.10996191572E+02 -0.22447818571E+03  0.22551258314E+03  0.12700000000E+01 0.  1.
<mgrwt>
<rscale>  1 0.12684805E+03</rscale>
<asrwt>0</asrwt>
<pdfrwt beam="2">  1       21 0.80509785E-01 0.12684805E+03</pdfrwt>
<pdfrwt beam="1">  1       -4 0.21539921E-02 0.12684805E+03</pdfrwt>
<totfact> 0.49910756E+04</totfact>
</mgrwt>
</event>
<event>
 6    3  0.7601760E-003  0.1267142E+03  0.7818608E-02  0.1232414E+00
          4   -1    0    0  502    0 -0.00000000000E+00  0.00000000000E+00  0.16878499419E+03  0.16878977209E+03  0.12700000000E+01 0. -1.
         21   -1    0    0  501  502  0.00000000000E+00 -0.00000000000E+00 -0.69907750660E+02  0.69907750660E+02  0.00000000000E+00 0.  1.
         25    2    1    2    0    0  0.18116994964E+02 -0.10168869851E+02  0.14230183730E+03  0.19054215271E+03  0.12499947056E+03 0.  0.
    9000005    1    3    3    0    0 -0.48921150982E+02 -0.85572136870E-01  0.24738624765E+02  0.54829607798E+02  0.10000000000E+01 0.  0.
    9000005    1    3    3    0    0  0.67038145946E+02 -0.10083297715E+02  0.11756321253E+03  0.13571254491E+03  0.10000000000E+01 0.  0.
          4    1    1    2  501    0 -0.18116994964E+02  0.10168869851E+02 -0.43424593767E+02  0.48155370048E+02  0.12700000000E+01 0.  1.
<mgrwt>
<rscale>  1 0.12671424E+03</rscale>
<asrwt>0</asrwt>
<pdfrwt beam="2">  1       21 0.10755039E-01 0.12671424E+03</pdfrwt>
<pdfrwt beam="1">  1        4 0.25968177E-01 0.12671424E+03</pdfrwt>
<totfact> 0.40023524E+04</totfact>
</mgrwt>
</event>
<event>
 6    3  0.7601760E-003  0.1268324E+03  0.7818608E-02  0.1232233E+00
         -4   -1    0    0    0  501 -0.00000000000E+00  0.00000000000E+00  0.70638197164E+01  0.71770780256E+01  0.12700000000E+01 0. -1.
         21   -1    0    0  501  502  0.00000000000E+00 -0.00000000000E+00 -0.93450868737E+03  0.93450868737E+03  0.00000000000E+00 0. -1.
         25    2    1    2    0    0 -0.88884027166E+01  0.19568126997E+02 -0.58627907601E+03  0.59984131892E+03  0.12499815047E+03 0.  0.
    9000005    1    3    3    0    0 -0.85458496885E+01 -0.43912295852E+02 -0.10154570218E+03  0.11096779220E+03  0.10000000000E+01 0.  0.
    9000005    1    3    3    0    0 -0.34255302810E+00  0.63480422849E+02 -0.48473337383E+03  0.48887352673E+03  0.10000000000E+01 0.  0.
         -4    1    1    2    0  502  0.88884027166E+01 -0.19568126997E+02 -0.34116579164E+03  0.34184444647E+03  0.12700000000E+01 0.  1.
<mgrwt>
<rscale>  1 0.12683238E+03</rscale>
<asrwt>0</asrwt>
<pdfrwt beam="2">  1       21 0.14377053E+00 0.12683238E+03</pdfrwt>
<pdfrwt beam="1">  1       -4 0.10955204E-02 0.12683238E+03</pdfrwt>
<totfact> 0.35136351E+04</totfact>
</mgrwt>
</event>
<event>
 6    3  0.7601760E-003  0.3250427E+03  0.7818608E-02  0.1073352E+00
         -4   -1    0    0    0  501 -0.00000000000E+00  0.00000000000E+00  0.47666610693E+03  0.47666779879E+03  0.12700000000E+01 0.  1.
         21   -1    0    0  501  502  0.00000000000E+00 -0.00000000000E+00 -0.27230116862E+03  0.27230116862E+03  0.00000000000E+00 0. -1.
         25    2    1    2    0    0 -0.23898053811E+03 -0.18142548815E+03  0.29141445242E+03  0.43654915985E+03  0.12500352212E+03 0.  0.
    9000005    1    3    3    0    0 -0.50369311672E+02 -0.63746187637E+02  0.15694770112E+03  0.17673207090E+03  0.10000000000E+01 0.  0.
    9000005    1    3    3    0    0 -0.18861122644E+03 -0.11767930052E+03  0.13446675129E+03  0.25981708895E+03  0.10000000000E+01 0.  0.
         -4    1    1    2    0  502  0.23898053811E+03  0.18142548815E+03 -0.87049514105E+02  0.31241980756E+03  0.12700000000E+01 0. -1.
<mgrwt>
<rscale>  1 0.32504274E+03</rscale>
<asrwt>0</asrwt>
<pdfrwt beam="2">  1       21 0.41892488E-01 0.32504274E+03</pdfrwt>
<pdfrwt beam="1">  1       -4 0.73333605E-01 0.32504274E+03</pdfrwt>
<totfact> 0.39262566E+02</totfact>
</mgrwt>
</event>
<event>
 6    3  0.7601760E-003  0.1291256E+03  0.7818608E-02  0.1228759E+00
          4   -1    0    0  502    0 -0.00000000000E+00  0.00000000000E+00  0.76988652296E+03  0.76988757045E+03  0.12700000000E+01 0.  1.
         21   -1    0    0  501  502  0.00000000000E+00 -0.00000000000E+00 -0.86765147650E+01  0.86765147650E+01  0.00000000000E+00 0.  1.
         25    2    1    2    0    0 -0.26680445518E+02  0.18355667765E+02  0.65123156100E+03  0.66390961099E+03  0.12499859525E+03 0.  0.
    9000005    1    3    3    0    0  0.31376350928E+02 -0.17535159830E+02  0.70116650946E+02  0.78799124156E+02  0.10000000000E+01 0.  0.
    9000005    1    3    3    0    0 -0.58056796446E+02  0.35890827595E+02  0.58111491006E+03  0.58511048684E+03  0.10000000000E+01 0.  0.
          4    1    1    2  501    0  0.26680445518E+02 -0.18355667765E+02  0.10997844719E+03  0.11465447422E+03  0.12700000000E+01 0. -1.
<mgrwt>
<rscale>  1 0.12912562E+03</rscale>
<asrwt>0</asrwt>
<pdfrwt beam="2">  1       21 0.13348490E-02 0.12912562E+03</pdfrwt>
<pdfrwt beam="1">  1        4 0.11845126E+00 0.12912562E+03</pdfrwt>
<totfact> 0.54288079E+04</totfact>
</mgrwt>
</event>
<event>
 6    3  0.7601760E-003  0.1273762E+03  0.7818608E-02  0.1231402E+00
         21   -1    0    0  501  502  0.00000000000E+00  0.00000000000E+00  0.32272792208E+02  0.32272792208E+02  0.00000000000E+00 0.  1.
         -4   -1    0    0    0  501 -0.00000000000E+00 -0.00000000000E+00 -0.26432679702E+03  0.26432984796E+03  0.12700000000E+01 0.  1.
         25    2    1    2    0    0  0.80298583224E+01 -0.23129148413E+02 -0.23925627429E+03  0.27105030727E+03  0.12500107259E+03 0.  0.
    9000005    1    3    3    0    0 -0.48919775531E+02  0.33862072618E+01 -0.43845597506E+02  0.65787895986E+02  0.10000000000E+01 0.  0.
    9000005    1    3    3    0    0  0.56949633853E+02 -0.26515355675E+02 -0.19541067679E+03  0.20526241128E+03  0.10000000000E+01 0.  0.
         -4    1    1    2    0  502 -0.80298583224E+01  0.23129148413E+02  0.72022694815E+01  0.25552332901E+02  0.12700000000E+01 0. -1.
<mgrwt>
<rscale>  1 0.12737623E+03</rscale>
<asrwt>0</asrwt>
<pdfrwt beam="1">  1       21 0.49650450E-02 0.12737623E+03</pdfrwt>
<pdfrwt beam="2">  1       -4 0.40667818E-01 0.12737623E+03</pdfrwt>
<totfact> 0.64062402E+04</totfact>
</mgrwt>
</event>
<event>
 6    3  0.7601760E-003  0.1299403E+03  0.7818608E-02  0.1227544E+00
         21   -1    0    0  501  502  0.00000000000E+00  0.00000000000E+00  0.16517669660E+04  0.16517669660E+04  0.00000000000E+00 0. -1.
          4   -1    0    0  502    0 -0.00000000000E+00 -0.00000000000E+00 -0.40492898202E+01  0.42437775682E+01  0.12700000000E+01 0. -1.
         25    2    1    2    0    0  0.94011167290E+01  0.34227375168E+02  0.13127741021E+04  0.13191892702E+04  0.12499837300E+03 0.  0.
    9000005    1    3    3    0    0 -0.10634259977E+01 -0.36486350020E+02  0.15635063823E+03  0.16055811000E+03  0.10000000000E+01 0.  0.
    9000005    1    3    3    0    0  0.10464542727E+02  0.70713725188E+02  0.11564234639E+04  0.11586311602E+04  0.10000000000E+01 0.  0.
          4    1    1    2  501    0 -0.94011167290E+01 -0.34227375168E+02  0.33494357408E+03  0.33682147337E+03  0.12700000000E+01 0.  1.
<mgrwt>
<rscale>  1 0.12994032E+03</rscale>
<asrwt>0</asrwt>
<pdfrwt beam="1">  1       21 0.25411747E+00 0.12994032E+03</pdfrwt>
<pdfrwt beam="2">  1        4 0.63796713E-03 0.12994032E+03</pdfrwt>
<totfact> 0.15389802E+04</totfact>
</mgrwt>
</event>
<event>
 6    3  0.7601760E-003  0.1266498E+03  0.7818608E-02  0.1232513E+00
         21   -1    0    0  501  502  0.00000000000E+00  0.00000000000E+00  0.12655794664E+03  0.12655794664E+03  0.00000000000E+00 0.  1.
          4   -1    0    0  502    0 -0.00000000000E+00 -0.00000000000E+00 -0.52408314333E+02  0.52423699900E+02  0.12700000000E+01 0.  1.
         25    2    1    2    0    0  0.13989909256E+02  0.14832388922E+02  0.29734203465E+02  0.13009340111E+03  0.12499781132E+03 0.  0.
    9000005    1    3    3    0    0  0.19112588782E+02  0.22605164181E+02 -0.45493262813E+02  0.54285554791E+02  0.10000000000E+01 0.  0.
    9000005    1    3    3    0    0 -0.51226795256E+01 -0.77727752583E+01  0.75227466278E+02  0.75807846318E+02  0.10000000000E+01 0.  0.
          4    1    1    2  501    0 -0.13989909256E+02 -0.14832388922E+02  0.44415428839E+02  0.48888245428E+02  0.12700000000E+01 0. -1.
<mgrwt>
<rscale>  1 0.12664979E+03</rscale>
<asrwt>0</asrwt>
<pdfrwt beam="1">  1       21 0.19470453E-01 0.12664979E+03</pdfrwt>
<pdfrwt beam="2">  1        4 0.80644913E-02 0.12664979E+03</pdfrwt>
<totfact> 0.10569285E+05</totfact>
</mgrwt>
</event>
<event>
 6    3  0.7601760E-003  0.1314900E+03  0.7818608E-02  0.1225261E+00
         -4   -1    0    0    0  501 -0.00000000000E+00  0.00000000000E+00  0.21603146668E+02  0.21640444680E+02  0.12700000000E+01 0.  1.
         21   -1    0    0  501  502  0.00000000000E+00 -0.00000000000E+00 -0.78470819511E+03  0.78470819511E+03  0.00000000000E+00 0.  1.
         25    2    1    2    0    0 -0.23560154388E+02 -0.33270041318E+02 -0.18588994360E+03  0.22769428123E+03  0.12501055175E+03 0.  0.
    9000005    1    3    3    0    0 -0.50012464543E+02 -0.10363131423E+02 -0.14979463221E+02  0.53235565376E+02  0.10000000000E+01 0.  0.
    9000005    1    3    3    0    0  0.26452310155E+02 -0.22906909895E+02 -0.17091048038E+03  0.17445871585E+03  0.10000000000E+01 0.  0.
         -4    1    1    2    0  502  0.23560154388E+02  0.33270041318E+02 -0.57721510484E+03  0.57865435856E+03  0.12700000000E+01 0. -1.
<mgrwt>
<rscale>  1 0.13148998E+03</rscale>
<asrwt>0</asrwt>
<pdfrwt beam="2">  1       21 0.12072433E+00 0.13148998E+03</pdfrwt>
<pdfrwt beam="1">  1       -4 0.33265094E-02 0.13148998E+03</pdfrwt>
<totfact> 0.98803553E+03</totfact>
</mgrwt>
</event>
<event>
 6    3  0.7601760E-003  0.1276945E+03  0.7818608E-02  0.1230917E+00
         -4   -1    0    0    0  501 -0.00000000000E+00  0.00000000000E+00  0.76331132709E+03  0.76331238360E+03  0.12700000000E+01 0. -1.
         21   -1    0    0  501  502  0.00000000000E+00 -0.00000000000E+00 -0.16311202913E+02  0.16311202913E+02  0.00000000000E+00 0.  1.
         25    2    1    2    0    0 -0.21463339509E+02 -0.14838047616E+02  0.74214735113E+03  0.75305283368E+03  0.12500014767E+03 0.  0.
    9000005    1    3    3    0    0 -0.73065840818E+01  0.52683308709E+02  0.43562048779E+03  0.43885661276E+03  0.10000000000E+01 0.  0.
    9000005    1    3    3    0    0 -0.14156755427E+02 -0.67521356325E+02  0.30652686335E+03  0.31419622092E+03  0.10000000000E+01 0.  0.
         -4    1    1    2    0  502  0.21463339509E+02  0.14838047616E+02  0.48527730371E+01  0.26570752832E+02  0.12700000000E+01 0.  1.
<mgrwt>
<rscale>  1 0.12769448E+03</rscale>
<asrwt>0</asrwt>
<pdfrwt beam="2">  1       21 0.25094164E-02 0.12769448E+03</pdfrwt>
<pdfrwt beam="1">  1       -4 0.11743637E+00 0.12769448E+03</pdfrwt>
<totfact> 0.20047636E+04</totfact>
</mgrwt>
</event>
<event>
 6    3  0.7601760E-003  0.1282635E+03  0.7818608E-02  0.1230055E+00
          4   -1    0    0  502    0 -0.00000000000E+00  0.00000000000E+00  0.11884472721E+03  0.11885151276E+03  0.12700000000E+01 0.  1.
         21   -1    0    0  501  502  0.00000000000E+00 -0.00000000000E+00 -0.53744396271E+02  0.53744396271E+02  0.00000000000E+00 0. -1.
         25    2    1    2    0    0  0.15713877139E+02 -0.24079357208E+02  0.65047190967E+02  0.14381471548E+03  0.12499917583E+03 0.  0.
    9000005    1    3    3    0    0 -0.82005766236E+01  0.47396365958E+02  0.44861872357E+02  0.65781855814E+02  0.10000000000E+01 0.  0.
    9000005    1    3    3    0    0  0.23914453762E+02 -0.71475723166E+02  0.20185318610E+02  0.78032859670E+02  0.10000000000E+01 0.  0.
          4    1    1    2  501    0 -0.15713877139E+02  0.24079357208E+02  0.53139974385E-01  0.28781193550E+02  0.12700000000E+01 0. -1.
<mgrwt>
<rscale>  1 0.12826354E+03</rscale>
<asrwt>0</asrwt>
<pdfrwt beam="2">  1       21 0.82683687E-02 0.12826354E+03</pdfrwt>
<pdfrwt beam="1">  1        4 0.18285480E-01 0.12826354E+03</pdfrwt>
<totfact> 0.11978083E+05</totfact>
</mgrwt>
</event>
<event>
 6    3  0.7601760E-003  0.1278750E+03  0.7818608E-02  0.1230643E+00
         21   -1    0    0  501  502  0.00000000000E+00  0.00000000000E+00  0.30505063522E+03  0.30505063522E+03  0.00000000000E+00 0.  1.
         -4   -1    0    0    0  501 -0.00000000000E+00 -0.00000000000E+00 -0.22234609882E+02  0.22270850379E+02  0.12700000000E+01 0.  1.
         25    2    1    2    0    0  0.47998974574E+01 -0.26543648710E+02  0.17856830513E+03  0.21963302582E+03  0.12499768849E+03 0.  0.
    9000005    1    3    3    0    0 -0.39825133121E+01  0.50011050089E+02  0.59941886144E+02  0.78172854993E+02  0.10000000000E+01 0.  0.
    9000005    1    3    3    0    0  0.87824107695E+01 -0.76554698800E+02  0.11862641899E+03  0.14146017082E+03  0.10000000000E+01 0.  0.
         -4    1    1    2    0  502 -0.47998974574E+01  0.26543648710E+02  0.10424772020E+03  0.10768845978E+03  0.12700000000E+01 0. -1.
<mgrwt>
<rscale>  1 0.12787504E+03</rscale>
<asrwt>0</asrwt>
<pdfrwt beam="1">  1       21 0.46930864E-01 0.12787504E+03</pdfrwt>
<pdfrwt beam="2">  1       -4 0.34237005E-02 0.12787504E+03</pdfrwt>
<totfact> 0.76779901E+04</totfact>
</mgrwt>
</event>
<event>
 6    3  0.7601760E-003  0.1267442E+03  0.7818608E-02  0.1232368E+00
          4   -1    0    0  502    0 -0.00000000000E+00  0.00000000000E+00  0.31964090810E+02  0.31989310735E+02  0.12700000000E+01 0. -1.
         21   -1    0    0  501  502  0.00000000000E+00 -0.00000000000E+00 -0.18314612185E+03  0.18314612185E+03  0.00000000000E+00 0. -1.
         25    2    1    2    0    0 -0.13030937428E+02 -0.16420100221E+02 -0.10568548659E+03  0.16502581796E+03  0.12499869397E+03 0.  0.
    9000005    1    3    3    0    0 -0.35853889625E+02  0.39341083946E+02 -0.13550750263E+02  0.54934917129E+02  0.10000000000E+01 0.  0.
    9000005    1    3    3    0    0  0.22822952198E+02 -0.55761184166E+02 -0.92134736331E+02  0.11009090083E+03  0.10000000000E+01 0.  0.
          4    1    1    2  501    0  0.13030937428E+02  0.16420100221E+02 -0.45496544442E+02  0.50109614623E+02  0.12700000000E+01 0.  1.
<mgrwt>
<rscale>  1 0.12674422E+03</rscale>
<asrwt>0</asrwt>
<pdfrwt beam="2">  1       21 0.28176327E-01 0.12674422E+03</pdfrwt>
<pdfrwt beam="1">  1        4 0.49198311E-02 0.12674422E+03</pdfrwt>
<totfact> 0.11811236E+05</totfact>
</mgrwt>
</event>
<event>
 6    3  0.7601760E-003  0.1277281E+03  0.7818608E-02  0.1230866E+00
         21   -1    0    0  501  502  0.00000000000E+00  0.00000000000E+00  0.25542156533E+02  0.25542156533E+02  0.00000000000E+00 0. -1.
         -4   -1    0    0    0  501 -0.00000000000E+00 -0.00000000000E+00 -0.23477902104E+03  0.23478245595E+03  0.12700000000E+01 0. -1.
         25    2    1    2    0    0  0.15889677409E+02  0.20876466120E+02 -0.18328003280E+03  0.22339659198E+03  0.12500463271E+03 0.  0.
    9000005    1    3    3    0    0 -0.27305535270E+02  0.41410542630E+02 -0.20410892713E+02  0.53647272425E+02  0.10000000000E+01 0.  0.
    9000005    1    3    3    0    0  0.43195212679E+02 -0.20534076509E+02 -0.16286914009E+03  0.16974931956E+03  0.10000000000E+01 0.  0.
         -4    1    1    2    0  502 -0.15889677409E+02 -0.20876466120E+02 -0.25956831709E+02  0.36928020502E+02  0.12700000000E+01 0.  1.
<mgrwt>
<rscale>  1 0.12772810E+03</rscale>
<asrwt>0</asrwt>
<pdfrwt beam="1">  1       21 0.39295626E-02 0.12772810E+03</pdfrwt>
<pdfrwt beam="2">  1       -4 0.36122542E-01 0.12772810E+03</pdfrwt>
<totfact> 0.11934718E+05</totfact>
</mgrwt>
</event>
<event>
 6    3  0.7601760E-003  0.1266153E+03  0.7818608E-02  0.1232566E+00
         21   -1    0    0  501  502  0.00000000000E+00  0.00000000000E+00  0.99414759419E+01  0.99414759419E+01  0.00000000000E+00 0.  1.
          4   -1    0    0  502    0 -0.00000000000E+00 -0.00000000000E+00 -0.58058525955E+03  0.58058664858E+03  0.12700000000E+01 0. -1.
         25    2    1    2    0    0  0.89624629836E+01 -0.18119718207E+02 -0.53243293190E+03  0.54728078912E+03  0.12499114065E+03 0.  0.
    9000005    1    3    3    0    0  0.26290346909E+02  0.25149131963E+02 -0.46181621274E+02  0.58799688116E+02  0.10000000000E+01 0.  0.
    9000005    1    3    3    0    0 -0.17327883925E+02 -0.43268850170E+02 -0.48625131062E+03  0.48848110100E+03  0.10000000000E+01 0.  0.
          4    1    1    2  501    0 -0.89624629836E+01  0.18119718207E+02 -0.38210851715E+02  0.43247335403E+02  0.12700000000E+01 0.  1.
<mgrwt>
<rscale>  1 0.12661530E+03</rscale>
<asrwt>0</asrwt>
<pdfrwt beam="1">  1       21 0.15294578E-02 0.12661530E+03</pdfrwt>
<pdfrwt beam="2">  1        4 0.89327160E-01 0.12661530E+03</pdfrwt>
<totfact> 0.83888990E+04</totfact>
</mgrwt>
</event>
<event>
 6    3  0.7601760E-003  0.1329269E+03  0.7818608E-02  0.1223176E+00
         21   -1    0    0  501  502  0.00000000000E+00  0.00000000000E+00  0.34865107089E+03  0.34865107089E+03  0.00000000000E+00 0. -1.
          4   -1    0    0  502    0 -0.00000000000E+00 -0.00000000000E+00 -0.35202804583E+02  0.35225705820E+02  0.12700000000E+01 0.  1.
         25    2    1    2    0    0  0.42475378765E+02 -0.15512323127E+02  0.10175115506E+03  0.16740028888E+03  0.12499907677E+03 0.  0.
    9000005    1    3    3    0    0  0.35960711140E+02  0.21696804231E+02  0.11875170249E+03  0.12596384760E+03  0.10000000000E+01 0.  0.
    9000005    1    3    3    0    0  0.65146676250E+01 -0.37209127357E+02 -0.17000547430E+02  0.41436441279E+02  0.10000000000E+01 0.  0.
          4    1    1    2  501    0 -0.42475378765E+02  0.15512323127E+02  0.21169711126E+03  0.21647648783E+03  0.12700000000E+01 0. -1.
<mgrwt>
<rscale>  1 0.13292689E+03</rscale>
<asrwt>0</asrwt>
<pdfrwt beam="1">  1       21 0.53638624E-01 0.13292689E+03</pdfrwt>
<pdfrwt beam="2">  1        4 0.54177559E-02 0.13292689E+03</pdfrwt>
<totfact> 0.28161067E+04</totfact>
</mgrwt>
</event>
<event>
 6    3  0.7601760E-003  0.1269518E+03  0.7818608E-02  0.1232050E+00
          4   -1    0    0  502    0 -0.00000000000E+00  0.00000000000E+00  0.26672281215E+01  0.29541506143E+01  0.12700000000E+01 0. -1.
         21   -1    0    0  501  502  0.00000000000E+00 -0.00000000000E+00 -0.21370242547E+04  0.21370242547E+04  0.00000000000E+00 0. -1.
         25    2    1    2    0    0  0.68705784181E+01  0.21096819198E+02 -0.15466993816E+04  0.15519006883E+04  0.12499795489E+03 0.  0.
    9000005    1    3    3    0    0 -0.39125566071E+02 -0.30386097172E+01 -0.18075676271E+03  0.18497040395E+03  0.10000000000E+01 0.  0.
    9000005    1    3    3    0    0  0.45996144489E+02  0.24135428915E+02 -0.13659426189E+04  0.13669302844E+04  0.10000000000E+01 0.  0.
          4    1    1    2  501    0 -0.68705784181E+01 -0.21096819198E+02 -0.58765764490E+03  0.58807771692E+03  0.12700000000E+01 0.  1.
<mgrwt>
<rscale>  1 0.12695184E+03</rscale>
<asrwt>0</asrwt>
<pdfrwt beam="2">  1       21 0.32877354E+00 0.12695184E+03</pdfrwt>
<pdfrwt beam="1">  1        4 0.43244201E-03 0.12695184E+03</pdfrwt>
<totfact> 0.10378387E+04</totfact>
</mgrwt>
</event>
<event>
 6    3  0.7601760E-003  0.1326423E+03  0.7818608E-02  0.1223587E+00
          4   -1    0    0  502    0 -0.00000000000E+00  0.00000000000E+00  0.14704819271E+03  0.14705367686E+03  0.12700000000E+01 0.  1.
         21   -1    0    0  501  502  0.00000000000E+00 -0.00000000000E+00 -0.64318115319E+02  0.64318115319E+02  0.00000000000E+00 0. -1.
         25    2    1    2    0    0 -0.54672953525E+01 -0.44033154129E+02  0.97464879963E+02  0.16460067622E+03  0.12500067922E+03 0.  0.
    9000005    1    3    3    0    0  0.19519118528E+01 -0.23107137729E+02  0.12617572937E+03  0.12829288544E+03  0.10000000000E+01 0.  0.
    9000005    1    3    3    0    0 -0.74192072053E+01 -0.20926016400E+02 -0.28710849404E+02  0.36307790782E+02  0.10000000000E+01 0.  0.
          4    1    1    2  501    0  0.54672953525E+01  0.44033154129E+02 -0.14734802572E+02  0.46771115957E+02  0.12700000000E+01 0. -1.
<mgrwt>
<rscale>  1 0.13264230E+03</rscale>
<asrwt>0</asrwt>
<pdfrwt beam="2">  1       21 0.98950947E-02 0.13264230E+03</pdfrwt>
<pdfrwt beam="1">  1        4 0.22624185E-01 0.13264230E+03</pdfrwt>
<totfact> 0.60022267E+04</totfact>
</mgrwt>
</event>
<event>
 6    3  0.7601760E-003  0.1309858E+03  0.7818608E-02  0.1226000E+00
         21   -1    0    0  501  502  0.00000000000E+00  0.00000000000E+00  0.16422342086E+03  0.16422342086E+03  0.00000000000E+00 0.  1.
         -4   -1    0    0    0  501 -0.00000000000E+00 -0.00000000000E+00 -0.46023481067E+02  0.46041000309E+02  0.12700000000E+01 0.  1.
         25    2    1    2    0    0 -0.33041605601E+02 -0.20977015916E+02  0.71189591827E+02  0.14908134660E+03  0.12500202808E+03 0.  0.
    9000005    1    3    3    0    0  0.47080294168E+02 -0.17223067395E+02  0.34557854617E+02  0.60896908503E+02  0.10000000000E+01 0.  0.
    9000005    1    3    3    0    0 -0.80121899769E+02 -0.37539485214E+01  0.36631737209E+02  0.88184438100E+02  0.10000000000E+01 0.  0.
         -4    1    1    2    0  502  0.33041605601E+02  0.20977015916E+02  0.47010347968E+02  0.61183074567E+02  0.12700000000E+01 0. -1.
<mgrwt>
<rscale>  1 0.13098584E+03</rscale>
<asrwt>0</asrwt>
<pdfrwt beam="1">  1       21 0.25265141E-01 0.13098584E+03</pdfrwt>
<pdfrwt beam="2">  1       -4 0.70822610E-02 0.13098584E+03</pdfrwt>
<totfact> 0.80850893E+04</totfact>
</mgrwt>
</event>
<event>
 6    3  0.7601760E-003  0.1270083E+03  0.7818608E-02  0.1231964E+00
          4   -1    0    0  502    0 -0.00000000000E+00  0.00000000000E+00  0.84528452640E+01  0.85477185878E+01  0.12700000000E+01 0. -1.
         21   -1    0    0  501  502  0.00000000000E+00 -0.00000000000E+00 -0.11769924691E+04  0.11769924691E+04  0.00000000000E+00 0.  1.
         25    2    1    2    0    0 -0.22397754696E+02 -0.22639114076E+01 -0.47658710230E+03  0.49322039910E+03  0.12499724517E+03 0.  0.
    9000005    1    3    3    0    0 -0.21006321102E+02 -0.25807395686E+02 -0.46627263217E+03  0.46745957548E+03  0.10000000000E+01 0.  0.
    9000005    1    3    3    0    0 -0.13914335943E+01  0.23543484278E+02 -0.10314470129E+02  0.25760823618E+02  0.10000000000E+01 0.  0.
          4    1    1    2  501    0  0.22397754696E+02  0.22639114076E+01 -0.69195252158E+03  0.69231978863E+03  0.12700000000E+01 0.  1.
<mgrwt>
<rscale>  1 0.12700825E+03</rscale>
<asrwt>0</asrwt>
<pdfrwt beam="2">  1       21 0.18107568E+00 0.12700825E+03</pdfrwt>
<pdfrwt beam="1">  1        4 0.13077890E-02 0.12700825E+03</pdfrwt>
<totfact> 0.14566424E+04</totfact>
</mgrwt>
</event>
<event>
 6    3  0.7601760E-003  0.1308352E+03  0.7818608E-02  0.1226222E+00
         -4   -1    0    0    0  501 -0.00000000000E+00  0.00000000000E+00  0.60442447736E+03  0.60442581160E+03  0.12700000000E+01 0.  1.
         21   -1    0    0  501  502  0.00000000000E+00 -0.00000000000E+00 -0.16382928684E+02  0.16382928684E+02  0.00000000000E+00 0. -1.
         25    2    1    2    0    0 -0.38010689891E+02 -0.69116041338E+01  0.55419632911E+03  0.56943078193E+03  0.12500104556E+03 0.  0.
    9000005    1    3    3    0    0  0.41251609397E+02 -0.82908402764E+01  0.10208534123E+03  0.11042123983E+03  0.10000000000E+01 0.  0.
    9000005    1    3    3    0    0 -0.79262299287E+02  0.13792361426E+01  0.45211098788E+03  0.45900954210E+03  0.10000000000E+01 0.  0.
         -4    1    1    2    0  502  0.38010689891E+02  0.69116041338E+01  0.33845219567E+02  0.51377958360E+02  0.12700000000E+01 0. -1.
<mgrwt>
<rscale>  1 0.13083518E+03</rscale>
<asrwt>0</asrwt>
<pdfrwt beam="2">  1       21 0.25204510E-02 0.13083518E+03</pdfrwt>
<pdfrwt beam="1">  1       -4 0.92992253E-01 0.13083518E+03</pdfrwt>
<totfact> 0.34380235E+04</totfact>
</mgrwt>
</event>
<event>
 6    3  0.7601760E-003  0.1290696E+03  0.7818608E-02  0.1228843E+00
          4   -1    0    0  502    0 -0.00000000000E+00  0.00000000000E+00  0.28167434510E+02  0.28196050554E+02  0.12700000000E+01 0. -1.
         21   -1    0    0  501  502  0.00000000000E+00 -0.00000000000E+00 -0.23674050246E+03  0.23674050246E+03  0.00000000000E+00 0. -1.
         25    2    1    2    0    0 -0.93890792684E+01  0.30753369734E+02 -0.14821957407E+03  0.19654004957E+03  0.12500009756E+03 0.  0.
    9000005    1    3    3    0    0  0.56788531741E+02  0.33061488427E+01 -0.74470190247E+02  0.93715938841E+02  0.10000000000E+01 0.  0.
    9000005    1    3    3    0    0 -0.66177611009E+02  0.27447220891E+02 -0.73749383822E+02  0.10282411073E+03  0.10000000000E+01 0.  0.
          4    1    1    2  501    0  0.93890792684E+01 -0.30753369734E+02 -0.60353493886E+02  0.68396503447E+02  0.12700000000E+01 0.  1.
<mgrwt>
<rscale>  1 0.12906955E+03</rscale>
<asrwt>0</asrwt>
<pdfrwt beam="2">  1       21 0.36421615E-01 0.12906955E+03</pdfrwt>
<pdfrwt beam="1">  1        4 0.43359148E-02 0.12906955E+03</pdfrwt>
<totfact> 0.87984019E+04</totfact>
</mgrwt>
</event>
<event>
 6    3  0.7601760E-003  0.1294566E+03  0.7818608E-02  0.1228264E+00
         21   -1    0    0  501  502  0.00000000000E+00  0.00000000000E+00  0.33656068210E+02  0.33656068210E+02  0.00000000000E+00 0.  1.
         -4   -1    0    0    0  501 -0.00000000000E+00 -0.00000000000E+00 -0.23471907824E+03  0.23472251403E+03  0.12700000000E+01 0.  1.
         25    2    1    2    0    0 -0.86014736722E+01 -0.32558425706E+02 -0.19511901287E+03  0.23415899083E+03  0.12499986948E+03 0.  0.
    9000005    1    3    3    0    0  0.35543388056E+02  0.34242642478E+02 -0.72642218381E+02  0.87828144064E+02  0.10000000000E+01 0.  0.
    9000005    1    3    3    0    0 -0.44144861728E+02 -0.66801068184E+02 -0.12247679449E+03  0.14633084677E+03  0.10000000000E+01 0.  0.
         -4    1    1    2    0  502  0.86014736722E+01  0.32558425706E+02 -0.59439971647E+01  0.34219591407E+02  0.12700000000E+01 0. -1.
<mgrwt>
<rscale>  1 0.12945657E+03</rscale>
<asrwt>0</asrwt>
<pdfrwt beam="1">  1       21 0.51778567E-02 0.12945657E+03</pdfrwt>
<pdfrwt beam="2">  1       -4 0.36112735E-01 0.12945657E+03</pdfrwt>
<totfact> 0.75460159E+04</totfact>
</mgrwt>
</event>
<event>
 6    3  0.7601760E-003  0.1319789E+03  0.7818608E-02  0.1224549E+00
         21   -1    0    0  501  502  0.00000000000E+00  0.00000000000E+00  0.37890765794E+03  0.37890765794E+03  0.00000000000E+00 0.  1.
         -4   -1    0    0    0  501 -0.00000000000E+00 -0.00000000000E+00 -0.36430638268E+02  0.36452768134E+02  0.12700000000E+01 0. -1.
         25    2    1    2    0    0 -0.40122218554E+02  0.13708092556E+02  0.90950810179E+02  0.16028249448E+03  0.12498289460E+03 0.  0.
    9000005    1    3    3    0    0 -0.10074000478E+02 -0.70482727635E+01  0.11557079000E+03  0.11622723921E+03  0.10000000000E+01 0.  0.
    9000005    1    3    3    0    0 -0.30048218076E+02  0.20756365320E+02 -0.24619979816E+02  0.44055255271E+02  0.10000000000E+01 0.  0.
         -4    1    1    2    0  502  0.40122218554E+02 -0.13708092556E+02  0.25152620949E+03  0.25507793159E+03  0.12700000000E+01 0.  1.
<mgrwt>
<rscale>  1 0.13197889E+03</rscale>
<asrwt>0</asrwt>
<pdfrwt beam="1">  1       21 0.58293483E-01 0.13197889E+03</pdfrwt>
<pdfrwt beam="2">  1       -4 0.56065798E-02 0.13197889E+03</pdfrwt>
<totfact> 0.22356564E+04</totfact>
</mgrwt>
</event>
<event>
 6    3  0.7601760E-003  0.1299090E+03  0.7818608E-02  0.1227591E+00
         -4   -1    0    0    0  501 -0.00000000000E+00  0.00000000000E+00  0.27199108094E+03  0.27199404591E+03  0.12700000000E+01 0. -1.
         21   -1    0    0  501  502  0.00000000000E+00 -0.00000000000E+00 -0.13592509195E+03  0.13592509195E+03  0.00000000000E+00 0.  1.
         25    2    1    2    0    0  0.14695995406E+02  0.32194808260E+02  0.25372373183E+03  0.28504751661E+03  0.12499550659E+03 0.  0.
    9000005    1    3    3    0    0  0.11885094262E+02  0.65037066363E+02  0.62447276697E+02  0.90949094738E+02  0.10000000000E+01 0.  0.
    9000005    1    3    3    0    0  0.28109011441E+01 -0.32842258103E+02  0.19127645514E+03  0.19409842187E+03  0.10000000000E+01 0.  0.
         -4    1    1    2    0  502 -0.14695995406E+02 -0.32194808260E+02 -0.11765774284E+03  0.12287162126E+03  0.12700000000E+01 0.  1.
<mgrwt>
<rscale>  1 0.12990902E+03</rscale>
<asrwt>0</asrwt>
<pdfrwt beam="2">  1       21 0.20911553E-01 0.12990902E+03</pdfrwt>
<pdfrwt beam="1">  1       -4 0.41845466E-01 0.12990902E+03</pdfrwt>
<totfact> 0.48535759E+03</totfact>
</mgrwt>
</event>
<event>
 6    3  0.7601760E-003  0.1266009E+03  0.7818608E-02  0.1232588E+00
         21   -1    0    0  501  502  0.00000000000E+00  0.00000000000E+00  0.62582948570E+02  0.62582948570E+02  0.00000000000E+00 0. -1.
         -4   -1    0    0    0  501 -0.00000000000E+00 -0.00000000000E+00 -0.99200415312E+03  0.99200496607E+03  0.12700000000E+01 0.  1.
         25    2    1    2    0    0  0.10491280269E+02  0.17112064632E+02 -0.98623071983E+03  0.99432330110E+03  0.12499961861E+03 0.  0.
    9000005    1    3    3    0    0 -0.20707054644E+02  0.96994500842E+01 -0.92423356620E+03  0.92451692593E+03  0.10000000000E+01 0.  0.
    9000005    1    3    3    0    0  0.31198334913E+02  0.74126145474E+01 -0.61997153634E+02  0.69806375171E+02  0.10000000000E+01 0.  0.
         -4    1    1    2    0  502 -0.10491280269E+02 -0.17112064632E+02  0.56809515286E+02  0.60264613536E+02  0.12700000000E+01 0. -1.
<mgrwt>
<rscale>  1 0.12660093E+03</rscale>
<asrwt>0</asrwt>
<pdfrwt beam="1">  1       21 0.96281463E-02 0.12660093E+03</pdfrwt>
<pdfrwt beam="2">  1       -4 0.15261707E+00 0.12660093E+03</pdfrwt>
<totfact> 0.10963391E+03</totfact>
</mgrwt>
</event>
<event>
 6    3  0.7601760E-003  0.1353729E+03  0.7818608E-02  0.1219694E+00
         21   -1    0    0  501  502  0.00000000000E+00  0.00000000000E+00  0.59571210913E+02  0.59571210913E+02  0.00000000000E+00 0.  1.
          4   -1    0    0  502    0 -0.00000000000E+00 -0.00000000000E+00 -0.84602679584E+03  0.84602774906E+03  0.12700000000E+01 0. -1.
         25    2    1    2    0    0  0.34176950252E+02  0.39162280069E+02 -0.82803267203E+03  0.83902557804E+03  0.12499626613E+03 0.  0.
    9000005    1    3    3    0    0  0.79663786953E+02  0.37598423478E+02 -0.47867088842E+03  0.48671015997E+03  0.10000000000E+01 0.  0.
    9000005    1    3    3    0    0 -0.45486836701E+02  0.15638565908E+01 -0.34936178362E+03  0.35231541807E+03  0.10000000000E+01 0.  0.
          4    1    1    2  501    0 -0.34176950252E+02 -0.39162280069E+02  0.41577087110E+02  0.66573381927E+02  0.12700000000E+01 0.  1.
<mgrwt>
<rscale>  1 0.13537287E+03</rscale>
<asrwt>0</asrwt>
<pdfrwt beam="1">  1       21 0.91648016E-02 0.13537287E+03</pdfrwt>
<pdfrwt beam="2">  1        4 0.13015908E+00 0.13537287E+03</pdfrwt>
<totfact> 0.17837480E+03</totfact>
</mgrwt>
</event>
<event>
 6    3  0.7601760E-003  0.1332635E+03  0.7818608E-02  0.1222692E+00
         -4   -1    0    0    0  501 -0.00000000000E+00  0.00000000000E+00  0.21700502448E+02  0.21737633415E+02  0.12700000000E+01 0. -1.
         21   -1    0    0  501  502  0.00000000000E+00 -0.00000000000E+00 -0.65318134301E+03  0.65318134301E+03  0.00000000000E+00 0.  1.
         25    2    1    2    0    0  0.12493694712E+02 -0.44493216681E+02 -0.19613152705E+03  0.23712179004E+03  0.12499371451E+03 0.  0.
    9000005    1    3    3    0    0  0.49443901603E+02 -0.71806169768E+02 -0.12369287819E+03  0.15133325324E+03  0.10000000000E+01 0.  0.
    9000005    1    3    3    0    0 -0.36950206892E+02  0.27312953088E+02 -0.72438648864E+02  0.85788536792E+02  0.10000000000E+01 0.  0.
         -4    1    1    2    0  502 -0.12493694712E+02  0.44493216681E+02 -0.43534931351E+03  0.43779718639E+03  0.12700000000E+01 0.  1.
<mgrwt>
<rscale>  1 0.13326353E+03</rscale>
<asrwt>0</asrwt>
<pdfrwt beam="2">  1       21 0.10048942E+00 0.13326353E+03</pdfrwt>
<pdfrwt beam="1">  1       -4 0.33414907E-02 0.13326353E+03</pdfrwt>
<totfact> 0.15231954E+04</totfact>
</mgrwt>
</event>
<event>
 6    3  0.7601760E-003  0.1269990E+03  0.7818608E-02  0.1231978E+00
         21   -1    0    0  501  502  0.00000000000E+00  0.00000000000E+00  0.86134520304E+02  0.86134520304E+02  0.00000000000E+00 0. -1.
         -4   -1    0    0    0  501 -0.00000000000E+00 -0.00000000000E+00 -0.70003543548E+02  0.70015062731E+02  0.12700000000E+01 0. -1.
         25    2    1    2    0    0  0.89186814232E+01  0.20585638739E+02 -0.24029571333E+01  0.12702174401E+03  0.12500175138E+03 0.  0.
    9000005    1    3    3    0    0  0.35572742309E+02  0.25327977202E+01 -0.54875219883E+02  0.65453226176E+02  0.10000000000E+01 0.  0.
    9000005    1    3    3    0    0 -0.26654060886E+02  0.18052841019E+02  0.52472262750E+02  0.61568517837E+02  0.10000000000E+01 0.  0.
         -4    1    1    2    0  502 -0.89186814232E+01 -0.20585638739E+02  0.18533933890E+02  0.29127839022E+02  0.12700000000E+01 0.  1.
<mgrwt>
<rscale>  1 0.12699901E+03</rscale>
<asrwt>0</asrwt>
<pdfrwt beam="1">  1       21 0.13251465E-01 0.12699901E+03</pdfrwt>
<pdfrwt beam="2">  1       -4 0.10771382E-01 0.12699901E+03</pdfrwt>
<totfact> 0.13085211E+05</totfact>
</mgrwt>
</event>
<event>
 6    3  0.7601760E-003  0.1272871E+03  0.7818608E-02  0.1231538E+00
          4   -1    0    0  502    0 -0.00000000000E+00  0.00000000000E+00  0.26184924777E+02  0.26215704941E+02  0.12700000000E+01 0. -1.
         21   -1    0    0  501  502  0.00000000000E+00 -0.00000000000E+00 -0.21995193198E+03  0.21995193198E+03  0.00000000000E+00 0. -1.
         25    2    1    2    0    0  0.41127514835E+01  0.23671602480E+02 -0.15533532729E+03  0.20082597386E+03  0.12499899352E+03 0.  0.
    9000005    1    3    3    0    0  0.19040086201E+02 -0.46035095555E+02 -0.34772589698E+02  0.60760907660E+02  0.10000000000E+01 0.  0.
    9000005    1    3    3    0    0 -0.14927334718E+02  0.69706698035E+02 -0.12056273759E+03  0.14006506620E+03  0.10000000000E+01 0.  0.
          4    1    1    2  501    0 -0.41127514835E+01 -0.23671602480E+02 -0.38431679915E+02  0.45341663069E+02  0.12700000000E+01 0.  1.
<mgrwt>
<rscale>  1 0.12728711E+03</rscale>
<asrwt>0</asrwt>
<pdfrwt beam="2">  1       21 0.33838760E-01 0.12728711E+03</pdfrwt>
<pdfrwt beam="1">  1        4 0.40310996E-02 0.12728711E+03</pdfrwt>
<totfact> 0.11395014E+05</totfact>
</mgrwt>
</event>
<event>
 6    3  0.7601760E-003  0.1271207E+03  0.7818608E-02  0.1231792E+00
          4   -1    0    0  502    0 -0.00000000000E+00  0.00000000000E+00  0.82002978479E+03  0.82003076823E+03  0.12700000000E+01 0.  1.
         21   -1    0    0  501  502  0.00000000000E+00 -0.00000000000E+00 -0.13648860011E+02  0.13648860011E+02  0.00000000000E+00 0. -1.
         25    2    1    2    0    0 -0.40369055953E+01  0.22764451383E+02  0.79947340084E+03  0.80951677161E+03  0.12500067207E+03 0.  0.
    9000005    1    3    3    0    0  0.14739911387E+02 -0.48444317836E+02  0.41245528136E+03  0.41555321685E+03  0.10000000000E+01 0.  0.
    9000005    1    3    3    0    0 -0.18776816982E+02  0.71208769219E+02  0.38701811948E+03  0.39396355475E+03  0.10000000000E+01 0.  0.
          4    1    1    2  501    0  0.40369055953E+01 -0.22764451383E+02  0.69075239410E+01  0.24162856631E+02  0.12700000000E+01 0. -1.
<mgrwt>
<rscale>  1 0.12712075E+03</rscale>
<asrwt>0</asrwt>
<pdfrwt beam="2">  1       21 0.20998253E-02 0.12712075E+03</pdfrwt>
<pdfrwt beam="1">  1        4 0.12616301E+00 0.12712075E+03</pdfrwt>
<totfact> 0.22507014E+04</totfact>
</mgrwt>
</event>
<event>
 6    3  0.7601760E-003  0.1277405E+03  0.7818608E-02  0.1230848E+00
         21   -1    0    0  501  502  0.00000000000E+00  0.00000000000E+00  0.35407441328E+02  0.35407441328E+02  0.00000000000E+00 0.  1.
         -4   -1    0    0    0  501 -0.00000000000E+00 -0.00000000000E+00 -0.28046670086E+03  0.28046957623E+03  0.12700000000E+01 0. -1.
         25    2    1    2    0    0  0.17725606036E+02 -0.19452256434E+02 -0.25696481146E+03  0.28696434807E+03  0.12500014139E+03 0.  0.
    9000005    1    3    3    0    0  0.44041050636E+02 -0.11783595588E+02 -0.25545643139E+03  0.25949461575E+03  0.10000000000E+01 0.  0.
    9000005    1    3    3    0    0 -0.26315444600E+02 -0.76686608460E+01 -0.15083800749E+01  0.27469732327E+02  0.10000000000E+01 0.  0.
         -4    1    1    2    0  502 -0.17725606036E+02  0.19452256434E+02  0.11905551932E+02  0.28912669481E+02  0.12700000000E+01 0.  1.
<mgrwt>
<rscale>  1 0.12774045E+03</rscale>
<asrwt>0</asrwt>
<pdfrwt beam="1">  1       21 0.54472986E-02 0.12774045E+03</pdfrwt>
<pdfrwt beam="2">  1       -4 0.43150697E-01 0.12774045E+03</pdfrwt>
<totfact> 0.48765114E+04</totfact>
</mgrwt>
</event>
<event>
 6    3  0.7601760E-003  0.1271298E+03  0.7818608E-02  0.1231778E+00
         -4   -1    0    0    0  501 -0.00000000000E+00  0.00000000000E+00  0.16634115459E+02  0.16682526700E+02  0.12700000000E+01 0. -1.
         21   -1    0    0  501  502  0.00000000000E+00 -0.00000000000E+00 -0.39143671697E+03  0.39143671697E+03  0.00000000000E+00 0. -1.
         25    2    1    2    0    0 -0.53165889764E+01 -0.22564800701E+02 -0.24258460285E+03  0.27387823496E+03  0.12499824677E+03 0.  0.
    9000005    1    3    3    0    0  0.26354959274E+02 -0.45411206324E+02 -0.22498430697E+03  0.23103181582E+03  0.10000000000E+01 0.  0.
    9000005    1    3    3    0    0 -0.31671548250E+02  0.22846405623E+02 -0.17600295886E+02  0.42846419147E+02  0.10000000000E+01 0.  0.
         -4    1    1    2    0  502  0.53165889764E+01  0.22564800701E+02 -0.13221799866E+03  0.13424100871E+03  0.12700000000E+01 0.  1.
<mgrwt>
<rscale>  1 0.12712985E+03</rscale>
<asrwt>0</asrwt>
<pdfrwt beam="2">  1       21 0.60221035E-01 0.12712985E+03</pdfrwt>
<pdfrwt beam="1">  1       -4 0.25629770E-02 0.12712985E+03</pdfrwt>
<totfact> 0.71793524E+04</totfact>
</mgrwt>
</event>
<event>
 6    3  0.7601760E-003  0.1284528E+03  0.7818608E-02  0.1229770E+00
         -4   -1    0    0    0  501 -0.00000000000E+00  0.00000000000E+00  0.15790114609E+02  0.15841105371E+02  0.12700000000E+01 0. -1.
         21   -1    0    0  501  502  0.00000000000E+00 -0.00000000000E+00 -0.39873712134E+03  0.39873712134E+03  0.00000000000E+00 0. -1.
         25    2    1    2    0    0 -0.26722164346E+02 -0.12692160152E+02 -0.29414133489E+03  0.32096612681E+03  0.12499985869E+03 0.  0.
    9000005    1    3    3    0    0 -0.70532265469E+02  0.20373579572E+02 -0.17549265032E+03  0.19023289288E+03  0.10000000000E+01 0.  0.
    9000005    1    3    3    0    0  0.43810101123E+02 -0.33065739725E+02 -0.11864868457E+03  0.13073323393E+03  0.10000000000E+01 0.  0.
         -4    1    1    2    0  502  0.26722164346E+02  0.12692160152E+02 -0.88805671839E+02  0.93612099899E+02  0.12700000000E+01 0.  1.
<mgrwt>
<rscale>  1 0.12845283E+03</rscale>
<asrwt>0</asrwt>
<pdfrwt beam="2">  1       21 0.61344166E-01 0.12845283E+03</pdfrwt>
<pdfrwt beam="1">  1       -4 0.24333266E-02 0.12845283E+03</pdfrwt>
<totfact> 0.74906989E+04</totfact>
</mgrwt>
</event>
<event>
 6    3  0.7601760E-003  0.1279713E+03  0.7818608E-02  0.1230497E+00
         21   -1    0    0  501  502  0.00000000000E+00  0.00000000000E+00  0.10993761863E+04  0.10993761863E+04  0.00000000000E+00 0.  1.
          4   -1    0    0  502    0 -0.00000000000E+00 -0.00000000000E+00 -0.57940953783E+01  0.59316474316E+01  0.12700000000E+01 0.  1.
         25    2    1    2    0    0 -0.22012760701E+02  0.16352422649E+02  0.76983430538E+03  0.78039830032E+03  0.12499874415E+03 0.  0.
    9000005    1    3    3    0    0 -0.40085348573E+02  0.15080216832E+02  0.83719621809E+02  0.94043730178E+02  0.10000000000E+01 0.  0.
    9000005    1    3    3    0    0  0.18072587872E+02  0.12722058166E+01  0.68611468357E+03  0.68635457014E+03  0.10000000000E+01 0.  0.
          4    1    1    2  501    0  0.22012760701E+02 -0.16352422649E+02  0.32374778552E+03  0.32490953339E+03  0.12700000000E+01 0. -1.
<mgrwt>
<rscale>  1 0.12797128E+03</rscale>
<asrwt>0</asrwt>
<pdfrwt beam="1">  1       21 0.16913463E+00 0.12797128E+03</pdfrwt>
<pdfrwt beam="2">  1        4 0.90203752E-03 0.12797128E+03</pdfrwt>
<totfact> 0.30739973E+04</totfact>
</mgrwt>
</event>
<event>
 6    3  0.7601760E-003  0.1516906E+03  0.7818608E-02  0.1198411E+00
         21   -1    0    0  501  502  0.00000000000E+00  0.00000000000E+00  0.37644350758E+02  0.37644350758E+02  0.00000000000E+00 0.  1.
          4   -1    0    0  502    0 -0.00000000000E+00 -0.00000000000E+00 -0.10654703333E+04  0.10654710902E+04  0.12700000000E+01 0. -1.
         25    2    1    2    0    0 -0.72205272227E+02 -0.46588854501E+02 -0.10019450474E+04  0.10133626783E+04  0.12500366816E+03 0.  0.
    9000005    1    3    3    0    0 -0.36054582453E+02 -0.58300119107E+02 -0.92502806110E+03  0.92756495763E+03  0.10000000000E+01 0.  0.
    9000005    1    3    3    0    0 -0.36150689774E+02  0.11711264607E+02 -0.76916986308E+02  0.85797720672E+02  0.10000000000E+01 0.  0.
          4    1    1    2  501    0  0.72205272227E+02  0.46588854501E+02 -0.25880935142E+02  0.89752762659E+02  0.12700000000E+01 0.  1.
<mgrwt>
<rscale>  1 0.15169061E+03</rscale>
<asrwt>0</asrwt>
<pdfrwt beam="1">  1       21 0.57914390E-02 0.15169061E+03</pdfrwt>
<pdfrwt beam="2">  1        4 0.16392021E+00 0.15169061E+03</pdfrwt>
<totfact> 0.21998397E+03</totfact>
</mgrwt>
</event>
<event>
 6    3  0.7601760E-003  0.1352033E+03  0.7818608E-02  0.1219933E+00
         21   -1    0    0  501  502  0.00000000000E+00  0.00000000000E+00  0.90104328363E+02  0.90104328363E+02  0.00000000000E+00 0.  1.
          4   -1    0    0  502    0 -0.00000000000E+00 -0.00000000000E+00 -0.98446291250E+02  0.98454482685E+02  0.12700000000E+01 0. -1.
         25    2    1    2    0    0 -0.51285648027E+02 -0.50108686591E+01 -0.17080059955E+02  0.13627789925E+03  0.12499844350E+03 0.  0.
    9000005    1    3    3    0    0 -0.53113211560E+02  0.29828818578E+02  0.37465100933E+02  0.71522062666E+02  0.10000000000E+01 0.  0.
    9000005    1    3    3    0    0  0.18275635338E+01 -0.34839687237E+02 -0.54545160888E+02  0.64755836583E+02  0.10000000000E+01 0.  0.
          4    1    1    2  501    0  0.51285648027E+02  0.50108686591E+01  0.87380970678E+01  0.52280911799E+02  0.12700000000E+01 0.  1.
<mgrwt>
<rscale>  1 0.13520332E+03</rscale>
<asrwt>0</asrwt>
<pdfrwt beam="1">  1       21 0.13862204E-01 0.13520332E+03</pdfrwt>
<pdfrwt beam="2">  1        4 0.15146902E-01 0.13520332E+03</pdfrwt>
<totfact> 0.67756453E+04</totfact>
</mgrwt>
</event>
<event>
 6    3  0.7601760E-003  0.1286221E+03  0.7818608E-02  0.1229515E+00
         21   -1    0    0  501  502  0.00000000000E+00  0.00000000000E+00  0.22337954378E+02  0.22337954378E+02  0.00000000000E+00 0.  1.
         -4   -1    0    0    0  501 -0.00000000000E+00 -0.00000000000E+00 -0.50729932139E+03  0.50730091108E+03  0.12700000000E+01 0. -1.
         25    2    1    2    0    0  0.18755535647E+02 -0.23855651330E+02 -0.48229316022E+03  0.49914961415E+03  0.12499113045E+03 0.  0.
    9000005    1    3    3    0    0  0.38562605366E+02  0.22625993293E+02 -0.40060342922E+03  0.40309194684E+03  0.10000000000E+01 0.  0.
    9000005    1    3    3    0    0 -0.19807069719E+02 -0.46481644623E+02 -0.81689731004E+02  0.96057667310E+02  0.10000000000E+01 0.  0.
         -4    1    1    2    0  502 -0.18755535647E+02  0.23855651330E+02 -0.26682067888E+01  0.30489251307E+02  0.12700000000E+01 0.  1.
<mgrwt>
<rscale>  1 0.12862210E+03</rscale>
<asrwt>0</asrwt>
<pdfrwt beam="1">  1       21 0.34366083E-02 0.12862210E+03</pdfrwt>
<pdfrwt beam="2">  1       -4 0.78048951E-01 0.12862210E+03</pdfrwt>
<totfact> 0.30527178E+04</totfact>
</mgrwt>
</event>
<event>
 6    3  0.7601760E-003  0.1432153E+03  0.7818608E-02  0.1209067E+00
         21   -1    0    0  501  502  0.00000000000E+00  0.00000000000E+00  0.43192779114E+03  0.43192779114E+03  0.00000000000E+00 0.  1.
          4   -1    0    0  502    0 -0.00000000000E+00 -0.00000000000E+00 -0.55910933299E+02  0.55925355272E+02  0.12700000000E+01 0. -1.
         25    2    1    2    0    0  0.73656435266E+01  0.69511565257E+02  0.45865107081E+02  0.15038032997E+03  0.12499810072E+03 0.  0.
    9000005    1    3    3    0    0  0.67892008780E+01  0.52686834285E+02 -0.37688665923E+02  0.65141624900E+02  0.10000000000E+01 0.  0.
    9000005    1    3    3    0    0  0.57644264856E+00  0.16824730971E+02  0.83553773004E+02  0.85238705068E+02  0.10000000000E+01 0.  0.
          4    1    1    2  501    0 -0.73656435266E+01 -0.69511565257E+02  0.33015175076E+03  0.33747281644E+03  0.12700000000E+01 0.  1.
<mgrwt>
<rscale>  1 0.14321535E+03</rscale>
<asrwt>0</asrwt>
<pdfrwt beam="1">  1       21 0.66450427E-01 0.14321535E+03</pdfrwt>
<pdfrwt beam="2">  1        4 0.86029353E-02 0.14321535E+03</pdfrwt>
<totfact> 0.84149575E+03</totfact>
</mgrwt>
</event>
<event>
 6    3  0.7601760E-003  0.1268958E+03  0.7818608E-02  0.1232136E+00
         -4   -1    0    0    0  501 -0.00000000000E+00  0.00000000000E+00  0.49658394579E+02  0.49674631878E+02  0.12700000000E+01 0.  1.
         21   -1    0    0  501  502  0.00000000000E+00 -0.00000000000E+00 -0.14126928874E+03  0.14126928874E+03  0.00000000000E+00 0.  1.
         25    2    1    2    0    0 -0.91211679874E+01  0.19846284654E+02 -0.37102760331E+02  0.13220874995E+03  0.12500187206E+03 0.  0.
    9000005    1    3    3    0    0 -0.37669001946E+02  0.76661750378E+01  0.36067319112E+02  0.52721679177E+02  0.10000000000E+01 0.  0.
    9000005    1    3    3    0    0  0.28547833959E+02  0.12180109616E+02 -0.73170079443E+02  0.79487070770E+02  0.10000000000E+01 0.  0.
         -4    1    1    2    0  502  0.91211679874E+01 -0.19846284654E+02 -0.54508133832E+02  0.58735170672E+02  0.12700000000E+01 0. -1.
<mgrwt>
<rscale>  1 0.12689578E+03</rscale>
<asrwt>0</asrwt>
<pdfrwt beam="2">  1       21 0.21733737E-01 0.12689578E+03</pdfrwt>
<pdfrwt beam="1">  1       -4 0.76414412E-02 0.12689578E+03</pdfrwt>
<totfact> 0.94258967E+04</totfact>
</mgrwt>
</event>
<event>
 6    3  0.7601760E-003  0.1325053E+03  0.7818608E-02  0.1223785E+00
         21   -1    0    0  501  502  0.00000000000E+00  0.00000000000E+00  0.10634735675E+03  0.10634735675E+03  0.00000000000E+00 0.  1.
         -4   -1    0    0    0  501 -0.00000000000E+00 -0.00000000000E+00 -0.10049094962E+03  0.10049897440E+03  0.12700000000E+01 0. -1.
         25    2    1    2    0    0  0.42712882344E+02 -0.10340752565E+02 -0.44704992894E+02  0.13984342409E+03  0.12500530145E+03 0.  0.
    9000005    1    3    3    0    0  0.10331599329E+01  0.32663227881E+02 -0.68098959157E+02  0.75540863864E+02  0.10000000000E+01 0.  0.
    9000005    1    3    3    0    0  0.41679722411E+02 -0.43003980446E+02  0.23393966263E+02  0.64302560229E+02  0.10000000000E+01 0.  0.
         -4    1    1    2    0  502 -0.42712882344E+02  0.10340752565E+02  0.50561400023E+02  0.67002907056E+02  0.12700000000E+01 0.  1.
<mgrwt>
<rscale>  1 0.13250527E+03</rscale>
<asrwt>0</asrwt>
<pdfrwt beam="1">  1       21 0.16361132E-01 0.13250527E+03</pdfrwt>
<pdfrwt beam="2">  1       -4 0.15461347E-01 0.13250527E+03</pdfrwt>
<totfact> 0.48346297E+04</totfact>
</mgrwt>
</event>
<event>
 6    3  0.7601760E-003  0.1277010E+03  0.7818608E-02  0.1230908E+00
          4   -1    0    0  502    0 -0.00000000000E+00  0.00000000000E+00  0.12239283933E+03  0.12239942818E+03  0.12700000000E+01 0. -1.
         21   -1    0    0  501  502  0.00000000000E+00 -0.00000000000E+00 -0.12307070175E+03  0.12307070175E+03  0.00000000000E+00 0. -1.
         25    2    1    2    0    0  0.21218933199E+02  0.15247196266E+02  0.86639928840E+02  0.15431789632E+03  0.12499926294E+03 0.  0.
    9000005    1    3    3    0    0 -0.16819100191E+02  0.41857550513E+02 -0.10786213913E+02  0.46392661884E+02  0.10000000000E+01 0.  0.
    9000005    1    3    3    0    0  0.38038033390E+02 -0.26610354247E+02  0.97426142753E+02  0.10792523444E+03  0.10000000000E+01 0.  0.
          4    1    1    2  501    0 -0.21218933199E+02 -0.15247196266E+02 -0.87317791261E+02  0.91152233602E+02  0.12700000000E+01 0.  1.
<mgrwt>
<rscale>  1 0.12770096E+03</rscale>
<asrwt>0</asrwt>
<pdfrwt beam="2">  1       21 0.18933954E-01 0.12770096E+03</pdfrwt>
<pdfrwt beam="1">  1        4 0.18830678E-01 0.12770096E+03</pdfrwt>
<totfact> 0.26020037E+04</totfact>
</mgrwt>
</event>
<event>
 6    3  0.7601760E-003  0.1345976E+03  0.7818608E-02  0.1220789E+00
         -4   -1    0    0    0  501 -0.00000000000E+00  0.00000000000E+00  0.94017175187E+03  0.94017260963E+03  0.12700000000E+01 0. -1.
         21   -1    0    0  501  502  0.00000000000E+00 -0.00000000000E+00 -0.18214572465E+02  0.18214572465E+02  0.00000000000E+00 0.  1.
         25    2    1    2    0    0 -0.21114322454E+02 -0.45291375018E+02  0.88756168456E+03  0.89770945777E+03  0.12497761166E+03 0.  0.
    9000005    1    3    3    0    0 -0.34874812618E+02  0.20754680748E+02  0.63481910502E+03  0.63611579561E+03  0.10000000000E+01 0.  0.
    9000005    1    3    3    0    0  0.13760490164E+02 -0.66046055766E+02  0.25274257954E+03  0.26159366216E+03  0.10000000000E+01 0.  0.
         -4    1    1    2    0  502  0.21114322454E+02  0.45291375018E+02  0.34395494843E+02  0.60677724325E+02  0.12700000000E+01 0.  1.
<mgrwt>
<rscale>  1 0.13459765E+03</rscale>
<asrwt>0</asrwt>
<pdfrwt beam="2">  1       21 0.28022427E-02 0.13459765E+03</pdfrwt>
<pdfrwt beam="1">  1       -4 0.14464524E+00 0.13459765E+03</pdfrwt>
<totfact> 0.10099920E+04</totfact>
</mgrwt>
</event>
<event>
 6    3  0.7601760E-003  0.1325082E+03  0.7818608E-02  0.1223781E+00
         21   -1    0    0  501  502  0.00000000000E+00  0.00000000000E+00  0.12322319321E+02  0.12322319321E+02  0.00000000000E+00 0. -1.
         -4   -1    0    0    0  501 -0.00000000000E+00 -0.00000000000E+00 -0.20305213675E+04  0.20305217647E+04  0.12700000000E+01 0.  1.
         25    2    1    2    0    0  0.20907495487E+02  0.38679141468E+02 -0.19804566078E+04  0.19848845804E+04  0.12500089110E+03 0.  0.
    9000005    1    3    3    0    0 -0.14829349066E+02 -0.39679580515E+02 -0.44448781251E+03  0.44650284901E+03  0.10000000000E+01 0.  0.
    9000005    1    3    3    0    0  0.35736844553E+02  0.78358721983E+02 -0.15359687952E+04  0.15383817313E+04  0.10000000000E+01 0.  0.
         -4    1    1    2    0  502 -0.20907495487E+02 -0.38679141468E+02 -0.37742440434E+02  0.57959503640E+02  0.12700000000E+01 0. -1.
<mgrwt>
<rscale>  1 0.13250820E+03</rscale>
<asrwt>0</asrwt>
<pdfrwt beam="1">  1       21 0.18957419E-02 0.13250820E+03</pdfrwt>
<pdfrwt beam="2">  1       -4 0.31239290E+00 0.13250820E+03</pdfrwt>
<totfact> 0.17692035E+03</totfact>
</mgrwt>
</event>
<event>
 6    3  0.7601760E-003  0.1462491E+03  0.7818608E-02  0.1205159E+00
         21   -1    0    0  501  502  0.00000000000E+00  0.00000000000E+00  0.36251028549E+03  0.36251028549E+03  0.00000000000E+00 0. -1.
          4   -1    0    0  502    0 -0.00000000000E+00 -0.00000000000E+00 -0.15037165621E+03  0.15037701916E+03  0.12700000000E+01 0.  1.
         25    2    1    2    0    0 -0.62126690700E+02 -0.43649695745E+02 -0.10931330364E+03  0.18258747161E+03  0.12499505910E+03 0.  0.
    9000005    1    3    3    0    0  0.28312717325E+02  0.18792587556E+02 -0.12820675746E+02  0.36333745141E+02  0.10000000000E+01 0.  0.
    9000005    1    3    3    0    0 -0.90439408025E+02 -0.62442283301E+02 -0.96492627893E+02  0.14625372647E+03  0.10000000000E+01 0.  0.
          4    1    1    2  501    0  0.62126690700E+02  0.43649695745E+02  0.32145193291E+03  0.33029983304E+03  0.12700000000E+01 0. -1.
<mgrwt>
<rscale>  1 0.14624906E+03</rscale>
<asrwt>0</asrwt>
<pdfrwt beam="1">  1       21 0.55770813E-01 0.14624906E+03</pdfrwt>
<pdfrwt beam="2">  1        4 0.23134685E-01 0.14624906E+03</pdfrwt>
<totfact> 0.21859034E+03</totfact>
</mgrwt>
</event>
<event>
 6    3  0.7601760E-003  0.1275739E+03  0.7818608E-02  0.1231101E+00
         -4   -1    0    0    0  501 -0.00000000000E+00  0.00000000000E+00  0.70339355264E+02  0.70350819462E+02  0.12700000000E+01 0. -1.
         21   -1    0    0  501  502  0.00000000000E+00 -0.00000000000E+00 -0.91134647207E+02  0.91134647207E+02  0.00000000000E+00 0. -1.
         25    2    1    2    0    0  0.25104092983E+02 -0.44582417703E+01  0.15134689894E+01  0.12758288390E+03  0.12500004109E+03 0.  0.
    9000005    1    3    3    0    0 -0.25338531262E+02 -0.44761750566E+02 -0.25700984555E+02  0.57508226258E+02  0.10000000000E+01 0.  0.
    9000005    1    3    3    0    0  0.50442624244E+02  0.40303508795E+02  0.27214453544E+02  0.70074657642E+02  0.10000000000E+01 0.  0.
         -4    1    1    2    0  502 -0.25104092983E+02  0.44582417703E+01 -0.22308760932E+02  0.33902582771E+02  0.12700000000E+01 0.  1.
<mgrwt>
<rscale>  1 0.12757391E+03</rscale>
<asrwt>0</asrwt>
<pdfrwt beam="2">  1       21 0.14020715E-01 0.12757391E+03</pdfrwt>
<pdfrwt beam="1">  1       -4 0.10823002E-01 0.12757391E+03</pdfrwt>
<totfact> 0.11741332E+05</totfact>
</mgrwt>
</event>
<event>
 6    3  0.7601760E-003  0.1270317E+03  0.7818608E-02  0.1231928E+00
          4   -1    0    0  502    0 -0.00000000000E+00  0.00000000000E+00  0.52581852374E+02  0.52597187178E+02  0.12700000000E+01 0.  1.
         21   -1    0    0  501  502  0.00000000000E+00 -0.00000000000E+00 -0.10884543776E+03  0.10884543776E+03  0.00000000000E+00 0.  1.
         25    2    1    2    0    0 -0.15580769805E+02 -0.16406436032E+02 -0.55876825670E+02  0.13877780607E+03  0.12500051312E+03 0.  0.
    9000005    1    3    3    0    0 -0.68847521034E+02  0.39729876045E+01 -0.39283895653E+02  0.79372477854E+02  0.10000000000E+01 0.  0.
    9000005    1    3    3    0    0  0.53266751229E+02 -0.20379423637E+02 -0.16592930016E+02  0.59405328219E+02  0.10000000000E+01 0.  0.
          4    1    1    2  501    0  0.15580769805E+02  0.16406436032E+02 -0.38675971293E+00  0.22664818862E+02  0.12700000000E+01 0. -1.
<mgrwt>
<rscale>  1 0.12703173E+03</rscale>
<asrwt>0</asrwt>
<pdfrwt beam="2">  1       21 0.16745452E-01 0.12703173E+03</pdfrwt>
<pdfrwt beam="1">  1        4 0.80912654E-02 0.12703173E+03</pdfrwt>
<totfact> 0.13858137E+05</totfact>
</mgrwt>
</event>
<event>
 6    3  0.7601760E-003  0.1289681E+03  0.7818608E-02  0.1228995E+00
         -4   -1    0    0    0  501 -0.00000000000E+00  0.00000000000E+00  0.11328798497E+02  0.11399762076E+02  0.12700000000E+01 0.  1.
         21   -1    0    0  501  502  0.00000000000E+00 -0.00000000000E+00 -0.62475655142E+03  0.62475655142E+03  0.00000000000E+00 0.  1.
         25    2    1    2    0    0  0.29833962086E+02  0.10669636282E+02 -0.39712693031E+03  0.41754349320E+03  0.12501545308E+03 0.  0.
    9000005    1    3    3    0    0  0.68189656291E+02  0.37619169229E+02 -0.19346380264E+03  0.20855280878E+03  0.10000000000E+01 0.  0.
    9000005    1    3    3    0    0 -0.38355694205E+02 -0.26949532948E+02 -0.20366312767E+03  0.20899068442E+03  0.10000000000E+01 0.  0.
         -4    1    1    2    0  502 -0.29833962086E+02 -0.10669636282E+02 -0.21630082262E+03  0.21861282029E+03  0.12700000000E+01 0. -1.
<mgrwt>
<rscale>  1 0.12896810E+03</rscale>
<asrwt>0</asrwt>
<pdfrwt beam="2">  1       21 0.96116423E-01 0.12896810E+03</pdfrwt>
<pdfrwt beam="1">  1       -4 0.17484496E-02 0.12896810E+03</pdfrwt>
<totfact> 0.46026627E+04</totfact>
</mgrwt>
</event>
<event>
 6    3  0.7601760E-003  0.1269175E+03  0.7818608E-02  0.1232103E+00
         21   -1    0    0  501  502  0.00000000000E+00  0.00000000000E+00  0.20693711629E+01  0.20693711629E+01  0.00000000000E+00 0.  1.
         -4   -1    0    0    0  501 -0.00000000000E+00 -0.00000000000E+00 -0.26787549058E+04  0.26787552068E+04  0.12700000000E+01 0.  1.
         25    2    1    2    0    0  0.27364984315E+01  0.21780472867E+02 -0.22723301549E+04  0.22758717864E+04  0.12500471114E+03 0.  0.
    9000005    1    3    3    0    0  0.61565055974E+01  0.39514017162E+02 -0.22225050069E+04  0.22228649904E+04  0.10000000000E+01 0.  0.
    9000005    1    3    3    0    0 -0.34200071659E+01 -0.17733544295E+02 -0.49825148061E+02  0.53006795994E+02  0.10000000000E+01 0.  0.
         -4    1    1    2    0  502 -0.27364984315E+01 -0.21780472867E+02 -0.40435537964E+03  0.40495279153E+03  0.12700000000E+01 0. -1.
<mgrwt>
<rscale>  1 0.12691751E+03</rscale>
<asrwt>0</asrwt>
<pdfrwt beam="1">  1       21 0.31836554E-03 0.12691751E+03</pdfrwt>
<pdfrwt beam="2">  1       -4 0.41214518E+00 0.12691751E+03</pdfrwt>
<totfact> 0.69383193E+03</totfact>
</mgrwt>
</event>
<event>
 6    3  0.7601760E-003  0.1285126E+03  0.7818608E-02  0.1229680E+00
         21   -1    0    0  501  502  0.00000000000E+00  0.00000000000E+00  0.45640582285E+02  0.45640582285E+02  0.00000000000E+00 0.  1.
          4   -1    0    0  502    0 -0.00000000000E+00 -0.00000000000E+00 -0.14355002192E+03  0.14355563972E+03  0.12700000000E+01 0.  1.
         25    2    1    2    0    0 -0.25104587273E+02 -0.16214359415E+02 -0.93575829837E+02  0.15897141717E+03  0.12498931872E+03 0.  0.
    9000005    1    3    3    0    0 -0.75096232504E+02 -0.40980456443E+01 -0.68519827867E+02  0.10174578579E+03  0.10000000000E+01 0.  0.
    9000005    1    3    3    0    0  0.49991645230E+02 -0.12116313770E+02 -0.25056001970E+02  0.57225631381E+02  0.10000000000E+01 0.  0.
          4    1    1    2  501    0  0.25104587273E+02  0.16214359415E+02 -0.43336098028E+01  0.30224804835E+02  0.12700000000E+01 0. -1.
<mgrwt>
<rscale>  1 0.12851255E+03</rscale>
<asrwt>0</asrwt>
<pdfrwt beam="1">  1       21 0.70216282E-02 0.12851255E+03</pdfrwt>
<pdfrwt beam="2">  1        4 0.22086410E-01 0.12851255E+03</pdfrwt>
<totfact> 0.11299462E+05</totfact>
</mgrwt>
</event>
<event>
 6    3  0.7601760E-003  0.1299732E+03  0.7818608E-02  0.1227496E+00
         21   -1    0    0  501  502  0.00000000000E+00  0.00000000000E+00  0.48224937352E+03  0.48224937352E+03  0.00000000000E+00 0. -1.
          4   -1    0    0  502    0 -0.00000000000E+00 -0.00000000000E+00 -0.16531716542E+02  0.16580426768E+02  0.12700000000E+01 0.  1.
         25    2    1    2    0    0 -0.25422939767E+02  0.24906283452E+02  0.26709781272E+03  0.29704252553E+03  0.12500548624E+03 0.  0.
    9000005    1    3    3    0    0 -0.72974251349E+02  0.28026557094E+02  0.12779394934E+03  0.14980995545E+03  0.10000000000E+01 0.  0.
    9000005    1    3    3    0    0  0.47551311582E+02 -0.31202736424E+01  0.13930386338E+03  0.14723257008E+03  0.10000000000E+01 0.  0.
          4    1    1    2  501    0  0.25422939767E+02 -0.24906283452E+02  0.19861984425E+03  0.20178727475E+03  0.12700000000E+01 0. -1.
<mgrwt>
<rscale>  1 0.12997315E+03</rscale>
<asrwt>0</asrwt>
<pdfrwt beam="1">  1       21 0.74192201E-01 0.12997315E+03</pdfrwt>
<pdfrwt beam="2">  1        4 0.25472169E-02 0.12997315E+03</pdfrwt>
<totfact> 0.46270287E+04</totfact>
</mgrwt>
</event>
<event>
 6    3  0.7601760E-003  0.1551972E+03  0.7818608E-02  0.1194228E+00
         21   -1    0    0  501  502  0.00000000000E+00  0.00000000000E+00  0.95257267181E+03  0.95257267181E+03  0.00000000000E+00 0.  1.
         -4   -1    0    0    0  501 -0.00000000000E+00 -0.00000000000E+00 -0.19954819621E+02  0.19995192575E+02  0.12700000000E+01 0. -1.
         25    2    1    2    0    0 -0.80810220393E+02 -0.43989080178E+02  0.35187630253E+03  0.38458173250E+03  0.12498338206E+03 0.  0.
    9000005    1    3    3    0    0  0.10015502968E+02  0.14508843659E+02  0.18464349781E+03  0.18548595130E+03  0.10000000000E+01 0.  0.
    9000005    1    3    3    0    0 -0.90825723361E+02 -0.58497923837E+02  0.16723280472E+03  0.19909578120E+03  0.10000000000E+01 0.  0.
         -4    1    1    2    0  502  0.80810220393E+02  0.43989080178E+02  0.58074154966E+03  0.58798613189E+03  0.12700000000E+01 0.  1.
<mgrwt>
<rscale>  1 0.15519722E+03</rscale>
<asrwt>0</asrwt>
<pdfrwt beam="1">  1       21 0.14654961E+00 0.15519722E+03</pdfrwt>
<pdfrwt beam="2">  1       -4 0.30731437E-02 0.15519722E+03</pdfrwt>
<totfact> 0.69221632E+03</totfact>
</mgrwt>
</event>
<event>
 6    3  0.7601760E-003  0.1357262E+03  0.7818608E-02  0.1219198E+00
         21   -1    0    0  501  502  0.00000000000E+00  0.00000000000E+00  0.49223544392E+03  0.49223544392E+03  0.00000000000E+00 0. -1.
          4   -1    0    0  502    0 -0.00000000000E+00 -0.00000000000E+00 -0.27860505668E+02  0.27889436640E+02  0.12700000000E+01 0.  1.
         25    2    1    2    0    0 -0.47772050622E+02 -0.22695077010E+02  0.15400439932E+03  0.20527774356E+03  0.12499744657E+03 0.  0.
    9000005    1    3    3    0    0 -0.24548191794E+02  0.51522966442E+02  0.53857303936E+02  0.78478270741E+02  0.10000000000E+01 0.  0.
    9000005    1    3    3    0    0 -0.23223858829E+02 -0.74218043452E+02  0.10014709538E+03  0.12679947282E+03  0.10000000000E+01 0.  0.
          4    1    1    2  501    0  0.47772050622E+02  0.22695077010E+02  0.31037053893E+03  0.31484713700E+03  0.12700000000E+01 0. -1.
<mgrwt>
<rscale>  1 0.13572618E+03</rscale>
<asrwt>0</asrwt>
<pdfrwt beam="1">  1       21 0.75728523E-01 0.13572618E+03</pdfrwt>
<pdfrwt beam="2">  1        4 0.42885835E-02 0.13572618E+03</pdfrwt>
<totfact> 0.19562338E+04</totfact>
</mgrwt>
</event>
<event>
 6    3  0.7601760E-003  0.1440848E+03  0.7818608E-02  0.1207936E+00
         21   -1    0    0  501  502  0.00000000000E+00  0.00000000000E+00  0.33503220503E+03  0.33503220503E+03  0.00000000000E+00 0.  1.
          4   -1    0    0  502    0 -0.00000000000E+00 -0.00000000000E+00 -0.86618962180E+02  0.86628271997E+02  0.12700000000E+01 0. -1.
         25    2    1    2    0    0  0.47789833053E+02 -0.53390760198E+02 -0.18523621089E+02  0.14527063704E+03  0.12500396806E+03 0.  0.
    9000005    1    3    3    0    0  0.12353958866E+02 -0.60569843447E+01  0.51673818525E+02  0.53483557099E+02  0.10000000000E+01 0.  0.
    9000005    1    3    3    0    0  0.35435874188E+02 -0.47333775854E+02 -0.70197439614E+02  0.91787079943E+02  0.10000000000E+01 0.  0.
          4    1    1    2  501    0 -0.47789833053E+02  0.53390760198E+02  0.26693686394E+03  0.27638983999E+03  0.12700000000E+01 0.  1.
<mgrwt>
<rscale>  1 0.14408481E+03</rscale>
<asrwt>0</asrwt>
<pdfrwt beam="1">  1       21 0.51543415E-01 0.14408481E+03</pdfrwt>
<pdfrwt beam="2">  1        4 0.13326896E-01 0.14408481E+03</pdfrwt>
<totfact> 0.68666608E+03</totfact>
</mgrwt>
</event>
<event>
 6    3  0.7601760E-003  0.1276780E+03  0.7818608E-02  0.1230942E+00
         -4   -1    0    0    0  501 -0.00000000000E+00  0.00000000000E+00  0.20521404986E+03  0.20521797962E+03  0.12700000000E+01 0. -1.
         21   -1    0    0  501  502  0.00000000000E+00 -0.00000000000E+00 -0.43900872335E+02  0.43900872335E+02  0.00000000000E+00 0. -1.
         25    2    1    2    0    0 -0.16980797918E+02 -0.19693453735E+02  0.17735979160E+03  0.21853640043E+03  0.12500193206E+03 0.  0.
    9000005    1    3    3    0    0 -0.18516080419E+02 -0.67238556907E+02  0.14526835094E+03  0.16114515988E+03  0.10000000000E+01 0.  0.
    9000005    1    3    3    0    0  0.15352825004E+01  0.47545103171E+02  0.32091440657E+02  0.57391240546E+02  0.10000000000E+01 0.  0.
         -4    1    1    2    0  502  0.16980797918E+02  0.19693453735E+02 -0.16046614076E+02  0.30582451525E+02  0.12700000000E+01 0.  1.
<mgrwt>
<rscale>  1 0.12767796E+03</rscale>
<asrwt>0</asrwt>
<pdfrwt beam="2">  1       21 0.67539805E-02 0.12767796E+03</pdfrwt>
<pdfrwt beam="1">  1       -4 0.31573107E-01 0.12767796E+03</pdfrwt>
<totfact> 0.62123792E+04</totfact>
</mgrwt>
</event>
<event>
 6    3  0.7601760E-003  0.1268053E+03  0.7818608E-02  0.1232275E+00
          4   -1    0    0  502    0 -0.00000000000E+00  0.00000000000E+00  0.33085474924E+02  0.33109840697E+02  0.12700000000E+01 0.  1.
         21   -1    0    0  501  502  0.00000000000E+00 -0.00000000000E+00 -0.21456398380E+03  0.21456398380E+03  0.00000000000E+00 0. -1.
         25    2    1    2    0    0 -0.16735064647E+02  0.13197010365E+02 -0.94585080679E+02  0.15819587059E+03  0.12500149005E+03 0.  0.
    9000005    1    3    3    0    0 -0.27525947832E+02 -0.52701735326E+02 -0.51961193439E+02  0.78969084673E+02  0.10000000000E+01 0.  0.
    9000005    1    3    3    0    0  0.10790883185E+02  0.65898745691E+02 -0.42623887240E+02  0.79226785919E+02  0.10000000000E+01 0.  0.
          4    1    1    2  501    0  0.16735064647E+02 -0.13197010365E+02 -0.86893428196E+02  0.89477953905E+02  0.12700000000E+01 0. -1.
<mgrwt>
<rscale>  1 0.12680535E+03</rscale>
<asrwt>0</asrwt>
<pdfrwt beam="2">  1       21 0.33009843E-01 0.12680535E+03</pdfrwt>
<pdfrwt beam="1">  1        4 0.50922366E-02 0.12680535E+03</pdfrwt>
<totfact> 0.82315417E+04</totfact>
</mgrwt>
</event>
<event>
 6    3  0.7601760E-003  0.1305936E+03  0.7818608E-02  0.1226578E+00
          4   -1    0    0  502    0 -0.00000000000E+00  0.00000000000E+00  0.13094673100E+03  0.13095288946E+03  0.12700000000E+01 0.  1.
         21   -1    0    0  501  502  0.00000000000E+00 -0.00000000000E+00 -0.10533652774E+03  0.10533652774E+03  0.00000000000E+00 0. -1.
         25    2    1    2    0    0 -0.37124639114E+02  0.72940900716E+01  0.92082701594E+02  0.15979334858E+03  0.12499299076E+03 0.  0.
    9000005    1    3    3    0    0 -0.52581790232E+02 -0.44441469654E+02  0.77879261575E+02  0.10395224034E+03  0.10000000000E+01 0.  0.
    9000005    1    3    3    0    0  0.15457151119E+02  0.51735559725E+02  0.14203440019E+02  0.55841108237E+02  0.10000000000E+01 0.  0.
          4    1    1    2  501    0  0.37124639114E+02 -0.72940900716E+01 -0.66472498337E+02  0.76496068621E+02  0.12700000000E+01 0. -1.
<mgrwt>
<rscale>  1 0.13059361E+03</rscale>
<asrwt>0</asrwt>
<pdfrwt beam="2">  1       21 0.16205620E-01 0.13059361E+03</pdfrwt>
<pdfrwt beam="1">  1        4 0.20146714E-01 0.13059361E+03</pdfrwt>
<totfact> 0.30706441E+04</totfact>
</mgrwt>
</event>
<event>
 6    3  0.7601760E-003  0.1404192E+03  0.7818608E-02  0.1212766E+00
         -4   -1    0    0    0  501 -0.00000000000E+00  0.00000000000E+00  0.11483870010E+03  0.11484572234E+03  0.12700000000E+01 0. -1.
         21   -1    0    0  501  502  0.00000000000E+00 -0.00000000000E+00 -0.93417622418E+02  0.93417622418E+02  0.00000000000E+00 0. -1.
         25    2    1    2    0    0 -0.61225426412E+02 -0.18576786970E+02  0.30314342335E+02  0.14365411237E+03  0.12499557911E+03 0.  0.
    9000005    1    3    3    0    0 -0.68182409732E+02 -0.63616588114E+02  0.10148149353E+02  0.93807762021E+02  0.10000000000E+01 0.  0.
    9000005    1    3    3    0    0  0.69569833199E+01  0.45039801144E+02  0.20166192983E+02  0.49846350352E+02  0.10000000000E+01 0.  0.
         -4    1    1    2    0  502  0.61225426412E+02  0.18576786970E+02 -0.88932646533E+01  0.64609232387E+02  0.12700000000E+01 0.  1.
<mgrwt>
<rscale>  1 0.14041917E+03</rscale>
<asrwt>0</asrwt>
<pdfrwt beam="2">  1       21 0.14371942E-01 0.14041917E+03</pdfrwt>
<pdfrwt beam="1">  1       -4 0.17668697E-01 0.14041917E+03</pdfrwt>
<totfact> 0.48630689E+04</totfact>
</mgrwt>
</event>
<event>
 6    3  0.7601760E-003  0.1266236E+03  0.7818608E-02  0.1232554E+00
         -4   -1    0    0    0  501 -0.00000000000E+00  0.00000000000E+00  0.35519131473E+02  0.35541828887E+02  0.12700000000E+01 0.  1.
         21   -1    0    0  501  502  0.00000000000E+00 -0.00000000000E+00 -0.27869028778E+03  0.27869028778E+03  0.00000000000E+00 0.  1.
         25    2    1    2    0    0  0.17869060878E+02 -0.94382138945E+01 -0.79932053656E+02  0.14974199310E+03  0.12500059230E+03 0.  0.
    9000005    1    3    3    0    0  0.66766528343E+02  0.17456523563E+02 -0.31595800950E+02  0.75906482988E+02  0.10000000000E+01 0.  0.
    9000005    1    3    3    0    0 -0.48897467464E+02 -0.26894737458E+02 -0.48336252706E+02  0.73835510108E+02  0.10000000000E+01 0.  0.
         -4    1    1    2    0  502 -0.17869060878E+02  0.94382138945E+01 -0.16323910265E+03  0.16449012357E+03  0.12700000000E+01 0. -1.
<mgrwt>
<rscale>  1 0.12662358E+03</rscale>
<asrwt>0</asrwt>
<pdfrwt beam="2">  1       21 0.42875428E-01 0.12662358E+03</pdfrwt>
<pdfrwt beam="1">  1       -4 0.54664504E-02 0.12662358E+03</pdfrwt>
<totfact> 0.43722785E+04</totfact>
</mgrwt>
</event>
<event>
 6    3  0.7601760E-003  0.1321480E+03  0.7818608E-02  0.1224303E+00
         21   -1    0    0  501  502  0.00000000000E+00  0.00000000000E+00  0.85303007646E+02  0.85303007646E+02  0.00000000000E+00 0. -1.
          4   -1    0    0  502    0 -0.00000000000E+00 -0.00000000000E+00 -0.10938957991E+03  0.10939695193E+03  0.12700000000E+01 0.  1.
         25    2    1    2    0    0  0.30207685979E+02 -0.30432086055E+02 -0.53627078938E+02  0.14261473529E+03  0.12499793188E+03 0.  0.
    9000005    1    3    3    0    0  0.35212141774E+02 -0.36766143693E+02  0.29663107180E+02  0.58928296921E+02  0.10000000000E+01 0.  0.
    9000005    1    3    3    0    0 -0.50044557949E+01  0.63340576381E+01 -0.83290186118E+02  0.83686438373E+02  0.10000000000E+01 0.  0.
          4    1    1    2  501    0 -0.30207685979E+02  0.30432086055E+02  0.29540506679E+02  0.52085224284E+02  0.12700000000E+01 0. -1.
<mgrwt>
<rscale>  1 0.13214802E+03</rscale>
<asrwt>0</asrwt>
<pdfrwt beam="1">  1       21 0.13123540E-01 0.13214802E+03</pdfrwt>
<pdfrwt beam="2">  1        4 0.16830460E-01 0.13214802E+03</pdfrwt>
<totfact> 0.61929211E+04</totfact>
</mgrwt>
</event>
<event>
 6    3  0.7601760E-003  0.1480286E+03  0.7818608E-02  0.1202917E+00
         21   -1    0    0  501  502  0.00000000000E+00  0.00000000000E+00  0.13191521161E+03  0.13191521161E+03  0.00000000000E+00 0. -1.
          4   -1    0    0  502    0 -0.00000000000E+00 -0.00000000000E+00 -0.18008945094E+03  0.18009392894E+03  0.12700000000E+01 0.  1.
         25    2    1    2    0    0  0.41426751094E+00  0.79289841092E+02 -0.13076229987E+03  0.19751262898E+03  0.12500163608E+03 0.  0.
    9000005    1    3    3    0    0 -0.31685860768E+01  0.66568266058E+01 -0.12427297844E+03  0.12449548767E+03  0.10000000000E+01 0.  0.
    9000005    1    3    3    0    0  0.35828535878E+01  0.72633014486E+02 -0.64893214206E+01  0.73017141314E+02  0.10000000000E+01 0.  0.
          4    1    1    2  501    0 -0.41426751094E+00 -0.79289841092E+02  0.82588060535E+02  0.11449651157E+03  0.12700000000E+01 0. -1.
<mgrwt>
<rscale>  1 0.14802858E+03</rscale>
<asrwt>0</asrwt>
<pdfrwt beam="1">  1       21 0.20294648E-01 0.14802858E+03</pdfrwt>
<pdfrwt beam="2">  1        4 0.27706884E-01 0.14802858E+03</pdfrwt>
<totfact> 0.11456251E+04</totfact>
</mgrwt>
</event>
<event>
 6    3  0.7601760E-003  0.1267613E+03  0.7818608E-02  0.1232342E+00
         21   -1    0    0  501  502  0.00000000000E+00  0.00000000000E+00  0.31666965070E+02  0.31666965070E+02  0.00000000000E+00 0.  1.
         -4   -1    0    0    0  501 -0.00000000000E+00 -0.00000000000E+00 -0.18500698558E+03  0.18501134456E+03  0.12700000000E+01 0. -1.
         25    2    1    2    0    0  0.19661423553E+02 -0.74873957002E+01 -0.14813550370E+03  0.19496811465E+03  0.12500322237E+03 0.  0.
    9000005    1    3    3    0    0 -0.45645793758E+02  0.20918473744E+02 -0.34760721201E+02  0.61077236103E+02  0.10000000000E+01 0.  0.
    9000005    1    3    3    0    0  0.65307217311E+02 -0.28405869444E+02 -0.11337478250E+03  0.13389087855E+03  0.10000000000E+01 0.  0.
         -4    1    1    2    0  502 -0.19661423553E+02  0.74873957002E+01 -0.52045168094E+01  0.21710194972E+02  0.12700000000E+01 0.  1.
<mgrwt>
<rscale>  1 0.12676134E+03</rscale>
<asrwt>0</asrwt>
<pdfrwt beam="1">  1       21 0.48718408E-02 0.12676134E+03</pdfrwt>
<pdfrwt beam="2">  1       -4 0.28464908E-01 0.12676134E+03</pdfrwt>
<totfact> 0.13111946E+05</totfact>
</mgrwt>
</event>
<event>
 6    3  0.7601760E-003  0.1339549E+03  0.7818608E-02  0.1221703E+00
         21   -1    0    0  501  502  0.00000000000E+00  0.00000000000E+00  0.60332851107E+01  0.60332851107E+01  0.00000000000E+00 0.  1.
          4   -1    0    0  502    0 -0.00000000000E+00 -0.00000000000E+00 -0.14181236012E+04  0.14181241699E+04  0.12700000000E+01 0.  1.
         25    2    1    2    0    0 -0.30354959586E+02  0.37384274510E+02 -0.11391049363E+04  0.11469542118E+04  0.12499960206E+03 0.  0.
    9000005    1    3    3    0    0 -0.38355423053E+02 -0.35591722109E+02 -0.68049317870E+03  0.68250265598E+03  0.10000000000E+01 0.  0.
    9000005    1    3    3    0    0  0.80004634667E+01  0.72975996619E+02 -0.45861175760E+03  0.46445155582E+03  0.10000000000E+01 0.  0.
          4    1    1    2  501    0  0.30354959586E+02 -0.37384274510E+02 -0.27298537980E+03  0.27720324319E+03  0.12700000000E+01 0. -1.
<mgrwt>
<rscale>  1 0.13395487E+03</rscale>
<asrwt>0</asrwt>
<pdfrwt beam="1">  1       21 0.92819712E-03 0.13395487E+03</pdfrwt>
<pdfrwt beam="2">  1        4 0.21818333E+00 0.13395487E+03</pdfrwt>
<totfact> 0.19372235E+04</totfact>
</mgrwt>
</event>
<event>
 6    3  0.7601760E-003  0.1372145E+03  0.7818608E-02  0.1217127E+00
         21   -1    0    0  501  502  0.00000000000E+00  0.00000000000E+00  0.16408665394E+03  0.16408665394E+03  0.00000000000E+00 0. -1.
         -4   -1    0    0    0  501 -0.00000000000E+00 -0.00000000000E+00 -0.20212890647E+03  0.20213289621E+03  0.12700000000E+01 0.  1.
         25    2    1    2    0    0  0.13181629618E+02 -0.55008285350E+02 -0.17245562691E+03  0.22038322090E+03  0.12501261530E+03 0.  0.
    9000005    1    3    3    0    0  0.14092132525E+02  0.19791733949E+02  0.75404557250E+01  0.25458974927E+02  0.10000000000E+01 0.  0.
    9000005    1    3    3    0    0 -0.91050290663E+00 -0.74800019299E+02 -0.17999608263E+03  0.19492424597E+03  0.10000000000E+01 0.  0.
         -4    1    1    2    0  502 -0.13181629618E+02  0.55008285350E+02  0.13441337439E+03  0.14583632926E+03  0.12700000000E+01 0. -1.
<mgrwt>
<rscale>  1 0.13721451E+03</rscale>
<asrwt>0</asrwt>
<pdfrwt beam="1">  1       21 0.25244101E-01 0.13721451E+03</pdfrwt>
<pdfrwt beam="2">  1       -4 0.31097440E-01 0.13721451E+03</pdfrwt>
<totfact> 0.60841349E+03</totfact>
</mgrwt>
</event>
<event>
 6    3  0.7601760E-003  0.1266300E+03  0.7818608E-02  0.1232544E+00
         21   -1    0    0  501  502  0.00000000000E+00  0.00000000000E+00  0.52866483094E+03  0.52866483094E+03  0.00000000000E+00 0. -1.
         -4   -1    0    0    0  501 -0.00000000000E+00 -0.00000000000E+00 -0.10524106122E+02  0.10600457993E+02  0.12700000000E+01 0. -1.
         25    2    1    2    0    0  0.10573245307E+01  0.20010658461E+02  0.40428367942E+03  0.42365134482E+03  0.12503449177E+03 0.  0.
    9000005    1    3    3    0    0 -0.23087063227E+02  0.53412290199E+02  0.93409964153E+02  0.11005592504E+03  0.10000000000E+01 0.  0.
    9000005    1    3    3    0    0  0.24144387757E+02 -0.33401631738E+02  0.31087371527E+03  0.31359541978E+03  0.10000000000E+01 0.  0.
         -4    1    1    2    0  502 -0.10573245307E+01 -0.20010658461E+02  0.11385704540E+03  0.11561394412E+03  0.12700000000E+01 0.  1.
<mgrwt>
<rscale>  1 0.12663005E+03</rscale>
<asrwt>0</asrwt>
<pdfrwt beam="1">  1       21 0.81333030E-01 0.12663005E+03</pdfrwt>
<pdfrwt beam="2">  1       -4 0.16250842E-02 0.12663005E+03</pdfrwt>
<totfact> 0.75162938E+04</totfact>
</mgrwt>
</event>
<event>
 6    3  0.7601760E-003  0.1324662E+03  0.7818608E-02  0.1223842E+00
         21   -1    0    0  501  502  0.00000000000E+00  0.00000000000E+00  0.30863650523E+03  0.30863650523E+03  0.00000000000E+00 0. -1.
         -4   -1    0    0    0  501 -0.00000000000E+00 -0.00000000000E+00 -0.33871488863E+02  0.33895289611E+02  0.12700000000E+01 0.  1.
         25    2    1    2    0    0 -0.43565078124E+02 -0.47912657525E+01  0.11046338273E+03  0.17248029683E+03  0.12500568631E+03 0.  0.
    9000005    1    3    3    0    0 -0.79011413108E+02  0.24064463202E+02  0.49563563460E+02  0.96329894702E+02  0.10000000000E+01 0.  0.
    9000005    1    3    3    0    0  0.35446334983E+02 -0.28855728954E+02  0.60899819265E+02  0.76150402125E+02  0.10000000000E+01 0.  0.
         -4    1    1    2    0  502  0.43565078124E+02  0.47912657525E+01  0.16430163364E+03  0.17005149801E+03  0.12700000000E+01 0. -1.
<mgrwt>
<rscale>  1 0.13246620E+03</rscale>
<asrwt>0</asrwt>
<pdfrwt beam="1">  1       21 0.47482537E-01 0.13246620E+03</pdfrwt>
<pdfrwt beam="2">  1       -4 0.52130303E-02 0.13246620E+03</pdfrwt>
<totfact> 0.38543082E+04</totfact>
</mgrwt>
</event>
<event>
 6    3  0.7601760E-003  0.1562092E+03  0.7818608E-02  0.1193044E+00
          4   -1    0    0  502    0 -0.00000000000E+00  0.00000000000E+00  0.16607199227E+03  0.16607684823E+03  0.12700000000E+01 0. -1.
         21   -1    0    0  501  502  0.00000000000E+00 -0.00000000000E+00 -0.10543893928E+03  0.10543893928E+03  0.00000000000E+00 0.  1.
         25    2    1    2    0    0 -0.92170632444E+02  0.16750003335E+02  0.80518306119E+02  0.17573988089E+03  0.12500128007E+03 0.  0.
    9000005    1    3    3    0    0 -0.97283192310E+02 -0.60233264101E+01  0.60152963700E+01  0.97660041765E+02  0.10000000000E+01 0.  0.
    9000005    1    3    3    0    0  0.51125598664E+01  0.22773329745E+02  0.74503009749E+02  0.78079839124E+02  0.10000000000E+01 0.  0.
          4    1    1    2  501    0  0.92170632444E+02 -0.16750003335E+02 -0.19885253128E+02  0.95775906620E+02  0.12700000000E+01 0.  1.
<mgrwt>
<rscale>  1 0.15620918E+03</rscale>
<asrwt>0</asrwt>
<pdfrwt beam="2">  1       21 0.16221375E-01 0.15620918E+03</pdfrwt>
<pdfrwt beam="1">  1        4 0.25550499E-01 0.15620918E+03</pdfrwt>
<totfact> 0.20218851E+04</totfact>
</mgrwt>
</event>
<event>
 6    3  0.7601760E-003  0.1277283E+03  0.7818608E-02  0.1230866E+00
         21   -1    0    0  501  502  0.00000000000E+00  0.00000000000E+00  0.57208861603E+03  0.57208861603E+03  0.00000000000E+00 0.  1.
          4   -1    0    0  502    0 -0.00000000000E+00 -0.00000000000E+00 -0.17148114407E+02  0.17195078590E+02  0.12700000000E+01 0. -1.
         25    2    1    2    0    0  0.24238397653E+02  0.10006390262E+02  0.22839484318E+03  0.26168438492E+03  0.12500754039E+03 0.  0.
    9000005    1    3    3    0    0  0.34646666901E+02 -0.15191253197E+02  0.23118417323E+03  0.23426115268E+03  0.10000000000E+01 0.  0.
    9000005    1    3    3    0    0 -0.10408269248E+02  0.25197643459E+02 -0.27893300512E+01  0.27423232245E+02  0.10000000000E+01 0.  0.
          4    1    1    2  501    0 -0.24238397653E+02 -0.10006390262E+02  0.32654565844E+03  0.32759930970E+03  0.12700000000E+01 0.  1.
<mgrwt>
<rscale>  1 0.12772828E+03</rscale>
<asrwt>0</asrwt>
<pdfrwt beam="1">  1       21 0.88013619E-01 0.12772828E+03</pdfrwt>
<pdfrwt beam="2">  1        4 0.26418930E-02 0.12772828E+03</pdfrwt>
<totfact> 0.29773753E+04</totfact>
</mgrwt>
</event>
<event>
 6    3  0.7601760E-003  0.1267086E+03  0.7818608E-02  0.1232423E+00
          4   -1    0    0  502    0 -0.00000000000E+00  0.00000000000E+00  0.55669719111E+02  0.55684203558E+02  0.12700000000E+01 0. -1.
         21   -1    0    0  501  502  0.00000000000E+00 -0.00000000000E+00 -0.98369105547E+02  0.98369105547E+02  0.00000000000E+00 0. -1.
         25    2    1    2    0    0  0.17063210079E+01  0.20661696663E+02 -0.31991714046E+02  0.13068486054E+03  0.12500098306E+03 0.  0.
    9000005    1    3    3    0    0  0.14134572998E+02 -0.31731575387E+02  0.31864967530E+02  0.47149286167E+02  0.10000000000E+01 0.  0.
    9000005    1    3    3    0    0 -0.12428251990E+02  0.52393272051E+02 -0.63856681576E+02  0.83535574372E+02  0.10000000000E+01 0.  0.
          4    1    1    2  501    0 -0.17063210079E+01 -0.20661696663E+02 -0.10707672390E+02  0.23368448566E+02  0.12700000000E+01 0.  1.
<mgrwt>
<rscale>  1 0.12670858E+03</rscale>
<asrwt>0</asrwt>
<pdfrwt beam="2">  1       21 0.15133708E-01 0.12670858E+03</pdfrwt>
<pdfrwt beam="1">  1        4 0.85663170E-02 0.12670858E+03</pdfrwt>
<totfact> 0.15136265E+05</totfact>
</mgrwt>
</event>
<event>
 6    3  0.7601760E-003  0.1266457E+03  0.7818608E-02  0.1232520E+00
         21   -1    0    0  501  502  0.00000000000E+00  0.00000000000E+00  0.61419434992E+02  0.61419434992E+02  0.00000000000E+00 0. -1.
         -4   -1    0    0    0  501 -0.00000000000E+00 -0.00000000000E+00 -0.89108371479E+02  0.89117421235E+02  0.12700000000E+01 0. -1.
         25    2    1    2    0    0  0.18585273127E+02  0.84186535093E+01 -0.29430181233E+02  0.13002025472E+03  0.12499137957E+03 0.  0.
    9000005    1    3    3    0    0  0.60521566517E+02 -0.13717464528E+02  0.16263298753E+02  0.64160141311E+02  0.10000000000E+01 0.  0.
    9000005    1    3    3    0    0 -0.41936293390E+02  0.22136118038E+02 -0.45693479986E+02  0.65860113409E+02  0.10000000000E+01 0.  0.
         -4    1    1    2    0  502 -0.18585273127E+02 -0.84186535093E+01  0.17412447467E+01  0.20516601507E+02  0.12700000000E+01 0.  1.
<mgrwt>
<rscale>  1 0.12664569E+03</rscale>
<asrwt>0</asrwt>
<pdfrwt beam="1">  1       21 0.94491440E-02 0.12664569E+03</pdfrwt>
<pdfrwt beam="2">  1       -4 0.13710686E-01 0.12664569E+03</pdfrwt>
<totfact> 0.15712190E+05</totfact>
</mgrwt>
</event>
<event>
 6    3  0.7601760E-003  0.1279262E+03  0.7818608E-02  0.1230566E+00
          4   -1    0    0  502    0 -0.00000000000E+00  0.00000000000E+00  0.96090991483E+03  0.96091075409E+03  0.12700000000E+01 0.  1.
         21   -1    0    0  501  502  0.00000000000E+00 -0.00000000000E+00 -0.80186568555E+02  0.80186568555E+02  0.00000000000E+00 0. -1.
         25    2    1    2    0    0 -0.26987013289E+02 -0.33217449743E+01  0.95420184775E+03  0.96273894113E+03  0.12500307850E+03 0.  0.
    9000005    1    3    3    0    0  0.14180769417E+02 -0.44116576925E+02  0.71926361347E+03  0.72075551489E+03  0.10000000000E+01 0.  0.
    9000005    1    3    3    0    0 -0.41167782707E+02  0.40794831950E+02  0.23493823428E+03  0.24198342624E+03  0.10000000000E+01 0.  0.
          4    1    1    2  501    0  0.26987013289E+02  0.33217449743E+01 -0.73478501471E+02  0.78358381519E+02  0.12700000000E+01 0. -1.
<mgrwt>
<rscale>  1 0.12792616E+03</rscale>
<asrwt>0</asrwt>
<pdfrwt beam="2">  1       21 0.12336396E-01 0.12792616E+03</pdfrwt>
<pdfrwt beam="1">  1        4 0.14783312E+00 0.12792616E+03</pdfrwt>
<totfact> 0.76892984E+02</totfact>
</mgrwt>
</event>
<event>
 6    3  0.7601760E-003  0.1432666E+03  0.7818608E-02  0.1209000E+00
         21   -1    0    0  501  502  0.00000000000E+00  0.00000000000E+00  0.22723430001E+03  0.22723430001E+03  0.00000000000E+00 0. -1.
         -4   -1    0    0    0  501 -0.00000000000E+00 -0.00000000000E+00 -0.71778990575E+02  0.71790224878E+02  0.12700000000E+01 0.  1.
         25    2    1    2    0    0 -0.31537181480E+02 -0.62495510268E+02  0.17515116075E+02  0.14433324374E+03  0.12500009335E+03 0.  0.
    9000005    1    3    3    0    0  0.20623898237E+02 -0.31447467399E+02  0.59587497349E+02  0.70469555303E+02  0.10000000000E+01 0.  0.
    9000005    1    3    3    0    0 -0.52161079718E+02 -0.31048042869E+02 -0.42072381274E+02  0.73863688436E+02  0.10000000000E+01 0.  0.
         -4    1    1    2    0  502  0.31537181480E+02  0.62495510268E+02  0.13794019336E+03  0.15469128115E+03  0.12700000000E+01 0. -1.
<mgrwt>
<rscale>  1 0.14326656E+03</rscale>
<asrwt>0</asrwt>
<pdfrwt beam="1">  1       21 0.34959123E-01 0.14326656E+03</pdfrwt>
<pdfrwt beam="2">  1       -4 0.11044059E-01 0.14326656E+03</pdfrwt>
<totfact> 0.20768276E+04</totfact>
</mgrwt>
</event>
<event>
 6    3  0.7601760E-003  0.1280254E+03  0.7818608E-02  0.1230415E+00
         21   -1    0    0  501  502  0.00000000000E+00  0.00000000000E+00  0.46320282536E+03  0.46320282536E+03  0.00000000000E+00 0.  1.
          4   -1    0    0  502    0 -0.00000000000E+00 -0.00000000000E+00 -0.22012203721E+02  0.22048809778E+02  0.12700000000E+01 0. -1.
         25    2    1    2    0    0 -0.26285102035E+02 -0.86087534532E+01  0.17084190898E+03  0.21348876689E+03  0.12500191397E+03 0.  0.
    9000005    1    3    3    0    0  0.33010454482E+02 -0.16023688966E+02  0.48023533005E+01  0.37020417480E+02  0.10000000000E+01 0.  0.
    9000005    1    3    3    0    0 -0.59295556517E+02  0.74149355126E+01  0.16603955568E+03  0.17646834941E+03  0.10000000000E+01 0.  0.
          4    1    1    2  501    0  0.26285102035E+02  0.86087534532E+01  0.27034871266E+03  0.27176286825E+03  0.12700000000E+01 0.  1.
<mgrwt>
<rscale>  1 0.12802537E+03</rscale>
<asrwt>0</asrwt>
<pdfrwt beam="1">  1       21 0.71261966E-01 0.12802537E+03</pdfrwt>
<pdfrwt beam="2">  1        4 0.33894430E-02 0.12802537E+03</pdfrwt>
<totfact> 0.32292480E+04</totfact>
</mgrwt>
</event>
<event>
 6    3  0.7601760E-003  0.1273567E+03  0.7818608E-02  0.1231431E+00
          4   -1    0    0  502    0 -0.00000000000E+00  0.00000000000E+00  0.76020557953E+02  0.76031165528E+02  0.12700000000E+01 0.  1.
         21   -1    0    0  501  502  0.00000000000E+00 -0.00000000000E+00 -0.98415768020E+02  0.98415768020E+02  0.00000000000E+00 0.  1.
         25    2    1    2    0    0 -0.18518893909E+02  0.15913330594E+02  0.16586314615E+02  0.12843220016E+03  0.12499416260E+03 0.  0.
    9000005    1    3    3    0    0  0.52188508228E+02  0.20970914055E+02  0.10989078337E+02  0.57316485151E+02  0.10000000000E+01 0.  0.
    9000005    1    3    3    0    0 -0.70707402137E+02 -0.50575834608E+01  0.55972362776E+01  0.71115715010E+02  0.10000000000E+01 0.  0.
          4    1    1    2  501    0  0.18518893909E+02 -0.15913330594E+02 -0.38981524681E+02  0.46014733387E+02  0.12700000000E+01 0. -1.
<mgrwt>
<rscale>  1 0.12735668E+03</rscale>
<asrwt>0</asrwt>
<pdfrwt beam="2">  1       21 0.15140887E-01 0.12735668E+03</pdfrwt>
<pdfrwt beam="1">  1        4 0.11696917E-01 0.12735668E+03</pdfrwt>
<totfact> 0.89598449E+04</totfact>
</mgrwt>
</event>
<event>
 6    3  0.7601760E-003  0.1344244E+03  0.7818608E-02  0.1221035E+00
         -4   -1    0    0    0  501 -0.00000000000E+00  0.00000000000E+00  0.14653396526E+03  0.14653946866E+03  0.12700000000E+01 0.  1.
         21   -1    0    0  501  502  0.00000000000E+00 -0.00000000000E+00 -0.83493372532E+02  0.83493372532E+02  0.00000000000E+00 0.  1.
         25    2    1    2    0    0 -0.43145413884E+02 -0.24149169046E+02  0.10062347639E+03  0.16791364006E+03  0.12500078964E+03 0.  0.
    9000005    1    3    3    0    0 -0.33700510446E+01  0.44767110609E+02  0.76790203410E+01  0.45556764478E+02  0.10000000000E+01 0.  0.
    9000005    1    3    3    0    0 -0.39775362839E+02 -0.68916279655E+02  0.92944456053E+02  0.12235687558E+03  0.10000000000E+01 0.  0.
         -4    1    1    2    0  502  0.43145413884E+02  0.24149169046E+02 -0.37582883666E+02  0.62119201134E+02  0.12700000000E+01 0. -1.
<mgrwt>
<rscale>  1 0.13442435E+03</rscale>
<asrwt>0</asrwt>
<pdfrwt beam="2">  1       21 0.12845134E-01 0.13442435E+03</pdfrwt>
<pdfrwt beam="1">  1       -4 0.22544853E-01 0.13442435E+03</pdfrwt>
<totfact> 0.38169614E+04</totfact>
</mgrwt>
</event>
<event>
 6    3  0.7601760E-003  0.1319239E+03  0.7818608E-02  0.1224629E+00
         -4   -1    0    0    0  501 -0.00000000000E+00  0.00000000000E+00  0.87868898632E+01  0.88781942684E+01  0.12700000000E+01 0. -1.
         21   -1    0    0  501  502  0.00000000000E+00 -0.00000000000E+00 -0.10863073717E+04  0.10863073717E+04  0.00000000000E+00 0.  1.
         25    2    1    2    0    0  0.31646051003E+02  0.27878373700E+02 -0.53494352160E+03  0.55097049181E+03  0.12500094110E+03 0.  0.
    9000005    1    3    3    0    0 -0.41043304362E+02  0.34643300843E+01 -0.84085577260E+02  0.93637272061E+02  0.10000000000E+01 0.  0.
    9000005    1    3    3    0    0  0.72689355366E+02  0.24414043615E+02 -0.45085794434E+03  0.45733321975E+03  0.10000000000E+01 0.  0.
         -4    1    1    2    0  502 -0.31646051003E+02 -0.27878373700E+02 -0.54257696025E+03  0.54421507417E+03  0.12700000000E+01 0.  1.
<mgrwt>
<rscale>  1 0.13192389E+03</rscale>
<asrwt>0</asrwt>
<pdfrwt beam="2">  1       21 0.16712409E+00 0.13192389E+03</pdfrwt>
<pdfrwt beam="1">  1       -4 0.13589107E-02 0.13192389E+03</pdfrwt>
<totfact> 0.17134760E+04</totfact>
</mgrwt>
</event>
<event>
 6    3  0.7601760E-003  0.1343084E+03  0.7818608E-02  0.1221199E+00
         -4   -1    0    0    0  501 -0.00000000000E+00  0.00000000000E+00  0.29254552264E+03  0.29254827929E+03  0.12700000000E+01 0.  1.
         21   -1    0    0  501  502  0.00000000000E+00 -0.00000000000E+00 -0.64884187904E+02  0.64884187904E+02  0.00000000000E+00 0. -1.
         25    2    1    2    0    0 -0.44446275049E+02  0.20977405102E+02  0.26406444843E+03  0.29625794246E+03  0.12499285040E+03 0.  0.
    9000005    1    3    3    0    0  0.38534074735E+02  0.29934234413E+02  0.73654906132E+02  0.88357107824E+02  0.10000000000E+01 0.  0.
    9000005    1    3    3    0    0 -0.82980349784E+02 -0.89568293114E+01  0.19040954230E+03  0.20790083463E+03  0.10000000000E+01 0.  0.
         -4    1    1    2    0  502  0.44446275049E+02 -0.20977405102E+02 -0.36403113696E+02  0.61174524741E+02  0.12700000000E+01 0. -1.
<mgrwt>
<rscale>  1 0.13430836E+03</rscale>
<asrwt>0</asrwt>
<pdfrwt beam="2">  1       21 0.99821829E-02 0.13430836E+03</pdfrwt>
<pdfrwt beam="1">  1       -4 0.45008171E-01 0.13430836E+03</pdfrwt>
<totfact> 0.15937199E+04</totfact>
</mgrwt>
</event>
<event>
 6    3  0.7601760E-003  0.1271519E+03  0.7818608E-02  0.1231744E+00
          4   -1    0    0  502    0 -0.00000000000E+00  0.00000000000E+00  0.17948111290E+03  0.17948560608E+03  0.12700000000E+01 0.  1.
         21   -1    0    0  501  502  0.00000000000E+00 -0.00000000000E+00 -0.34241209312E+02  0.34241209312E+02  0.00000000000E+00 0.  1.
         25    2    1    2    0    0 -0.52015133248E+01  0.22714851908E+02  0.14125070258E+03  0.19005094449E+03  0.12499832113E+03 0.  0.
    9000005    1    3    3    0    0 -0.37158169550E+02 -0.30501813320E+02  0.16729161390E+02  0.50911246508E+02  0.10000000000E+01 0.  0.
    9000005    1    3    3    0    0  0.31956656225E+02  0.53216665228E+02  0.12452154119E+03  0.13913969798E+03  0.10000000000E+01 0.  0.
          4    1    1    2  501    0  0.52015133248E+01 -0.22714851908E+02  0.39892010145E+01  0.23675870898E+02  0.12700000000E+01 0. -1.
<mgrwt>
<rscale>  1 0.12715188E+03</rscale>
<asrwt>0</asrwt>
<pdfrwt beam="2">  1       21 0.52678785E-02 0.12715188E+03</pdfrwt>
<pdfrwt beam="1">  1        4 0.27614636E-01 0.12715188E+03</pdfrwt>
<totfact> 0.12175458E+05</totfact>
</mgrwt>
</event>
<event>
 6    3  0.7601760E-003  0.1292214E+03  0.7818608E-02  0.1228616E+00
         21   -1    0    0  501  502  0.00000000000E+00  0.00000000000E+00  0.14710448295E+03  0.14710448295E+03  0.00000000000E+00 0.  1.
          4   -1    0    0  502    0 -0.00000000000E+00 -0.00000000000E+00 -0.70985456886E+02  0.70996816755E+02  0.12700000000E+01 0. -1.
         25    2    1    2    0    0  0.32658660373E+02  0.26144211312E+01 -0.63256054146E+01  0.12937614287E+03  0.12499899906E+03 0.  0.
    9000005    1    3    3    0    0  0.63600024024E+02 -0.22137662267E+02 -0.39159254322E+02  0.77906908202E+02  0.10000000000E+01 0.  0.
    9000005    1    3    3    0    0 -0.30941363651E+02  0.24752083398E+02  0.32833648907E+02  0.51469234672E+02  0.10000000000E+01 0.  0.
          4    1    1    2  501    0 -0.32658660373E+02 -0.26144211312E+01  0.82444631483E+02  0.88725156836E+02  0.12700000000E+01 0.  1.
<mgrwt>
<rscale>  1 0.12922141E+03</rscale>
<asrwt>0</asrwt>
<pdfrwt beam="1">  1       21 0.22631459E-01 0.12922141E+03</pdfrwt>
<pdfrwt beam="2">  1        4 0.10922135E-01 0.12922141E+03</pdfrwt>
<totfact> 0.48220685E+04</totfact>
</mgrwt>
</event>
<event>
 6    3  0.7601760E-003  0.1275257E+03  0.7818608E-02  0.1231174E+00
         -4   -1    0    0    0  501 -0.00000000000E+00  0.00000000000E+00  0.89884500325E+02  0.89893471946E+02  0.12700000000E+01 0.  1.
         21   -1    0    0  501  502  0.00000000000E+00 -0.00000000000E+00 -0.75949831160E+02  0.75949831160E+02  0.00000000000E+00 0. -1.
         25    2    1    2    0    0 -0.18522191317E+02  0.17196663862E+02  0.35739167822E+02  0.13243902373E+03  0.12499604022E+03 0.  0.
    9000005    1    3    3    0    0 -0.47652925945E+02  0.56552887134E+02  0.38512207699E+02  0.83385973258E+02  0.10000000000E+01 0.  0.
    9000005    1    3    3    0    0  0.29130734628E+02 -0.39356223272E+02 -0.27730398769E+01  0.49053050469E+02  0.10000000000E+01 0.  0.
         -4    1    1    2    0  502  0.18522191317E+02 -0.17196663862E+02 -0.21804498657E+02  0.33404279379E+02  0.12700000000E+01 0. -1.
<mgrwt>
<rscale>  1 0.12752571E+03</rscale>
<asrwt>0</asrwt>
<pdfrwt beam="2">  1       21 0.11684589E-01 0.12752571E+03</pdfrwt>
<pdfrwt beam="1">  1       -4 0.13829891E-01 0.12752571E+03</pdfrwt>
<totfact> 0.10675013E+05</totfact>
</mgrwt>
</event>
<event>
 6    3  0.7601760E-003  0.1301307E+03  0.7818608E-02  0.1227262E+00
          4   -1    0    0  502    0 -0.00000000000E+00  0.00000000000E+00  0.23765118036E+03  0.23765457375E+03  0.12700000000E+01 0.  1.
         21   -1    0    0  501  502  0.00000000000E+00 -0.00000000000E+00 -0.30347482727E+02  0.30347482727E+02  0.00000000000E+00 0. -1.
         25    2    1    2    0    0  0.21770048540E+02  0.28950156346E+02  0.13728762266E+03  0.18916101247E+03  0.12498780236E+03 0.  0.
    9000005    1    3    3    0    0  0.67601963237E+02  0.44025791691E+02  0.97961506204E+02  0.12690844127E+03  0.10000000000E+01 0.  0.
    9000005    1    3    3    0    0 -0.45831914697E+02 -0.15075635346E+02  0.39326116458E+02  0.62252571204E+02  0.10000000000E+01 0.  0.
          4    1    1    2  501    0 -0.21770048540E+02 -0.28950156346E+02  0.70016074969E+02  0.78841044006E+02  0.12700000000E+01 0. -1.
<mgrwt>
<rscale>  1 0.13013069E+03</rscale>
<asrwt>0</asrwt>
<pdfrwt beam="2">  1       21 0.46688437E-02 0.13013069E+03</pdfrwt>
<pdfrwt beam="1">  1        4 0.36564024E-01 0.13013069E+03</pdfrwt>
<totfact> 0.87703153E+04</totfact>
</mgrwt>
</event>
<event>
 6    3  0.7601760E-003  0.1281590E+03  0.7818608E-02  0.1230213E+00
         -4   -1    0    0    0  501 -0.00000000000E+00  0.00000000000E+00  0.12101493804E+02  0.12167951852E+02  0.12700000000E+01 0. -1.
         21   -1    0    0  501  502  0.00000000000E+00 -0.00000000000E+00 -0.51863113850E+03  0.51863113850E+03  0.00000000000E+00 0. -1.
         25    2    1    2    0    0  0.27950564072E+02  0.43457023425E+01 -0.37625148684E+03  0.39747943511E+03  0.12499840327E+03 0.  0.
    9000005    1    3    3    0    0  0.39863150080E+02  0.29247888520E+02 -0.36385874686E+03  0.36720389075E+03  0.10000000000E+01 0.  0.
    9000005    1    3    3    0    0 -0.11912586008E+02 -0.24902186177E+02 -0.12392739985E+02  0.30275544357E+02  0.10000000000E+01 0.  0.
         -4    1    1    2    0  502 -0.27950564072E+02 -0.43457023425E+01 -0.13027815786E+03  0.13331965525E+03  0.12700000000E+01 0.  1.
<mgrwt>
<rscale>  1 0.12815896E+03</rscale>
<asrwt>0</asrwt>
<pdfrwt beam="2">  1       21 0.79789424E-01 0.12815896E+03</pdfrwt>
<pdfrwt beam="1">  1       -4 0.18669996E-02 0.12815896E+03</pdfrwt>
<totfact> 0.63523500E+04</totfact>
</mgrwt>
</event>
<event>
 6    3  0.7601760E-003  0.1267179E+03  0.7818608E-02  0.1232409E+00
         -4   -1    0    0    0  501 -0.00000000000E+00  0.00000000000E+00  0.85960627425E+03  0.85960721241E+03  0.12700000000E+01 0. -1.
         21   -1    0    0  501  502  0.00000000000E+00 -0.00000000000E+00 -0.21300344331E+02  0.21300344331E+02  0.00000000000E+00 0. -1.
         25    2    1    2    0    0  0.42660655575E+01  0.20446326724E+02  0.84830418716E+03  0.85771640239E+03  0.12498472464E+03 0.  0.
    9000005    1    3    3    0    0 -0.23879823073E+02 -0.34713562742E+02  0.61138043895E+03  0.61283139486E+03  0.10000000000E+01 0.  0.
    9000005    1    3    3    0    0  0.28145888631E+02  0.55159889467E+02  0.23692374821E+03  0.24488500754E+03  0.10000000000E+01 0.  0.
         -4    1    1    2    0  502 -0.42660655575E+01 -0.20446326724E+02 -0.99982572439E+01  0.23191154343E+02  0.12700000000E+01 0.  1.
<mgrwt>
<rscale>  1 0.12671793E+03</rscale>
<asrwt>0</asrwt>
<pdfrwt beam="2">  1       21 0.32769767E-02 0.12671793E+03</pdfrwt>
<pdfrwt beam="1">  1       -4 0.13225008E+00 0.12671793E+03</pdfrwt>
<totfact> 0.97076001E+03</totfact>
</mgrwt>
</event>
<event>
 6    3  0.7601760E-003  0.1267312E+03  0.7818608E-02  0.1232388E+00
         -4   -1    0    0    0  501 -0.00000000000E+00  0.00000000000E+00  0.75808038478E+03  0.75808144859E+03  0.12700000000E+01 0. -1.
         21   -1    0    0  501  502  0.00000000000E+00 -0.00000000000E+00 -0.98668749794E+01  0.98668749794E+01  0.00000000000E+00 0.  1.
         25    2    1    2    0    0 -0.20588787971E+02  0.34359791263E+01  0.72770609917E+03  0.73865888975E+03  0.12500033794E+03 0.  0.
    9000005    1    3    3    0    0 -0.23865598438E+02  0.40745185699E+02  0.10867088935E+03  0.11849092429E+03  0.10000000000E+01 0.  0.
    9000005    1    3    3    0    0  0.32768104667E+01 -0.37309206573E+02  0.61903520982E+03  0.62016796546E+03  0.10000000000E+01 0.  0.
         -4    1    1    2    0  502  0.20588787971E+02 -0.34359791263E+01  0.20507410629E+02  0.29289433818E+02  0.12700000000E+01 0.  1.
<mgrwt>
<rscale>  1 0.12673117E+03</rscale>
<asrwt>0</asrwt>
<pdfrwt beam="2">  1       21 0.15179814E-02 0.12673117E+03</pdfrwt>
<pdfrwt beam="1">  1       -4 0.11663407E+00 0.12673117E+03</pdfrwt>
<totfact> 0.45771436E+04</totfact>
</mgrwt>
</event>
<event>
 6    3  0.7601760E-003  0.1345991E+03  0.7818608E-02  0.1220787E+00
         21   -1    0    0  501  502  0.00000000000E+00  0.00000000000E+00  0.12180338689E+04  0.12180338689E+04  0.00000000000E+00 0.  1.
          4   -1    0    0  502    0 -0.00000000000E+00 -0.00000000000E+00 -0.80915119540E+01  0.81905717568E+01  0.12700000000E+01 0.  1.
         25    2    1    2    0    0  0.37319165623E+02  0.33154927294E+02  0.63449749715E+03  0.64861698841E+03  0.12499981774E+03 0.  0.
    9000005    1    3    3    0    0  0.84422718383E+01 -0.47581690192E+02  0.20223059141E+03  0.20792667289E+03  0.10000000000E+01 0.  0.
    9000005    1    3    3    0    0  0.28876893784E+02  0.80736617486E+02  0.43226690574E+03  0.44069031552E+03  0.10000000000E+01 0.  0.
          4    1    1    2  501    0 -0.37319165623E+02 -0.33154927294E+02  0.57544485976E+03  0.57760745221E+03  0.12700000000E+01 0. -1.
<mgrwt>
<rscale>  1 0.13459912E+03</rscale>
<asrwt>0</asrwt>
<pdfrwt beam="1">  1       21 0.18738968E+00 0.13459912E+03</pdfrwt>
<pdfrwt beam="2">  1        4 0.12525199E-02 0.13459912E+03</pdfrwt>
<totfact> 0.14163487E+04</totfact>
</mgrwt>
</event>
<event>
 6    3  0.7601760E-003  0.1265925E+03  0.7818608E-02  0.1232601E+00
         21   -1    0    0  501  502  0.00000000000E+00  0.00000000000E+00  0.10095057288E+04  0.10095057288E+04  0.00000000000E+00 0. -1.
         -4   -1    0    0    0  501 -0.00000000000E+00 -0.00000000000E+00 -0.53402117343E+01  0.54891494211E+01  0.12700000000E+01 0. -1.
         25    2    1    2    0    0  0.13867440809E+02 -0.14418649138E+02  0.90620705854E+03  0.91500649963E+03  0.12500183219E+03 0.  0.
    9000005    1    3    3    0    0 -0.54805348474E+02 -0.16715188926E+02  0.36933968529E+03  0.37375904924E+03  0.10000000000E+01 0.  0.
    9000005    1    3    3    0    0  0.68672789283E+02  0.22965397889E+01  0.53686737325E+03  0.54124745038E+03  0.10000000000E+01 0.  0.
         -4    1    1    2    0  502 -0.13867440809E+02  0.14418649138E+02  0.97958458536E+02  0.99988378606E+02  0.12700000000E+01 0.  1.
<mgrwt>
<rscale>  1 0.12659250E+03</rscale>
<asrwt>0</asrwt>
<pdfrwt beam="1">  1       21 0.15530842E+00 0.12659250E+03</pdfrwt>
<pdfrwt beam="2">  1       -4 0.83309004E-03 0.12659250E+03</pdfrwt>
<totfact> 0.43412434E+04</totfact>
</mgrwt>
</event>
<event>
 6    3  0.7601760E-003  0.1282956E+03  0.7818608E-02  0.1230007E+00
         -4   -1    0    0    0  501 -0.00000000000E+00  0.00000000000E+00  0.14937822798E+03  0.14938362660E+03  0.12700000000E+01 0.  1.
         21   -1    0    0  501  502  0.00000000000E+00 -0.00000000000E+00 -0.44555397519E+02  0.44555397519E+02  0.00000000000E+00 0.  1.
         25    2    1    2    0    0  0.23866049131E+02  0.16276868581E+02  0.10376125644E+03  0.16500349939E+03  0.12500092687E+03 0.  0.
    9000005    1    3    3    0    0  0.13212208725E+02  0.59397989174E+02  0.10577828153E+02  0.61770332893E+02  0.10000000000E+01 0.  0.
    9000005    1    3    3    0    0  0.10653840406E+02 -0.43121120593E+02  0.93183428288E+02  0.10323316649E+03  0.10000000000E+01 0.  0.
         -4    1    1    2    0  502 -0.23866049131E+02 -0.16276868581E+02  0.10615740229E+01  0.28935524729E+02  0.12700000000E+01 0. -1.
<mgrwt>
<rscale>  1 0.12829558E+03</rscale>
<asrwt>0</asrwt>
<pdfrwt beam="2">  1       21 0.68546766E-02 0.12829558E+03</pdfrwt>
<pdfrwt beam="1">  1       -4 0.22983073E-01 0.12829558E+03</pdfrwt>
<totfact> 0.10948084E+05</totfact>
</mgrwt>
</event>
<event>
 6    3  0.7601760E-003  0.1276751E+03  0.7818608E-02  0.1230947E+00
         -4   -1    0    0    0  501 -0.00000000000E+00  0.00000000000E+00  0.18372644962E+03  0.18373083897E+03  0.12700000000E+01 0.  1.
         21   -1    0    0  501  502  0.00000000000E+00 -0.00000000000E+00 -0.43343034850E+02  0.43343034850E+02  0.00000000000E+00 0.  1.
         25    2    1    2    0    0  0.13577712365E+02  0.22157248833E+02  0.15206301664E+03  0.19855503884E+03  0.12500257785E+03 0.  0.
    9000005    1    3    3    0    0  0.25362573312E+01 -0.26506516499E+02  0.14584420623E+03  0.14825842475E+03  0.10000000000E+01 0.  0.
    9000005    1    3    3    0    0  0.11041455034E+02  0.48663765333E+02  0.62188104078E+01  0.50296614086E+02  0.10000000000E+01 0.  0.
         -4    1    1    2    0  502 -0.13577712365E+02 -0.22157248833E+02 -0.11679601872E+02  0.28518834984E+02  0.12700000000E+01 0. -1.
<mgrwt>
<rscale>  1 0.12767514E+03</rscale>
<asrwt>0</asrwt>
<pdfrwt beam="2">  1       21 0.66681593E-02 0.12767514E+03</pdfrwt>
<pdfrwt beam="1">  1       -4 0.28267376E-01 0.12767514E+03</pdfrwt>
<totfact> 0.78224675E+04</totfact>
</mgrwt>
</event>
<event>
 6    3  0.7601760E-003  0.1376858E+03  0.7818608E-02  0.1216477E+00
         21   -1    0    0  501  502  0.00000000000E+00  0.00000000000E+00  0.15130437964E+03  0.15130437964E+03  0.00000000000E+00 0. -1.
         -4   -1    0    0    0  501 -0.00000000000E+00 -0.00000000000E+00 -0.63236662165E+02  0.63249413766E+02  0.12700000000E+01 0. -1.
         25    2    1    2    0    0  0.42006140888E+02 -0.39593701948E+02  0.66663466307E+02  0.15297512848E+03  0.12500078034E+03 0.  0.
    9000005    1    3    3    0    0  0.59132842420E+02 -0.72828913783E+01  0.91188905309E+02  0.10893185949E+03  0.10000000000E+01 0.  0.
    9000005    1    3    3    0    0 -0.17126701532E+02 -0.32310810570E+02 -0.24525439003E+02  0.44043268990E+02  0.10000000000E+01 0.  0.
         -4    1    1    2    0  502 -0.42006140888E+02  0.39593701948E+02  0.21404251165E+02  0.61578664927E+02  0.12700000000E+01 0.  1.
<mgrwt>
<rscale>  1 0.13768577E+03</rscale>
<asrwt>0</asrwt>
<pdfrwt beam="1">  1       21 0.23277597E-01 0.13768577E+03</pdfrwt>
<pdfrwt beam="2">  1       -4 0.97301082E-02 0.13768577E+03</pdfrwt>
<totfact> 0.56009981E+04</totfact>
</mgrwt>
</event>
<event>
 6    3  0.7601760E-003  0.1314182E+03  0.7818608E-02  0.1225366E+00
         21   -1    0    0  501  502  0.00000000000E+00  0.00000000000E+00  0.26542717618E+02  0.26542717618E+02  0.00000000000E+00 0.  1.
          4   -1    0    0  502    0 -0.00000000000E+00 -0.00000000000E+00 -0.31627071907E+03  0.31627326893E+03  0.12700000000E+01 0.  1.
         25    2    1    2    0    0 -0.37928771213E+02 -0.14397466410E+02 -0.16092058736E+03  0.20776473129E+03  0.12499947761E+03 0.  0.
    9000005    1    3    3    0    0 -0.35996400409E+02  0.36996662238E+02 -0.14500006772E+03  0.15391722937E+03  0.10000000000E+01 0.  0.
    9000005    1    3    3    0    0 -0.19323708042E+01 -0.51394128648E+02 -0.15920519644E+02  0.53847501912E+02  0.10000000000E+01 0.  0.
          4    1    1    2  501    0  0.37928771213E+02  0.14397466410E+02 -0.12880741408E+03  0.13505125526E+03  0.12700000000E+01 0. -1.
<mgrwt>
<rscale>  1 0.13141822E+03</rscale>
<asrwt>0</asrwt>
<pdfrwt beam="1">  1       21 0.40834951E-02 0.13141822E+03</pdfrwt>
<pdfrwt beam="2">  1        4 0.48659566E-01 0.13141822E+03</pdfrwt>
<totfact> 0.62324584E+04</totfact>
</mgrwt>
</event>
<event>
 6    3  0.7601760E-003  0.1276626E+03  0.7818608E-02  0.1230966E+00
          4   -1    0    0  502    0 -0.00000000000E+00  0.00000000000E+00  0.88632827487E+01  0.89538081889E+01  0.12700000000E+01 0. -1.
         21   -1    0    0  501  502  0.00000000000E+00 -0.00000000000E+00 -0.69296080045E+03  0.69296080045E+03  0.00000000000E+00 0. -1.
         25    2    1    2    0    0  0.19537495091E+02 -0.17171642815E+02 -0.61410886964E+03  0.62723795373E+03  0.12498467023E+03 0.  0.
    9000005    1    3    3    0    0  0.52624625402E+02 -0.24632625572E+02 -0.13560551663E+03  0.14753295761E+03  0.10000000000E+01 0.  0.
    9000005    1    3    3    0    0 -0.33087130310E+02  0.74609827563E+01 -0.47850335301E+03  0.47970499611E+03  0.10000000000E+01 0.  0.
          4    1    1    2  501    0 -0.19537495091E+02  0.17171642815E+02 -0.69988648061E+02  0.74676654912E+02  0.12700000000E+01 0.  1.
<mgrwt>
<rscale>  1 0.12766263E+03</rscale>
<asrwt>0</asrwt>
<pdfrwt beam="2">  1       21 0.10660936E+00 0.12766263E+03</pdfrwt>
<pdfrwt beam="1">  1        4 0.13706349E-02 0.12766263E+03</pdfrwt>
<totfact> 0.52251390E+04</totfact>
</mgrwt>
</event>
<event>
 6    3  0.7601760E-003  0.1277681E+03  0.7818608E-02  0.1230806E+00
         -4   -1    0    0    0  501 -0.00000000000E+00  0.00000000000E+00  0.68451140418E+02  0.68462920801E+02  0.12700000000E+01 0.  1.
         21   -1    0    0  501  502  0.00000000000E+00 -0.00000000000E+00 -0.12578487292E+03  0.12578487292E+03  0.00000000000E+00 0. -1.
         25    2    1    2    0    0  0.24792522739E+02 -0.92618807465E+01  0.35827021101E+01  0.12781830837E+03  0.12499693028E+03 0.  0.
    9000005    1    3    3    0    0  0.77444277589E+01  0.63576070594E+00  0.63887155447E+02  0.64365743871E+02  0.10000000000E+01 0.  0.
    9000005    1    3    3    0    0  0.17048094980E+02 -0.98976414525E+01 -0.60304453336E+02  0.63452564495E+02  0.10000000000E+01 0.  0.
         -4    1    1    2    0  502 -0.24792522739E+02  0.92618807465E+01 -0.60916434612E+02  0.66429485355E+02  0.12700000000E+01 0. -1.
<mgrwt>
<rscale>  1 0.12776809E+03</rscale>
<asrwt>0</asrwt>
<pdfrwt beam="2">  1       21 0.19351519E-01 0.12776809E+03</pdfrwt>
<pdfrwt beam="1">  1       -4 0.10532344E-01 0.12776809E+03</pdfrwt>
<totfact> 0.68483852E+04</totfact>
</mgrwt>
</event>
<event>
 6    3  0.7601760E-003  0.1266164E+03  0.7818608E-02  0.1232565E+00
         -4   -1    0    0    0  501 -0.00000000000E+00  0.00000000000E+00  0.99786242169E+03  0.99786322987E+03  0.12700000000E+01 0.  1.
         21   -1    0    0  501  502  0.00000000000E+00 -0.00000000000E+00 -0.62170064474E+01  0.62170064474E+01  0.00000000000E+00 0.  1.
         25    2    1    2    0    0 -0.17805888844E+02  0.94258145101E+01  0.94224961735E+03  0.95071870142E+03  0.12500324868E+03 0.  0.
    9000005    1    3    3    0    0 -0.65194919543E+02 -0.10771121996E+01  0.73371455937E+03  0.73660680987E+03  0.10000000000E+01 0.  0.
    9000005    1    3    3    0    0  0.47389030699E+02  0.10502926710E+02  0.20853505797E+03  0.21411189155E+03  0.10000000000E+01 0.  0.
         -4    1    1    2    0  502  0.17805888844E+02 -0.94258145101E+01  0.49395797895E+02  0.53361534895E+02  0.12700000000E+01 0. -1.
<mgrwt>
<rscale>  1 0.12661638E+03</rscale>
<asrwt>0</asrwt>
<pdfrwt beam="2">  1       21 0.95646333E-03 0.12661638E+03</pdfrwt>
<pdfrwt beam="1">  1       -4 0.15352721E+00 0.12661638E+03</pdfrwt>
<totfact> 0.48320180E+04</totfact>
</mgrwt>
</event>
<event>
 6    3  0.7601760E-003  0.1266567E+03  0.7818608E-02  0.1232503E+00
         21   -1    0    0  501  502  0.00000000000E+00  0.00000000000E+00  0.32957679927E+02  0.32957679927E+02  0.00000000000E+00 0.  1.
          4   -1    0    0  502    0 -0.00000000000E+00 -0.00000000000E+00 -0.47259762883E+03  0.47259933525E+03  0.12700000000E+01 0. -1.
         25    2    1    2    0    0  0.13111955442E+02 -0.15600516155E+02 -0.45976254082E+03  0.47688941874E+03  0.12500649698E+03 0.  0.
    9000005    1    3    3    0    0 -0.37167089352E+02 -0.12405660776E+02 -0.38340671945E+03  0.38540498890E+03  0.10000000000E+01 0.  0.
    9000005    1    3    3    0    0  0.50279044794E+02 -0.31948553797E+01 -0.76355821376E+02  0.91484429846E+02  0.10000000000E+01 0.  0.
          4    1    1    2  501    0 -0.13111955442E+02  0.15600516155E+02  0.20122591917E+02  0.28667596434E+02  0.12700000000E+01 0.  1.
<mgrwt>
<rscale>  1 0.12665672E+03</rscale>
<asrwt>0</asrwt>
<pdfrwt beam="1">  1       21 0.50704125E-02 0.12665672E+03</pdfrwt>
<pdfrwt beam="2">  1        4 0.72709338E-01 0.12665672E+03</pdfrwt>
<totfact> 0.18619504E+04</totfact>
</mgrwt>
</event>
<event>
 6    3  0.7601760E-003  0.1277841E+03  0.7818608E-02  0.1230781E+00
         21   -1    0    0  501  502  0.00000000000E+00  0.00000000000E+00  0.22225636833E+02  0.22225636833E+02  0.00000000000E+00 0.  1.
          4   -1    0    0  502    0 -0.00000000000E+00 -0.00000000000E+00 -0.51365252892E+03  0.51365409894E+03  0.12700000000E+01 0. -1.
         25    2    1    2    0    0 -0.14613973563E+02  0.22135433950E+02 -0.49298726604E+03  0.50927910935E+03  0.12500088432E+03 0.  0.
    9000005    1    3    3    0    0  0.26272588508E+02 -0.43277358274E+02 -0.19506280346E+03  0.20152835021E+03  0.10000000000E+01 0.  0.
    9000005    1    3    3    0    0 -0.40886562071E+02  0.65412792224E+02 -0.29792446258E+03  0.30775075914E+03  0.10000000000E+01 0.  0.
          4    1    1    2  501    0  0.14613973563E+02 -0.22135433950E+02  0.15603739571E+01  0.26600626427E+02  0.12700000000E+01 0.  1.
<mgrwt>
<rscale>  1 0.12778406E+03</rscale>
<asrwt>0</asrwt>
<pdfrwt beam="1">  1       21 0.34193288E-02 0.12778406E+03</pdfrwt>
<pdfrwt beam="2">  1        4 0.79026376E-01 0.12778406E+03</pdfrwt>
<totfact> 0.29926273E+04</totfact>
</mgrwt>
</event>
<event>
 6    3  0.7601760E-003  0.1268937E+03  0.7818608E-02  0.1232139E+00
         21   -1    0    0  501  502  0.00000000000E+00  0.00000000000E+00  0.20190317899E+03  0.20190317899E+03  0.00000000000E+00 0.  1.
         -4   -1    0    0    0  501 -0.00000000000E+00 -0.00000000000E+00 -0.68623204749E+02  0.68634955598E+02  0.12700000000E+01 0.  1.
         25    2    1    2    0    0  0.12430957582E+02 -0.17986360060E+02 -0.84038160366E+01  0.12717165600E+03  0.12499587238E+03 0.  0.
    9000005    1    3    3    0    0 -0.23352388119E+02  0.32591783760E+02 -0.40831966936E+02  0.57234674135E+02  0.10000000000E+01 0.  0.
    9000005    1    3    3    0    0  0.35783345701E+02 -0.50578143820E+02  0.32428150900E+02  0.69936981867E+02  0.10000000000E+01 0.  0.
         -4    1    1    2    0  502 -0.12430957582E+02  0.17986360060E+02  0.14168379028E+03  0.14336647859E+03  0.12700000000E+01 0. -1.
<mgrwt>
<rscale>  1 0.12689368E+03</rscale>
<asrwt>0</asrwt>
<pdfrwt beam="1">  1       21 0.31062027E-01 0.12689368E+03</pdfrwt>
<pdfrwt beam="2">  1       -4 0.10558627E-01 0.12689368E+03</pdfrwt>
<totfact> 0.27902512E+04</totfact>
</mgrwt>
</event>
<event>
 6    3  0.7601760E-003  0.1319091E+03  0.7818608E-02  0.1224650E+00
         21   -1    0    0  501  502  0.00000000000E+00  0.00000000000E+00  0.25961414182E+02  0.25961414182E+02  0.00000000000E+00 0. -1.
         -4   -1    0    0    0  501 -0.00000000000E+00 -0.00000000000E+00 -0.22450069839E+04  0.22450073431E+04  0.12700000000E+01 0.  1.
         25    2    1    2    0    0  0.41660803218E+02  0.62217355854E+01 -0.22245600638E+04  0.22284675213E+04  0.12500273292E+03 0.  0.
    9000005    1    3    3    0    0  0.40261142768E+02  0.52752055700E+02 -0.18245384277E+04  0.18257451118E+04  0.10000000000E+01 0.  0.
    9000005    1    3    3    0    0  0.13996604503E+01 -0.46530320115E+02 -0.40002163615E+03  0.40272240951E+03  0.10000000000E+01 0.  0.
         -4    1    1    2    0  502 -0.41660803218E+02 -0.62217355854E+01  0.55144941196E+01  0.42501236027E+02  0.12700000000E+01 0. -1.
<mgrwt>
<rscale>  1 0.13190912E+03</rscale>
<asrwt>0</asrwt>
<pdfrwt beam="1">  1       21 0.39940623E-02 0.13190912E+03</pdfrwt>
<pdfrwt beam="2">  1       -4 0.34538823E+00 0.13190912E+03</pdfrwt>
<totfact> 0.33333186E+02</totfact>
</mgrwt>
</event>
<event>
 6    3  0.7601760E-003  0.1338380E+03  0.7818608E-02  0.1221869E+00
         21   -1    0    0  501  502  0.00000000000E+00  0.00000000000E+00  0.23887248568E+03  0.23887248568E+03  0.00000000000E+00 0.  1.
         -4   -1    0    0    0  501 -0.00000000000E+00 -0.00000000000E+00 -0.90972544669E+02  0.90981409000E+02  0.12700000000E+01 0. -1.
         25    2    1    2    0    0 -0.22055799175E+01 -0.47782680740E+02 -0.37003576134E+02  0.13885920178E+03  0.12499825644E+03 0.  0.
    9000005    1    3    3    0    0  0.16957956190E+02  0.35014897287E+02  0.12032544449E+02  0.40735702229E+02  0.10000000000E+01 0.  0.
    9000005    1    3    3    0    0 -0.19163536108E+02 -0.82797578027E+02 -0.49036120583E+02  0.98123499556E+02  0.10000000000E+01 0.  0.
         -4    1    1    2    0  502  0.22055799175E+01  0.47782680740E+02  0.18490351714E+03  0.19099469289E+03  0.12700000000E+01 0.  1.
<mgrwt>
<rscale>  1 0.13383801E+03</rscale>
<asrwt>0</asrwt>
<pdfrwt beam="1">  1       21 0.36749613E-01 0.13383801E+03</pdfrwt>
<pdfrwt beam="2">  1       -4 0.13996718E-01 0.13383801E+03</pdfrwt>
<totfact> 0.12457822E+04</totfact>
</mgrwt>
</event>
<event>
 6    3  0.7601760E-003  0.1278340E+03  0.7818608E-02  0.1230706E+00
         -4   -1    0    0    0  501 -0.00000000000E+00  0.00000000000E+00  0.98352458587E+02  0.98360657836E+02  0.12700000000E+01 0.  1.
         21   -1    0    0  501  502  0.00000000000E+00 -0.00000000000E+00 -0.69509405513E+02  0.69509405513E+02  0.00000000000E+00 0.  1.
         25    2    1    2    0    0  0.47932369846E+01  0.26358439216E+02  0.46196188617E+02  0.13592500658E+03  0.12499510844E+03 0.  0.
    9000005    1    3    3    0    0 -0.10065713748E+02  0.74785727367E+02  0.16677210006E+02  0.77287469519E+02  0.10000000000E+01 0.  0.
    9000005    1    3    3    0    0  0.14858950733E+02 -0.48427288151E+02  0.29518978611E+02  0.58637537063E+02  0.10000000000E+01 0.  0.
         -4    1    1    2    0  502 -0.47932369846E+01 -0.26358439216E+02 -0.17353135544E+02  0.31945056768E+02  0.12700000000E+01 0. -1.
<mgrwt>
<rscale>  1 0.12783395E+03</rscale>
<asrwt>0</asrwt>
<pdfrwt beam="2">  1       21 0.10693755E-01 0.12783395E+03</pdfrwt>
<pdfrwt beam="1">  1       -4 0.15132671E-01 0.12783395E+03</pdfrwt>
<totfact> 0.10675563E+05</totfact>
</mgrwt>
</event>
<event>
 6    3  0.7601760E-003  0.1312077E+03  0.7818608E-02  0.1225675E+00
         21   -1    0    0  501  502  0.00000000000E+00  0.00000000000E+00  0.15403776601E+03  0.15403776601E+03  0.00000000000E+00 0.  1.
          4   -1    0    0  502    0 -0.00000000000E+00 -0.00000000000E+00 -0.49425711078E+02  0.49442024792E+02  0.12700000000E+01 0. -1.
         25    2    1    2    0    0  0.22106723732E+02  0.33185873793E+02  0.96230298185E+02  0.16271367497E+03  0.12500184111E+03 0.  0.
    9000005    1    3    3    0    0  0.53733176461E+02  0.45594850027E+02  0.11486335890E+02  0.71407846304E+02  0.10000000000E+01 0.  0.
    9000005    1    3    3    0    0 -0.31626452729E+02 -0.12408976234E+02  0.84743962295E+02  0.91305828668E+02  0.10000000000E+01 0.  0.
          4    1    1    2  501    0 -0.22106723732E+02 -0.33185873793E+02  0.83817567453E+01  0.40766115828E+02  0.12700000000E+01 0.  1.
<mgrwt>
<rscale>  1 0.13120774E+03</rscale>
<asrwt>0</asrwt>
<pdfrwt beam="1">  1       21 0.23698118E-01 0.13120774E+03</pdfrwt>
<pdfrwt beam="2">  1        4 0.76056133E-02 0.13120774E+03</pdfrwt>
<totfact> 0.81149517E+04</totfact>
</mgrwt>
</event>
<event>
 6    3  0.7601760E-003  0.1268880E+03  0.7818608E-02  0.1232148E+00
         21   -1    0    0  501  502  0.00000000000E+00  0.00000000000E+00  0.17988181235E+03  0.17988181235E+03  0.00000000000E+00 0. -1.
         -4   -1    0    0    0  501 -0.00000000000E+00 -0.00000000000E+00 -0.32256376239E+02  0.32281367816E+02  0.12700000000E+01 0. -1.
         25    2    1    2    0    0  0.18696892006E+02  0.11228255305E+02  0.14018864726E+03  0.18908578394E+03  0.12499971753E+03 0.  0.
    9000005    1    3    3    0    0  0.44596231595E+02  0.47847595577E+02  0.12610699375E+03  0.14206403537E+03  0.10000000000E+01 0.  0.
    9000005    1    3    3    0    0 -0.25899339589E+02 -0.36619340271E+02  0.14081653509E+02  0.47021748570E+02  0.10000000000E+01 0.  0.
         -4    1    1    2    0  502 -0.18696892006E+02 -0.11228255305E+02  0.74367888560E+01  0.23077396222E+02  0.12700000000E+01 0.  1.
<mgrwt>
<rscale>  1 0.12688805E+03</rscale>
<asrwt>0</asrwt>
<pdfrwt beam="1">  1       21 0.27674124E-01 0.12688805E+03</pdfrwt>
<pdfrwt beam="2">  1       -4 0.49647868E-02 0.12688805E+03</pdfrwt>
<totfact> 0.12049340E+05</totfact>
</mgrwt>
</event>
<event>
 6    3  0.7601760E-003  0.1363327E+03  0.7818608E-02  0.1218351E+00
         21   -1    0    0  501  502  0.00000000000E+00  0.00000000000E+00  0.54104126854E+02  0.54104126854E+02  0.00000000000E+00 0.  1.
          4   -1    0    0  502    0 -0.00000000000E+00 -0.00000000000E+00 -0.18568957447E+03  0.18569391742E+03  0.12700000000E+01 0.  1.
         25    2    1    2    0    0  0.52862169111E+02  0.12754022734E+02 -0.12507774112E+03  0.18501632138E+03  0.12501809403E+03 0.  0.
    9000005    1    3    3    0    0  0.23987181872E+02  0.36969844151E+02  0.96403177342E+01  0.45123053938E+02  0.10000000000E+01 0.  0.
    9000005    1    3    3    0    0  0.28874987240E+02 -0.24215821416E+02 -0.13471805885E+03  0.13989326744E+03  0.10000000000E+01 0.  0.
          4    1    1    2  501    0 -0.52862169111E+02 -0.12754022734E+02 -0.65077064961E+01  0.54781722891E+02  0.12700000000E+01 0. -1.
<mgrwt>
<rscale>  1 0.13633267E+03</rscale>
<asrwt>0</asrwt>
<pdfrwt beam="1">  1       21 0.83237119E-02 0.13633267E+03</pdfrwt>
<pdfrwt beam="2">  1        4 0.28569107E-01 0.13633267E+03</pdfrwt>
<totfact> 0.52844389E+04</totfact>
</mgrwt>
</event>
<event>
 6    3  0.7601760E-003  0.1268492E+03  0.7818608E-02  0.1232207E+00
         21   -1    0    0  501  502  0.00000000000E+00  0.00000000000E+00  0.18575649809E+03  0.18575649809E+03  0.00000000000E+00 0. -1.
         -4   -1    0    0    0  501 -0.00000000000E+00 -0.00000000000E+00 -0.45384389688E+03  0.45384567380E+03  0.12700000000E+01 0.  1.
         25    2    1    2    0    0  0.14443310265E+02 -0.16096498589E+02 -0.44430492022E+03  0.46205799644E+03  0.12499209358E+03 0.  0.
    9000005    1    3    3    0    0 -0.54724508848E+02  0.15903115853E+01 -0.21705642800E+03  0.22385663692E+03  0.10000000000E+01 0.  0.
    9000005    1    3    3    0    0  0.69167819113E+02 -0.17686810174E+02 -0.22724849222E+03  0.23820135951E+03  0.10000000000E+01 0.  0.
         -4    1    1    2    0  502 -0.14443310265E+02  0.16096498589E+02  0.17621752144E+03  0.17754417546E+03  0.12700000000E+01 0. -1.
<mgrwt>
<rscale>  1 0.12684924E+03</rscale>
<asrwt>0</asrwt>
<pdfrwt beam="1">  1       21 0.28577923E-01 0.12684924E+03</pdfrwt>
<pdfrwt beam="2">  1       -4 0.69822609E-01 0.12684924E+03</pdfrwt>
<totfact> 0.93561296E+02</totfact>
</mgrwt>
</event>
<event>
 6    3  0.7601760E-003  0.1270956E+03  0.7818608E-02  0.1231830E+00
         21   -1    0    0  501  502  0.00000000000E+00  0.00000000000E+00  0.73184676730E+03  0.73184676730E+03  0.00000000000E+00 0. -1.
         -4   -1    0    0    0  501 -0.00000000000E+00 -0.00000000000E+00 -0.81107900585E+01  0.82096172489E+01  0.12700000000E+01 0.  1.
         25    2    1    2    0    0  0.17677740760E+02  0.14668725636E+02  0.53328760750E+03  0.54822346644E+03  0.12500249126E+03 0.  0.
    9000005    1    3    3    0    0  0.66386103916E+01 -0.40526680957E+02  0.67293295243E+02  0.78840792753E+02  0.10000000000E+01 0.  0.
    9000005    1    3    3    0    0  0.11039130369E+02  0.55195406593E+02  0.46599431225E+03  0.46938267369E+03  0.10000000000E+01 0.  0.
         -4    1    1    2    0  502 -0.17677740760E+02 -0.14668725636E+02  0.19044836975E+03  0.19183291811E+03  0.12700000000E+01 0. -1.
<mgrwt>
<rscale>  1 0.12709562E+03</rscale>
<asrwt>0</asrwt>
<pdfrwt beam="1">  1       21 0.11259176E+00 0.12709562E+03</pdfrwt>
<pdfrwt beam="2">  1       -4 0.12555013E-02 0.12709562E+03</pdfrwt>
<totfact> 0.52373474E+04</totfact>
</mgrwt>
</event>
<event>
 6    3  0.7601760E-003  0.1286537E+03  0.7818608E-02  0.1229467E+00
          4   -1    0    0  502    0 -0.00000000000E+00  0.00000000000E+00  0.35312852273E+03  0.35313080645E+03  0.12700000000E+01 0.  1.
         21   -1    0    0  501  502  0.00000000000E+00 -0.00000000000E+00 -0.18488515283E+02  0.18488515283E+02  0.00000000000E+00 0.  1.
         25    2    1    2    0    0  0.27576210554E+02  0.12917610739E+02  0.29314323160E+03  0.32013235871E+03  0.12499784320E+03 0.  0.
    9000005    1    3    3    0    0 -0.40890949322E+02  0.86330251659E+01  0.20072133454E+03  0.20502841998E+03  0.10000000000E+01 0.  0.
    9000005    1    3    3    0    0  0.68467159877E+02  0.42845855728E+01  0.92421897059E+02  0.11510393873E+03  0.10000000000E+01 0.  0.
          4    1    1    2  501    0 -0.27576210554E+02 -0.12917610739E+02  0.41496775843E+02  0.51486963021E+02  0.12700000000E+01 0. -1.
<mgrwt>
<rscale>  1 0.12865369E+03</rscale>
<asrwt>0</asrwt>
<pdfrwt beam="2">  1       21 0.28443872E-02 0.12865369E+03</pdfrwt>
<pdfrwt beam="1">  1        4 0.54330991E-01 0.12865369E+03</pdfrwt>
<totfact> 0.90053977E+04</totfact>
</mgrwt>
</event>
<event>
 6    3  0.7601760E-003  0.1348735E+03  0.7818608E-02  0.1220398E+00
         21   -1    0    0  501  502  0.00000000000E+00  0.00000000000E+00  0.14573509755E+02  0.14573509755E+02  0.00000000000E+00 0. -1.
         -4   -1    0    0    0  501 -0.00000000000E+00 -0.00000000000E+00 -0.91649118891E+03  0.91649206884E+03  0.12700000000E+01 0.  1.
         25    2    1    2    0    0 -0.48169054183E+02  0.15602991962E+02 -0.84143803799E+03  0.85217888115E+03  0.12500864992E+03 0.  0.
    9000005    1    3    3    0    0  0.18899889406E+02  0.21052271207E+02 -0.62221934394E+03  0.62286299931E+03  0.10000000000E+01 0.  0.
    9000005    1    3    3    0    0 -0.67068943590E+02 -0.54492792450E+01 -0.21921869405E+03  0.22931588183E+03  0.10000000000E+01 0.  0.
         -4    1    1    2    0  502  0.48169054183E+02 -0.15602991962E+02 -0.60479641158E+02  0.78886697444E+02  0.12700000000E+01 0. -1.
<mgrwt>
<rscale>  1 0.13487355E+03</rscale>
<asrwt>0</asrwt>
<pdfrwt beam="1">  1       21 0.22420783E-02 0.13487355E+03</pdfrwt>
<pdfrwt beam="2">  1       -4 0.14100297E+00 0.13487355E+03</pdfrwt>
<totfact> 0.15490326E+04</totfact>
</mgrwt>
</event>
<event>
 6    3  0.7601760E-003  0.1294205E+03  0.7818608E-02  0.1228318E+00
         21   -1    0    0  501  502  0.00000000000E+00  0.00000000000E+00  0.49485065952E+03  0.49485065952E+03  0.00000000000E+00 0.  1.
          4   -1    0    0  502    0 -0.00000000000E+00 -0.00000000000E+00 -0.20634125801E+02  0.20673172170E+02  0.12700000000E+01 0.  1.
         25    2    1    2    0    0 -0.28136908719E+01  0.33405472187E+02  0.19338725405E+03  0.23269784341E+03  0.12500325543E+03 0.  0.
    9000005    1    3    3    0    0 -0.50950227571E+02  0.45282936780E+02  0.15708504696E+03  0.17124012973E+03  0.10000000000E+01 0.  0.
    9000005    1    3    3    0    0  0.48136536699E+02 -0.11877464592E+02  0.36302207093E+02  0.61457713676E+02  0.10000000000E+01 0.  0.
          4    1    1    2  501    0  0.28136908719E+01 -0.33405472187E+02  0.28082927967E+03  0.28282598829E+03  0.12700000000E+01 0. -1.
<mgrwt>
<rscale>  1 0.12942046E+03</rscale>
<asrwt>0</asrwt>
<pdfrwt beam="1">  1       21 0.76130862E-01 0.12942046E+03</pdfrwt>
<pdfrwt beam="2">  1        4 0.31776102E-02 0.12942046E+03</pdfrwt>
<totfact> 0.30934056E+04</totfact>
</mgrwt>
</event>
<event>
 6    3  0.7601760E-003  0.1297049E+03  0.7818608E-02  0.1227894E+00
         21   -1    0    0  501  502  0.00000000000E+00  0.00000000000E+00  0.37263487384E+03  0.37263487384E+03  0.00000000000E+00 0.  1.
          4   -1    0    0  502    0 -0.00000000000E+00 -0.00000000000E+00 -0.60574932716E+02  0.60588244517E+02  0.12700000000E+01 0. -1.
         25    2    1    2    0    0  0.31212139578E+02  0.14962152308E+02  0.10992493913E+02  0.13016984857E+03  0.12500116358E+03 0.  0.
    9000005    1    3    3    0    0 -0.43743304157E+02 -0.47173524258E+01  0.26161299068E+02  0.51197105791E+02  0.10000000000E+01 0.  0.
    9000005    1    3    3    0    0  0.74955443735E+02  0.19679504734E+02 -0.15168805155E+02  0.78972742778E+02  0.10000000000E+01 0.  0.
          4    1    1    2  501    0 -0.31212139578E+02 -0.14962152308E+02  0.30106744721E+03  0.30305326979E+03  0.12700000000E+01 0.  1.
<mgrwt>
<rscale>  1 0.12970487E+03</rscale>
<asrwt>0</asrwt>
<pdfrwt beam="1">  1       21 0.57328441E-01 0.12970487E+03</pdfrwt>
<pdfrwt beam="2">  1        4 0.93204111E-02 0.12970487E+03</pdfrwt>
<totfact> 0.10025449E+04</totfact>
</mgrwt>
</event>
<event>
 6    3  0.7601760E-003  0.1559681E+03  0.7818608E-02  0.1193325E+00
         21   -1    0    0  501  502  0.00000000000E+00  0.00000000000E+00  0.45728578764E+02  0.45728578764E+02  0.00000000000E+00 0. -1.
         -4   -1    0    0    0  501 -0.00000000000E+00 -0.00000000000E+00 -0.12414743856E+04  0.12414750352E+04  0.12700000000E+01 0.  1.
         25    2    1    2    0    0  0.86018833591E+02  0.36086679914E+02 -0.11827769406E+04  0.11930160745E+04  0.12499829831E+03 0.  0.
    9000005    1    3    3    0    0  0.48766748382E+02  0.42319296903E+02 -0.11014447856E+04  0.11033361837E+04  0.10000000000E+01 0.  0.
    9000005    1    3    3    0    0  0.37252085209E+02 -0.62326169888E+01 -0.81332154982E+02  0.89679890728E+02  0.10000000000E+01 0.  0.
         -4    1    1    2    0  502 -0.86018833591E+02 -0.36086679914E+02 -0.12968866243E+02  0.94187539469E+02  0.12700000000E+01 0. -1.
<mgrwt>
<rscale>  1 0.15596815E+03</rscale>
<asrwt>0</asrwt>
<pdfrwt beam="1">  1       21 0.70351675E-02 0.15596815E+03</pdfrwt>
<pdfrwt beam="2">  1       -4 0.19099743E+00 0.15596815E+03</pdfrwt>
<totfact> 0.10423721E+03</totfact>
</mgrwt>
</event>
<event>
 6    3  0.7601760E-003  0.1292568E+03  0.7818608E-02  0.1228563E+00
         21   -1    0    0  501  502  0.00000000000E+00  0.00000000000E+00  0.17799204338E+02  0.17799204338E+02  0.00000000000E+00 0.  1.
         -4   -1    0    0    0  501 -0.00000000000E+00 -0.00000000000E+00 -0.46730319036E+03  0.46730491611E+03  0.12700000000E+01 0.  1.
         25    2    1    2    0    0  0.22052493327E+01 -0.32834319783E+02 -0.42453434492E+03  0.44377554006E+03  0.12499745700E+03 0.  0.
    9000005    1    3    3    0    0  0.28259705876E+02 -0.64050535928E+02 -0.14193643930E+03  0.15826570990E+03  0.10000000000E+01 0.  0.
    9000005    1    3    3    0    0 -0.26054456544E+02  0.31216216145E+02 -0.28259790562E+03  0.28550983016E+03  0.10000000000E+01 0.  0.
         -4    1    1    2    0  502 -0.22052493327E+01  0.32834319783E+02 -0.24969641099E+02  0.41328580388E+02  0.12700000000E+01 0. -1.
<mgrwt>
<rscale>  1 0.12925680E+03</rscale>
<asrwt>0</asrwt>
<pdfrwt beam="1">  1       21 0.27383391E-02 0.12925680E+03</pdfrwt>
<pdfrwt beam="2">  1       -4 0.71896417E-01 0.12925680E+03</pdfrwt>
<totfact> 0.53052263E+04</totfact>
</mgrwt>
</event>
<event>
 6    3  0.7601760E-003  0.1284741E+03  0.7818608E-02  0.1229738E+00
         21   -1    0    0  501  502  0.00000000000E+00  0.00000000000E+00  0.54952243905E+02  0.54952243905E+02  0.00000000000E+00 0. -1.
          4   -1    0    0  502    0 -0.00000000000E+00 -0.00000000000E+00 -0.12362722822E+03  0.12363375129E+03  0.12700000000E+01 0. -1.
         25    2    1    2    0    0 -0.24504997533E+02  0.16732438224E+02 -0.74221531614E+02  0.14837264583E+03  0.12500054753E+03 0.  0.
    9000005    1    3    3    0    0 -0.19682899087E+02  0.70822445387E+02 -0.49980765686E+02  0.88894950507E+02  0.10000000000E+01 0.  0.
    9000005    1    3    3    0    0 -0.48220984461E+01 -0.54090007164E+02 -0.24240765928E+02  0.59477695325E+02  0.10000000000E+01 0.  0.
          4    1    1    2  501    0  0.24504997533E+02 -0.16732438224E+02  0.55465472939E+01  0.30213349365E+02  0.12700000000E+01 0.  1.
<mgrwt>
<rscale>  1 0.12847415E+03</rscale>
<asrwt>0</asrwt>
<pdfrwt beam="1">  1       21 0.84541914E-02 0.12847415E+03</pdfrwt>
<pdfrwt beam="2">  1        4 0.19021204E-01 0.12847415E+03</pdfrwt>
<totfact> 0.10746407E+05</totfact>
</mgrwt>
</event>
<event>
 6    3  0.7601760E-003  0.1275694E+03  0.7818608E-02  0.1231108E+00
         -4   -1    0    0    0  501 -0.00000000000E+00  0.00000000000E+00  0.21157972216E+03  0.21158353370E+03  0.12700000000E+01 0. -1.
         21   -1    0    0  501  502  0.00000000000E+00 -0.00000000000E+00 -0.32208125876E+02  0.32208125876E+02  0.00000000000E+00 0. -1.
         25    2    1    2    0    0 -0.13365283943E+02  0.21687145728E+02  0.17699200635E+03  0.21817450803E+03  0.12499993016E+03 0.  0.
    9000005    1    3    3    0    0  0.30754417074E+02  0.36652338648E+02  0.15823541345E+02  0.50404489469E+02  0.10000000000E+01 0.  0.
    9000005    1    3    3    0    0 -0.44119701017E+02 -0.14965192920E+02  0.16116846500E+03  0.16777001856E+03  0.10000000000E+01 0.  0.
         -4    1    1    2    0  502  0.13365283943E+02 -0.21687145728E+02  0.23795899394E+01  0.25617151539E+02  0.12700000000E+01 0.  1.
<mgrwt>
<rscale>  1 0.12756938E+03</rscale>
<asrwt>0</asrwt>
<pdfrwt beam="2">  1       21 0.49550964E-02 0.12756938E+03</pdfrwt>
<pdfrwt beam="1">  1       -4 0.32552945E-01 0.12756938E+03</pdfrwt>
<totfact> 0.98975426E+04</totfact>
</mgrwt>
</event>
<event>
 6    3  0.7601760E-003  0.1368207E+03  0.7818608E-02  0.1217672E+00
         -4   -1    0    0    0  501 -0.00000000000E+00  0.00000000000E+00  0.60583546274E+02  0.60596856181E+02  0.12700000000E+01 0.  1.
         21   -1    0    0  501  502  0.00000000000E+00 -0.00000000000E+00 -0.52700143664E+03  0.52700143664E+03  0.00000000000E+00 0. -1.
         25    2    1    2    0    0  0.60034338993E+01 -0.55286540693E+02 -0.20646594239E+02  0.13836972722E+03  0.12500902670E+03 0.  0.
    9000005    1    3    3    0    0 -0.15030625337E+02  0.93526949675E+01 -0.58105002078E+02  0.60750175865E+02  0.10000000000E+01 0.  0.
    9000005    1    3    3    0    0  0.21034059236E+02 -0.64639235661E+02  0.37458407839E+02  0.77619551355E+02  0.10000000000E+01 0.  0.
         -4    1    1    2    0  502 -0.60034338993E+01  0.55286540693E+02 -0.44577129613E+03  0.44922856561E+03  0.12700000000E+01 0. -1.
<mgrwt>
<rscale>  1 0.13682068E+03</rscale>
<asrwt>0</asrwt>
<pdfrwt beam="2">  1       21 0.81077145E-01 0.13682068E+03</pdfrwt>
<pdfrwt beam="1">  1       -4 0.93216870E-02 0.13682068E+03</pdfrwt>
<totfact> 0.47340727E+03</totfact>
</mgrwt>
</event>
<event>
 6    3  0.7601760E-003  0.1273833E+03  0.7818608E-02  0.1231391E+00
         21   -1    0    0  501  502  0.00000000000E+00  0.00000000000E+00  0.25064416224E+02  0.25064416224E+02  0.00000000000E+00 0.  1.
         -4   -1    0    0    0  501 -0.00000000000E+00 -0.00000000000E+00 -0.38049778229E+03  0.38049990174E+03  0.12700000000E+01 0. -1.
         25    2    1    2    0    0  0.15330615104E+02  0.19443900779E+02 -0.35861570637E+03  0.38056765365E+03  0.12495367588E+03 0.  0.
    9000005    1    3    3    0    0 -0.49075551078E+01 -0.50569260836E+02 -0.19386166847E+03  0.20041127898E+03  0.10000000000E+01 0.  0.
    9000005    1    3    3    0    0  0.20238170212E+02  0.70013161615E+02 -0.16475403790E+03  0.18015637468E+03  0.10000000000E+01 0.  0.
         -4    1    1    2    0  502 -0.15330615104E+02 -0.19443900779E+02  0.31823403065E+01  0.24996664313E+02  0.12700000000E+01 0.  1.
<mgrwt>
<rscale>  1 0.12738334E+03</rscale>
<asrwt>0</asrwt>
<pdfrwt beam="1">  1       21 0.38560640E-02 0.12738334E+03</pdfrwt>
<pdfrwt beam="2">  1       -4 0.58540759E-01 0.12738334E+03</pdfrwt>
<totfact> 0.46665275E+04</totfact>
</mgrwt>
</event>
<event>
 6    3  0.7601760E-003  0.1268913E+03  0.7818608E-02  0.1232143E+00
         -4   -1    0    0    0  501 -0.00000000000E+00  0.00000000000E+00  0.56919822114E+02  0.56933988527E+02  0.12700000000E+01 0. -1.
         21   -1    0    0  501  502  0.00000000000E+00 -0.00000000000E+00 -0.10402402921E+03  0.10402402921E+03  0.00000000000E+00 0. -1.
         25    2    1    2    0    0  0.18668118871E+02  0.11247948271E+02 -0.23945205967E+02  0.12913087153E+03  0.12500557624E+03 0.  0.
    9000005    1    3    3    0    0 -0.13628321161E+02 -0.37804322267E+02 -0.50603088187E+02  0.64626391310E+02  0.10000000000E+01 0.  0.
    9000005    1    3    3    0    0  0.32296440032E+02  0.49052270538E+02  0.26657882220E+02  0.64504480217E+02  0.10000000000E+01 0.  0.
         -4    1    1    2    0  502 -0.18668118871E+02 -0.11247948271E+02 -0.23159001124E+02  0.31827146205E+02  0.12700000000E+01 0.  1.
<mgrwt>
<rscale>  1 0.12689133E+03</rscale>
<asrwt>0</asrwt>
<pdfrwt beam="2">  1       21 0.16003697E-01 0.12689133E+03</pdfrwt>
<pdfrwt beam="1">  1       -4 0.87585818E-02 0.12689133E+03</pdfrwt>
<totfact> 0.13188677E+05</totfact>
</mgrwt>
</event>
<event>
 6    3  0.7601760E-003  0.1283437E+03  0.7818608E-02  0.1229934E+00
         -4   -1    0    0    0  501 -0.00000000000E+00  0.00000000000E+00  0.22397568907E+03  0.22397928966E+03  0.12700000000E+01 0.  1.
         21   -1    0    0  501  502  0.00000000000E+00 -0.00000000000E+00 -0.53033946839E+02  0.53033946839E+02  0.00000000000E+00 0. -1.
         25    2    1    2    0    0 -0.25287370881E+01  0.28993509699E+02  0.19884957563E+03  0.23667122141E+03  0.12500038080E+03 0.  0.
    9000005    1    3    3    0    0  0.49975679181E+01 -0.49305221051E+02  0.72135836962E+02  0.87524622148E+02  0.10000000000E+01 0.  0.
    9000005    1    3    3    0    0 -0.75263050061E+01  0.78298730750E+02  0.12671373867E+03  0.14914659926E+03  0.10000000000E+01 0.  0.
         -4    1    1    2    0  502  0.25287370881E+01 -0.28993509699E+02 -0.27907833400E+02  0.40342015084E+02  0.12700000000E+01 0. -1.
<mgrwt>
<rscale>  1 0.12834373E+03</rscale>
<asrwt>0</asrwt>
<pdfrwt beam="2">  1       21 0.81590689E-02 0.12834373E+03</pdfrwt>
<pdfrwt beam="1">  1       -4 0.34459244E-01 0.12834373E+03</pdfrwt>
<totfact> 0.38023906E+04</totfact>
</mgrwt>
</event>
<event>
 6    3  0.7601760E-003  0.1344762E+03  0.7818608E-02  0.1220961E+00
          4   -1    0    0  502    0 -0.00000000000E+00  0.00000000000E+00  0.15468416780E+02  0.15520464480E+02  0.12700000000E+01 0.  1.
         21   -1    0    0  501  502  0.00000000000E+00 -0.00000000000E+00 -0.60743188717E+03  0.60743188717E+03  0.00000000000E+00 0.  1.
         25    2    1    2    0    0  0.49519212577E+02 -0.25780624354E+01 -0.33024438523E+03  0.35657425335E+03  0.12500018141E+03 0.  0.
    9000005    1    3    3    0    0 -0.17720383133E+02  0.47184229371E+02 -0.13786367717E+03  0.14679154254E+03  0.10000000000E+01 0.  0.
    9000005    1    3    3    0    0  0.67239595710E+02 -0.49762291806E+02 -0.19238070806E+03  0.20978271080E+03  0.10000000000E+01 0.  0.
          4    1    1    2  501    0 -0.49519212577E+02  0.25780624354E+01 -0.26171908516E+03  0.26637809830E+03  0.12700000000E+01 0. -1.
<mgrwt>
<rscale>  1 0.13447618E+03</rscale>
<asrwt>0</asrwt>
<pdfrwt beam="2">  1       21 0.93451049E-01 0.13447618E+03</pdfrwt>
<pdfrwt beam="1">  1        4 0.23838625E-02 0.13447618E+03</pdfrwt>
<totfact> 0.30582328E+04</totfact>
</mgrwt>
</event>
<event>
 6    3  0.7601760E-003  0.1341860E+03  0.7818608E-02  0.1221373E+00
         -4   -1    0    0    0  501 -0.00000000000E+00  0.00000000000E+00  0.14923217678E+03  0.14923758068E+03  0.12700000000E+01 0. -1.
         21   -1    0    0  501  502  0.00000000000E+00 -0.00000000000E+00 -0.46698425445E+03  0.46698425445E+03  0.00000000000E+00 0.  1.
         25    2    1    2    0    0 -0.44250641906E+02  0.20565416489E+02  0.11742835561E+03  0.17831239464E+03  0.12499934286E+03 0.  0.
    9000005    1    3    3    0    0  0.19514321630E+02  0.23693773543E+02  0.10979360442E+03  0.11400806649E+03  0.10000000000E+01 0.  0.
    9000005    1    3    3    0    0 -0.63764963535E+02 -0.31283570532E+01  0.76347511861E+01  0.64304328145E+02  0.10000000000E+01 0.  0.
         -4    1    1    2    0  502  0.44250641906E+02 -0.20565416489E+02 -0.43518043328E+03  0.43790944049E+03  0.12700000000E+01 0.  1.
<mgrwt>
<rscale>  1 0.13418603E+03</rscale>
<asrwt>0</asrwt>
<pdfrwt beam="2">  1       21 0.71843730E-01 0.13418603E+03</pdfrwt>
<pdfrwt beam="1">  1       -4 0.22959345E-01 0.13418603E+03</pdfrwt>
<totfact> 0.12832190E+03</totfact>
</mgrwt>
</event>
<event>
 6    3  0.7601760E-003  0.1273239E+03  0.7818608E-02  0.1231481E+00
         -4   -1    0    0    0  501 -0.00000000000E+00  0.00000000000E+00  0.96038764527E+02  0.96047161290E+02  0.12700000000E+01 0.  1.
         21   -1    0    0  501  502  0.00000000000E+00 -0.00000000000E+00 -0.62426300341E+02  0.62426300341E+02  0.00000000000E+00 0.  1.
         25    2    1    2    0    0 -0.18559843853E+02  0.15552391234E+02  0.39889774744E+02  0.13342626209E+03  0.12500011444E+03 0.  0.
    9000005    1    3    3    0    0 -0.21434368196E+02  0.23708351097E+02  0.83260842449E+02  0.89190167267E+02  0.10000000000E+01 0.  0.
    9000005    1    3    3    0    0  0.28745243432E+01 -0.81559598625E+01 -0.43371067705E+02  0.44236094825E+02  0.10000000000E+01 0.  0.
         -4    1    1    2    0  502  0.18559843853E+02 -0.15552391234E+02 -0.62773105581E+01  0.25047199540E+02  0.12700000000E+01 0. -1.
<mgrwt>
<rscale>  1 0.12732389E+03</rscale>
<asrwt>0</asrwt>
<pdfrwt beam="2">  1       21 0.96040463E-02 0.12732389E+03</pdfrwt>
<pdfrwt beam="1">  1       -4 0.14776834E-01 0.12732389E+03</pdfrwt>
<totfact> 0.13423157E+05</totfact>
</mgrwt>
</event>
<event>
 6    3  0.7601760E-003  0.1289926E+03  0.7818608E-02  0.1228958E+00
         21   -1    0    0  501  502  0.00000000000E+00  0.00000000000E+00  0.17131019536E+03  0.17131019536E+03  0.00000000000E+00 0. -1.
          4   -1    0    0  502    0 -0.00000000000E+00 -0.00000000000E+00 -0.98075843897E+02  0.98084066270E+02  0.12700000000E+01 0. -1.
         25    2    1    2    0    0 -0.30928019302E+02  0.75964386921E+01 -0.52808709205E+02  0.13938382243E+03  0.12499936771E+03 0.  0.
    9000005    1    3    3    0    0  0.10420073498E+02 -0.49016075715E+02  0.23485722704E+01  0.50176382910E+02  0.10000000000E+01 0.  0.
    9000005    1    3    3    0    0 -0.41348092800E+02  0.56612514408E+02 -0.55157281475E+02  0.89207439519E+02  0.10000000000E+01 0.  0.
          4    1    1    2  501    0  0.30928019302E+02 -0.75964386921E+01  0.12604306066E+03  0.13001043920E+03  0.12700000000E+01 0.  1.
<mgrwt>
<rscale>  1 0.12899260E+03</rscale>
<asrwt>0</asrwt>
<pdfrwt beam="1">  1       21 0.26355415E-01 0.12899260E+03</pdfrwt>
<pdfrwt beam="2">  1        4 0.15089586E-01 0.12899260E+03</pdfrwt>
<totfact> 0.20752508E+04</totfact>
</mgrwt>
</event>
<event>
 6    3  0.7601760E-003  0.1281867E+03  0.7818608E-02  0.1230171E+00
          4   -1    0    0  502    0 -0.00000000000E+00  0.00000000000E+00  0.32011969948E+03  0.32012221868E+03  0.12700000000E+01 0.  1.
         21   -1    0    0  501  502  0.00000000000E+00 -0.00000000000E+00 -0.29663569965E+02  0.29663569965E+02  0.00000000000E+00 0. -1.
         25    2    1    2    0    0  0.20696422709E+01  0.28345692195E+02  0.29436903902E+03  0.32106845162E+03  0.12499623118E+03 0.  0.
    9000005    1    3    3    0    0 -0.52187741368E+02  0.30654539645E+02  0.22479877532E+03  0.23280625106E+03  0.10000000000E+01 0.  0.
    9000005    1    3    3    0    0  0.54257383639E+02 -0.23088474499E+01  0.69570263699E+02  0.88262200556E+02  0.10000000000E+01 0.  0.
          4    1    1    2  501    0 -0.20696422709E+01 -0.28345692195E+02 -0.39129095034E+01  0.28717337027E+02  0.12700000000E+01 0. -1.
<mgrwt>
<rscale>  1 0.12818666E+03</rscale>
<asrwt>0</asrwt>
<pdfrwt beam="2">  1       21 0.45636264E-02 0.12818666E+03</pdfrwt>
<pdfrwt beam="1">  1        4 0.49251467E-01 0.12818666E+03</pdfrwt>
<totfact> 0.50353314E+04</totfact>
</mgrwt>
</event>
<event>
 6    3  0.7601760E-003  0.1307636E+03  0.7818608E-02  0.1226327E+00
         21   -1    0    0  501  502  0.00000000000E+00  0.00000000000E+00  0.34867333443E+02  0.34867333443E+02  0.00000000000E+00 0.  1.
          4   -1    0    0  502    0 -0.00000000000E+00 -0.00000000000E+00 -0.23491244291E+03  0.23491587587E+03  0.12700000000E+01 0. -1.
         25    2    1    2    0    0  0.81716701084E+01  0.37574628739E+02 -0.18886968486E+03  0.22971911152E+03  0.12498193237E+03 0.  0.
    9000005    1    3    3    0    0  0.50948621041E+02  0.12087895802E+02 -0.24219860489E+02  0.57701653815E+02  0.10000000000E+01 0.  0.
    9000005    1    3    3    0    0 -0.42776950933E+02  0.25486732938E+02 -0.16464982437E+03  0.17201745770E+03  0.10000000000E+01 0.  0.
          4    1    1    2  501    0 -0.81716701084E+01 -0.37574628739E+02 -0.11175424608E+02  0.40064097799E+02  0.12700000000E+01 0.  1.
<mgrwt>
<rscale>  1 0.13076357E+03</rscale>
<asrwt>0</asrwt>
<pdfrwt beam="1">  1       21 0.53642049E-02 0.13076357E+03</pdfrwt>
<pdfrwt beam="2">  1        4 0.36142421E-01 0.13076357E+03</pdfrwt>
<totfact> 0.71084737E+04</totfact>
</mgrwt>
</event>
<event>
 6    3  0.7601760E-003  0.1287951E+03  0.7818608E-02  0.1229255E+00
         21   -1    0    0  501  502  0.00000000000E+00  0.00000000000E+00  0.87162197608E+03  0.87162197608E+03  0.00000000000E+00 0. -1.
         -4   -1    0    0    0  501 -0.00000000000E+00 -0.00000000000E+00 -0.62119861581E+02  0.62132842385E+02  0.12700000000E+01 0.  1.
         25    2    1    2    0    0 -0.31216452960E+02 -0.70282670993E+00  0.52565719394E+01  0.12890236831E+03  0.12495290355E+03 0.  0.
    9000005    1    3    3    0    0  0.46495327714E+02  0.11714754409E+02 -0.93303795316E+01  0.48858028534E+02  0.10000000000E+01 0.  0.
    9000005    1    3    3    0    0 -0.77711780673E+02 -0.12417581119E+02  0.14586951471E+02  0.80044339772E+02  0.10000000000E+01 0.  0.
         -4    1    1    2    0  502  0.31216452960E+02  0.70282670993E+00  0.80424554256E+03  0.80485245016E+03  0.12700000000E+01 0. -1.
<mgrwt>
<rscale>  1 0.12879514E+03</rscale>
<asrwt>0</asrwt>
<pdfrwt beam="1">  1       21 0.13409568E+00 0.12879514E+03</pdfrwt>
<pdfrwt beam="2">  1       -4 0.95579721E-02 0.12879514E+03</pdfrwt>
<totfact> 0.13768694E+03</totfact>
</mgrwt>
</event>
<event>
 6    3  0.7601760E-003  0.1305273E+03  0.7818608E-02  0.1226675E+00
         21   -1    0    0  501  502  0.00000000000E+00  0.00000000000E+00  0.97108972174E+02  0.97108972174E+02  0.00000000000E+00 0. -1.
          4   -1    0    0  502    0 -0.00000000000E+00 -0.00000000000E+00 -0.10235770587E+03  0.10236558431E+03  0.12700000000E+01 0. -1.
         25    2    1    2    0    0 -0.22789361880E+02  0.29879841701E+02 -0.51103794122E+02  0.14017481432E+03  0.12500088336E+03 0.  0.
    9000005    1    3    3    0    0 -0.71568299298E+01 -0.39816114366E+02 -0.55406594783E+02  0.68610742040E+02  0.10000000000E+01 0.  0.
    9000005    1    3    3    0    0 -0.15632531951E+02  0.69695956067E+02  0.43028006605E+01  0.71564072276E+02  0.10000000000E+01 0.  0.
          4    1    1    2  501    0  0.22789361880E+02 -0.29879841701E+02  0.45855060423E+02  0.59299742170E+02  0.12700000000E+01 0.  1.
<mgrwt>
<rscale>  1 0.13052732E+03</rscale>
<asrwt>0</asrwt>
<pdfrwt beam="1">  1       21 0.14939842E-01 0.13052732E+03</pdfrwt>
<pdfrwt beam="2">  1        4 0.15748584E-01 0.13052732E+03</pdfrwt>
<totfact> 0.55077022E+04</totfact>
</mgrwt>
</event>
<event>
 6    3  0.7601760E-003  0.1273741E+03  0.7818608E-02  0.1231405E+00
          4   -1    0    0  502    0 -0.00000000000E+00  0.00000000000E+00  0.82677813252E+02  0.82687566805E+02  0.12700000000E+01 0.  1.
         21   -1    0    0  501  502  0.00000000000E+00 -0.00000000000E+00 -0.72754617902E+02  0.72754617902E+02  0.00000000000E+00 0.  1.
         25    2    1    2    0    0  0.22944885589E+02 -0.84882930838E+01 -0.36680985227E+01  0.12742691988E+03  0.12500258425E+03 0.  0.
    9000005    1    3    3    0    0 -0.43125404731E+02 -0.94842114546E+01 -0.32990633611E+02  0.55128329434E+02  0.10000000000E+01 0.  0.
    9000005    1    3    3    0    0  0.66070290320E+02  0.99591837080E+00  0.29322535089E+02  0.72298590446E+02  0.10000000000E+01 0.  0.
          4    1    1    2  501    0 -0.22944885589E+02  0.84882930838E+01  0.13591293873E+02  0.28015264827E+02  0.12700000000E+01 0. -1.
<mgrwt>
<rscale>  1 0.12737411E+03</rscale>
<asrwt>0</asrwt>
<pdfrwt beam="2">  1       21 0.11193018E-01 0.12737411E+03</pdfrwt>
<pdfrwt beam="1">  1        4 0.12721266E-01 0.12737411E+03</pdfrwt>
<totfact> 0.13298088E+05</totfact>
</mgrwt>
</event>
<event>
 6    3  0.7601760E-003  0.1303405E+03  0.7818608E-02  0.1226951E+00
         21   -1    0    0  501  502  0.00000000000E+00  0.00000000000E+00  0.26951639616E+03  0.26951639616E+03  0.00000000000E+00 0.  1.
         -4   -1    0    0    0  501 -0.00000000000E+00 -0.00000000000E+00 -0.78592852424E+02  0.78603112865E+02  0.12700000000E+01 0. -1.
         25    2    1    2    0    0  0.35059847585E+02  0.11602432042E+02 -0.21851656534E+02  0.13215954030E+03  0.12499935943E+03 0.  0.
    9000005    1    3    3    0    0  0.30548673081E+01  0.53140140233E+02 -0.49653834223E+02  0.72799106940E+02  0.10000000000E+01 0.  0.
    9000005    1    3    3    0    0  0.32004980277E+02 -0.41537708191E+02  0.27802177689E+02  0.59360433359E+02  0.10000000000E+01 0.  0.
         -4    1    1    2    0  502 -0.35059847585E+02 -0.11602432042E+02  0.21277520027E+03  0.21595996873E+03  0.12700000000E+01 0.  1.
<mgrwt>
<rscale>  1 0.13034051E+03</rscale>
<asrwt>0</asrwt>
<pdfrwt beam="1">  1       21 0.41464061E-01 0.13034051E+03</pdfrwt>
<pdfrwt beam="2">  1       -4 0.12092228E-01 0.13034051E+03</pdfrwt>
<totfact> 0.12570928E+04</totfact>
</mgrwt>
</event>
<event>
 6    3  0.7601760E-003  0.1415981E+03  0.7818608E-02  0.1211195E+00
         21   -1    0    0  501  502  0.00000000000E+00  0.00000000000E+00  0.19922165147E+02  0.19922165147E+02  0.00000000000E+00 0.  1.
         -4   -1    0    0    0  501 -0.00000000000E+00 -0.00000000000E+00 -0.67062255561E+03  0.67062375815E+03  0.12700000000E+01 0.  1.
         25    2    1    2    0    0 -0.24050765102E+02 -0.62048125156E+02 -0.27837522863E+03  0.31231841482E+03  0.12498645999E+03 0.  0.
    9000005    1    3    3    0    0 -0.11162421545E+02 -0.16496088406E+02  0.84149270422E+01  0.21645590418E+02  0.10000000000E+01 0.  0.
    9000005    1    3    3    0    0 -0.12888343557E+02 -0.45552036750E+02 -0.28679015568E+03  0.29067282440E+03  0.10000000000E+01 0.  0.
         -4    1    1    2    0  502  0.24050765102E+02  0.62048125156E+02 -0.37232516183E+03  0.37822750848E+03  0.12700000000E+01 0. -1.
<mgrwt>
<rscale>  1 0.14159811E+03</rscale>
<asrwt>0</asrwt>
<pdfrwt beam="1">  1       21 0.30649483E-02 0.14159811E+03</pdfrwt>
<pdfrwt beam="2">  1       -4 0.10317591E+00 0.14159811E+03</pdfrwt>
<totfact> 0.19825730E+04</totfact>
</mgrwt>
</event>
<event>
 6    3  0.7601760E-003  0.1655852E+03  0.7818608E-02  0.1182532E+00
         -4   -1    0    0    0  501 -0.00000000000E+00  0.00000000000E+00  0.46109548824E+03  0.46109723723E+03  0.12700000000E+01 0.  1.
         21   -1    0    0  501  502  0.00000000000E+00 -0.00000000000E+00 -0.56049032366E+02  0.56049032366E+02  0.00000000000E+00 0. -1.
         25    2    1    2    0    0  0.10338993292E+01 -0.10859811837E+03  0.36602764024E+03  0.40173959242E+03  0.12499538567E+03 0.  0.
    9000005    1    3    3    0    0 -0.50151766979E+02 -0.16729620586E+02  0.18469466892E+03  0.19211507141E+03  0.10000000000E+01 0.  0.
    9000005    1    3    3    0    0  0.51185666309E+02 -0.91868497786E+02  0.18133297132E+03  0.20962452101E+03  0.10000000000E+01 0.  0.
         -4    1    1    2    0  502 -0.10338993292E+01  0.10859811837E+03  0.39018815635E+02  0.11540667717E+03  0.12700000000E+01 0. -1.
<mgrwt>
<rscale>  1 0.16558522E+03</rscale>
<asrwt>0</asrwt>
<pdfrwt beam="2">  1       21 0.86229283E-02 0.16558522E+03</pdfrwt>
<pdfrwt beam="1">  1       -4 0.70939007E-01 0.16558522E+03</pdfrwt>
<totfact> 0.81171309E+03</totfact>
</mgrwt>
</event>
<event>
 6    3  0.7601760E-003  0.1324738E+03  0.7818608E-02  0.1223830E+00
         -4   -1    0    0    0  501 -0.00000000000E+00  0.00000000000E+00  0.19884429993E+03  0.19884835557E+03  0.12700000000E+01 0. -1.
         21   -1    0    0  501  502  0.00000000000E+00 -0.00000000000E+00 -0.60347849787E+02  0.60347849787E+02  0.00000000000E+00 0.  1.
         25    2    1    2    0    0  0.43578819034E+02 -0.50824992064E+01  0.16211094716E+03  0.20935442935E+03  0.12499749051E+03 0.  0.
    9000005    1    3    3    0    0 -0.13538209156E+02  0.96453945991E+01  0.14768702737E+03  0.14862292824E+03  0.10000000000E+01 0.  0.
    9000005    1    3    3    0    0  0.57117028190E+02 -0.14727893805E+02  0.14423919787E+02  0.60731501111E+02  0.10000000000E+01 0.  0.
         -4    1    1    2    0  502 -0.43578819034E+02  0.50824992064E+01 -0.23614497017E+02  0.49841776011E+02  0.12700000000E+01 0.  1.
<mgrwt>
<rscale>  1 0.13247384E+03</rscale>
<asrwt>0</asrwt>
<pdfrwt beam="2">  1       21 0.92842847E-02 0.13247384E+03</pdfrwt>
<pdfrwt beam="1">  1       -4 0.30592770E-01 0.13247384E+03</pdfrwt>
<totfact> 0.38293498E+04</totfact>
</mgrwt>
</event>
<event>
 6    3  0.7601760E-003  0.1285498E+03  0.7818608E-02  0.1229624E+00
         21   -1    0    0  501  502  0.00000000000E+00  0.00000000000E+00  0.16724927052E+03  0.16724927052E+03  0.00000000000E+00 0.  1.
         -4   -1    0    0    0  501 -0.00000000000E+00 -0.00000000000E+00 -0.38930067677E+02  0.38950777519E+02  0.12700000000E+01 0. -1.
         25    2    1    2    0    0  0.16600112199E+02 -0.24989857608E+02  0.87407631661E+02  0.15545139027E+03  0.12499993583E+03 0.  0.
    9000005    1    3    3    0    0  0.56879278333E+02 -0.30474906688E+02  0.64534270431E+01  0.64858453281E+02  0.10000000000E+01 0.  0.
    9000005    1    3    3    0    0 -0.40279166135E+02  0.54850490799E+01  0.80954204618E+02  0.90592936994E+02  0.10000000000E+01 0.  0.
         -4    1    1    2    0  502 -0.16600112199E+02  0.24989857608E+02  0.40911571184E+02  0.50748657766E+02  0.12700000000E+01 0.  1.
<mgrwt>
<rscale>  1 0.12854976E+03</rscale>
<asrwt>0</asrwt>
<pdfrwt beam="1">  1       21 0.25730657E-01 0.12854976E+03</pdfrwt>
<pdfrwt beam="2">  1       -4 0.59912052E-02 0.12854976E+03</pdfrwt>
<totfact> 0.10237477E+05</totfact>
</mgrwt>
</event>
<event>
 6    3  0.7601760E-003  0.1352380E+03  0.7818608E-02  0.1219884E+00
         21   -1    0    0  501  502  0.00000000000E+00  0.00000000000E+00  0.19139068710E+03  0.19139068710E+03  0.00000000000E+00 0.  1.
         -4   -1    0    0    0  501 -0.00000000000E+00 -0.00000000000E+00 -0.42147955547E+03  0.42148146885E+03  0.12700000000E+01 0. -1.
         25    2    1    2    0    0  0.38624720238E+02 -0.34246974763E+02 -0.40684226940E+03  0.42873062894E+03  0.12499838289E+03 0.  0.
    9000005    1    3    3    0    0  0.37487699206E+02 -0.74906092378E+02 -0.18355230085E+03  0.20176396461E+03  0.10000000000E+01 0.  0.
    9000005    1    3    3    0    0  0.11370210318E+01  0.40659117615E+02 -0.22328996855E+03  0.22696666433E+03  0.10000000000E+01 0.  0.
         -4    1    1    2    0  502 -0.38624720238E+02  0.34246974763E+02  0.17675340103E+03  0.18414152701E+03  0.12700000000E+01 0.  1.
<mgrwt>
<rscale>  1 0.13523801E+03</rscale>
<asrwt>0</asrwt>
<pdfrwt beam="1">  1       21 0.29444721E-01 0.13523801E+03</pdfrwt>
<pdfrwt beam="2">  1       -4 0.64843479E-01 0.13523801E+03</pdfrwt>
<totfact> 0.10371051E+03</totfact>
</mgrwt>
</event>
<event>
 6    3  0.7601760E-003  0.1298130E+03  0.7818608E-02  0.1227733E+00
         -4   -1    0    0    0  501 -0.00000000000E+00  0.00000000000E+00  0.19072261775E+03  0.19072684610E+03  0.12700000000E+01 0.  1.
         21   -1    0    0  501  502  0.00000000000E+00 -0.00000000000E+00 -0.48849130637E+02  0.48849130637E+02  0.00000000000E+00 0. -1.
         25    2    1    2    0    0 -0.19869805409E+02 -0.28836244480E+02  0.15497922618E+03  0.20216325885E+03  0.12500033808E+03 0.  0.
    9000005    1    3    3    0    0 -0.32288662564E+02  0.30535049230E+02  0.12850064077E+03  0.13597191490E+03  0.10000000000E+01 0.  0.
    9000005    1    3    3    0    0  0.12418857155E+02 -0.59371293710E+02  0.26478585407E+02  0.66191343958E+02  0.10000000000E+01 0.  0.
         -4    1    1    2    0  502  0.19869805409E+02  0.28836244480E+02 -0.13105739064E+02  0.37412717879E+02  0.12700000000E+01 0. -1.
<mgrwt>
<rscale>  1 0.12981303E+03</rscale>
<asrwt>0</asrwt>
<pdfrwt beam="2">  1       21 0.75152510E-02 0.12981303E+03</pdfrwt>
<pdfrwt beam="1">  1       -4 0.29343536E-01 0.12981303E+03</pdfrwt>
<totfact> 0.59561224E+04</totfact>
</mgrwt>
</event>
<event>
 6    3  0.7601760E-003  0.1450544E+03  0.7818608E-02  0.1206685E+00
         -4   -1    0    0    0  501 -0.00000000000E+00  0.00000000000E+00  0.57529681692E+02  0.57543697966E+02  0.12700000000E+01 0.  1.
         21   -1    0    0  501  502  0.00000000000E+00 -0.00000000000E+00 -0.23574285249E+03  0.23574285249E+03  0.00000000000E+00 0. -1.
         25    2    1    2    0    0  0.11551606516E+02  0.72687580212E+02 -0.66666669460E+02  0.15964090410E+03  0.12499539797E+03 0.  0.
    9000005    1    3    3    0    0 -0.26720082788E+02  0.25186185011E+02  0.28572147213E+02  0.46536806250E+02  0.10000000000E+01 0.  0.
    9000005    1    3    3    0    0  0.38271689304E+02  0.47501395201E+02 -0.95238816674E+02  0.11310409785E+03  0.10000000000E+01 0.  0.
         -4    1    1    2    0  502 -0.11551606516E+02 -0.72687580212E+02 -0.11154650134E+03  0.13364564636E+03  0.12700000000E+01 0. -1.
<mgrwt>
<rscale>  1 0.14505438E+03</rscale>
<asrwt>0</asrwt>
<pdfrwt beam="2">  1       21 0.36268132E-01 0.14505438E+03</pdfrwt>
<pdfrwt beam="1">  1       -4 0.88520614E-02 0.14505438E+03</pdfrwt>
<totfact> 0.28076828E+04</totfact>
</mgrwt>
</event>
<event>
 6    3  0.7601760E-003  0.1307472E+03  0.7818608E-02  0.1226351E+00
         -4   -1    0    0    0  501 -0.00000000000E+00  0.00000000000E+00  0.75372820474E+01  0.76435280246E+01  0.12700000000E+01 0.  1.
         21   -1    0    0  501  502  0.00000000000E+00 -0.00000000000E+00 -0.12080237237E+04  0.12080237237E+04  0.00000000000E+00 0. -1.
         25    2    1    2    0    0  0.32346485726E+02  0.20456036334E+02 -0.60577620552E+03  0.61972545723E+03  0.12502034477E+03 0.  0.
    9000005    1    3    3    0    0  0.42010371058E+02  0.29302983202E+02 -0.60433966050E+03  0.60650718162E+03  0.10000000000E+01 0.  0.
    9000005    1    3    3    0    0 -0.96638853319E+01 -0.88469468677E+01 -0.14365450181E+01  0.13218275613E+02  0.10000000000E+01 0.  0.
         -4    1    1    2    0  502 -0.32346485726E+02 -0.20456036334E+02 -0.59471023609E+03  0.59594179445E+03  0.12700000000E+01 0. -1.
<mgrwt>
<rscale>  1 0.13074720E+03</rscale>
<asrwt>0</asrwt>
<pdfrwt beam="2">  1       21 0.18584979E+00 0.13074720E+03</pdfrwt>
<pdfrwt beam="1">  1       -4 0.11678061E-02 0.13074720E+03</pdfrwt>
<totfact> 0.16098331E+04</totfact>
</mgrwt>
</event>
<event>
 6    3  0.7601760E-003  0.1279828E+03  0.7818608E-02  0.1230480E+00
          4   -1    0    0  502    0 -0.00000000000E+00  0.00000000000E+00  0.11522066511E+02  0.11591846992E+02  0.12700000000E+01 0.  1.
         21   -1    0    0  501  502  0.00000000000E+00 -0.00000000000E+00 -0.75999265904E+03  0.75999265904E+03  0.00000000000E+00 0.  1.
         25    2    1    2    0    0 -0.13738067171E+02 -0.23784641158E+02 -0.35875158431E+03  0.38089669983E+03  0.12500061222E+03 0.  0.
    9000005    1    3    3    0    0 -0.47700135697E+02  0.17548493527E+02 -0.66065092594E+02  0.83359756658E+02  0.10000000000E+01 0.  0.
    9000005    1    3    3    0    0  0.33962068526E+02 -0.41333134684E+02 -0.29268649171E+03  0.29753694317E+03  0.10000000000E+01 0.  0.
          4    1    1    2  501    0  0.13738067171E+02  0.23784641158E+02 -0.38971900822E+03  0.39068780620E+03  0.12700000000E+01 0. -1.
<mgrwt>
<rscale>  1 0.12798280E+03</rscale>
<asrwt>0</asrwt>
<pdfrwt beam="2">  1       21 0.11692196E+00 0.12798280E+03</pdfrwt>
<pdfrwt beam="1">  1        4 0.17780747E-02 0.12798280E+03</pdfrwt>
<totfact> 0.28173489E+04</totfact>
</mgrwt>
</event>
<event>
 6    3  0.7601760E-003  0.1282902E+03  0.7818608E-02  0.1230015E+00
         21   -1    0    0  501  502  0.00000000000E+00  0.00000000000E+00  0.11486177579E+02  0.11486177579E+02  0.00000000000E+00 0. -1.
          4   -1    0    0  502    0 -0.00000000000E+00 -0.00000000000E+00 -0.53973068321E+03  0.53973217738E+03  0.12700000000E+01 0. -1.
         25    2    1    2    0    0 -0.29005825742E+02  0.26008766507E+01 -0.43507741606E+03  0.45359754793E+03  0.12494108625E+03 0.  0.
    9000005    1    3    3    0    0 -0.57045977716E+02 -0.28440875122E+01 -0.41440457313E+03  0.41832341871E+03  0.10000000000E+01 0.  0.
    9000005    1    3    3    0    0  0.28040151974E+02  0.54449641629E+01 -0.20672842933E+02  0.35274129223E+02  0.10000000000E+01 0.  0.
          4    1    1    2  501    0  0.29005825742E+02 -0.26008766507E+01 -0.93167089567E+02  0.97620807028E+02  0.12700000000E+01 0.  1.
<mgrwt>
<rscale>  1 0.12829021E+03</rscale>
<asrwt>0</asrwt>
<pdfrwt beam="1">  1       21 0.17671042E-02 0.12829021E+03</pdfrwt>
<pdfrwt beam="2">  1        4 0.83041008E-01 0.12829021E+03</pdfrwt>
<totfact> 0.78520267E+04</totfact>
</mgrwt>
</event>
<event>
 6    3  0.7601760E-003  0.1384632E+03  0.7818608E-02  0.1215412E+00
         -4   -1    0    0    0  501 -0.00000000000E+00  0.00000000000E+00  0.13417609394E+03  0.13418210419E+03  0.12700000000E+01 0. -1.
         21   -1    0    0  501  502  0.00000000000E+00 -0.00000000000E+00 -0.86759912282E+02  0.86759912282E+02  0.00000000000E+00 0. -1.
         25    2    1    2    0    0 -0.12892562936E+02  0.58141078787E+02  0.72515844649E+02  0.15630294777E+03  0.12500184212E+03 0.  0.
    9000005    1    3    3    0    0 -0.27174985527E+02 -0.30515018184E+02  0.48333955850E+02  0.63299427022E+02  0.10000000000E+01 0.  0.
    9000005    1    3    3    0    0  0.14282422591E+02  0.88656096970E+02  0.24181888799E+02  0.93003520745E+02  0.10000000000E+01 0.  0.
         -4    1    1    2    0  502  0.12892562936E+02 -0.58141078787E+02 -0.25099662988E+02  0.64639068710E+02  0.12700000000E+01 0.  1.
<mgrwt>
<rscale>  1 0.13846322E+03</rscale>
<asrwt>0</asrwt>
<pdfrwt beam="2">  1       21 0.13347679E-01 0.13846322E+03</pdfrwt>
<pdfrwt beam="1">  1       -4 0.20643653E-01 0.13846322E+03</pdfrwt>
<totfact> 0.41958467E+04</totfact>
</mgrwt>
</event>
<event>
 6    3  0.7601760E-003  0.1303292E+03  0.7818608E-02  0.1226968E+00
         -4   -1    0    0    0  501 -0.00000000000E+00  0.00000000000E+00  0.18222062797E+04  0.18222067222E+04  0.12700000000E+01 0. -1.
         21   -1    0    0  501  502  0.00000000000E+00 -0.00000000000E+00 -0.20669157206E+02  0.20669157206E+02  0.00000000000E+00 0.  1.
         25    2    1    2    0    0 -0.36899328360E+02 -0.33750275227E-01  0.18012446947E+04  0.18059535287E+04  0.12499654390E+03 0.  0.
    9000005    1    3    3    0    0  0.11709611981E+01 -0.57430180600E+02  0.10450994979E+04  0.10466773894E+04  0.10000000000E+01 0.  0.
    9000005    1    3    3    0    0 -0.38070289558E+02  0.57396430325E+02  0.75614519674E+03  0.75927613930E+03  0.10000000000E+01 0.  0.
         -4    1    1    2    0  502  0.36899328360E+02  0.33750275227E-01  0.29242776905E+00  0.36922350771E+02  0.12700000000E+01 0.  1.
<mgrwt>
<rscale>  1 0.13032919E+03</rscale>
<asrwt>0</asrwt>
<pdfrwt beam="2">  1       21 0.31798718E-02 0.13032919E+03</pdfrwt>
<pdfrwt beam="1">  1       -4 0.28034234E+00 0.13032919E+03</pdfrwt>
<totfact> 0.11670654E+03</totfact>
</mgrwt>
</event>
<event>
 6    3  0.7601760E-003  0.1280437E+03  0.7818608E-02  0.1230388E+00
         21   -1    0    0  501  502  0.00000000000E+00  0.00000000000E+00  0.15866727302E+02  0.15866727302E+02  0.00000000000E+00 0.  1.
          4   -1    0    0  502    0 -0.00000000000E+00 -0.00000000000E+00 -0.62905395769E+03  0.62905523969E+03  0.12700000000E+01 0. -1.
         25    2    1    2    0    0 -0.26936930921E+02  0.66896612727E+01 -0.60116213122E+03  0.61464713049E+03  0.12499934877E+03 0.  0.
    9000005    1    3    3    0    0 -0.26343895409E+02 -0.19705694123E+02 -0.35658898293E+02  0.48527025807E+02  0.10000000000E+01 0.  0.
    9000005    1    3    3    0    0 -0.59303551213E+00  0.26395355395E+02 -0.56550323293E+03  0.56612010468E+03  0.10000000000E+01 0.  0.
          4    1    1    2  501    0  0.26936930921E+02 -0.66896612727E+01 -0.12025099170E+02  0.30274836505E+02  0.12700000000E+01 0.  1.
<mgrwt>
<rscale>  1 0.12804369E+03</rscale>
<asrwt>0</asrwt>
<pdfrwt beam="1">  1       21 0.24410350E-02 0.12804369E+03</pdfrwt>
<pdfrwt beam="2">  1        4 0.96781537E-01 0.12804369E+03</pdfrwt>
<totfact> 0.32974897E+04</totfact>
</mgrwt>
</event>
<event>
 6    3  0.7601760E-003  0.1611449E+03  0.7818608E-02  0.1187410E+00
         21   -1    0    0  501  502  0.00000000000E+00  0.00000000000E+00  0.42247010643E+03  0.42247010643E+03  0.00000000000E+00 0.  1.
          4   -1    0    0  502    0 -0.00000000000E+00 -0.00000000000E+00 -0.80776630351E+02  0.80786613439E+02  0.12700000000E+01 0. -1.
         25    2    1    2    0    0  0.84320839960E+02  0.56861043533E+02  0.15866651944E+02  0.16192416275E+03  0.12499800605E+03 0.  0.
    9000005    1    3    3    0    0  0.23852161772E+02 -0.29800313604E+02  0.38092204121E+02  0.53935149271E+02  0.10000000000E+01 0.  0.
    9000005    1    3    3    0    0  0.60468678188E+02  0.86661357137E+02 -0.22225552177E+02  0.10798901348E+03  0.10000000000E+01 0.  0.
          4    1    1    2  501    0 -0.84320839960E+02 -0.56861043533E+02  0.32582682413E+03  0.34133255712E+03  0.12700000000E+01 0.  1.
<mgrwt>
<rscale>  1 0.16114492E+03</rscale>
<asrwt>0</asrwt>
<pdfrwt beam="1">  1       21 0.64995400E-01 0.16114492E+03</pdfrwt>
<pdfrwt beam="2">  1        4 0.12428089E-01 0.16114492E+03</pdfrwt>
<totfact> 0.47652350E+03</totfact>
</mgrwt>
</event>
<event>
 6    3  0.7601760E-003  0.1863332E+03  0.7818608E-02  0.1161811E+00
         21   -1    0    0  501  502  0.00000000000E+00  0.00000000000E+00  0.15953661479E+03  0.15953661479E+03  0.00000000000E+00 0.  1.
         -4   -1    0    0    0  501 -0.00000000000E+00 -0.00000000000E+00 -0.17922508746E+03  0.17922958705E+03  0.12700000000E+01 0. -1.
         25    2    1    2    0    0 -0.12080704789E+03 -0.67082295678E+02 -0.58377915264E+02  0.19526406568E+03  0.12500278854E+03 0.  0.
    9000005    1    3    3    0    0  0.21401086477E+02 -0.34188398432E+02 -0.11459188307E+02  0.41942413931E+02  0.10000000000E+01 0.  0.
    9000005    1    3    3    0    0 -0.14220813437E+03 -0.32893897246E+02 -0.46918726957E+02  0.15332165175E+03  0.10000000000E+01 0.  0.
         -4    1    1    2    0  502  0.12080704789E+03  0.67082295678E+02  0.38689442596E+02  0.14350213616E+03  0.12700000000E+01 0.  1.
<mgrwt>
<rscale>  1 0.18633323E+03</rscale>
<asrwt>0</asrwt>
<pdfrwt beam="1">  1       21 0.24544095E-01 0.18633323E+03</pdfrwt>
<pdfrwt beam="2">  1       -4 0.27573825E-01 0.18633323E+03</pdfrwt>
<totfact> 0.82120694E+03</totfact>
</mgrwt>
</event>
<event>
 6    3  0.7601760E-003  0.1266975E+03  0.7818608E-02  0.1232440E+00
         -4   -1    0    0    0  501 -0.00000000000E+00  0.00000000000E+00  0.13826258509E+02  0.13884463416E+02  0.12700000000E+01 0. -1.
         21   -1    0    0  501  502  0.00000000000E+00 -0.00000000000E+00 -0.62655188678E+03  0.62655188678E+03  0.00000000000E+00 0. -1.
         25    2    1    2    0    0  0.93870556227E+01  0.18337503865E+02 -0.28301370326E+03  0.31007904779E+03  0.12501151460E+03 0.  0.
    9000005    1    3    3    0    0 -0.22302544054E+01  0.67705093859E+01 -0.29150208602E+03  0.29159094633E+03  0.10000000000E+01 0.  0.
    9000005    1    3    3    0    0  0.11617310028E+02  0.11566994479E+02  0.84883827552E+01  0.18488101454E+02  0.10000000000E+01 0.  0.
         -4    1    1    2    0  502 -0.93870556227E+01 -0.18337503865E+02 -0.32971192501E+03  0.33035730241E+03  0.12700000000E+01 0.  1.
<mgrwt>
<rscale>  1 0.12669751E+03</rscale>
<asrwt>0</asrwt>
<pdfrwt beam="2">  1       21 0.96392623E-01 0.12669751E+03</pdfrwt>
<pdfrwt beam="1">  1       -4 0.21316925E-02 0.12669751E+03</pdfrwt>
<totfact> 0.33662830E+04</totfact>
</mgrwt>
</event>
<event>
 6    3  0.7601760E-003  0.1341005E+03  0.7818608E-02  0.1221495E+00
         -4   -1    0    0    0  501 -0.00000000000E+00  0.00000000000E+00  0.48427882257E+02  0.48444531992E+02  0.12700000000E+01 0. -1.
         21   -1    0    0  501  502  0.00000000000E+00 -0.00000000000E+00 -0.17815937726E+03  0.17815937726E+03  0.00000000000E+00 0. -1.
         25    2    1    2    0    0  0.46835406266E+02 -0.12832445984E+02 -0.75883849294E+02  0.15408212771E+03  0.12499886618E+03 0.  0.
    9000005    1    3    3    0    0 -0.35534080568E+02  0.24385287553E+02 -0.31431561565E+02  0.53350315775E+02  0.10000000000E+01 0.  0.
    9000005    1    3    3    0    0  0.82369486834E+02 -0.37217733538E+02 -0.44452287729E+02  0.10073181193E+03  0.10000000000E+01 0.  0.
         -4    1    1    2    0  502 -0.46835406266E+02  0.12832445984E+02 -0.53847645713E+02  0.72521781548E+02  0.12700000000E+01 0.  1.
<mgrwt>
<rscale>  1 0.13410050E+03</rscale>
<asrwt>0</asrwt>
<pdfrwt beam="2">  1       21 0.27409135E-01 0.13410050E+03</pdfrwt>
<pdfrwt beam="1">  1       -4 0.74520723E-02 0.13410050E+03</pdfrwt>
<totfact> 0.63873603E+04</totfact>
</mgrwt>
</event>
<event>
 6    3  0.7601760E-003  0.1288532E+03  0.7818608E-02  0.1229167E+00
         -4   -1    0    0    0  501 -0.00000000000E+00  0.00000000000E+00  0.46368321258E+02  0.46385710260E+02  0.12700000000E+01 0.  1.
         21   -1    0    0  501  502  0.00000000000E+00 -0.00000000000E+00 -0.28151233714E+03  0.28151233714E+03  0.00000000000E+00 0. -1.
         25    2    1    2    0    0 -0.12678129592E+02 -0.28588238238E+02 -0.46982954006E+02  0.13715156528E+03  0.12500052622E+03 0.  0.
    9000005    1    3    3    0    0 -0.34245471897E+02 -0.57765200490E+02  0.11678768601E+02  0.68168646526E+02  0.10000000000E+01 0.  0.
    9000005    1    3    3    0    0  0.21567342306E+02  0.29176962252E+02 -0.58661722607E+02  0.68982918752E+02  0.10000000000E+01 0.  0.
         -4    1    1    2    0  502  0.12678129592E+02  0.28588238238E+02 -0.18816106187E+03  0.19074648212E+03  0.12700000000E+01 0. -1.
<mgrwt>
<rscale>  1 0.12885323E+03</rscale>
<asrwt>0</asrwt>
<pdfrwt beam="2">  1       21 0.43309590E-01 0.12885323E+03</pdfrwt>
<pdfrwt beam="1">  1       -4 0.71351458E-02 0.12885323E+03</pdfrwt>
<totfact> 0.27821841E+04</totfact>
</mgrwt>
</event>
<event>
 6    3  0.7601760E-003  0.1271994E+03  0.7818608E-02  0.1231671E+00
         -4   -1    0    0    0  501 -0.00000000000E+00  0.00000000000E+00  0.96262071461E+02  0.96270448747E+02  0.12700000000E+01 0. -1.
         21   -1    0    0  501  502  0.00000000000E+00 -0.00000000000E+00 -0.17888643736E+03  0.17888643736E+03  0.00000000000E+00 0.  1.
         25    2    1    2    0    0  0.45552963933E+00 -0.23558976504E+02  0.52777567447E+02  0.13771406405E+03  0.12499783570E+03 0.  0.
    9000005    1    3    3    0    0  0.46253917434E+02 -0.47517541780E+02  0.54721423526E+02  0.85981252884E+02  0.10000000000E+01 0.  0.
    9000005    1    3    3    0    0 -0.45798387795E+02  0.23958565277E+02 -0.19438560790E+01  0.51732811166E+02  0.10000000000E+01 0.  0.
         -4    1    1    2    0  502 -0.45552963933E+00  0.23558976504E+02 -0.13540193334E+03  0.13744282205E+03  0.12700000000E+01 0.  1.
<mgrwt>
<rscale>  1 0.12719942E+03</rscale>
<asrwt>0</asrwt>
<pdfrwt beam="2">  1       21 0.27520990E-01 0.12719942E+03</pdfrwt>
<pdfrwt beam="1">  1       -4 0.14810541E-01 0.12719942E+03</pdfrwt>
<totfact> 0.19715174E+04</totfact>
</mgrwt>
</event>
<event>
 6    3  0.7601760E-003  0.1467456E+03  0.7818608E-02  0.1204530E+00
         21   -1    0    0  501  502  0.00000000000E+00  0.00000000000E+00  0.77003918423E+02  0.77003918423E+02  0.00000000000E+00 0. -1.
         -4   -1    0    0    0  501 -0.00000000000E+00 -0.00000000000E+00 -0.24653104428E+03  0.24653431544E+03  0.12700000000E+01 0.  1.
         25    2    1    2    0    0 -0.11375965675E+02 -0.76031516878E+02 -0.19363557758E+03  0.24295886617E+03  0.12499627831E+03 0.  0.
    9000005    1    3    3    0    0  0.23251030052E+02 -0.17848074247E+02 -0.16802025833E+03  0.17056075563E+03  0.10000000000E+01 0.  0.
    9000005    1    3    3    0    0 -0.34626995726E+02 -0.58183442631E+02 -0.25615319253E+02  0.72398110540E+02  0.10000000000E+01 0.  0.
         -4    1    1    2    0  502  0.11375965675E+02  0.76031516878E+02  0.24108451728E+02  0.80579367697E+02  0.12700000000E+01 0. -1.
<mgrwt>
<rscale>  1 0.14674561E+03</rscale>
<asrwt>0</asrwt>
<pdfrwt beam="1">  1       21 0.11846757E-01 0.14674561E+03</pdfrwt>
<pdfrwt beam="2">  1       -4 0.37928911E-01 0.14674561E+03</pdfrwt>
<totfact> 0.16672264E+04</totfact>
</mgrwt>
</event>
<event>
 6    3  0.7601760E-003  0.1283247E+03  0.7818608E-02  0.1229963E+00
          4   -1    0    0  502    0 -0.00000000000E+00  0.00000000000E+00  0.11138915054E+03  0.11139639023E+03  0.12700000000E+01 0.  1.
         21   -1    0    0  501  502  0.00000000000E+00 -0.00000000000E+00 -0.58187838607E+02  0.58187838607E+02  0.00000000000E+00 0. -1.
         25    2    1    2    0    0  0.29047029362E+02 -0.57318031527E+00  0.56702111750E+02  0.14029383878E+03  0.12499269288E+03 0.  0.
    9000005    1    3    3    0    0  0.11932298875E+01 -0.16932707123E+02  0.91346426812E+02  0.92915607190E+02  0.10000000000E+01 0.  0.
    9000005    1    3    3    0    0  0.27853799475E+02  0.16359526808E+02 -0.34644315062E+02  0.47378231591E+02  0.10000000000E+01 0.  0.
          4    1    1    2  501    0 -0.29047029362E+02  0.57318031527E+00 -0.35007998218E+01  0.29290390059E+02  0.12700000000E+01 0. -1.
<mgrwt>
<rscale>  1 0.12832471E+03</rscale>
<asrwt>0</asrwt>
<pdfrwt beam="2">  1       21 0.89519752E-02 0.12832471E+03</pdfrwt>
<pdfrwt beam="1">  1        4 0.17138415E-01 0.12832471E+03</pdfrwt>
<totfact> 0.11710251E+05</totfact>
</mgrwt>
</event>
<event>
 6    3  0.7601760E-003  0.1414403E+03  0.7818608E-02  0.1211404E+00
         -4   -1    0    0    0  501 -0.00000000000E+00  0.00000000000E+00  0.12814632760E+03  0.12815262064E+03  0.12700000000E+01 0. -1.
         21   -1    0    0  501  502  0.00000000000E+00 -0.00000000000E+00 -0.12841788350E+03  0.12841788350E+03  0.00000000000E+00 0.  1.
         25    2    1    2    0    0  0.62584001078E+02  0.21533716515E+02  0.71876136956E+02  0.15865543572E+03  0.12499964033E+03 0.  0.
    9000005    1    3    3    0    0  0.56958921548E+02 -0.23995229474E+02 -0.12074211748E+02  0.62983143545E+02  0.10000000000E+01 0.  0.
    9000005    1    3    3    0    0  0.56250795299E+01  0.45528945989E+02  0.83950348704E+02  0.95672292176E+02  0.10000000000E+01 0.  0.
         -4    1    1    2    0  502 -0.62584001078E+02 -0.21533716515E+02 -0.72147692856E+02  0.97915068413E+02  0.12700000000E+01 0.  1.
<mgrwt>
<rscale>  1 0.14144033E+03</rscale>
<asrwt>0</asrwt>
<pdfrwt beam="2">  1       21 0.19756597E-01 0.14144033E+03</pdfrwt>
<pdfrwt beam="1">  1       -4 0.19715787E-01 0.14144033E+03</pdfrwt>
<totfact> 0.22387120E+04</totfact>
</mgrwt>
</event>
<event>
 6    3  0.7601760E-003  0.1267510E+03  0.7818608E-02  0.1232358E+00
         -4   -1    0    0    0  501 -0.00000000000E+00  0.00000000000E+00  0.30566213207E+03  0.30566477043E+03  0.12700000000E+01 0.  1.
         21   -1    0    0  501  502  0.00000000000E+00 -0.00000000000E+00 -0.23695008653E+02  0.23695008653E+02  0.00000000000E+00 0. -1.
         25    2    1    2    0    0 -0.13235536233E+02  0.16664897208E+02  0.28071423944E+03  0.30800372990E+03  0.12495165141E+03 0.  0.
    9000005    1    3    3    0    0  0.48992826612E+02 -0.57455047078E+01  0.60491736294E+02  0.78061245466E+02  0.10000000000E+01 0.  0.
    9000005    1    3    3    0    0 -0.62228362846E+02  0.22410401916E+02  0.22022250314E+03  0.22994248443E+03  0.10000000000E+01 0.  0.
         -4    1    1    2    0  502  0.13235536233E+02 -0.16664897208E+02  0.12528839779E+01  0.21356049181E+02  0.12700000000E+01 0. -1.
<mgrwt>
<rscale>  1 0.12675099E+03</rscale>
<asrwt>0</asrwt>
<pdfrwt beam="2">  1       21 0.36453862E-02 0.12675099E+03</pdfrwt>
<pdfrwt beam="1">  1       -4 0.47027761E-01 0.12675099E+03</pdfrwt>
<totfact> 0.80186613E+04</totfact>
</mgrwt>
</event>
<event>
 6    3  0.7601760E-003  0.1271651E+03  0.7818608E-02  0.1231724E+00
         -4   -1    0    0    0  501 -0.00000000000E+00  0.00000000000E+00  0.36459354715E+03  0.36459575906E+03  0.12700000000E+01 0. -1.
         21   -1    0    0  501  502  0.00000000000E+00 -0.00000000000E+00 -0.21355366315E+02  0.21355366315E+02  0.00000000000E+00 0. -1.
         25    2    1    2    0    0 -0.88985656864E+01 -0.21552285723E+02  0.33919920663E+03  0.36225277725E+03  0.12500914909E+03 0.  0.
    9000005    1    3    3    0    0 -0.14618868840E+02 -0.68986595571E+02  0.13249074626E+03  0.15009217015E+03  0.10000000000E+01 0.  0.
    9000005    1    3    3    0    0  0.57203031540E+01  0.47434309848E+02  0.20670846037E+03  0.21216060710E+03  0.10000000000E+01 0.  0.
         -4    1    1    2    0  502  0.88985656864E+01  0.21552285723E+02  0.40389742055E+01  0.23698348123E+02  0.12700000000E+01 0.  1.
<mgrwt>
<rscale>  1 0.12716514E+03</rscale>
<asrwt>0</asrwt>
<pdfrwt beam="2">  1       21 0.32854412E-02 0.12716514E+03</pdfrwt>
<pdfrwt beam="1">  1       -4 0.56094385E-01 0.12716514E+03</pdfrwt>
<totfact> 0.66427435E+04</totfact>
</mgrwt>
</event>
<event>
 6    3  0.7601760E-003  0.1379614E+03  0.7818608E-02  0.1216099E+00
          4   -1    0    0  502    0 -0.00000000000E+00  0.00000000000E+00  0.39597775671E+03  0.39597979331E+03  0.12700000000E+01 0.  1.
         21   -1    0    0  501  502  0.00000000000E+00 -0.00000000000E+00 -0.27646406731E+02  0.27646406731E+02  0.00000000000E+00 0. -1.
         25    2    1    2    0    0  0.53128462562E+02 -0.24169585666E+02  0.31764580314E+03  0.34631229467E+03  0.12500618697E+03 0.  0.
    9000005    1    3    3    0    0  0.20953510632E+02 -0.58690173937E+02  0.27730044591E+03  0.28421844315E+03  0.10000000000E+01 0.  0.
    9000005    1    3    3    0    0  0.32174951929E+02  0.34520588271E+02  0.40345357226E+02  0.62093851514E+02  0.10000000000E+01 0.  0.
          4    1    1    2  501    0 -0.53128462562E+02  0.24169585666E+02  0.50685546837E+02  0.77313905370E+02  0.12700000000E+01 0. -1.
<mgrwt>
<rscale>  1 0.13796140E+03</rscale>
<asrwt>0</asrwt>
<pdfrwt beam="2">  1       21 0.42532937E-02 0.13796140E+03</pdfrwt>
<pdfrwt beam="1">  1        4 0.60922051E-01 0.13796140E+03</pdfrwt>
<totfact> 0.36829347E+04</totfact>
</mgrwt>
</event>
<event>
 6    3  0.7601760E-003  0.1342084E+03  0.7818608E-02  0.1221342E+00
          4   -1    0    0  502    0 -0.00000000000E+00  0.00000000000E+00  0.36088101154E+02  0.36110440940E+02  0.12700000000E+01 0.  1.
         21   -1    0    0  501  502  0.00000000000E+00 -0.00000000000E+00 -0.33705693801E+03  0.33705693801E+03  0.00000000000E+00 0.  1.
         25    2    1    2    0    0  0.68202748592E-01 -0.48853244331E+02 -0.29479727598E+03  0.32390943343E+03  0.12500097203E+03 0.  0.
    9000005    1    3    3    0    0  0.61057501639E+02 -0.25649114610E+02 -0.18084133793E+03  0.19258890178E+03  0.10000000000E+01 0.  0.
    9000005    1    3    3    0    0 -0.60989298890E+02 -0.23204129721E+02 -0.11395593805E+03  0.13132053165E+03  0.10000000000E+01 0.  0.
          4    1    1    2  501    0 -0.68202748592E-01  0.48853244331E+02 -0.61715608814E+01  0.49257945522E+02  0.12700000000E+01 0. -1.
<mgrwt>
<rscale>  1 0.13420837E+03</rscale>
<asrwt>0</asrwt>
<pdfrwt beam="2">  1       21 0.51854913E-01 0.13420837E+03</pdfrwt>
<pdfrwt beam="1">  1        4 0.55539181E-02 0.13420837E+03</pdfrwt>
<totfact> 0.29053073E+04</totfact>
</mgrwt>
</event>
<event>
 6    3  0.7601760E-003  0.1271785E+03  0.7818608E-02  0.1231703E+00
          4   -1    0    0  502    0 -0.00000000000E+00  0.00000000000E+00  0.16008181688E+03  0.16008685454E+03  0.12700000000E+01 0. -1.
         21   -1    0    0  501  502  0.00000000000E+00 -0.00000000000E+00 -0.59970029583E+02  0.59970029583E+02  0.00000000000E+00 0.  1.
         25    2    1    2    0    0 -0.17338668400E+02 -0.15760785047E+02  0.13012911251E+03  0.18195590671E+03  0.12500133717E+03 0.  0.
    9000005    1    3    3    0    0 -0.37146528604E+01 -0.37483986417E+02  0.14666500001E+03  0.15142810212E+03  0.10000000000E+01 0.  0.
    9000005    1    3    3    0    0 -0.13624015540E+02  0.21723201369E+02 -0.16535887503E+02  0.30527804583E+02  0.10000000000E+01 0.  0.
          4    1    1    2  501    0  0.17338668400E+02  0.15760785047E+02 -0.30017325211E+02  0.38100977416E+02  0.12700000000E+01 0.  1.
<mgrwt>
<rscale>  1 0.12717848E+03</rscale>
<asrwt>0</asrwt>
<pdfrwt beam="2">  1       21 0.92261585E-02 0.12717848E+03</pdfrwt>
<pdfrwt beam="1">  1        4 0.24629394E-01 0.12717848E+03</pdfrwt>
<totfact> 0.57726395E+04</totfact>
</mgrwt>
</event>
<event>
 6    3  0.7601760E-003  0.1331500E+03  0.7818608E-02  0.1222855E+00
         -4   -1    0    0    0  501 -0.00000000000E+00  0.00000000000E+00  0.65805320040E+03  0.65805442591E+03  0.12700000000E+01 0. -1.
         21   -1    0    0  501  502  0.00000000000E+00 -0.00000000000E+00 -0.12176267861E+02  0.12176267861E+02  0.00000000000E+00 0.  1.
         25    2    1    2    0    0 -0.11738028474E+02 -0.44335359882E+02  0.48119842526E+03  0.49928032347E+03  0.12500204589E+03 0.  0.
    9000005    1    3    3    0    0  0.37187022267E+02  0.27192972693E+02  0.18600327385E+03  0.19162606887E+03  0.10000000000E+01 0.  0.
    9000005    1    3    3    0    0 -0.48925050741E+02 -0.71528332575E+02  0.29519515142E+03  0.30765425460E+03  0.10000000000E+01 0.  0.
         -4    1    1    2    0  502  0.11738028474E+02  0.44335359882E+02  0.16467850728E+03  0.17095037031E+03  0.12700000000E+01 0.  1.
<mgrwt>
<rscale>  1 0.13314998E+03</rscale>
<asrwt>0</asrwt>
<pdfrwt beam="2">  1       21 0.18732725E-02 0.13314998E+03</pdfrwt>
<pdfrwt beam="1">  1       -4 0.10124411E+00 0.13314998E+03</pdfrwt>
<totfact> 0.45845542E+04</totfact>
</mgrwt>
</event>
<event>
 6    3  0.7601760E-003  0.1592821E+03  0.7818608E-02  0.1189510E+00
         21   -1    0    0  501  502  0.00000000000E+00  0.00000000000E+00  0.17365550467E+03  0.17365550467E+03  0.00000000000E+00 0.  1.
         -4   -1    0    0    0  501 -0.00000000000E+00 -0.00000000000E+00 -0.42721541952E+03  0.42721730721E+03  0.12700000000E+01 0. -1.
         25    2    1    2    0    0 -0.63015896973E+01  0.98518381621E+02 -0.39641672184E+03  0.42722010746E+03  0.12500088526E+03 0.  0.
    9000005    1    3    3    0    0  0.49846391522E+02  0.61983216957E+02 -0.12912611505E+03  0.15166125253E+03  0.10000000000E+01 0.  0.
    9000005    1    3    3    0    0 -0.56147981219E+02  0.36535164664E+02 -0.26729060679E+03  0.27555885493E+03  0.10000000000E+01 0.  0.
         -4    1    1    2    0  502  0.63015896973E+01 -0.98518381621E+02  0.14285680699E+03  0.17365270442E+03  0.12700000000E+01 0.  1.
<mgrwt>
<rscale>  1 0.15928215E+03</rscale>
<asrwt>0</asrwt>
<pdfrwt beam="1">  1       21 0.26716232E-01 0.15928215E+03</pdfrwt>
<pdfrwt beam="2">  1       -4 0.65725951E-01 0.15928215E+03</pdfrwt>
<totfact> 0.12205635E+03</totfact>
</mgrwt>
</event>
<event>
 6    3  0.7601760E-003  0.1438007E+03  0.7818608E-02  0.1208304E+00
         21   -1    0    0  501  502  0.00000000000E+00  0.00000000000E+00  0.18138365015E+03  0.18138365015E+03  0.00000000000E+00 0.  1.
          4   -1    0    0  502    0 -0.00000000000E+00 -0.00000000000E+00 -0.98753406778E+02  0.98761572741E+02  0.12700000000E+01 0.  1.
         25    2    1    2    0    0  0.69265563990E+02  0.16015346292E+02 -0.30049214969E+02  0.14690677910E+03  0.12499774699E+03 0.  0.
    9000005    1    3    3    0    0 -0.16388239366E+02 -0.38307286465E+02 -0.15352030842E+02  0.44415171246E+02  0.10000000000E+01 0.  0.
    9000005    1    3    3    0    0  0.85653803356E+02  0.54322632757E+02 -0.14697184127E+02  0.10249160785E+03  0.10000000000E+01 0.  0.
          4    1    1    2  501    0 -0.69265563990E+02 -0.16015346292E+02  0.11267945834E+03  0.13323844379E+03  0.12700000000E+01 0. -1.
<mgrwt>
<rscale>  1 0.14380072E+03</rscale>
<asrwt>0</asrwt>
<pdfrwt beam="1">  1       21 0.27905177E-01 0.14380072E+03</pdfrwt>
<pdfrwt beam="2">  1        4 0.15193802E-01 0.14380072E+03</pdfrwt>
<totfact> 0.18571846E+04</totfact>
</mgrwt>
</event>
<event>
 6    3  0.7601760E-003  0.1270483E+03  0.7818608E-02  0.1231902E+00
         21   -1    0    0  501  502  0.00000000000E+00  0.00000000000E+00  0.19939578417E+03  0.19939578417E+03  0.00000000000E+00 0.  1.
          4   -1    0    0  502    0 -0.00000000000E+00 -0.00000000000E+00 -0.33940977680E+02  0.33964729733E+02  0.12700000000E+01 0.  1.
         25    2    1    2    0    0 -0.69373143959E+01 -0.21663953228E+02  0.93113306575E+02  0.15751620818E+03  0.12499525902E+03 0.  0.
    9000005    1    3    3    0    0 -0.54453569393E+01 -0.50533581679E+02 -0.87872199665E+01  0.51589824813E+02  0.10000000000E+01 0.  0.
    9000005    1    3    3    0    0 -0.14919574566E+01  0.28869628451E+02  0.10190052654E+03  0.10592638337E+03  0.10000000000E+01 0.  0.
          4    1    1    2  501    0  0.69373143959E+01  0.21663953228E+02  0.72341499914E+02  0.75844305721E+02  0.12700000000E+01 0. -1.
<mgrwt>
<rscale>  1 0.12704829E+03</rscale>
<asrwt>0</asrwt>
<pdfrwt beam="1">  1       21 0.30676274E-01 0.12704829E+03</pdfrwt>
<pdfrwt beam="2">  1        4 0.52238272E-02 0.12704829E+03</pdfrwt>
<totfact> 0.91112954E+04</totfact>
</mgrwt>
</event>
<event>
 6    3  0.7601760E-003  0.1274704E+03  0.7818608E-02  0.1231258E+00
         21   -1    0    0  501  502  0.00000000000E+00  0.00000000000E+00  0.12712705331E+03  0.12712705331E+03  0.00000000000E+00 0. -1.
          4   -1    0    0  502    0 -0.00000000000E+00 -0.00000000000E+00 -0.46006685753E+02  0.46024211389E+02  0.12700000000E+01 0. -1.
         25    2    1    2    0    0 -0.24099294638E+02  0.75297295710E+01  0.71091706000E+02  0.14595457773E+03  0.12494492894E+03 0.  0.
    9000005    1    3    3    0    0  0.39423394402E+02  0.26688425835E+01 -0.11942572123E+02  0.41291061694E+02  0.10000000000E+01 0.  0.
    9000005    1    3    3    0    0 -0.63522689040E+02  0.48608869874E+01  0.83034278123E+02  0.10466351603E+03  0.10000000000E+01 0.  0.
          4    1    1    2  501    0  0.24099294638E+02 -0.75297295710E+01  0.10028661552E+02  0.27196686967E+02  0.12700000000E+01 0.  1.
<mgrwt>
<rscale>  1 0.12747042E+03</rscale>
<asrwt>0</asrwt>
<pdfrwt beam="1">  1       21 0.19558008E-01 0.12747042E+03</pdfrwt>
<pdfrwt beam="2">  1        4 0.70797878E-02 0.12747042E+03</pdfrwt>
<totfact> 0.13002929E+05</totfact>
</mgrwt>
</event>
<event>
 6    3  0.7601760E-003  0.1272912E+03  0.7818608E-02  0.1231531E+00
         21   -1    0    0  501  502  0.00000000000E+00  0.00000000000E+00  0.23593679818E+03  0.23593679818E+03  0.00000000000E+00 0.  1.
          4   -1    0    0  502    0 -0.00000000000E+00 -0.00000000000E+00 -0.68701963041E+02  0.68713700422E+02  0.12700000000E+01 0. -1.
         25    2    1    2    0    0  0.72434833321E+00  0.24019714898E+02 -0.82169211515E+01  0.12755616479E+03  0.12500234397E+03 0.  0.
    9000005    1    3    3    0    0  0.14746954594E+02  0.92096453878E+01 -0.64958305118E+02  0.67252298413E+02  0.10000000000E+01 0.  0.
    9000005    1    3    3    0    0 -0.14022606261E+02  0.14810069510E+02  0.56741383967E+02  0.60303866374E+02  0.10000000000E+01 0.  0.
          4    1    1    2  501    0 -0.72434833321E+00 -0.24019714898E+02  0.17545175629E+03  0.17709433382E+03  0.12700000000E+01 0.  1.
<mgrwt>
<rscale>  1 0.12729123E+03</rscale>
<asrwt>0</asrwt>
<pdfrwt beam="1">  1       21 0.36297969E-01 0.12729123E+03</pdfrwt>
<pdfrwt beam="2">  1        4 0.10570699E-01 0.12729123E+03</pdfrwt>
<totfact> 0.20547510E+04</totfact>
</mgrwt>
</event>
<event>
 6    3  0.7601760E-003  0.1269259E+03  0.7818608E-02  0.1232090E+00
         21   -1    0    0  501  502  0.00000000000E+00  0.00000000000E+00  0.99005844749E+03  0.99005844749E+03  0.00000000000E+00 0. -1.
          4   -1    0    0  502    0 -0.00000000000E+00 -0.00000000000E+00 -0.39308403532E+02  0.39328914150E+02  0.12700000000E+01 0.  1.
         25    2    1    2    0    0  0.86970292831E+01 -0.20215612090E+02  0.63609583548E+02  0.14197307356E+03  0.12500346078E+03 0.  0.
    9000005    1    3    3    0    0  0.45941024555E+02 -0.42797814839E+02 -0.24474024791E+01  0.62842823544E+02  0.10000000000E+01 0.  0.
    9000005    1    3    3    0    0 -0.37243995272E+02  0.22582202749E+02  0.66056986027E+02  0.79130250017E+02  0.10000000000E+01 0.  0.
          4    1    1    2  501    0 -0.86970292831E+01  0.20215612090E+02  0.88714046041E+03  0.88741428808E+03  0.12700000000E+01 0. -1.
<mgrwt>
<rscale>  1 0.12692586E+03</rscale>
<asrwt>0</asrwt>
<pdfrwt beam="1">  1       21 0.15231666E+00 0.12692586E+03</pdfrwt>
<pdfrwt beam="2">  1        4 0.60490879E-02 0.12692586E+03</pdfrwt>
<totfact> 0.21141850E+03</totfact>
</mgrwt>
</event>
<event>
 6    3  0.7601760E-003  0.1274021E+03  0.7818608E-02  0.1231362E+00
         21   -1    0    0  501  502  0.00000000000E+00  0.00000000000E+00  0.48900326479E+03  0.48900326479E+03  0.00000000000E+00 0.  1.
          4   -1    0    0  502    0 -0.00000000000E+00 -0.00000000000E+00 -0.65397040975E+02  0.65409371410E+02  0.12700000000E+01 0.  1.
         25    2    1    2    0    0 -0.24016429920E+02  0.40159987142E+01 -0.26793999028E+01  0.12743024424E+03  0.12505347181E+03 0.  0.
    9000005    1    3    3    0    0 -0.16470529508E+02  0.63808202720E+02  0.73896688031E+01  0.66320225283E+02  0.10000000000E+01 0.  0.
    9000005    1    3    3    0    0 -0.75459004127E+01 -0.59792204005E+02 -0.10069068706E+02  0.61110018961E+02  0.10000000000E+01 0.  0.
          4    1    1    2  501    0  0.24016429920E+02 -0.40159987142E+01  0.42628562371E+03  0.42698239195E+03  0.12700000000E+01 0. -1.
<mgrwt>
<rscale>  1 0.12740207E+03</rscale>
<asrwt>0</asrwt>
<pdfrwt beam="1">  1       21 0.75231269E-01 0.12740207E+03</pdfrwt>
<pdfrwt beam="2">  1        4 0.10062159E-01 0.12740207E+03</pdfrwt>
<totfact> 0.49000973E+03</totfact>
</mgrwt>
</event>
<event>
 6    3  0.7601760E-003  0.1299851E+03  0.7818608E-02  0.1227478E+00
         -4   -1    0    0    0  501 -0.00000000000E+00  0.00000000000E+00  0.65678320615E+02  0.65690598253E+02  0.12700000000E+01 0.  1.
         21   -1    0    0  501  502  0.00000000000E+00 -0.00000000000E+00 -0.11080689981E+03  0.11080689981E+03  0.00000000000E+00 0.  1.
         25    2    1    2    0    0 -0.12259744794E+02 -0.33496849214E+02 -0.17079214783E+02  0.13110234421E+03  0.12499513922E+03 0.  0.
    9000005    1    3    3    0    0 -0.51300444126E+02  0.25447556619E+02 -0.19072799474E+02  0.60366260322E+02  0.10000000000E+01 0.  0.
    9000005    1    3    3    0    0  0.39040699332E+02 -0.58944405834E+02  0.19935846904E+01  0.70736083885E+02  0.10000000000E+01 0.  0.
         -4    1    1    2    0  502  0.12259744794E+02  0.33496849214E+02 -0.28049364411E+02  0.45395153856E+02  0.12700000000E+01 0. -1.
<mgrwt>
<rscale>  1 0.12998510E+03</rscale>
<asrwt>0</asrwt>
<pdfrwt beam="2">  1       21 0.17047215E-01 0.12998510E+03</pdfrwt>
<pdfrwt beam="1">  1       -4 0.10105861E-01 0.12998510E+03</pdfrwt>
<totfact> 0.92843573E+04</totfact>
</mgrwt>
</event>
<event>
 6    3  0.7601760E-003  0.1388006E+03  0.7818608E-02  0.1214952E+00
         -4   -1    0    0    0  501 -0.00000000000E+00  0.00000000000E+00  0.19832508949E+02  0.19873130383E+02  0.12700000000E+01 0.  1.
         21   -1    0    0  501  502  0.00000000000E+00 -0.00000000000E+00 -0.16860479541E+04  0.16860479541E+04  0.00000000000E+00 0. -1.
         25    2    1    2    0    0 -0.45362920804E+02 -0.39791044569E+02 -0.23139575783E+03  0.26983255315E+03  0.12499795272E+03 0.  0.
    9000005    1    3    3    0    0  0.88077279217E+01  0.91887931260E+01  0.10887803737E+02  0.16779578674E+02  0.10000000000E+01 0.  0.
    9000005    1    3    3    0    0 -0.54170648726E+02 -0.48979837695E+02 -0.24228356157E+03  0.25305297448E+03  0.10000000000E+01 0.  0.
         -4    1    1    2    0  502  0.45362920804E+02  0.39791044569E+02 -0.14348196873E+04  0.14360885313E+04  0.12700000000E+01 0. -1.
<mgrwt>
<rscale>  1 0.13880061E+03</rscale>
<asrwt>0</asrwt>
<pdfrwt beam="2">  1       21 0.25939198E+00 0.13880061E+03</pdfrwt>
<pdfrwt beam="1">  1       -4 0.30543169E-02 0.13880061E+03</pdfrwt>
<totfact> 0.13202802E+03</totfact>
</mgrwt>
</event>
<event>
 6    3  0.7601760E-003  0.1399566E+03  0.7818608E-02  0.1213387E+00
          4   -1    0    0  502    0 -0.00000000000E+00  0.00000000000E+00  0.28523057991E+03  0.28523340726E+03  0.12700000000E+01 0.  1.
         21   -1    0    0  501  502  0.00000000000E+00 -0.00000000000E+00 -0.36467146433E+02  0.36467146433E+02  0.00000000000E+00 0. -1.
         25    2    1    2    0    0 -0.17591944897E+02 -0.60446733497E+02  0.18622426498E+03  0.23295347142E+03  0.12499823544E+03 0.  0.
    9000005    1    3    3    0    0 -0.30903511921E+02  0.51297785466E+01 -0.37225623808E+01  0.31562622636E+02  0.10000000000E+01 0.  0.
    9000005    1    3    3    0    0  0.13311567024E+02 -0.65576512043E+02  0.18994682736E+03  0.20139084879E+03  0.10000000000E+01 0.  0.
          4    1    1    2  501    0  0.17591944897E+02  0.60446733497E+02  0.62539168497E+02  0.88747082273E+02  0.12700000000E+01 0. -1.
<mgrwt>
<rscale>  1 0.13995658E+03</rscale>
<asrwt>0</asrwt>
<pdfrwt beam="2">  1       21 0.56103304E-02 0.13995658E+03</pdfrwt>
<pdfrwt beam="1">  1        4 0.43883545E-01 0.13995658E+03</pdfrwt>
<totfact> 0.45380153E+04</totfact>
</mgrwt>
</event>
<event>
 6    3  0.7601760E-003  0.1267340E+03  0.7818608E-02  0.1232384E+00
         21   -1    0    0  501  502  0.00000000000E+00  0.00000000000E+00  0.23909345014E+02  0.23909345014E+02  0.00000000000E+00 0. -1.
         -4   -1    0    0    0  501 -0.00000000000E+00 -0.00000000000E+00 -0.22837432787E+03  0.22837785911E+03  0.12700000000E+01 0. -1.
         25    2    1    2    0    0  0.88790744835E+01 -0.18911857896E+02 -0.17902543283E+03  0.21934361691E+03  0.12500008139E+03 0.  0.
    9000005    1    3    3    0    0 -0.44706432096E+02  0.29292774330E+02 -0.61635081866E+02  0.81588081331E+02  0.10000000000E+01 0.  0.
    9000005    1    3    3    0    0  0.53585506579E+02 -0.48204632226E+02 -0.11739035097E+03  0.13775553558E+03  0.10000000000E+01 0.  0.
         -4    1    1    2    0  502 -0.88790744835E+01  0.18911857896E+02 -0.25439550027E+02  0.32943587211E+02  0.12700000000E+01 0.  1.
<mgrwt>
<rscale>  1 0.12673404E+03</rscale>
<asrwt>0</asrwt>
<pdfrwt beam="1">  1       21 0.36783606E-02 0.12673404E+03</pdfrwt>
<pdfrwt beam="2">  1       -4 0.35137379E-01 0.12673404E+03</pdfrwt>
<totfact> 0.14028741E+05</totfact>
</mgrwt>
</event>
<event>
 6    3  0.7601760E-003  0.1407068E+03  0.7818608E-02  0.1212381E+00
         -4   -1    0    0    0  501 -0.00000000000E+00  0.00000000000E+00  0.43977371435E+02  0.43995705454E+02  0.12700000000E+01 0. -1.
         21   -1    0    0  501  502  0.00000000000E+00 -0.00000000000E+00 -0.32043508430E+03  0.32043508430E+03  0.00000000000E+00 0.  1.
         25    2    1    2    0    0  0.49964541743E+02 -0.40955983163E+02 -0.89838787792E+02  0.16694133666E+03  0.12499821641E+03 0.  0.
    9000005    1    3    3    0    0  0.46665361439E+02 -0.27294783123E+02  0.18911092484E+02  0.57282550248E+02  0.10000000000E+01 0.  0.
    9000005    1    3    3    0    0  0.32991803037E+01 -0.13661200040E+02 -0.10874988028E+03  0.10965878641E+03  0.10000000000E+01 0.  0.
         -4    1    1    2    0  502 -0.49964541743E+02  0.40955983163E+02 -0.18661892507E+03  0.19748945309E+03  0.12700000000E+01 0.  1.
<mgrwt>
<rscale>  1 0.14070679E+03</rscale>
<asrwt>0</asrwt>
<pdfrwt beam="2">  1       21 0.49297706E-01 0.14070679E+03</pdfrwt>
<pdfrwt beam="1">  1       -4 0.67673533E-02 0.14070679E+03</pdfrwt>
<totfact> 0.23486045E+04</totfact>
</mgrwt>
</event>
<event>
 6    3  0.7601760E-003  0.1602198E+03  0.7818608E-02  0.1188449E+00
         21   -1    0    0  501  502  0.00000000000E+00  0.00000000000E+00  0.33235108916E+02  0.33235108916E+02  0.00000000000E+00 0. -1.
          4   -1    0    0  502    0 -0.00000000000E+00 -0.00000000000E+00 -0.57117804827E+03  0.57117946018E+03  0.12700000000E+01 0.  1.
         25    2    1    2    0    0 -0.99777210381E+02 -0.86458628478E+01 -0.42091587836E+03  0.45037824688E+03  0.12506056912E+03 0.  0.
    9000005    1    3    3    0    0 -0.11788178170E+03  0.23559548722E+02 -0.35506837662E+03  0.37486760179E+03  0.10000000000E+01 0.  0.
    9000005    1    3    3    0    0  0.18104571317E+02 -0.32205411570E+02 -0.65847501739E+02  0.75510645092E+02  0.10000000000E+01 0.  0.
          4    1    1    2  501    0  0.99777210381E+02  0.86458628478E+01 -0.11702706099E+03  0.15403632221E+03  0.12700000000E+01 0. -1.
<mgrwt>
<rscale>  1 0.16021981E+03</rscale>
<asrwt>0</asrwt>
<pdfrwt beam="1">  1       21 0.51130939E-02 0.16021981E+03</pdfrwt>
<pdfrwt beam="2">  1        4 0.87875517E-01 0.16021981E+03</pdfrwt>
<totfact> 0.12354700E+04</totfact>
</mgrwt>
</event>
<event>
 6    3  0.7601760E-003  0.1404252E+03  0.7818608E-02  0.1212758E+00
          4   -1    0    0  502    0 -0.00000000000E+00  0.00000000000E+00  0.21333524589E+04  0.21333528370E+04  0.12700000000E+01 0.  1.
         21   -1    0    0  501  502  0.00000000000E+00 -0.00000000000E+00 -0.11046646029E+02  0.11046646029E+02  0.00000000000E+00 0. -1.
         25    2    1    2    0    0 -0.38235776304E+02  0.51296271577E+02  0.20118598229E+04  0.20167546175E+04  0.12500383304E+03 0.  0.
    9000005    1    3    3    0    0  0.44697225239E+02  0.41717222425E+01  0.60399555599E+03  0.60566234559E+03  0.10000000000E+01 0.  0.
    9000005    1    3    3    0    0 -0.82933001542E+02  0.47124549335E+02  0.14078642669E+04  0.14110922720E+04  0.10000000000E+01 0.  0.
          4    1    1    2  501    0  0.38235776304E+02 -0.51296271577E+02  0.11044599000E+03  0.12764486544E+03  0.12700000000E+01 0. -1.
<mgrwt>
<rscale>  1 0.14042521E+03</rscale>
<asrwt>0</asrwt>
<pdfrwt beam="2">  1       21 0.16994857E-02 0.14042521E+03</pdfrwt>
<pdfrwt beam="1">  1        4 0.32821339E+00 0.14042521E+03</pdfrwt>
<totfact> 0.17031858E+03</totfact>
</mgrwt>
</event>
<event>
 6    3  0.7601760E-003  0.1276153E+03  0.7818608E-02  0.1231038E+00
         21   -1    0    0  501  502  0.00000000000E+00  0.00000000000E+00  0.72610576068E+03  0.72610576068E+03  0.00000000000E+00 0.  1.
          4   -1    0    0  502    0 -0.00000000000E+00 -0.00000000000E+00 -0.96073597439E+01  0.96909370676E+01  0.12700000000E+01 0.  1.
         25    2    1    2    0    0  0.25026877000E+02 -0.56270592451E+01  0.44070318948E+03  0.45880821436E+03  0.12501067145E+03 0.  0.
    9000005    1    3    3    0    0  0.50785041333E+02  0.39342069868E+02  0.14500327821E+03  0.15859971493E+03  0.10000000000E+01 0.  0.
    9000005    1    3    3    0    0 -0.25758164333E+02 -0.44969129113E+02  0.29569991128E+03  0.30020849943E+03  0.10000000000E+01 0.  0.
          4    1    1    2  501    0 -0.25026877000E+02  0.56270592451E+01  0.27579521145E+03  0.27698848338E+03  0.12700000000E+01 0. -1.
<mgrwt>
<rscale>  1 0.12761535E+03</rscale>
<asrwt>0</asrwt>
<pdfrwt beam="1">  1       21 0.11170854E+00 0.12761535E+03</pdfrwt>
<pdfrwt beam="2">  1        4 0.14845704E-02 0.12761535E+03</pdfrwt>
<totfact> 0.41397510E+04</totfact>
</mgrwt>
</event>
<event>
 6    3  0.7601760E-003  0.1374045E+03  0.7818608E-02  0.1216865E+00
          4   -1    0    0  502    0 -0.00000000000E+00  0.00000000000E+00  0.52732468210E+02  0.52747759227E+02  0.12700000000E+01 0.  1.
         21   -1    0    0  501  502  0.00000000000E+00 -0.00000000000E+00 -0.20589851545E+03  0.20589851545E+03  0.00000000000E+00 0.  1.
         25    2    1    2    0    0  0.53116940210E+02 -0.20800175693E+02 -0.61199596563E+02  0.15041736174E+03  0.12500374173E+03 0.  0.
    9000005    1    3    3    0    0  0.30419092088E+02 -0.71028756910E+02 -0.55196407837E+02  0.94963408267E+02  0.10000000000E+01 0.  0.
    9000005    1    3    3    0    0  0.22697848122E+02  0.50228581217E+02 -0.60031887260E+01  0.55453953469E+02  0.10000000000E+01 0.  0.
          4    1    1    2  501    0 -0.53116940210E+02  0.20800175693E+02 -0.91966450677E+02  0.10822891294E+03  0.12700000000E+01 0. -1.
<mgrwt>
<rscale>  1 0.13740448E+03</rscale>
<asrwt>0</asrwt>
<pdfrwt beam="2">  1       21 0.31676695E-01 0.13740448E+03</pdfrwt>
<pdfrwt beam="1">  1        4 0.81141648E-02 0.13740448E+03</pdfrwt>
<totfact> 0.42094987E+04</totfact>
</mgrwt>
</event>
<event>
 6    3  0.7601760E-003  0.1298017E+03  0.7818608E-02  0.1227750E+00
         21   -1    0    0  501  502  0.00000000000E+00  0.00000000000E+00  0.16542844224E+03  0.16542844224E+03  0.00000000000E+00 0. -1.
          4   -1    0    0  502    0 -0.00000000000E+00 -0.00000000000E+00 -0.96786516415E+02  0.96794848313E+02  0.12700000000E+01 0.  1.
         25    2    1    2    0    0  0.13647858085E+02 -0.32225595551E+02 -0.49561232641E+02  0.13894169172E+03  0.12499489941E+03 0.  0.
    9000005    1    3    3    0    0 -0.14706332258E+02 -0.73952450858E+02 -0.12738235403E+02  0.76475511358E+02  0.10000000000E+01 0.  0.
    9000005    1    3    3    0    0  0.28354190342E+02  0.41726855307E+02 -0.36822997238E+02  0.62466180364E+02  0.10000000000E+01 0.  0.
          4    1    1    2  501    0 -0.13647858085E+02  0.32225595551E+02  0.11820315847E+03  0.12328159883E+03  0.12700000000E+01 0. -1.
<mgrwt>
<rscale>  1 0.12980169E+03</rscale>
<asrwt>0</asrwt>
<pdfrwt beam="1">  1       21 0.25450529E-01 0.12980169E+03</pdfrwt>
<pdfrwt beam="2">  1        4 0.14891249E-01 0.12980169E+03</pdfrwt>
<totfact> 0.22706463E+04</totfact>
</mgrwt>
</event>
<event>
 6    3  0.7601760E-003  0.1346645E+03  0.7818608E-02  0.1220694E+00
         -4   -1    0    0    0  501 -0.00000000000E+00  0.00000000000E+00  0.95325888883E+03  0.95325973482E+03  0.12700000000E+01 0. -1.
         21   -1    0    0  501  502  0.00000000000E+00 -0.00000000000E+00 -0.13410860511E+02  0.13410860511E+02  0.00000000000E+00 0.  1.
         25    2    1    2    0    0  0.24845529521E+02  0.43496896604E+02  0.87193263753E+03  0.88227039654E+03  0.12500099143E+03 0.  0.
    9000005    1    3    3    0    0 -0.25840140407E+02  0.36135958391E+02  0.73043184114E+03  0.73178220455E+03  0.10000000000E+01 0.  0.
    9000005    1    3    3    0    0  0.50685669928E+02  0.73609382124E+01  0.14150079639E+03  0.15048819199E+03  0.10000000000E+01 0.  0.
         -4    1    1    2    0  502 -0.24845529521E+02 -0.43496896604E+02  0.67915390788E+02  0.84400198799E+02  0.12700000000E+01 0.  1.
<mgrwt>
<rscale>  1 0.13466450E+03</rscale>
<asrwt>0</asrwt>
<pdfrwt beam="2">  1       21 0.20632101E-02 0.13466450E+03</pdfrwt>
<pdfrwt beam="1">  1       -4 0.14665985E+00 0.13466450E+03</pdfrwt>
<totfact> 0.16049705E+04</totfact>
</mgrwt>
</event>
<event>
 6    3  0.7601760E-003  0.1328924E+03  0.7818608E-02  0.1223226E+00
          4   -1    0    0  502    0 -0.00000000000E+00  0.00000000000E+00  0.21750080055E+03  0.21750450832E+03  0.12700000000E+01 0.  1.
         21   -1    0    0  501  502  0.00000000000E+00 -0.00000000000E+00 -0.70317729370E+02  0.70317729370E+02  0.00000000000E+00 0. -1.
         25    2    1    2    0    0 -0.77041234618E+00  0.45103899784E+02  0.18579505455E+03  0.22842986889E+03  0.12500178956E+03 0.  0.
    9000005    1    3    3    0    0 -0.52923425625E+02  0.14409840400E+02  0.32844063402E+02  0.63939541607E+02  0.10000000000E+01 0.  0.
    9000005    1    3    3    0    0  0.52153013278E+02  0.30694059385E+02  0.15295099115E+03  0.16449032728E+03  0.10000000000E+01 0.  0.
          4    1    1    2  501    0  0.77041234618E+00 -0.45103899784E+02 -0.38611983378E+02  0.59392368797E+02  0.12700000000E+01 0. -1.
<mgrwt>
<rscale>  1 0.13289245E+03</rscale>
<asrwt>0</asrwt>
<pdfrwt beam="2">  1       21 0.10818112E-01 0.13289245E+03</pdfrwt>
<pdfrwt beam="1">  1        4 0.33462829E-01 0.13289245E+03</pdfrwt>
<totfact> 0.24706160E+04</totfact>
</mgrwt>
</event>
<event>
 6    3  0.7601760E-003  0.1392033E+03  0.7818608E-02  0.1214405E+00
         -4   -1    0    0    0  501 -0.00000000000E+00  0.00000000000E+00  0.16359888252E+02  0.16409108556E+02  0.12700000000E+01 0.  1.
         21   -1    0    0  501  502  0.00000000000E+00 -0.00000000000E+00 -0.91548732882E+03  0.91548732882E+03  0.00000000000E+00 0. -1.
         25    2    1    2    0    0  0.54310289185E+02  0.28330155673E+02 -0.31279430527E+03  0.34237089621E+03  0.12500139173E+03 0.  0.
    9000005    1    3    3    0    0 -0.23818436212E+02 -0.17308050959E+02 -0.19238393831E+02  0.35185257265E+02  0.10000000000E+01 0.  0.
    9000005    1    3    3    0    0  0.78128725397E+02  0.45638206632E+02 -0.29355591144E+03  0.30718563895E+03  0.10000000000E+01 0.  0.
         -4    1    1    2    0  502 -0.54310289185E+02 -0.28330155673E+02 -0.58633313530E+03  0.58952554117E+03  0.12700000000E+01 0. -1.
<mgrwt>
<rscale>  1 0.13920328E+03</rscale>
<asrwt>0</asrwt>
<pdfrwt beam="2">  1       21 0.14084420E+00 0.13920328E+03</pdfrwt>
<pdfrwt beam="1">  1       -4 0.25207598E-02 0.13920328E+03</pdfrwt>
<totfact> 0.10406814E+04</totfact>
</mgrwt>
</event>
<event>
 6    3  0.7601760E-003  0.1274899E+03  0.7818608E-02  0.1231228E+00
          4   -1    0    0  502    0 -0.00000000000E+00  0.00000000000E+00  0.30194481494E+02  0.30221178215E+02  0.12700000000E+01 0. -1.
         21   -1    0    0  501  502  0.00000000000E+00 -0.00000000000E+00 -0.26158298395E+03  0.26158298395E+03  0.00000000000E+00 0. -1.
         25    2    1    2    0    0  0.19287324022E+02 -0.16019052399E+02 -0.11166786064E+03  0.16947977423E+03  0.12500028746E+03 0.  0.
    9000005    1    3    3    0    0 -0.32505494453E+02  0.33692547056E+02 -0.76106833262E+02  0.89359078810E+02  0.10000000000E+01 0.  0.
    9000005    1    3    3    0    0  0.51792818474E+02 -0.49711599455E+02 -0.35561027380E+02  0.80120695418E+02  0.10000000000E+01 0.  0.
          4    1    1    2  501    0 -0.19287324022E+02  0.16019052399E+02 -0.11972064181E+03  0.12232438794E+03  0.12700000000E+01 0.  1.
<mgrwt>
<rscale>  1 0.12748993E+03</rscale>
<asrwt>0</asrwt>
<pdfrwt beam="2">  1       21 0.40243536E-01 0.12748993E+03</pdfrwt>
<pdfrwt beam="1">  1        4 0.46475955E-02 0.12748993E+03</pdfrwt>
<totfact> 0.64494304E+04</totfact>
</mgrwt>
</event>
<event>
 6    3  0.7601760E-003  0.1311979E+03  0.7818608E-02  0.1225689E+00
         21   -1    0    0  501  502  0.00000000000E+00  0.00000000000E+00  0.15646732737E+03  0.15646732737E+03  0.00000000000E+00 0. -1.
         -4   -1    0    0    0  501 -0.00000000000E+00 -0.00000000000E+00 -0.73219778911E+02  0.73230792183E+02  0.12700000000E+01 0. -1.
         25    2    1    2    0    0  0.39795140670E+02  0.17664720987E+01 -0.66456704248E+01  0.13136614436E+03  0.12500450113E+03 0.  0.
    9000005    1    3    3    0    0  0.68341147160E+02 -0.40882916592E+02 -0.77907976450E+01  0.80022633000E+02  0.10000000000E+01 0.  0.
    9000005    1    3    3    0    0 -0.28546006490E+02  0.42649388690E+02  0.11451272202E+01  0.51343511358E+02  0.10000000000E+01 0.  0.
         -4    1    1    2    0  502 -0.39795140670E+02 -0.17664720987E+01  0.89893218881E+02  0.98331975193E+02  0.12700000000E+01 0.  1.
<mgrwt>
<rscale>  1 0.13119794E+03</rscale>
<asrwt>0</asrwt>
<pdfrwt beam="1">  1       21 0.24071896E-01 0.13119794E+03</pdfrwt>
<pdfrwt beam="2">  1       -4 0.11265825E-01 0.13119794E+03</pdfrwt>
<totfact> 0.40819282E+04</totfact>
</mgrwt>
</event>
<event>
 6    3  0.7601760E-003  0.1281088E+03  0.7818608E-02  0.1230289E+00
          4   -1    0    0  502    0 -0.00000000000E+00  0.00000000000E+00  0.12851887140E+03  0.12852514620E+03  0.12700000000E+01 0. -1.
         21   -1    0    0  501  502  0.00000000000E+00 -0.00000000000E+00 -0.47508978843E+02  0.47508978843E+02  0.00000000000E+00 0. -1.
         25    2    1    2    0    0  0.65862439708E+00 -0.28057447961E+02  0.64200393638E+02  0.14329536627E+03  0.12499686908E+03 0.  0.
    9000005    1    3    3    0    0  0.46205135237E+02 -0.49040318417E+02  0.64294599910E+02  0.93137870548E+02  0.10000000000E+01 0.  0.
    9000005    1    3    3    0    0 -0.45546510840E+02  0.20982870455E+02 -0.94206272268E-01  0.50157495721E+02  0.10000000000E+01 0.  0.
          4    1    1    2  501    0 -0.65862439708E+00  0.28057447961E+02  0.16809498921E+02  0.32738758776E+02  0.12700000000E+01 0.  1.
<mgrwt>
<rscale>  1 0.12810883E+03</rscale>
<asrwt>0</asrwt>
<pdfrwt beam="2">  1       21 0.73090737E-02 0.12810883E+03</pdfrwt>
<pdfrwt beam="1">  1        4 0.19773922E-01 0.12810883E+03</pdfrwt>
<totfact> 0.12874950E+05</totfact>
</mgrwt>
</event>
<event>
 6    3  0.7601760E-003  0.1282738E+03  0.7818608E-02  0.1230040E+00
          4   -1    0    0  502    0 -0.00000000000E+00  0.00000000000E+00  0.11513261716E+04  0.11513268721E+04  0.12700000000E+01 0. -1.
         21   -1    0    0  501  502  0.00000000000E+00 -0.00000000000E+00 -0.55912386845E+01  0.55912386845E+01  0.00000000000E+00 0.  1.
         25    2    1    2    0    0  0.28473213851E+02  0.42739925493E+01  0.10130805635E+04  0.10211691309E+04  0.12500069885E+03 0.  0.
    9000005    1    3    3    0    0  0.15188478788E+02  0.58909083082E+02  0.31468048998E+03  0.32050862817E+03  0.10000000000E+01 0.  0.
    9000005    1    3    3    0    0  0.13284735063E+02 -0.54635090533E+02  0.69840007354E+03  0.70066050269E+03  0.10000000000E+01 0.  0.
          4    1    1    2  501    0 -0.28473213851E+02 -0.42739925493E+01  0.13265436942E+03  0.13574897991E+03  0.12700000000E+01 0.  1.
<mgrwt>
<rscale>  1 0.12827379E+03</rscale>
<asrwt>0</asrwt>
<pdfrwt beam="2">  1       21 0.86019148E-03 0.12827379E+03</pdfrwt>
<pdfrwt beam="1">  1        4 0.17713806E+00 0.12827379E+03</pdfrwt>
<totfact> 0.39260265E+04</totfact>
</mgrwt>
</event>
<event>
 6    3  0.7601760E-003  0.1336238E+03  0.7818608E-02  0.1222176E+00
         -4   -1    0    0    0  501 -0.00000000000E+00  0.00000000000E+00  0.49129866266E+02  0.49146278184E+02  0.12700000000E+01 0.  1.
         21   -1    0    0  501  502  0.00000000000E+00 -0.00000000000E+00 -0.44648390731E+03  0.44648390731E+03  0.00000000000E+00 0. -1.
         25    2    1    2    0    0 -0.46213136710E+02 -0.97509777637E+01 -0.46310456565E+02  0.14142128290E+03  0.12499834118E+03 0.  0.
    9000005    1    3    3    0    0 -0.41564451164E+02 -0.58343965498E+02 -0.56866471705E+02  0.91468122943E+02  0.10000000000E+01 0.  0.
    9000005    1    3    3    0    0 -0.46486855459E+01  0.48592987734E+02  0.10556015140E+02  0.49953159959E+02  0.10000000000E+01 0.  0.
         -4    1    1    2    0  502  0.46213136710E+02  0.97509777637E+01 -0.35104358448E+03  0.35420890259E+03  0.12700000000E+01 0. -1.
<mgrwt>
<rscale>  1 0.13362380E+03</rscale>
<asrwt>0</asrwt>
<pdfrwt beam="2">  1       21 0.68689828E-01 0.13362380E+03</pdfrwt>
<pdfrwt beam="1">  1       -4 0.75598428E-02 0.13362380E+03</pdfrwt>
<totfact> 0.96594005E+03</totfact>
</mgrwt>
</event>
<event>
 6    3  0.7601760E-003  0.1481301E+03  0.7818608E-02  0.1202790E+00
         21   -1    0    0  501  502  0.00000000000E+00  0.00000000000E+00  0.90571668201E+02  0.90571668201E+02  0.00000000000E+00 0.  1.
          4   -1    0    0  502    0 -0.00000000000E+00 -0.00000000000E+00 -0.15331975555E+03  0.15332501538E+03  0.12700000000E+01 0. -1.
         25    2    1    2    0    0  0.77071298767E+02  0.19426371734E+02 -0.70455297313E+02  0.16403190412E+03  0.12500059055E+03 0.  0.
    9000005    1    3    3    0    0 -0.97731880037E+01 -0.35792788922E+02 -0.44393112283E+02  0.57865251756E+02  0.10000000000E+01 0.  0.
    9000005    1    3    3    0    0  0.86844486771E+02  0.55219160657E+02 -0.26062185030E+02  0.10616665237E+03  0.10000000000E+01 0.  0.
          4    1    1    2  501    0 -0.77071298767E+02 -0.19426371734E+02  0.77072099669E+01  0.79864779458E+02  0.12700000000E+01 0.  1.
<mgrwt>
<rscale>  1 0.14813007E+03</rscale>
<asrwt>0</asrwt>
<pdfrwt beam="1">  1       21 0.13934103E-01 0.14813007E+03</pdfrwt>
<pdfrwt beam="2">  1        4 0.23588744E-01 0.14813007E+03</pdfrwt>
<totfact> 0.30692716E+04</totfact>
</mgrwt>
</event>
<event>
 6    3  0.7601760E-003  0.1332020E+03  0.7818608E-02  0.1222780E+00
          4   -1    0    0  502    0 -0.00000000000E+00  0.00000000000E+00  0.29950090116E+02  0.29977004486E+02  0.12700000000E+01 0. -1.
         21   -1    0    0  501  502  0.00000000000E+00 -0.00000000000E+00 -0.12129031887E+04  0.12129031887E+04  0.00000000000E+00 0.  1.
         25    2    1    2    0    0 -0.29709812352E+02 -0.35340325736E+02 -0.12109725615E+03  0.18002034608E+03  0.12494465968E+03 0.  0.
    9000005    1    3    3    0    0  0.26019030250E+01  0.35684161355E+02 -0.88474516077E+02  0.95440396405E+02  0.10000000000E+01 0.  0.
    9000005    1    3    3    0    0 -0.32311715377E+02 -0.71024487091E+02 -0.32622740069E+02  0.84579949673E+02  0.10000000000E+01 0.  0.
          4    1    1    2  501    0  0.29709812352E+02  0.35340325736E+02 -0.10618558424E+04  0.10628598471E+04  0.12700000000E+01 0.  1.
<mgrwt>
<rscale>  1 0.13320203E+03</rscale>
<asrwt>0</asrwt>
<pdfrwt beam="2">  1       21 0.18660049E+00 0.13320203E+03</pdfrwt>
<pdfrwt beam="1">  1        4 0.46098278E-02 0.13320203E+03</pdfrwt>
<totfact> 0.18933218E+03</totfact>
</mgrwt>
</event>
<event>
 6    3  0.7601760E-003  0.1277957E+03  0.7818608E-02  0.1230764E+00
          4   -1    0    0  502    0 -0.00000000000E+00  0.00000000000E+00  0.13069979505E+03  0.13070596516E+03  0.12700000000E+01 0.  1.
         21   -1    0    0  501  502  0.00000000000E+00 -0.00000000000E+00 -0.57275417207E+02  0.57275417207E+02  0.00000000000E+00 0.  1.
         25    2    1    2    0    0 -0.22062626459E+01  0.26466955239E+02  0.90308572943E+02  0.15648445777E+03  0.12500551933E+03 0.  0.
    9000005    1    3    3    0    0  0.52832409979E+01 -0.10076441691E+02  0.11249330290E+03  0.11307161673E+03  0.10000000000E+01 0.  0.
    9000005    1    3    3    0    0 -0.74895036438E+01  0.36543396930E+02 -0.22184729959E+02  0.43412841042E+02  0.10000000000E+01 0.  0.
          4    1    1    2  501    0  0.22062626459E+01 -0.26466955239E+02 -0.16884195095E+02  0.31496924588E+02  0.12700000000E+01 0. -1.
<mgrwt>
<rscale>  1 0.12779572E+03</rscale>
<asrwt>0</asrwt>
<pdfrwt beam="2">  1       21 0.88116027E-02 0.12779572E+03</pdfrwt>
<pdfrwt beam="1">  1        4 0.20109218E-01 0.12779572E+03</pdfrwt>
<totfact> 0.90466777E+04</totfact>
</mgrwt>
</event>
<event>
 6    3  0.7601760E-003  0.1271840E+03  0.7818608E-02  0.1231695E+00
         -4   -1    0    0    0  501 -0.00000000000E+00  0.00000000000E+00  0.11684921883E+03  0.11685612026E+03  0.12700000000E+01 0. -1.
         21   -1    0    0  501  502  0.00000000000E+00 -0.00000000000E+00 -0.59193511772E+02  0.59193511772E+02  0.00000000000E+00 0.  1.
         25    2    1    2    0    0 -0.19982399117E+02  0.12303190927E+02  0.74258752940E+02  0.14727570609E+03  0.12500042574E+03 0.  0.
    9000005    1    3    3    0    0 -0.29557513206E+02  0.23733395805E+02 -0.25956183637E+02  0.45952629221E+02  0.10000000000E+01 0.  0.
    9000005    1    3    3    0    0  0.95751140894E+01 -0.11430204877E+02  0.10021493658E+03  0.10132307687E+03  0.10000000000E+01 0.  0.
         -4    1    1    2    0  502  0.19982399117E+02 -0.12303190927E+02 -0.16603045880E+02  0.28773925939E+02  0.12700000000E+01 0.  1.
<mgrwt>
<rscale>  1 0.12718401E+03</rscale>
<asrwt>0</asrwt>
<pdfrwt beam="2">  1       21 0.91066941E-02 0.12718401E+03</pdfrwt>
<pdfrwt beam="1">  1       -4 0.17978382E-01 0.12718401E+03</pdfrwt>
<totfact> 0.10429488E+05</totfact>
</mgrwt>
</event>
<event>
 6    3  0.7601760E-003  0.1291444E+03  0.7818608E-02  0.1228731E+00
         21   -1    0    0  501  502  0.00000000000E+00  0.00000000000E+00  0.11103399203E+03  0.11103399203E+03  0.00000000000E+00 0. -1.
         -4   -1    0    0    0  501 -0.00000000000E+00 -0.00000000000E+00 -0.80572697122E+02  0.80582705474E+02  0.12700000000E+01 0.  1.
         25    2    1    2    0    0  0.91299625132E+01 -0.31167217363E+02 -0.20910828766E+02  0.13082640515E+03  0.12499413535E+03 0.  0.
    9000005    1    3    3    0    0 -0.49516292395E+02 -0.33825382025E+02 -0.36330037424E+02  0.70120548351E+02  0.10000000000E+01 0.  0.
    9000005    1    3    3    0    0  0.58646254909E+02  0.26581646624E+01  0.15419208658E+02  0.60705856800E+02  0.10000000000E+01 0.  0.
         -4    1    1    2    0  502 -0.91299625132E+01  0.31167217363E+02  0.51372123675E+02  0.60790292355E+02  0.12700000000E+01 0. -1.
<mgrwt>
<rscale>  1 0.12914444E+03</rscale>
<asrwt>0</asrwt>
<pdfrwt beam="1">  1       21 0.17082153E-01 0.12914444E+03</pdfrwt>
<pdfrwt beam="2">  1       -4 0.12397128E-01 0.12914444E+03</pdfrwt>
<totfact> 0.65311284E+04</totfact>
</mgrwt>
</event>
<event>
 6    3  0.7601760E-003  0.1312532E+03  0.7818608E-02  0.1225608E+00
          4   -1    0    0  502    0 -0.00000000000E+00  0.00000000000E+00  0.25699872255E+03  0.25700186048E+03  0.12700000000E+01 0.  1.
         21   -1    0    0  501  502  0.00000000000E+00 -0.00000000000E+00 -0.29093313137E+02  0.29093313137E+02  0.00000000000E+00 0.  1.
         25    2    1    2    0    0  0.16028654875E+02 -0.36684866901E+02  0.15679273141E+03  0.20447824456E+03  0.12499877855E+03 0.  0.
    9000005    1    3    3    0    0 -0.47914609643E+02  0.12023828720E+02  0.45348813106E+02  0.67066363584E+02  0.10000000000E+01 0.  0.
    9000005    1    3    3    0    0  0.63943264518E+02 -0.48708695620E+02  0.11144391830E+03  0.13741188098E+03  0.10000000000E+01 0.  0.
          4    1    1    2  501    0 -0.16028654875E+02  0.36684866901E+02  0.71112677999E+02  0.81616929058E+02  0.12700000000E+01 0. -1.
<mgrwt>
<rscale>  1 0.13125316E+03</rscale>
<asrwt>0</asrwt>
<pdfrwt beam="2">  1       21 0.44758945E-02 0.13125316E+03</pdfrwt>
<pdfrwt beam="1">  1        4 0.39540637E-01 0.13125316E+03</pdfrwt>
<totfact> 0.80887909E+04</totfact>
</mgrwt>
</event>
<event>
 6    3  0.7601760E-003  0.1268446E+03  0.7818608E-02  0.1232214E+00
         21   -1    0    0  501  502  0.00000000000E+00  0.00000000000E+00  0.56588647743E+02  0.56588647743E+02  0.00000000000E+00 0. -1.
         -4   -1    0    0    0  501 -0.00000000000E+00 -0.00000000000E+00 -0.10127226448E+03  0.10128022735E+03  0.12700000000E+01 0. -1.
         25    2    1    2    0    0  0.19691512472E+02 -0.87859796364E+01 -0.48748679135E+02  0.13588964095E+03  0.12499844678E+03 0.  0.
    9000005    1    3    3    0    0  0.33540200958E+02 -0.62318219998E+02 -0.34716480343E+02  0.78833619932E+02  0.10000000000E+01 0.  0.
    9000005    1    3    3    0    0 -0.13848688486E+02  0.53532240362E+02 -0.14032198791E+02  0.57056021013E+02  0.10000000000E+01 0.  0.
         -4    1    1    2    0  502 -0.19691512472E+02  0.87859796364E+01  0.40650623981E+01  0.21979234152E+02  0.12700000000E+01 0.  1.
<mgrwt>
<rscale>  1 0.12684463E+03</rscale>
<asrwt>0</asrwt>
<pdfrwt beam="1">  1       21 0.87059457E-02 0.12684463E+03</pdfrwt>
<pdfrwt beam="2">  1       -4 0.15582057E-01 0.12684463E+03</pdfrwt>
<totfact> 0.14504555E+05</totfact>
</mgrwt>
</event>
<event>
 6    3  0.7601760E-003  0.1350105E+03  0.7818608E-02  0.1220205E+00
         21   -1    0    0  501  502  0.00000000000E+00  0.00000000000E+00  0.14088329781E+03  0.14088329781E+03  0.00000000000E+00 0.  1.
         -4   -1    0    0    0  501 -0.00000000000E+00 -0.00000000000E+00 -0.67201560618E+02  0.67213560013E+02  0.12700000000E+01 0. -1.
         25    2    1    2    0    0 -0.45378834514E+02 -0.23323304093E+02  0.24493070857E+02  0.13721418765E+03  0.12499843053E+03 0.  0.
    9000005    1    3    3    0    0  0.40321863081E+02  0.95377403085E+01  0.18024418902E+02  0.45196247735E+02  0.10000000000E+01 0.  0.
    9000005    1    3    3    0    0 -0.85700697595E+02 -0.32861044402E+02  0.64686519551E+01  0.92017939911E+02  0.10000000000E+01 0.  0.
         -4    1    1    2    0  502  0.45378834514E+02  0.23323304093E+02  0.49188666335E+02  0.70882670177E+02  0.12700000000E+01 0.  1.
<mgrwt>
<rscale>  1 0.13501045E+03</rscale>
<asrwt>0</asrwt>
<pdfrwt beam="1">  1       21 0.21674353E-01 0.13501045E+03</pdfrwt>
<pdfrwt beam="2">  1       -4 0.10340065E-01 0.13501045E+03</pdfrwt>
<totfact> 0.57650105E+04</totfact>
</mgrwt>
</event>
<event>
 6    3  0.7601760E-003  0.1387373E+03  0.7818608E-02  0.1215038E+00
          4   -1    0    0  502    0 -0.00000000000E+00  0.00000000000E+00  0.17386866429E+03  0.17387330250E+03  0.12700000000E+01 0. -1.
         21   -1    0    0  501  502  0.00000000000E+00 -0.00000000000E+00 -0.28639486961E+03  0.28639486961E+03  0.00000000000E+00 0.  1.
         25    2    1    2    0    0  0.42031080960E+02 -0.43076295202E+02  0.14211576617E+03  0.19860746524E+03  0.12500342108E+03 0.  0.
    9000005    1    3    3    0    0  0.60329072362E+02 -0.36359748287E+00  0.13957652009E+03  0.15206029770E+03  0.10000000000E+01 0.  0.
    9000005    1    3    3    0    0 -0.18297991401E+02 -0.42712697719E+02  0.25392460728E+01  0.46547167544E+02  0.10000000000E+01 0.  0.
          4    1    1    2  501    0 -0.42031080960E+02  0.43076295202E+02 -0.25464197148E+03  0.26166070686E+03  0.12700000000E+01 0.  1.
<mgrwt>
<rscale>  1 0.13873729E+03</rscale>
<asrwt>0</asrwt>
<pdfrwt beam="2">  1       21 0.44060749E-01 0.13873729E+03</pdfrwt>
<pdfrwt beam="1">  1        4 0.26749599E-01 0.13873729E+03</pdfrwt>
<totfact> 0.27149236E+03</totfact>
</mgrwt>
</event>
<event>
 6    3  0.7601760E-003  0.1916037E+03  0.7818608E-02  0.1157023E+00
         21   -1    0    0  501  502  0.00000000000E+00  0.00000000000E+00  0.92432667826E+03  0.92432667826E+03  0.00000000000E+00 0.  1.
          4   -1    0    0  502    0 -0.00000000000E+00 -0.00000000000E+00 -0.33556328726E+02  0.33580352850E+02  0.12700000000E+01 0. -1.
         25    2    1    2    0    0  0.39114479076E+02 -0.13984708177E+03  0.36227883719E+03  0.40982670828E+03  0.12499930476E+03 0.  0.
    9000005    1    3    3    0    0  0.69269004263E+02 -0.11725200593E+03  0.33946966844E+03  0.36576889375E+03  0.10000000000E+01 0.  0.
    9000005    1    3    3    0    0 -0.30154525187E+02 -0.22595075846E+02  0.22809168743E+02  0.44057814522E+02  0.10000000000E+01 0.  0.
          4    1    1    2  501    0 -0.39114479076E+02  0.13984708177E+03  0.52849151235E+03  0.54808032284E+03  0.12700000000E+01 0.  1.
<mgrwt>
<rscale>  1 0.19160369E+03</rscale>
<asrwt>0</asrwt>
<pdfrwt beam="1">  1       21 0.14220408E+00 0.19160369E+03</pdfrwt>
<pdfrwt beam="2">  1        4 0.51644279E-02 0.19160369E+03</pdfrwt>
<totfact> 0.32796578E+03</totfact>
</mgrwt>
</event>
<event>
 6    3  0.7601760E-003  0.1284773E+03  0.7818608E-02  0.1229733E+00
         -4   -1    0    0    0  501 -0.00000000000E+00  0.00000000000E+00  0.23781816528E+03  0.23782155629E+03  0.12700000000E+01 0. -1.
         21   -1    0    0  501  502  0.00000000000E+00 -0.00000000000E+00 -0.85053902122E+02  0.85053902122E+02  0.00000000000E+00 0.  1.
         25    2    1    2    0    0 -0.13953458231E+02  0.26207731316E+02  0.21695311916E+03  0.25214098087E+03  0.12499949657E+03 0.  0.
    9000005    1    3    3    0    0  0.22018577323E+02 -0.44203551670E+02  0.81965392688E+02  0.95697948390E+02  0.10000000000E+01 0.  0.
    9000005    1    3    3    0    0 -0.35972035554E+02  0.70411282986E+02  0.13498772647E+03  0.15644303248E+03  0.10000000000E+01 0.  0.
         -4    1    1    2    0  502  0.13953458231E+02 -0.26207731316E+02 -0.64188856006E+02  0.70734477539E+02  0.12700000000E+01 0.  1.
<mgrwt>
<rscale>  1 0.12847731E+03</rscale>
<asrwt>0</asrwt>
<pdfrwt beam="2">  1       21 0.13085216E-01 0.12847731E+03</pdfrwt>
<pdfrwt beam="1">  1       -4 0.36588400E-01 0.12847731E+03</pdfrwt>
<totfact> 0.14795108E+04</totfact>
</mgrwt>
</event>
<event>
 6    3  0.7601760E-003  0.1303673E+03  0.7818608E-02  0.1226912E+00
         21   -1    0    0  501  502  0.00000000000E+00  0.00000000000E+00  0.52879689298E+02  0.52879689298E+02  0.00000000000E+00 0.  1.
          4   -1    0    0  502    0 -0.00000000000E+00 -0.00000000000E+00 -0.15200713861E+03  0.15201244386E+03  0.12700000000E+01 0. -1.
         25    2    1    2    0    0 -0.32249965376E+02 -0.18188533912E+02 -0.10498558766E+03  0.16738461768E+03  0.12499901434E+03 0.  0.
    9000005    1    3    3    0    0  0.11990059537E+02 -0.55925446465E+02 -0.13172493266E+02  0.58702058472E+02  0.10000000000E+01 0.  0.
    9000005    1    3    3    0    0 -0.44240024913E+02  0.37736912553E+02 -0.91813094395E+02  0.10868255921E+03  0.10000000000E+01 0.  0.
          4    1    1    2  501    0  0.32249965376E+02  0.18188533912E+02  0.58581383476E+01  0.37507515480E+02  0.12700000000E+01 0.  1.
<mgrwt>
<rscale>  1 0.13036731E+03</rscale>
<asrwt>0</asrwt>
<pdfrwt beam="1">  1       21 0.81353369E-02 0.13036731E+03</pdfrwt>
<pdfrwt beam="2">  1        4 0.23387295E-01 0.13036731E+03</pdfrwt>
<totfact> 0.79205837E+04</totfact>
</mgrwt>
</event>
<event>
 6    3  0.7601760E-003  0.1268864E+03  0.7818608E-02  0.1232150E+00
         -4   -1    0    0    0  501 -0.00000000000E+00  0.00000000000E+00  0.88168209631E+03  0.88168301098E+03  0.12700000000E+01 0.  1.
         21   -1    0    0  501  502  0.00000000000E+00 -0.00000000000E+00 -0.12097481141E+02  0.12097481141E+02  0.00000000000E+00 0.  1.
         25    2    1    2    0    0 -0.14463391354E+02 -0.16281564492E+02  0.86106045785E+03  0.87035927973E+03  0.12500353878E+03 0.  0.
    9000005    1    3    3    0    0  0.12908478903E+02  0.20409041169E+02  0.32333618572E+02  0.40368560526E+02  0.10000000000E+01 0.  0.
    9000005    1    3    3    0    0 -0.27371870256E+02 -0.36690605660E+02  0.82872683928E+03  0.82999071921E+03  0.10000000000E+01 0.  0.
         -4    1    1    2    0  502  0.14463391354E+02  0.16281564492E+02  0.85241573132E+01  0.23421212386E+02  0.12700000000E+01 0. -1.
<mgrwt>
<rscale>  1 0.12688642E+03</rscale>
<asrwt>0</asrwt>
<pdfrwt beam="2">  1       21 0.18611516E-02 0.12688642E+03</pdfrwt>
<pdfrwt beam="1">  1       -4 0.13564855E+00 0.12688642E+03</pdfrwt>
<totfact> 0.22893505E+04</totfact>
</mgrwt>
</event>
<event>
 6    3  0.7601760E-003  0.1295973E+03  0.7818608E-02  0.1228054E+00
         21   -1    0    0  501  502  0.00000000000E+00  0.00000000000E+00  0.42904119364E+02  0.42904119364E+02  0.00000000000E+00 0. -1.
         -4   -1    0    0    0  501 -0.00000000000E+00 -0.00000000000E+00 -0.29924276557E+03  0.29924546053E+03  0.12700000000E+01 0.  1.
         25    2    1    2    0    0  0.21696994220E+02 -0.26419399757E+02 -0.27439953423E+03  0.30346427496E+03  0.12500687001E+03 0.  0.
    9000005    1    3    3    0    0 -0.64242480801E+01 -0.73789662920E+02 -0.14509139020E+03  0.16290701896E+03  0.10000000000E+01 0.  0.
    9000005    1    3    3    0    0  0.28121242300E+02  0.47370263163E+02 -0.12930814403E+03  0.14055725600E+03  0.10000000000E+01 0.  0.
         -4    1    1    2    0  502 -0.21696994220E+02  0.26419399757E+02  0.18060888021E+02  0.38685304934E+02  0.12700000000E+01 0. -1.
<mgrwt>
<rscale>  1 0.12959731E+03</rscale>
<asrwt>0</asrwt>
<pdfrwt beam="1">  1       21 0.66006339E-02 0.12959731E+03</pdfrwt>
<pdfrwt beam="2">  1       -4 0.46039001E-01 0.12959731E+03</pdfrwt>
<totfact> 0.30992651E+04</totfact>
</mgrwt>
</event>
<event>
 6    3  0.7601760E-003  0.1454956E+03  0.7818608E-02  0.1206120E+00
          4   -1    0    0  502    0 -0.00000000000E+00  0.00000000000E+00  0.89890676591E+02  0.89899647597E+02  0.12700000000E+01 0. -1.
         21   -1    0    0  501  502  0.00000000000E+00 -0.00000000000E+00 -0.15687209671E+03  0.15687209671E+03  0.00000000000E+00 0.  1.
         25    2    1    2    0    0  0.74229552464E+02  0.58615011030E+01  0.16405983797E+01  0.14550487916E+03  0.12499837856E+03 0.  0.
    9000005    1    3    3    0    0  0.69151450180E+02 -0.46499008622E+02 -0.24347609575E+02  0.86821005274E+02  0.10000000000E+01 0.  0.
    9000005    1    3    3    0    0  0.50781022837E+01  0.52360509725E+02  0.25988207955E+02  0.58683873885E+02  0.10000000000E+01 0.  0.
          4    1    1    2  501    0 -0.74229552464E+02 -0.58615011030E+01 -0.68622018499E+02  0.10126686515E+03  0.12700000000E+01 0.  1.
<mgrwt>
<rscale>  1 0.14549563E+03</rscale>
<asrwt>0</asrwt>
<pdfrwt beam="2">  1       21 0.24134168E-01 0.14549563E+03</pdfrwt>
<pdfrwt beam="1">  1        4 0.13830421E-01 0.14549563E+03</pdfrwt>
<totfact> 0.28872928E+04</totfact>
</mgrwt>
</event>
<event>
 6    3  0.7601760E-003  0.1372710E+03  0.7818608E-02  0.1217049E+00
         -4   -1    0    0    0  501 -0.00000000000E+00  0.00000000000E+00  0.72047496906E+02  0.72058689347E+02  0.12700000000E+01 0.  1.
         21   -1    0    0  501  502  0.00000000000E+00 -0.00000000000E+00 -0.19432845505E+03  0.19432845505E+03  0.00000000000E+00 0. -1.
         25    2    1    2    0    0  0.49931739073E+02  0.26934575739E+02 -0.64736306893E+01  0.13742358393E+03  0.12499873434E+03 0.  0.
    9000005    1    3    3    0    0  0.75159053453E+02  0.12510252461E+02 -0.45504215398E+02  0.88752596309E+02  0.10000000000E+01 0.  0.
    9000005    1    3    3    0    0 -0.25227314380E+02  0.14424323278E+02  0.39030584708E+02  0.48670987616E+02  0.10000000000E+01 0.  0.
         -4    1    1    2    0  502 -0.49931739073E+02 -0.26934575739E+02 -0.11580732745E+03  0.12896356047E+03  0.12700000000E+01 0. -1.
<mgrwt>
<rscale>  1 0.13727102E+03</rscale>
<asrwt>0</asrwt>
<pdfrwt beam="2">  1       21 0.29896685E-01 0.13727102E+03</pdfrwt>
<pdfrwt beam="1">  1       -4 0.11085411E-01 0.13727102E+03</pdfrwt>
<totfact> 0.27886721E+04</totfact>
</mgrwt>
</event>
<event>
 6    3  0.7601760E-003  0.1306496E+03  0.7818608E-02  0.1226495E+00
         21   -1    0    0  501  502  0.00000000000E+00  0.00000000000E+00  0.19807638394E+02  0.19807638394E+02  0.00000000000E+00 0. -1.
         -4   -1    0    0    0  501 -0.00000000000E+00 -0.00000000000E+00 -0.37152454035E+03  0.37152671100E+03  0.12700000000E+01 0. -1.
         25    2    1    2    0    0 -0.36541259703E+02 -0.10424473033E+02 -0.29937046596E+03  0.32663739768E+03  0.12500152150E+03 0.  0.
    9000005    1    3    3    0    0  0.30953333570E+02 -0.13759449509E+02 -0.21909476347E+03  0.22170012785E+03  0.10000000000E+01 0.  0.
    9000005    1    3    3    0    0 -0.67494593273E+02  0.33349764757E+01 -0.80275702493E+02  0.10493726983E+03  0.10000000000E+01 0.  0.
         -4    1    1    2    0  502  0.36541259703E+02  0.10424473033E+02 -0.52346435996E+02  0.64696951707E+02  0.12700000000E+01 0.  1.
<mgrwt>
<rscale>  1 0.13064958E+03</rscale>
<asrwt>0</asrwt>
<pdfrwt beam="1">  1       21 0.30473291E-02 0.13064958E+03</pdfrwt>
<pdfrwt beam="2">  1       -4 0.57160917E-01 0.13064958E+03</pdfrwt>
<totfact> 0.72567052E+04</totfact>
</mgrwt>
</event>
<event>
 6    3  0.7601760E-003  0.1416003E+03  0.7818608E-02  0.1211192E+00
          4   -1    0    0  502    0 -0.00000000000E+00  0.00000000000E+00  0.72686731097E+02  0.72697825123E+02  0.12700000000E+01 0. -1.
         21   -1    0    0  501  502  0.00000000000E+00 -0.00000000000E+00 -0.40388883440E+03  0.40388883440E+03  0.00000000000E+00 0.  1.
         25    2    1    2    0    0 -0.45355267156E+01 -0.66369698166E+02 -0.29208421597E+01  0.14163038304E+03  0.12500050497E+03 0.  0.
    9000005    1    3    3    0    0 -0.20003262562E+01 -0.51646890911E+02  0.58699009900E+02  0.78217494266E+02  0.10000000000E+01 0.  0.
    9000005    1    3    3    0    0 -0.25352004594E+01 -0.14722807255E+02 -0.61619852060E+02  0.63412888774E+02  0.10000000000E+01 0.  0.
          4    1    1    2  501    0  0.45355267156E+01  0.66369698166E+02 -0.32828126114E+03  0.33495627648E+03  0.12700000000E+01 0.  1.
<mgrwt>
<rscale>  1 0.14160026E+03</rscale>
<asrwt>0</asrwt>
<pdfrwt beam="2">  1       21 0.62136744E-01 0.14160026E+03</pdfrwt>
<pdfrwt beam="1">  1        4 0.11183581E-01 0.14160026E+03</pdfrwt>
<totfact> 0.62468533E+03</totfact>
</mgrwt>
</event>
<event>
 6    3  0.7601760E-003  0.1358956E+03  0.7818608E-02  0.1218961E+00
         21   -1    0    0  501  502  0.00000000000E+00  0.00000000000E+00  0.43546384637E+01  0.43546384637E+01  0.00000000000E+00 0.  1.
         -4   -1    0    0    0  501 -0.00000000000E+00 -0.00000000000E+00 -0.23900619216E+04  0.23900622590E+04  0.12700000000E+01 0.  1.
         25    2    1    2    0    0  0.20264005544E+02  0.49314767856E+02 -0.12309262805E+04  0.12384050666E+04  0.12500009856E+03 0.  0.
    9000005    1    3    3    0    0  0.29168578927E+00  0.17337920702E+01 -0.10565253267E+04  0.10565272628E+04  0.10000000000E+01 0.  0.
    9000005    1    3    3    0    0  0.19972319754E+02  0.47580975786E+02 -0.17440095378E+03  0.18187780374E+03  0.10000000000E+01 0.  0.
         -4    1    1    2    0  502 -0.20264005544E+02 -0.49314767856E+02 -0.11547810026E+04  0.11560118309E+04  0.12700000000E+01 0. -1.
<mgrwt>
<rscale>  1 0.13589555E+03</rscale>
<asrwt>0</asrwt>
<pdfrwt beam="1">  1       21 0.66994454E-03 0.13589555E+03</pdfrwt>
<pdfrwt beam="2">  1       -4 0.36771602E+00 0.13589555E+03</pdfrwt>
<totfact> 0.42710469E+03</totfact>
</mgrwt>
</event>
<event>
 6    3  0.7601760E-003  0.1366412E+03  0.7818608E-02  0.1217921E+00
         21   -1    0    0  501  502  0.00000000000E+00  0.00000000000E+00  0.76061133661E+02  0.76061133661E+02  0.00000000000E+00 0.  1.
         -4   -1    0    0    0  501 -0.00000000000E+00 -0.00000000000E+00 -0.14593650145E+03  0.14594202737E+03  0.12700000000E+01 0. -1.
         25    2    1    2    0    0  0.52690900644E+02  0.16411626817E+02 -0.89582570231E+02  0.16338866425E+03  0.12500058484E+03 0.  0.
    9000005    1    3    3    0    0  0.45123848003E+02 -0.49054063040E+02 -0.25233164087E+02  0.71275348678E+02  0.10000000000E+01 0.  0.
    9000005    1    3    3    0    0  0.75670526404E+01  0.65465689857E+02 -0.64349406144E+02  0.92113315570E+02  0.10000000000E+01 0.  0.
         -4    1    1    2    0  502 -0.52690900644E+02 -0.16411626817E+02  0.19707202446E+02  0.58614496788E+02  0.12700000000E+01 0.  1.
<mgrwt>
<rscale>  1 0.13664120E+03</rscale>
<asrwt>0</asrwt>
<pdfrwt beam="1">  1       21 0.11701713E-01 0.13664120E+03</pdfrwt>
<pdfrwt beam="2">  1       -4 0.22453010E-01 0.13664120E+03</pdfrwt>
<totfact> 0.45466040E+04</totfact>
</mgrwt>
</event>
<event>
 6    3  0.7601760E-003  0.1281923E+03  0.7818608E-02  0.1230163E+00
          4   -1    0    0  502    0 -0.00000000000E+00  0.00000000000E+00  0.11815326310E+02  0.11883384863E+02  0.12700000000E+01 0.  1.
         21   -1    0    0  501  502  0.00000000000E+00 -0.00000000000E+00 -0.54533966384E+03  0.54533966384E+03  0.00000000000E+00 0.  1.
         25    2    1    2    0    0  0.25444826369E+02  0.12707232710E+02 -0.37885835743E+03  0.39995864951E+03  0.12499741347E+03 0.  0.
    9000005    1    3    3    0    0  0.62433539859E+00  0.51587991448E+02 -0.32486281010E+03  0.32893548918E+03  0.10000000000E+01 0.  0.
    9000005    1    3    3    0    0  0.24820490970E+02 -0.38880758738E+02 -0.53995547326E+02  0.71023160329E+02  0.10000000000E+01 0.  0.
          4    1    1    2  501    0 -0.25444826369E+02 -0.12707232710E+02 -0.15466598011E+03  0.15726439920E+03  0.12700000000E+01 0. -1.
<mgrwt>
<rscale>  1 0.12819230E+03</rscale>
<asrwt>0</asrwt>
<pdfrwt beam="2">  1       21 0.83898392E-01 0.12819230E+03</pdfrwt>
<pdfrwt beam="1">  1        4 0.18230919E-02 0.12819230E+03</pdfrwt>
<totfact> 0.58867625E+04</totfact>
</mgrwt>
</event>
<event>
 6    3  0.7601760E-003  0.1280412E+03  0.7818608E-02  0.1230391E+00
          4   -1    0    0  502    0 -0.00000000000E+00  0.00000000000E+00  0.25239553086E+03  0.25239872602E+03  0.12700000000E+01 0.  1.
         21   -1    0    0  501  502  0.00000000000E+00 -0.00000000000E+00 -0.84044610692E+02  0.84044610692E+02  0.00000000000E+00 0. -1.
         25    2    1    2    0    0  0.11615527896E+02 -0.25239389596E+02  0.23311226221E+03  0.26596219314E+03  0.12499045608E+03 0.  0.
    9000005    1    3    3    0    0 -0.43302933666E+01  0.31077857901E+02  0.19170409274E+03  0.19425767389E+03  0.10000000000E+01 0.  0.
    9000005    1    3    3    0    0  0.15945821263E+02 -0.56317247497E+02  0.41408169468E+02  0.71704519245E+02  0.10000000000E+01 0.  0.
          4    1    1    2  501    0 -0.11615527896E+02  0.25239389596E+02 -0.64761342047E+02  0.70481143572E+02  0.12700000000E+01 0. -1.
<mgrwt>
<rscale>  1 0.12804125E+03</rscale>
<asrwt>0</asrwt>
<pdfrwt beam="2">  1       21 0.12929940E-01 0.12804125E+03</pdfrwt>
<pdfrwt beam="1">  1        4 0.38831065E-01 0.12804125E+03</pdfrwt>
<totfact> 0.13454876E+04</totfact>
</mgrwt>
</event>
<event>
 6    3  0.7601760E-003  0.1685112E+03  0.7818608E-02  0.1179409E+00
          4   -1    0    0  502    0 -0.00000000000E+00  0.00000000000E+00  0.75076219917E+02  0.75086960899E+02  0.12700000000E+01 0.  1.
         21   -1    0    0  501  502  0.00000000000E+00 -0.00000000000E+00 -0.57947143851E+03  0.57947143851E+03  0.00000000000E+00 0. -1.
         25    2    1    2    0    0 -0.57126739533E+02  0.97506202435E+02 -0.35466569422E+02  0.17220312081E+03  0.12500045354E+03 0.  0.
    9000005    1    3    3    0    0 -0.72769785255E+02  0.12042994423E+03 -0.30799839911E+02  0.14404319926E+03  0.10000000000E+01 0.  0.
    9000005    1    3    3    0    0  0.15643045722E+02 -0.22923741796E+02 -0.46667295101E+01  0.28159921550E+02  0.10000000000E+01 0.  0.
          4    1    1    2  501    0  0.57126739533E+02 -0.97506202435E+02 -0.46892864918E+03  0.48235527861E+03  0.12700000000E+01 0. -1.
<mgrwt>
<rscale>  1 0.16851124E+03</rscale>
<asrwt>0</asrwt>
<pdfrwt beam="2">  1       21 0.89149450E-01 0.16851124E+03</pdfrwt>
<pdfrwt beam="1">  1        4 0.11551121E-01 0.16851124E+03</pdfrwt>
<totfact> 0.26736758E+03</totfact>
</mgrwt>
</event>
<event>
 6    3  0.7601760E-003  0.1269118E+03  0.7818608E-02  0.1232111E+00
         21   -1    0    0  501  502  0.00000000000E+00  0.00000000000E+00  0.46909106680E+03  0.46909106680E+03  0.00000000000E+00 0.  1.
          4   -1    0    0  502    0 -0.00000000000E+00 -0.00000000000E+00 -0.12598202712E+02  0.12662054003E+02  0.12700000000E+01 0.  1.
         25    2    1    2    0    0 -0.13726430118E+02 -0.17143248030E+02  0.33396749409E+03  0.35726864374E+03  0.12499716338E+03 0.  0.
    9000005    1    3    3    0    0  0.15159259402E+02  0.50808802576E+02  0.14385035120E+03  0.15331425604E+03  0.10000000000E+01 0.  0.
    9000005    1    3    3    0    0 -0.28885689520E+02 -0.67952050606E+02  0.19011714289E+03  0.20395438770E+03  0.10000000000E+01 0.  0.
          4    1    1    2  501    0  0.13726430118E+02  0.17143248030E+02  0.12252536999E+03  0.12448447706E+03  0.12700000000E+01 0. -1.
<mgrwt>
<rscale>  1 0.12691177E+03</rscale>
<asrwt>0</asrwt>
<pdfrwt beam="1">  1       21 0.72167843E-01 0.12691177E+03</pdfrwt>
<pdfrwt beam="2">  1        4 0.19432293E-02 0.12691177E+03</pdfrwt>
<totfact> 0.74508417E+04</totfact>
</mgrwt>
</event>
<event>
 6    3  0.7601760E-003  0.1287471E+03  0.7818608E-02  0.1229327E+00
         21   -1    0    0  501  502  0.00000000000E+00  0.00000000000E+00  0.42265515258E+03  0.42265515258E+03  0.00000000000E+00 0. -1.
         -4   -1    0    0    0  501 -0.00000000000E+00 -0.00000000000E+00 -0.22534789654E+02  0.22570548171E+02  0.12700000000E+01 0. -1.
         25    2    1    2    0    0 -0.11677356607E+02 -0.28540136248E+02  0.17106541481E+03  0.21410088125E+03  0.12499964469E+03 0.  0.
    9000005    1    3    3    0    0  0.21972140256E+02  0.43220740118E+02  0.78093311216E+02  0.91925908103E+02  0.10000000000E+01 0.  0.
    9000005    1    3    3    0    0 -0.33649496864E+02 -0.71760876366E+02  0.92972103596E+02  0.12217497315E+03  0.10000000000E+01 0.  0.
         -4    1    1    2    0  502  0.11677356607E+02  0.28540136248E+02  0.22905494811E+03  0.23112481950E+03  0.12700000000E+01 0.  1.
<mgrwt>
<rscale>  1 0.12874708E+03</rscale>
<asrwt>0</asrwt>
<pdfrwt beam="1">  1       21 0.65023864E-01 0.12874708E+03</pdfrwt>
<pdfrwt beam="2">  1       -4 0.34697885E-02 0.12874708E+03</pdfrwt>
<totfact> 0.37986924E+04</totfact>
</mgrwt>
</event>
<event>
 6    3  0.7601760E-003  0.1346941E+03  0.7818608E-02  0.1220652E+00
         21   -1    0    0  501  502  0.00000000000E+00  0.00000000000E+00  0.14622305050E+03  0.14622305050E+03  0.00000000000E+00 0. -1.
          4   -1    0    0  502    0 -0.00000000000E+00 -0.00000000000E+00 -0.81334517428E+02  0.81344432049E+02  0.12700000000E+01 0. -1.
         25    2    1    2    0    0 -0.19340113650E+02 -0.46204151275E+02  0.98818244055E+02  0.16705548557E+03  0.12503450048E+03 0.  0.
    9000005    1    3    3    0    0 -0.85664358527E+01 -0.58236562252E+02 -0.76480860189E+01  0.59366440233E+02  0.10000000000E+01 0.  0.
    9000005    1    3    3    0    0 -0.10773677797E+02  0.12032410978E+02  0.10646633007E+03  0.10768904534E+03  0.10000000000E+01 0.  0.
          4    1    1    2  501    0  0.19340113650E+02  0.46204151275E+02 -0.33929710980E+02  0.60511996977E+02  0.12700000000E+01 0.  1.
<mgrwt>
<rscale>  1 0.13469406E+03</rscale>
<asrwt>0</asrwt>
<pdfrwt beam="1">  1       21 0.22495854E-01 0.13469406E+03</pdfrwt>
<pdfrwt beam="2">  1        4 0.12514190E-01 0.13469406E+03</pdfrwt>
<totfact> 0.38849735E+04</totfact>
</mgrwt>
</event>
<event>
 6    3  0.7601760E-003  0.1266285E+03  0.7818608E-02  0.1232546E+00
          4   -1    0    0  502    0 -0.00000000000E+00  0.00000000000E+00  0.25959569845E+02  0.25990616894E+02  0.12700000000E+01 0. -1.
         21   -1    0    0  501  502  0.00000000000E+00 -0.00000000000E+00 -0.22629716656E+03  0.22629716656E+03  0.00000000000E+00 0. -1.
         25    2    1    2    0    0  0.85685192808E+01 -0.18336057778E+02 -0.14067475382E+03  0.18927271970E+03  0.12500058209E+03 0.  0.
    9000005    1    3    3    0    0 -0.26477263081E+02 -0.61877934451E+02 -0.98241401914E+02  0.11908945076E+03  0.10000000000E+01 0.  0.
    9000005    1    3    3    0    0  0.35045782361E+02  0.43541876673E+02 -0.42433351910E+02  0.70183268945E+02  0.10000000000E+01 0.  0.
          4    1    1    2  501    0 -0.85685192808E+01  0.18336057778E+02 -0.59662842892E+02  0.63015063750E+02  0.12700000000E+01 0.  1.
<mgrwt>
<rscale>  1 0.12662850E+03</rscale>
<asrwt>0</asrwt>
<pdfrwt beam="2">  1       21 0.34814949E-01 0.12662850E+03</pdfrwt>
<pdfrwt beam="1">  1        4 0.39964423E-02 0.12662850E+03</pdfrwt>
<totfact> 0.10918633E+05</totfact>
</mgrwt>
</event>
<event>
 6    3  0.7601760E-003  0.1423878E+03  0.7818608E-02  0.1210152E+00
         -4   -1    0    0    0  501 -0.00000000000E+00  0.00000000000E+00  0.33202572420E+03  0.33202815307E+03  0.12700000000E+01 0. -1.
         21   -1    0    0  501  502  0.00000000000E+00 -0.00000000000E+00 -0.37047546074E+02  0.37047546074E+02  0.00000000000E+00 0. -1.
         25    2    1    2    0    0 -0.43607400222E+02  0.52427020928E+02  0.24894977042E+03  0.28679310625E+03  0.12499639884E+03 0.  0.
    9000005    1    3    3    0    0  0.18419219724E+01 -0.13822551328E+02 -0.89950749575E+01  0.16624288715E+02  0.10000000000E+01 0.  0.
    9000005    1    3    3    0    0 -0.45449322195E+02  0.66249572256E+02  0.25794484537E+03  0.27016881753E+03  0.10000000000E+01 0.  0.
         -4    1    1    2    0  502  0.43607400222E+02 -0.52427020928E+02  0.46028407712E+02  0.82282592898E+02  0.12700000000E+01 0.  1.
<mgrwt>
<rscale>  1 0.14238784E+03</rscale>
<asrwt>0</asrwt>
<pdfrwt beam="2">  1       21 0.56996227E-02 0.14238784E+03</pdfrwt>
<pdfrwt beam="1">  1       -4 0.51082740E-01 0.14238784E+03</pdfrwt>
<totfact> 0.32567118E+04</totfact>
</mgrwt>
</event>
<event>
 6    3  0.7601760E-003  0.1271854E+03  0.7818608E-02  0.1231693E+00
          4   -1    0    0  502    0 -0.00000000000E+00  0.00000000000E+00  0.56348735052E+02  0.56363045003E+02  0.12700000000E+01 0.  1.
         21   -1    0    0  501  502  0.00000000000E+00 -0.00000000000E+00 -0.11484523197E+03  0.11484523197E+03  0.00000000000E+00 0.  1.
         25    2    1    2    0    0  0.19340889264E+02  0.13298640728E+02 -0.23946247691E+02  0.12942004341E+03  0.12500080406E+03 0.  0.
    9000005    1    3    3    0    0  0.36107261621E+02  0.43661690623E+02  0.30881398870E+02  0.64534784156E+02  0.10000000000E+01 0.  0.
    9000005    1    3    3    0    0 -0.16766372357E+02 -0.30363049896E+02 -0.54827646561E+02  0.64885259253E+02  0.10000000000E+01 0.  0.
          4    1    1    2  501    0 -0.19340889264E+02 -0.13298640728E+02 -0.34550249229E+02  0.41788233565E+02  0.12700000000E+01 0. -1.
<mgrwt>
<rscale>  1 0.12718540E+03</rscale>
<asrwt>0</asrwt>
<pdfrwt beam="2">  1       21 0.17668497E-01 0.12718540E+03</pdfrwt>
<pdfrwt beam="1">  1        4 0.86706770E-02 0.12718540E+03</pdfrwt>
<totfact> 0.11206172E+05</totfact>
</mgrwt>
</event>
<event>
 6    3  0.7601760E-003  0.1349640E+03  0.7818608E-02  0.1220271E+00
         -4   -1    0    0    0  501 -0.00000000000E+00  0.00000000000E+00  0.74870673560E+03  0.74870781272E+03  0.12700000000E+01 0. -1.
         21   -1    0    0  501  502  0.00000000000E+00 -0.00000000000E+00 -0.18725776712E+02  0.18725776712E+02  0.00000000000E+00 0. -1.
         25    2    1    2    0    0  0.50517447948E+02  0.62131029804E+01  0.68894743632E+03  0.70204262622E+03  0.12499865529E+03 0.  0.
    9000005    1    3    3    0    0  0.80721471112E+02  0.60592443145E+01  0.63555976806E+03  0.64069484867E+03  0.10000000000E+01 0.  0.
    9000005    1    3    3    0    0 -0.30204023164E+02  0.15385866586E+00  0.53387668256E+02  0.61347777544E+02  0.10000000000E+01 0.  0.
         -4    1    1    2    0  502 -0.50517447948E+02 -0.62131029804E+01  0.41033522569E+02  0.65390963216E+02  0.12700000000E+01 0.  1.
<mgrwt>
<rscale>  1 0.13496399E+03</rscale>
<asrwt>0</asrwt>
<pdfrwt beam="2">  1       21 0.28808893E-02 0.13496399E+03</pdfrwt>
<pdfrwt beam="1">  1       -4 0.11518902E+00 0.13496399E+03</pdfrwt>
<totfact> 0.16853174E+04</totfact>
</mgrwt>
</event>
<event>
 6    3  0.7601760E-003  0.1341528E+03  0.7818608E-02  0.1221421E+00
         -4   -1    0    0    0  501 -0.00000000000E+00  0.00000000000E+00  0.67617014887E+02  0.67628940567E+02  0.12700000000E+01 0. -1.
         21   -1    0    0  501  502  0.00000000000E+00 -0.00000000000E+00 -0.17597152013E+03  0.17597152013E+03  0.00000000000E+00 0. -1.
         25    2    1    2    0    0  0.44370869491E+02 -0.20078604808E+02 -0.10836338925E+02  0.13458977272E+03  0.12500022500E+03 0.  0.
    9000005    1    3    3    0    0  0.25660359763E+02 -0.53453658267E+02 -0.51646698346E+02  0.78639233817E+02  0.10000000000E+01 0.  0.
    9000005    1    3    3    0    0  0.18710509728E+02  0.33375053459E+02  0.40810359422E+02  0.55950538905E+02  0.10000000000E+01 0.  0.
         -4    1    1    2    0  502 -0.44370869491E+02  0.20078604808E+02 -0.97518166316E+02  0.10901068797E+03  0.12700000000E+01 0.  1.
<mgrwt>
<rscale>  1 0.13415283E+03</rscale>
<asrwt>0</asrwt>
<pdfrwt beam="2">  1       21 0.27072541E-01 0.13415283E+03</pdfrwt>
<pdfrwt beam="1">  1       -4 0.10403888E-01 0.13415283E+03</pdfrwt>
<totfact> 0.37482022E+04</totfact>
</mgrwt>
</event>
<event>
 6    3  0.7601760E-003  0.1350078E+03  0.7818608E-02  0.1220209E+00
         21   -1    0    0  501  502  0.00000000000E+00  0.00000000000E+00  0.16564040426E+02  0.16564040426E+02  0.00000000000E+00 0.  1.
         -4   -1    0    0    0  501 -0.00000000000E+00 -0.00000000000E+00 -0.56463528532E+03  0.56463671358E+03  0.12700000000E+01 0.  1.
         25    2    1    2    0    0  0.69055179971E+01 -0.50538678561E+02 -0.46014617317E+03  0.47954311609E+03  0.12500102119E+03 0.  0.
    9000005    1    3    3    0    0 -0.17332749599E+02 -0.29071321919E+02 -0.44020158937E+03  0.44150198782E+03  0.10000000000E+01 0.  0.
    9000005    1    3    3    0    0  0.24238267596E+02 -0.21467356642E+02 -0.19944583804E+02  0.38041128274E+02  0.10000000000E+01 0.  0.
         -4    1    1    2    0  502 -0.69055179971E+01  0.50538678561E+02 -0.87925071723E+02  0.10165763792E+03  0.12700000000E+01 0. -1.
<mgrwt>
<rscale>  1 0.13500778E+03</rscale>
<asrwt>0</asrwt>
<pdfrwt beam="1">  1       21 0.25483136E-02 0.13500778E+03</pdfrwt>
<pdfrwt beam="2">  1       -4 0.86870831E-01 0.13500778E+03</pdfrwt>
<totfact> 0.39534843E+04</totfact>
</mgrwt>
</event>
<event>
 6    3  0.7601760E-003  0.1277329E+03  0.7818608E-02  0.1230859E+00
         -4   -1    0    0    0  501 -0.00000000000E+00  0.00000000000E+00  0.71478052433E+02  0.71489334027E+02  0.12700000000E+01 0. -1.
         21   -1    0    0  501  502  0.00000000000E+00 -0.00000000000E+00 -0.10732788587E+03  0.10732788587E+03  0.00000000000E+00 0. -1.
         25    2    1    2    0    0 -0.23673335511E+02 -0.11412106322E+02  0.76689879705E+01  0.12796288182E+03  0.12500009105E+03 0.  0.
    9000005    1    3    3    0    0  0.12024212565E+02 -0.12257592519E+02 -0.54012159589E+02  0.56684597958E+02  0.10000000000E+01 0.  0.
    9000005    1    3    3    0    0 -0.35697548076E+02  0.84548619708E+00  0.61681147560E+02  0.71278283859E+02  0.10000000000E+01 0.  0.
         -4    1    1    2    0  502  0.23673335511E+02  0.11412106322E+02 -0.43518821409E+02  0.50854338082E+02  0.12700000000E+01 0.  1.
<mgrwt>
<rscale>  1 0.12773287E+03</rscale>
<asrwt>0</asrwt>
<pdfrwt beam="2">  1       21 0.16511982E-01 0.12773287E+03</pdfrwt>
<pdfrwt beam="1">  1       -4 0.10998069E-01 0.12773287E+03</pdfrwt>
<totfact> 0.85078444E+04</totfact>
</mgrwt>
</event>
<event>
 6    3  0.7601760E-003  0.1635298E+03  0.7818608E-02  0.1184768E+00
          4   -1    0    0  502    0 -0.00000000000E+00  0.00000000000E+00  0.89581632252E+02  0.89590634203E+02  0.12700000000E+01 0.  1.
         21   -1    0    0  501  502  0.00000000000E+00 -0.00000000000E+00 -0.39523062817E+03  0.39523062817E+03  0.00000000000E+00 0. -1.
         25    2    1    2    0    0  0.85500378804E+02  0.61679657596E+02 -0.21646942998E+01  0.16354407805E+03  0.12500913818E+03 0.  0.
    9000005    1    3    3    0    0  0.95513923358E+02  0.16950799549E+02 -0.39175155507E+02  0.10462280808E+03  0.10000000000E+01 0.  0.
    9000005    1    3    3    0    0 -0.10013544554E+02  0.44728858047E+02  0.37010461207E+02  0.58921269975E+02  0.10000000000E+01 0.  0.
          4    1    1    2  501    0 -0.85500378804E+02 -0.61679657596E+02 -0.30348430161E+03  0.32127718432E+03  0.12700000000E+01 0. -1.
<mgrwt>
<rscale>  1 0.16352975E+03</rscale>
<asrwt>0</asrwt>
<pdfrwt beam="2">  1       21 0.60804712E-01 0.16352975E+03</pdfrwt>
<pdfrwt beam="1">  1        4 0.13782639E-01 0.16352975E+03</pdfrwt>
<totfact> 0.46019552E+03</totfact>
</mgrwt>
</event>
<event>
 6    3  0.7601760E-003  0.1276073E+03  0.7818608E-02  0.1231050E+00
         -4   -1    0    0    0  501 -0.00000000000E+00  0.00000000000E+00  0.46914197313E+03  0.46914369212E+03  0.12700000000E+01 0.  1.
         21   -1    0    0  501  502  0.00000000000E+00 -0.00000000000E+00 -0.50168172674E+02  0.50168172674E+02  0.00000000000E+00 0. -1.
         25    2    1    2    0    0 -0.25453919902E+02 -0.30702419132E+01  0.45641387051E+03  0.47391692929E+03  0.12500522487E+03 0.  0.
    9000005    1    3    3    0    0 -0.30374260807E+02 -0.19935997236E+02  0.29966363193E+02  0.47106503038E+02  0.10000000000E+01 0.  0.
    9000005    1    3    3    0    0  0.49203409051E+01  0.16865755323E+02  0.42644750732E+03  0.42681042625E+03  0.10000000000E+01 0.  0.
         -4    1    1    2    0  502  0.25453919902E+02  0.30702419132E+01 -0.37440070054E+02  0.45394935504E+02  0.12700000000E+01 0. -1.
<mgrwt>
<rscale>  1 0.12760735E+03</rscale>
<asrwt>0</asrwt>
<pdfrwt beam="2">  1       21 0.77181807E-02 0.12760735E+03</pdfrwt>
<pdfrwt beam="1">  1       -4 0.72177054E-01 0.12760735E+03</pdfrwt>
<totfact> 0.92712346E+03</totfact>
</mgrwt>
</event>
<event>
 6    3  0.7601760E-003  0.1284843E+03  0.7818608E-02  0.1229722E+00
          4   -1    0    0  502    0 -0.00000000000E+00  0.00000000000E+00  0.14188884779E+03  0.14189453135E+03  0.12700000000E+01 0.  1.
         21   -1    0    0  501  502  0.00000000000E+00 -0.00000000000E+00 -0.11190305488E+03  0.11190305488E+03  0.00000000000E+00 0. -1.
         25    2    1    2    0    0 -0.55595172541E+01 -0.29204802034E+02  0.10955237030E+03  0.16884888505E+03  0.12499758178E+03 0.  0.
    9000005    1    3    3    0    0 -0.42582267068E+02  0.41492440421E+01  0.11102308729E+03  0.11898567815E+03  0.10000000000E+01 0.  0.
    9000005    1    3    3    0    0  0.37022749814E+02 -0.33354046076E+02 -0.14707169902E+01  0.49863206896E+02  0.10000000000E+01 0.  0.
          4    1    1    2  501    0  0.55595172541E+01  0.29204802034E+02 -0.79566577395E+02  0.84948701181E+02  0.12700000000E+01 0. -1.
<mgrwt>
<rscale>  1 0.12848433E+03</rscale>
<asrwt>0</asrwt>
<pdfrwt beam="2">  1       21 0.17215855E-01 0.12848433E+03</pdfrwt>
<pdfrwt beam="1">  1        4 0.21830045E-01 0.12848433E+03</pdfrwt>
<totfact> 0.23752459E+04</totfact>
</mgrwt>
</event>
<event>
 6    3  0.7601760E-003  0.1301422E+03  0.7818608E-02  0.1227245E+00
          4   -1    0    0  502    0 -0.00000000000E+00  0.00000000000E+00  0.14080707736E+03  0.14081280458E+03  0.12700000000E+01 0. -1.
         21   -1    0    0  501  502  0.00000000000E+00 -0.00000000000E+00 -0.61374414588E+02  0.61374414588E+02  0.00000000000E+00 0.  1.
         25    2    1    2    0    0  0.35066789377E+02  0.89816094202E+01  0.96627360005E+02  0.16209208806E+03  0.12500659697E+03 0.  0.
    9000005    1    3    3    0    0  0.56131849099E+02 -0.65546179816E+01 -0.53779289215E+01  0.56777368904E+02  0.10000000000E+01 0.  0.
    9000005    1    3    3    0    0 -0.21065059722E+02  0.15536227402E+02  0.10200528893E+03  0.10531471916E+03  0.10000000000E+01 0.  0.
          4    1    1    2  501    0 -0.35066789377E+02 -0.89816094202E+01 -0.17194697237E+02  0.40095131102E+02  0.12700000000E+01 0.  1.
<mgrwt>
<rscale>  1 0.13014222E+03</rscale>
<asrwt>0</asrwt>
<pdfrwt beam="2">  1       21 0.94422177E-02 0.13014222E+03</pdfrwt>
<pdfrwt beam="1">  1        4 0.21664078E-01 0.13014222E+03</pdfrwt>
<totfact> 0.70304907E+04</totfact>
</mgrwt>
</event>
<event>
 6    3  0.7601760E-003  0.1274959E+03  0.7818608E-02  0.1231219E+00
         -4   -1    0    0    0  501 -0.00000000000E+00  0.00000000000E+00  0.15747580422E+03  0.15748092524E+03  0.12700000000E+01 0. -1.
         21   -1    0    0  501  502  0.00000000000E+00 -0.00000000000E+00 -0.39244314446E+02  0.39244314446E+02  0.00000000000E+00 0. -1.
         25    2    1    2    0    0  0.21048758610E+02 -0.13647525053E+02  0.11443841200E+03  0.17132237532E+03  0.12500360381E+03 0.  0.
    9000005    1    3    3    0    0 -0.18280367218E+02  0.23592534303E+02  0.11326726223E+03  0.11713774880E+03  0.10000000000E+01 0.  0.
    9000005    1    3    3    0    0  0.39329125828E+02 -0.37240059356E+02  0.11711497632E+01  0.54184626519E+02  0.10000000000E+01 0.  0.
         -4    1    1    2    0  502 -0.21048758610E+02  0.13647525053E+02  0.37930777798E+01  0.25402864369E+02  0.12700000000E+01 0.  1.
<mgrwt>
<rscale>  1 0.12749591E+03</rscale>
<asrwt>0</asrwt>
<pdfrwt beam="2">  1       21 0.60375870E-02 0.12749591E+03</pdfrwt>
<pdfrwt beam="1">  1       -4 0.24229021E-01 0.12749591E+03</pdfrwt>
<totfact> 0.12324740E+05</totfact>
</mgrwt>
</event>
<event>
 6    3  0.7601760E-003  0.1277069E+03  0.7818608E-02  0.1230898E+00
          4   -1    0    0  502    0 -0.00000000000E+00  0.00000000000E+00  0.27529125187E+03  0.27529418130E+03  0.12700000000E+01 0. -1.
         21   -1    0    0  501  502  0.00000000000E+00 -0.00000000000E+00 -0.28564571443E+02  0.28564571443E+02  0.00000000000E+00 0. -1.
         25    2    1    2    0    0 -0.17880313659E+02  0.19080751980E+02  0.24656875259E+03  0.27767825324E+03  0.12500112744E+03 0.  0.
    9000005    1    3    3    0    0 -0.64277970849E+02 -0.19560639481E+02  0.13589663680E+03  0.15160201861E+03  0.10000000000E+01 0.  0.
    9000005    1    3    3    0    0  0.46397657190E+02  0.38641391461E+02  0.11067211578E+03  0.12607623463E+03  0.10000000000E+01 0.  0.
          4    1    1    2  501    0  0.17880313659E+02 -0.19080751980E+02  0.15792784125E+00  0.26180499496E+02  0.12700000000E+01 0.  1.
<mgrwt>
<rscale>  1 0.12770694E+03</rscale>
<asrwt>0</asrwt>
<pdfrwt beam="2">  1       21 0.43945496E-02 0.12770694E+03</pdfrwt>
<pdfrwt beam="1">  1        4 0.42354896E-01 0.12770694E+03</pdfrwt>
<totfact> 0.72541437E+04</totfact>
</mgrwt>
</event>
<event>
 6    3  0.7601760E-003  0.1379543E+03  0.7818608E-02  0.1216108E+00
         21   -1    0    0  501  502  0.00000000000E+00  0.00000000000E+00  0.12838308960E+03  0.12838308960E+03  0.00000000000E+00 0. -1.
          4   -1    0    0  502    0 -0.00000000000E+00 -0.00000000000E+00 -0.10072138572E+03  0.10072939214E+03  0.12700000000E+01 0.  1.
         25    2    1    2    0    0  0.27429952764E-01  0.58372758392E+02 -0.36158138529E+02  0.14261412997E+03  0.12499599758E+03 0.  0.
    9000005    1    3    3    0    0  0.11384569964E+02 -0.36854227042E+02 -0.25194177233E+02  0.46082415850E+02  0.10000000000E+01 0.  0.
    9000005    1    3    3    0    0 -0.11357140011E+02  0.95226985433E+02 -0.10963961296E+02  0.96531714122E+02  0.10000000000E+01 0.  0.
          4    1    1    2  501    0 -0.27429952764E-01 -0.58372758392E+02  0.63819842410E+02  0.86498351776E+02  0.12700000000E+01 0. -1.
<mgrwt>
<rscale>  1 0.13795426E+03</rscale>
<asrwt>0</asrwt>
<pdfrwt beam="1">  1       21 0.19751245E-01 0.13795426E+03</pdfrwt>
<pdfrwt beam="2">  1        4 0.15496697E-01 0.13795426E+03</pdfrwt>
<totfact> 0.34250247E+04</totfact>
</mgrwt>
</event>
<event>
 6    3  0.7601760E-003  0.1306190E+03  0.7818608E-02  0.1226540E+00
         21   -1    0    0  501  502  0.00000000000E+00  0.00000000000E+00  0.28454071693E+02  0.28454071693E+02  0.00000000000E+00 0. -1.
          4   -1    0    0  502    0 -0.00000000000E+00 -0.00000000000E+00 -0.36304746022E+03  0.36304968154E+03  0.12700000000E+01 0. -1.
         25    2    1    2    0    0 -0.11180822617E+02 -0.36222664838E+02 -0.32793823404E+03  0.35299406324E+03  0.12499692434E+03 0.  0.
    9000005    1    3    3    0    0  0.18733242788E+02 -0.76635320474E+02 -0.22491379888E+03  0.23835084152E+03  0.10000000000E+01 0.  0.
    9000005    1    3    3    0    0 -0.29914065405E+02  0.40412655636E+02 -0.10302443517E+03  0.11464322172E+03  0.10000000000E+01 0.  0.
          4    1    1    2  501    0  0.11180822617E+02  0.36222664838E+02 -0.66551544785E+01  0.38509689995E+02  0.12700000000E+01 0.  1.
<mgrwt>
<rscale>  1 0.13061900E+03</rscale>
<asrwt>0</asrwt>
<pdfrwt beam="1">  1       21 0.43775495E-02 0.13061900E+03</pdfrwt>
<pdfrwt beam="2">  1        4 0.55855806E-01 0.13061900E+03</pdfrwt>
<totfact> 0.41804246E+04</totfact>
</mgrwt>
</event>
<event>
 6    3  0.7601760E-003  0.1283334E+03  0.7818608E-02  0.1229950E+00
         21   -1    0    0  501  502  0.00000000000E+00  0.00000000000E+00  0.71296452822E+02  0.71296452822E+02  0.00000000000E+00 0.  1.
          4   -1    0    0  502    0 -0.00000000000E+00 -0.00000000000E+00 -0.17829908652E+03  0.17830360948E+03  0.12700000000E+01 0.  1.
         25    2    1    2    0    0 -0.10073417669E+02  0.27481918470E+02 -0.15010289773E+03  0.19748504292E+03  0.12495092110E+03 0.  0.
    9000005    1    3    3    0    0  0.19272590056E+02  0.34005209068E+01  0.17109875959E+02  0.26014306165E+02  0.10000000000E+01 0.  0.
    9000005    1    3    3    0    0 -0.29346007725E+02  0.24081397564E+02 -0.16721277369E+03  0.17147073675E+03  0.10000000000E+01 0.  0.
          4    1    1    2  501    0  0.10073417669E+02 -0.27481918470E+02  0.43100264029E+02  0.52115019387E+02  0.12700000000E+01 0. -1.
<mgrwt>
<rscale>  1 0.12833340E+03</rscale>
<asrwt>0</asrwt>
<pdfrwt beam="1">  1       21 0.10968685E-01 0.12833340E+03</pdfrwt>
<pdfrwt beam="2">  1        4 0.27431847E-01 0.12833340E+03</pdfrwt>
<totfact> 0.34970306E+04</totfact>
</mgrwt>
</event>
<event>
 6    3  0.7601760E-003  0.1268878E+03  0.7818608E-02  0.1232148E+00
         -4   -1    0    0    0  501 -0.00000000000E+00  0.00000000000E+00  0.14340437427E+02  0.14396563673E+02  0.12700000000E+01 0.  1.
         21   -1    0    0  501  502  0.00000000000E+00 -0.00000000000E+00 -0.38568145790E+03  0.38568145790E+03  0.00000000000E+00 0.  1.
         25    2    1    2    0    0  0.12883687510E+02  0.17587523294E+02 -0.30987969159E+03  0.33485212007E+03  0.12500083469E+03 0.  0.
    9000005    1    3    3    0    0 -0.23619448233E+02  0.63764080747E+02 -0.16836629076E+03  0.18158178376E+03  0.10000000000E+01 0.  0.
    9000005    1    3    3    0    0  0.36503135743E+02 -0.46176557452E+02 -0.14151340083E+03  0.15327033631E+03  0.10000000000E+01 0.  0.
         -4    1    1    2    0  502 -0.12883687510E+02 -0.17587523294E+02 -0.61461328879E+02  0.65225901504E+02  0.12700000000E+01 0. -1.
<mgrwt>
<rscale>  1 0.12688782E+03</rscale>
<asrwt>0</asrwt>
<pdfrwt beam="2">  1       21 0.59335611E-01 0.12688782E+03</pdfrwt>
<pdfrwt beam="1">  1       -4 0.22106993E-02 0.12688782E+03</pdfrwt>
<totfact> 0.93131840E+04</totfact>
</mgrwt>
</event>
<event>
 6    3  0.7601760E-003  0.1362846E+03  0.7818608E-02  0.1218418E+00
          4   -1    0    0  502    0 -0.00000000000E+00  0.00000000000E+00  0.17129132812E+03  0.17129603611E+03  0.12700000000E+01 0. -1.
         21   -1    0    0  501  502  0.00000000000E+00 -0.00000000000E+00 -0.14395898327E+03  0.14395898327E+03  0.00000000000E+00 0.  1.
         25    2    1    2    0    0 -0.28604463259E+02 -0.46161641331E+02  0.13676906574E+03  0.19307842085E+03  0.12499754721E+03 0.  0.
    9000005    1    3    3    0    0 -0.44409517338E+02  0.10181852368E+02  0.13946175746E+01  0.45594081919E+02  0.10000000000E+01 0.  0.
    9000005    1    3    3    0    0  0.15805054079E+02 -0.56343493699E+02  0.13537444816E+03  0.14748433894E+03  0.10000000000E+01 0.  0.
          4    1    1    2  501    0  0.28604463259E+02  0.46161641331E+02 -0.10943672089E+03  0.12217659853E+03  0.12700000000E+01 0.  1.
<mgrwt>
<rscale>  1 0.13628463E+03</rscale>
<asrwt>0</asrwt>
<pdfrwt beam="2">  1       21 0.22147536E-01 0.13628463E+03</pdfrwt>
<pdfrwt beam="1">  1        4 0.26353305E-01 0.13628463E+03</pdfrwt>
<totfact> 0.10617079E+04</totfact>
</mgrwt>
</event>
<event>
 6    3  0.7601760E-003  0.1889625E+03  0.7818608E-02  0.1159400E+00
          4   -1    0    0  502    0 -0.00000000000E+00  0.00000000000E+00  0.56274060728E+02  0.56288389663E+02  0.12700000000E+01 0.  1.
         21   -1    0    0  501  502  0.00000000000E+00 -0.00000000000E+00 -0.64618422676E+03  0.64618422676E+03  0.00000000000E+00 0. -1.
         25    2    1    2    0    0  0.12223075606E+03 -0.71704879842E+02 -0.15295015084E+03  0.24310607945E+03  0.12499947880E+03 0.  0.
    9000005    1    3    3    0    0 -0.17310969914E+02 -0.33761802914E+02 -0.88852485726E+01  0.38980465076E+02  0.10000000000E+01 0.  0.
    9000005    1    3    3    0    0  0.13954172598E+03 -0.37943076928E+02 -0.14406490227E+03  0.20412561437E+03  0.10000000000E+01 0.  0.
          4    1    1    2  501    0 -0.12223075606E+03  0.71704879842E+02 -0.43696001519E+03  0.45936653697E+03  0.12700000000E+01 0. -1.
<mgrwt>
<rscale>  1 0.18896248E+03</rscale>
<asrwt>0</asrwt>
<pdfrwt beam="2">  1       21 0.99412956E-01 0.18896248E+03</pdfrwt>
<pdfrwt beam="1">  1        4 0.86587462E-02 0.18896248E+03</pdfrwt>
<totfact> 0.33876520E+03</totfact>
</mgrwt>
</event>
<event>
 6    3  0.7601760E-003  0.1311668E+03  0.7818608E-02  0.1225735E+00
         21   -1    0    0  501  502  0.00000000000E+00  0.00000000000E+00  0.28745393730E+02  0.28745393730E+02  0.00000000000E+00 0.  1.
         -4   -1    0    0    0  501 -0.00000000000E+00 -0.00000000000E+00 -0.26912515122E+03  0.26912814776E+03  0.12700000000E+01 0.  1.
         25    2    1    2    0    0  0.32784220112E+02  0.22498096412E+02 -0.21089127447E+03  0.24835432339E+03  0.12499508338E+03 0.  0.
    9000005    1    3    3    0    0 -0.35436227271E+01 -0.47699804750E+02 -0.11172963582E+03  0.12154151618E+03  0.10000000000E+01 0.  0.
    9000005    1    3    3    0    0  0.36327842839E+02  0.70197901162E+02 -0.99161638655E+02  0.12681280721E+03  0.10000000000E+01 0.  0.
         -4    1    1    2    0  502 -0.32784220112E+02 -0.22498096412E+02 -0.29488483019E+02  0.49519218101E+02  0.12700000000E+01 0. -1.
<mgrwt>
<rscale>  1 0.13116684E+03</rscale>
<asrwt>0</asrwt>
<pdfrwt beam="1">  1       21 0.44223682E-02 0.13116684E+03</pdfrwt>
<pdfrwt beam="2">  1       -4 0.41406258E-01 0.13116684E+03</pdfrwt>
<totfact> 0.75358425E+04</totfact>
</mgrwt>
</event>
<event>
 6    3  0.7601760E-003  0.1283506E+03  0.7818608E-02  0.1229924E+00
         21   -1    0    0  501  502  0.00000000000E+00  0.00000000000E+00  0.13753562555E+02  0.13753562555E+02  0.00000000000E+00 0.  1.
         -4   -1    0    0    0  501 -0.00000000000E+00 -0.00000000000E+00 -0.85466130290E+03  0.85466224649E+03  0.12700000000E+01 0. -1.
         25    2    1    2    0    0  0.18239496895E+02  0.22830256966E+02 -0.82538105792E+03  0.83530099895E+03  0.12497987115E+03 0.  0.
    9000005    1    3    3    0    0 -0.46833620594E+02 -0.90490173825E+01 -0.19426772328E+03  0.20004054849E+03  0.10000000000E+01 0.  0.
    9000005    1    3    3    0    0  0.65073117489E+02  0.31879274348E+02 -0.63111333465E+03  0.63526045046E+03  0.10000000000E+01 0.  0.
         -4    1    1    2    0  502 -0.18239496895E+02 -0.22830256966E+02 -0.15526682417E+02  0.33114810086E+02  0.12700000000E+01 0.  1.
<mgrwt>
<rscale>  1 0.12835057E+03</rscale>
<asrwt>0</asrwt>
<pdfrwt beam="1">  1       21 0.21159320E-02 0.12835057E+03</pdfrwt>
<pdfrwt beam="2">  1       -4 0.13149098E+00 0.12835057E+03</pdfrwt>
<totfact> 0.20119628E+04</totfact>
</mgrwt>
</event>
<event>
 6    3  0.7601760E-003  0.1266704E+03  0.7818608E-02  0.1232482E+00
         21   -1    0    0  501  502  0.00000000000E+00  0.00000000000E+00  0.91700719694E+02  0.91700719694E+02  0.00000000000E+00 0. -1.
         -4   -1    0    0    0  501 -0.00000000000E+00 -0.00000000000E+00 -0.14297109192E+03  0.14297673246E+03  0.12700000000E+01 0.  1.
         25    2    1    2    0    0 -0.10654295637E+02 -0.17552206105E+02 -0.11291460536E+03  0.16969115873E+03  0.12499514908E+03 0.  0.
    9000005    1    3    3    0    0 -0.21714229106E+02 -0.55239438590E+02 -0.10876978775E+02  0.60350741410E+02  0.10000000000E+01 0.  0.
    9000005    1    3    3    0    0  0.11059933470E+02  0.37687232485E+02 -0.10203762658E+03  0.10934041732E+03  0.10000000000E+01 0.  0.
         -4    1    1    2    0  502  0.10654295637E+02  0.17552206105E+02  0.61644233132E+02  0.64986293425E+02  0.12700000000E+01 0. -1.
<mgrwt>
<rscale>  1 0.12667036E+03</rscale>
<asrwt>0</asrwt>
<pdfrwt beam="1">  1       21 0.14107803E-01 0.12667036E+03</pdfrwt>
<pdfrwt beam="2">  1       -4 0.21996663E-01 0.12667036E+03</pdfrwt>
<totfact> 0.33523396E+04</totfact>
</mgrwt>
</event>
<event>
 6    3  0.7601760E-003  0.1277246E+03  0.7818608E-02  0.1230872E+00
         21   -1    0    0  501  502  0.00000000000E+00  0.00000000000E+00  0.13480609668E+03  0.13480609668E+03  0.00000000000E+00 0.  1.
          4   -1    0    0  502    0 -0.00000000000E+00 -0.00000000000E+00 -0.60074224083E+02  0.60087646810E+02  0.12700000000E+01 0.  1.
         25    2    1    2    0    0  0.19693492285E+02 -0.17345232179E+02  0.13712787472E+02  0.12845856932E+03  0.12499949109E+03 0.  0.
    9000005    1    3    3    0    0 -0.33352537037E+02  0.13327594169E+02 -0.35009873902E+02  0.50166799417E+02  0.10000000000E+01 0.  0.
    9000005    1    3    3    0    0  0.53046029322E+02 -0.30672826348E+02  0.48722661374E+02  0.78291769902E+02  0.10000000000E+01 0.  0.
          4    1    1    2  501    0 -0.19693492285E+02  0.17345232179E+02  0.61019085122E+02  0.66435174169E+02  0.12700000000E+01 0. -1.
<mgrwt>
<rscale>  1 0.12772456E+03</rscale>
<asrwt>0</asrwt>
<pdfrwt beam="1">  1       21 0.20739399E-01 0.12772456E+03</pdfrwt>
<pdfrwt beam="2">  1        4 0.92436811E-02 0.12772456E+03</pdfrwt>
<totfact> 0.75030352E+04</totfact>
</mgrwt>
</event>
<event>
 6    3  0.7601760E-003  0.1296707E+03  0.7818608E-02  0.1227945E+00
          4   -1    0    0  502    0 -0.00000000000E+00  0.00000000000E+00  0.31213068822E+02  0.31238895072E+02  0.12700000000E+01 0. -1.
         21   -1    0    0  501  502  0.00000000000E+00 -0.00000000000E+00 -0.28059124622E+03  0.28059124622E+03  0.00000000000E+00 0.  1.
         25    2    1    2    0    0 -0.34009797242E+02  0.59476661095E+01 -0.11578213569E+03  0.17383899556E+03  0.12498980915E+03 0.  0.
    9000005    1    3    3    0    0 -0.64658228855E+02 -0.32373796445E+02 -0.97659067122E+02  0.12151972122E+03  0.10000000000E+01 0.  0.
    9000005    1    3    3    0    0  0.30648431612E+02  0.38321462555E+02 -0.18123068567E+02  0.52319274335E+02  0.10000000000E+01 0.  0.
          4    1    1    2  501    0  0.34009797242E+02 -0.59476661095E+01 -0.13359604171E+03  0.13799114573E+03  0.12700000000E+01 0.  1.
<mgrwt>
<rscale>  1 0.12967071E+03</rscale>
<asrwt>0</asrwt>
<pdfrwt beam="2">  1       21 0.43167885E-01 0.12967071E+03</pdfrwt>
<pdfrwt beam="1">  1        4 0.48042182E-02 0.12967071E+03</pdfrwt>
<totfact> 0.53222156E+04</totfact>
</mgrwt>
</event>
<event>
 6    3  0.7601760E-003  0.1285082E+03  0.7818608E-02  0.1229686E+00
         21   -1    0    0  501  502  0.00000000000E+00  0.00000000000E+00  0.12599070094E+03  0.12599070094E+03  0.00000000000E+00 0.  1.
          4   -1    0    0  502    0 -0.00000000000E+00 -0.00000000000E+00 -0.22114712520E+03  0.22115077184E+03  0.12700000000E+01 0. -1.
         25    2    1    2    0    0  0.23589401341E+01  0.29715893775E+02 -0.20022602528E+03  0.23791769835E+03  0.12500308415E+03 0.  0.
    9000005    1    3    3    0    0  0.32423037769E+02 -0.39164536393E+01 -0.18848119244E+03  0.19129232052E+03  0.10000000000E+01 0.  0.
    9000005    1    3    3    0    0 -0.30064097635E+02  0.33632347415E+02 -0.11744832840E+02  0.46625377829E+02  0.10000000000E+01 0.  0.
          4    1    1    2  501    0 -0.23589401341E+01 -0.29715893775E+02  0.10506960102E+03  0.10922377442E+03  0.12700000000E+01 0.  1.
<mgrwt>
<rscale>  1 0.12850825E+03</rscale>
<asrwt>0</asrwt>
<pdfrwt beam="1">  1       21 0.19383185E-01 0.12850825E+03</pdfrwt>
<pdfrwt beam="2">  1        4 0.34023407E-01 0.12850825E+03</pdfrwt>
<totfact> 0.83531477E+03</totfact>
</mgrwt>
</event>
<event>
 6    3  0.7601760E-003  0.1279413E+03  0.7818608E-02  0.1230543E+00
         21   -1    0    0  501  502  0.00000000000E+00  0.00000000000E+00  0.15005129818E+03  0.15005129818E+03  0.00000000000E+00 0. -1.
          4   -1    0    0  502    0 -0.00000000000E+00 -0.00000000000E+00 -0.47731801936E+02  0.47748694391E+02  0.12700000000E+01 0. -1.
         25    2    1    2    0    0  0.56016078733E+01 -0.26699438151E+02  0.11075069138E+03  0.16921790098E+03  0.12499897744E+03 0.  0.
    9000005    1    3    3    0    0  0.10199579729E+02  0.18194288959E+02 -0.21201415669E+02  0.29758420720E+02  0.10000000000E+01 0.  0.
    9000005    1    3    3    0    0 -0.45979718555E+01 -0.44893727110E+02  0.13195210705E+03  0.13945948026E+03  0.10000000000E+01 0.  0.
          4    1    1    2  501    0 -0.56016078733E+01  0.26699438151E+02 -0.84311951378E+01  0.28582091592E+02  0.12700000000E+01 0.  1.
<mgrwt>
<rscale>  1 0.12794132E+03</rscale>
<asrwt>0</asrwt>
<pdfrwt beam="1">  1       21 0.23084815E-01 0.12794132E+03</pdfrwt>
<pdfrwt beam="2">  1        4 0.73450670E-02 0.12794132E+03</pdfrwt>
<totfact> 0.89982070E+04</totfact>
</mgrwt>
</event>
<event>
 6    3  0.7601760E-003  0.1593341E+03  0.7818608E-02  0.1189451E+00
         21   -1    0    0  501  502  0.00000000000E+00  0.00000000000E+00  0.16654307030E+03  0.16654307030E+03  0.00000000000E+00 0. -1.
         -4   -1    0    0    0  501 -0.00000000000E+00 -0.00000000000E+00 -0.20667337625E+03  0.20667727827E+03  0.12700000000E+01 0.  1.
         25    2    1    2    0    0  0.35387574412E+02 -0.92239180551E+02 -0.15459826899E+03  0.22200899214E+03  0.12500808360E+03 0.  0.
    9000005    1    3    3    0    0 -0.82672589099E+01  0.50991427580E+01 -0.10307193782E+03  0.10353343997E+03  0.10000000000E+01 0.  0.
    9000005    1    3    3    0    0  0.43654833321E+02 -0.97338323309E+02 -0.51526331168E+02  0.11847555216E+03  0.10000000000E+01 0.  0.
         -4    1    1    2    0  502 -0.35387574412E+02  0.92239180551E+02  0.11446796304E+03  0.15121135643E+03  0.12700000000E+01 0. -1.
<mgrwt>
<rscale>  1 0.15933414E+03</rscale>
<asrwt>0</asrwt>
<pdfrwt beam="1">  1       21 0.25622011E-01 0.15933414E+03</pdfrwt>
<pdfrwt beam="2">  1       -4 0.31796577E-01 0.15933414E+03</pdfrwt>
<totfact> 0.57255245E+03</totfact>
</mgrwt>
</event>
<event>
 6    3  0.7601760E-003  0.1269921E+03  0.7818608E-02  0.1231988E+00
          4   -1    0    0  502    0 -0.00000000000E+00  0.00000000000E+00  0.69995045880E+01  0.71137869294E+01  0.12700000000E+01 0.  1.
         21   -1    0    0  501  502  0.00000000000E+00 -0.00000000000E+00 -0.79425122602E+03  0.79425122602E+03  0.00000000000E+00 0.  1.
         25    2    1    2    0    0  0.10296143649E+02  0.19902852224E+02 -0.68602405692E+03  0.69767901070E+03  0.12499944477E+03 0.  0.
    9000005    1    3    3    0    0 -0.52112463902E+02  0.17654721387E+02 -0.19226938552E+03  0.19998978646E+03  0.10000000000E+01 0.  0.
    9000005    1    3    3    0    0  0.62408607551E+02  0.22481308364E+01 -0.49375467141E+03  0.49768922424E+03  0.10000000000E+01 0.  0.
          4    1    1    2  501    0 -0.10296143649E+02 -0.19902852224E+02 -0.10122766451E+03  0.10368600225E+03  0.12700000000E+01 0. -1.
<mgrwt>
<rscale>  1 0.12699211E+03</rscale>
<asrwt>0</asrwt>
<pdfrwt beam="2">  1       21 0.12219249E+00 0.12699211E+03</pdfrwt>
<pdfrwt beam="1">  1        4 0.10857160E-02 0.12699211E+03</pdfrwt>
<totfact> 0.53498096E+04</totfact>
</mgrwt>
</event>
<event>
 6    3  0.7601760E-003  0.1283228E+03  0.7818608E-02  0.1229966E+00
         21   -1    0    0  501  502  0.00000000000E+00  0.00000000000E+00  0.40658649445E+02  0.40658649445E+02  0.00000000000E+00 0.  1.
         -4   -1    0    0    0  501 -0.00000000000E+00 -0.00000000000E+00 -0.18638410744E+03  0.18638843420E+03  0.12700000000E+01 0.  1.
         25    2    1    2    0    0 -0.24769274296E+02  0.15064112504E+02 -0.15034632785E+03  0.19766324842E+03  0.12500518806E+03 0.  0.
    9000005    1    3    3    0    0  0.44019123931E+01  0.67508707802E+02 -0.69759104205E+02  0.97180939908E+02  0.10000000000E+01 0.  0.
    9000005    1    3    3    0    0 -0.29171186690E+02 -0.52444595298E+02 -0.80587223645E+02  0.10048230851E+03  0.10000000000E+01 0.  0.
         -4    1    1    2    0  502  0.24769274296E+02 -0.15064112504E+02  0.46208698574E+01  0.29383835232E+02  0.12700000000E+01 0. -1.
<mgrwt>
<rscale>  1 0.12832280E+03</rscale>
<asrwt>0</asrwt>
<pdfrwt beam="1">  1       21 0.62551768E-02 0.12832280E+03</pdfrwt>
<pdfrwt beam="2">  1       -4 0.28676337E-01 0.12832280E+03</pdfrwt>
<totfact> 0.84964302E+04</totfact>
</mgrwt>
</event>
<event>
 6    3  0.7601760E-003  0.1656136E+03  0.7818608E-02  0.1182501E+00
          4   -1    0    0  502    0 -0.00000000000E+00  0.00000000000E+00  0.11983070793E+04  0.11983077523E+04  0.12700000000E+01 0.  1.
         21   -1    0    0  501  502  0.00000000000E+00 -0.00000000000E+00 -0.19494357978E+02  0.19494357978E+02  0.00000000000E+00 0. -1.
         25    2    1    2    0    0  0.95726482812E+02  0.51361789305E+02  0.95216894287E+03  0.96646447257E+03  0.12500515214E+03 0.  0.
    9000005    1    3    3    0    0  0.30511095589E+01  0.25964137248E+02  0.32192207154E+02  0.41482332312E+02  0.10000000000E+01 0.  0.
    9000005    1    3    3    0    0  0.92675373253E+02  0.25397652057E+02  0.91997673572E+03  0.92498214026E+03  0.10000000000E+01 0.  0.
          4    1    1    2  501    0 -0.95726482812E+02 -0.51361789305E+02  0.22664377843E+03  0.25133763768E+03  0.12700000000E+01 0. -1.
<mgrwt>
<rscale>  1 0.16561365E+03</rscale>
<asrwt>0</asrwt>
<pdfrwt beam="2">  1       21 0.29991329E-02 0.16561365E+03</pdfrwt>
<pdfrwt beam="1">  1        4 0.18435811E+00 0.16561365E+03</pdfrwt>
<totfact> 0.48375241E+03</totfact>
</mgrwt>
</event>
<event>
 6    3  0.7601760E-003  0.1284600E+03  0.7818608E-02  0.1229759E+00
         21   -1    0    0  501  502  0.00000000000E+00  0.00000000000E+00  0.29981628413E+02  0.29981628413E+02  0.00000000000E+00 0. -1.
         -4   -1    0    0    0  501 -0.00000000000E+00 -0.00000000000E+00 -0.21075543959E+03  0.21075926603E+03  0.12700000000E+01 0. -1.
         25    2    1    2    0    0 -0.27676922991E+02  0.10505508169E+02 -0.15625541111E+03  0.20228127133E+03  0.12500232582E+03 0.  0.
    9000005    1    3    3    0    0  0.20409189191E+02 -0.31503182775E+02 -0.12626539694E+03  0.13173054313E+03  0.10000000000E+01 0.  0.
    9000005    1    3    3    0    0 -0.48086112182E+02  0.42008690944E+02 -0.29990014166E+02  0.70550728198E+02  0.10000000000E+01 0.  0.
         -4    1    1    2    0  502  0.27676922991E+02 -0.10505508169E+02 -0.24518400074E+02  0.38459623117E+02  0.12700000000E+01 0.  1.
<mgrwt>
<rscale>  1 0.12845995E+03</rscale>
<asrwt>0</asrwt>
<pdfrwt beam="1">  1       21 0.46125583E-02 0.12845995E+03</pdfrwt>
<pdfrwt beam="2">  1       -4 0.32426277E-01 0.12845995E+03</pdfrwt>
<totfact> 0.11254717E+05</totfact>
</mgrwt>
</event>
<event>
 6    3  0.7601760E-003  0.1280455E+03  0.7818608E-02  0.1230385E+00
         -4   -1    0    0    0  501 -0.00000000000E+00  0.00000000000E+00  0.44227838158E+03  0.44228020497E+03  0.12700000000E+01 0.  1.
         21   -1    0    0  501  502  0.00000000000E+00 -0.00000000000E+00 -0.34520061104E+02  0.34520061104E+02  0.00000000000E+00 0. -1.
         25    2    1    2    0    0  0.24632304097E+02  0.12836819057E+02  0.42514323873E+03  0.44400723920E+03  0.12499648275E+03 0.  0.
    9000005    1    3    3    0    0  0.24211789323E+02 -0.45730995615E+02  0.31531261236E+03  0.31953181096E+03  0.10000000000E+01 0.  0.
    9000005    1    3    3    0    0  0.42051477394E+00  0.58567814671E+02  0.10983062636E+03  0.12447542824E+03  0.10000000000E+01 0.  0.
         -4    1    1    2    0  502 -0.24632304097E+02 -0.12836819057E+02 -0.17384918256E+02  0.32793026871E+02  0.12700000000E+01 0. -1.
<mgrwt>
<rscale>  1 0.12804552E+03</rscale>
<asrwt>0</asrwt>
<pdfrwt beam="2">  1       21 0.53107790E-02 0.12804552E+03</pdfrwt>
<pdfrwt beam="1">  1       -4 0.68044761E-01 0.12804552E+03</pdfrwt>
<totfact> 0.19895706E+04</totfact>
</mgrwt>
</event>
<event>
 6    3  0.7601760E-003  0.1267217E+03  0.7818608E-02  0.1232403E+00
         -4   -1    0    0    0  501 -0.00000000000E+00  0.00000000000E+00  0.16174346302E+02  0.16224129508E+02  0.12700000000E+01 0. -1.
         21   -1    0    0  501  502  0.00000000000E+00 -0.00000000000E+00 -0.43454694745E+03  0.43454694745E+03  0.00000000000E+00 0.  1.
         25    2    1    2    0    0 -0.50072613087E+01  0.20221235976E+02 -0.24202859976E+03  0.27319632995E+03  0.12499768216E+03 0.  0.
    9000005    1    3    3    0    0 -0.49224046122E+02 -0.21481454063E+02 -0.56485752932E+02  0.77949341688E+02  0.10000000000E+01 0.  0.
    9000005    1    3    3    0    0  0.44216784814E+02  0.41702690038E+02 -0.18554284683E+03  0.19524698826E+03  0.10000000000E+01 0.  0.
         -4    1    1    2    0  502  0.50072613087E+01 -0.20221235976E+02 -0.17634400139E+03  0.17757474701E+03  0.12700000000E+01 0.  1.
<mgrwt>
<rscale>  1 0.12672171E+03</rscale>
<asrwt>0</asrwt>
<pdfrwt beam="2">  1       21 0.66853383E-01 0.12672171E+03</pdfrwt>
<pdfrwt beam="1">  1       -4 0.24923330E-02 0.12672171E+03</pdfrwt>
<totfact> 0.59915988E+04</totfact>
</mgrwt>
</event>
<event>
 6    3  0.7601760E-003  0.1378782E+03  0.7818608E-02  0.1216213E+00
         21   -1    0    0  501  502  0.00000000000E+00  0.00000000000E+00  0.50622876413E+03  0.50622876413E+03  0.00000000000E+00 0. -1.
          4   -1    0    0  502    0 -0.00000000000E+00 -0.00000000000E+00 -0.52801555225E+02  0.52816826241E+02  0.12700000000E+01 0.  1.
         25    2    1    2    0    0 -0.13755679061E+02  0.56534237599E+02  0.42877386088E+02  0.14439138667E+03  0.12500025432E+03 0.  0.
    9000005    1    3    3    0    0  0.38296170545E+02  0.31428214900E+02 -0.24784130586E+02  0.55403813038E+02  0.10000000000E+01 0.  0.
    9000005    1    3    3    0    0 -0.52051849606E+02  0.25106022698E+02  0.67661516674E+02  0.88987573637E+02  0.10000000000E+01 0.  0.
          4    1    1    2  501    0  0.13755679061E+02 -0.56534237599E+02  0.41054982282E+03  0.41465420370E+03  0.12700000000E+01 0. -1.
<mgrwt>
<rscale>  1 0.13787822E+03</rscale>
<asrwt>0</asrwt>
<pdfrwt beam="1">  1       21 0.77881345E-01 0.13787822E+03</pdfrwt>
<pdfrwt beam="2">  1        4 0.81246138E-02 0.13787822E+03</pdfrwt>
<totfact> 0.65159341E+03</totfact>
</mgrwt>
</event>
<event>
 6    3  0.7601760E-003  0.1458608E+03  0.7818608E-02  0.1205654E+00
         -4   -1    0    0    0  501 -0.00000000000E+00  0.00000000000E+00  0.13133111465E+03  0.13133725509E+03  0.12700000000E+01 0.  1.
         21   -1    0    0  501  502  0.00000000000E+00 -0.00000000000E+00 -0.12288676890E+03  0.12288676890E+03  0.00000000000E+00 0. -1.
         25    2    1    2    0    0 -0.26350077435E+02 -0.70400717516E+02  0.65452371806E+02  0.15987300098E+03  0.12499910344E+03 0.  0.
    9000005    1    3    3    0    0  0.90075933027E+01 -0.46029189136E+02 -0.29665570477E+02  0.55505576849E+02  0.10000000000E+01 0.  0.
    9000005    1    3    3    0    0 -0.35357670737E+02 -0.24371528380E+02  0.95117942283E+02  0.10436742413E+03  0.10000000000E+01 0.  0.
         -4    1    1    2    0  502  0.26350077435E+02  0.70400717516E+02 -0.57008026058E+02  0.94351023008E+02  0.12700000000E+01 0. -1.
<mgrwt>
<rscale>  1 0.14586077E+03</rscale>
<asrwt>0</asrwt>
<pdfrwt beam="2">  1       21 0.18905657E-01 0.14586077E+03</pdfrwt>
<pdfrwt beam="1">  1       -4 0.20205764E-01 0.14586077E+03</pdfrwt>
<totfact> 0.23304225E+04</totfact>
</mgrwt>
</event>
<event>
 6    3  0.7601760E-003  0.1366542E+03  0.7818608E-02  0.1217903E+00
          4   -1    0    0  502    0 -0.00000000000E+00  0.00000000000E+00  0.11362447853E+03  0.11363157581E+03  0.12700000000E+01 0.  1.
         21   -1    0    0  501  502  0.00000000000E+00 -0.00000000000E+00 -0.88537871836E+02  0.88537871836E+02  0.00000000000E+00 0.  1.
         25    2    1    2    0    0 -0.48852379377E+02  0.25743182001E+02 -0.95258664694E+01  0.13698584090E+03  0.12500044834E+03 0.  0.
    9000005    1    3    3    0    0 -0.48446843660E+02 -0.44423138315E+02 -0.11730424978E+02  0.66776603302E+02  0.10000000000E+01 0.  0.
    9000005    1    3    3    0    0 -0.40553571716E+00  0.70166320316E+02  0.22045585091E+01  0.70209237598E+02  0.10000000000E+01 0.  0.
          4    1    1    2  501    0  0.48852379377E+02 -0.25743182001E+02  0.34612473166E+02  0.65183606750E+02  0.12700000000E+01 0. -1.
<mgrwt>
<rscale>  1 0.13665423E+03</rscale>
<asrwt>0</asrwt>
<pdfrwt beam="2">  1       21 0.13621211E-01 0.13665423E+03</pdfrwt>
<pdfrwt beam="1">  1        4 0.17481936E-01 0.13665423E+03</pdfrwt>
<totfact> 0.54396429E+04</totfact>
</mgrwt>
</event>
<event>
 6    3  0.7601760E-003  0.1505296E+03  0.7818608E-02  0.1199824E+00
         -4   -1    0    0    0  501 -0.00000000000E+00  0.00000000000E+00  0.69503878577E+03  0.69503994607E+03  0.12700000000E+01 0.  1.
         21   -1    0    0  501  502  0.00000000000E+00 -0.00000000000E+00 -0.20312458309E+02  0.20312458309E+02  0.00000000000E+00 0. -1.
         25    2    1    2    0    0 -0.58714263619E+02 -0.59867286507E+02  0.48728162519E+03  0.51000249311E+03  0.12501081548E+03 0.  0.
    9000005    1    3    3    0    0 -0.80471105809E+02  0.51468752915E+01  0.29663531941E+03  0.30740136941E+03  0.10000000000E+01 0.  0.
    9000005    1    3    3    0    0  0.21756842191E+02 -0.65014161798E+02  0.19064630578E+03  0.20260112370E+03  0.10000000000E+01 0.  0.
         -4    1    1    2    0  502  0.58714263619E+02  0.59867286507E+02  0.18744470227E+03  0.20534991127E+03  0.12700000000E+01 0. -1.
<mgrwt>
<rscale>  1 0.15052960E+03</rscale>
<asrwt>0</asrwt>
<pdfrwt beam="2">  1       21 0.31249941E-02 0.15052960E+03</pdfrwt>
<pdfrwt beam="1">  1       -4 0.10693217E+00 0.15052960E+03</pdfrwt>
<totfact> 0.17768918E+04</totfact>
</mgrwt>
</event>
<event>
 6    3  0.7601760E-003  0.1745833E+03  0.7818608E-02  0.1173151E+00
         -4   -1    0    0    0  501 -0.00000000000E+00  0.00000000000E+00  0.16158859294E+03  0.16159358363E+03  0.12700000000E+01 0.  1.
         21   -1    0    0  501  502  0.00000000000E+00 -0.00000000000E+00 -0.13620564562E+03  0.13620564562E+03  0.00000000000E+00 0.  1.
         25    2    1    2    0    0  0.99389633812E+02 -0.70536094027E+02  0.20958871838E+02  0.17583683662E+03  0.12500271571E+03 0.  0.
    9000005    1    3    3    0    0  0.57344885725E+02 -0.10537125692E+03  0.14980895287E+02  0.12090064073E+03  0.10000000000E+01 0.  0.
    9000005    1    3    3    0    0  0.42044748088E+02  0.34835162898E+02  0.59779765512E+01  0.54936195896E+02  0.10000000000E+01 0.  0.
         -4    1    1    2    0  502 -0.99389633812E+02  0.70536094027E+02  0.44240754909E+01  0.12196239262E+03  0.12700000000E+01 0. -1.
<mgrwt>
<rscale>  1 0.17458327E+03</rscale>
<asrwt>0</asrwt>
<pdfrwt beam="2">  1       21 0.20954715E-01 0.17458327E+03</pdfrwt>
<pdfrwt beam="1">  1       -4 0.24860623E-01 0.17458327E+03</pdfrwt>
<totfact> 0.13374060E+04</totfact>
</mgrwt>
</event>
<event>
 6    3  0.7601760E-003  0.1376536E+03  0.7818608E-02  0.1216522E+00
          4   -1    0    0  502    0 -0.00000000000E+00  0.00000000000E+00  0.16890154768E+02  0.16937834221E+02  0.12700000000E+01 0.  1.
         21   -1    0    0  501  502  0.00000000000E+00 -0.00000000000E+00 -0.56483558240E+03  0.56483558240E+03  0.00000000000E+00 0. -1.
         25    2    1    2    0    0  0.30515777218E+01 -0.57564289801E+02 -0.39726447398E+03  0.42043736274E+03  0.12500221645E+03 0.  0.
    9000005    1    3    3    0    0 -0.25130954421E+02 -0.31964000693E+02 -0.28387966410E+02  0.49599786767E+02  0.10000000000E+01 0.  0.
    9000005    1    3    3    0    0  0.28182532142E+02 -0.25600289108E+02 -0.36887650757E+03  0.37083757597E+03  0.10000000000E+01 0.  0.
          4    1    1    2  501    0 -0.30515777218E+01  0.57564289801E+02 -0.15068095365E+03  0.16133605388E+03  0.12700000000E+01 0. -1.
<mgrwt>
<rscale>  1 0.13765360E+03</rscale>
<asrwt>0</asrwt>
<pdfrwt beam="2">  1       21 0.86897776E-01 0.13765360E+03</pdfrwt>
<pdfrwt beam="1">  1        4 0.26022630E-02 0.13765360E+03</pdfrwt>
<totfact> 0.31587969E+04</totfact>
</mgrwt>
</event>
<event>
 6    3  0.7601760E-003  0.1323865E+03  0.7818608E-02  0.1223957E+00
         21   -1    0    0  501  502  0.00000000000E+00  0.00000000000E+00  0.26281688081E+02  0.26281688081E+02  0.00000000000E+00 0.  1.
         -4   -1    0    0    0  501 -0.00000000000E+00 -0.00000000000E+00 -0.31039657787E+03  0.31039917599E+03  0.12700000000E+01 0.  1.
         25    2    1    2    0    0  0.40444627959E+01 -0.43408129737E+02 -0.24310254524E+03  0.27681226869E+03  0.12500224474E+03 0.  0.
    9000005    1    3    3    0    0  0.43222784602E+02 -0.47295634506E+02 -0.54437590220E+02  0.84080541037E+02  0.10000000000E+01 0.  0.
    9000005    1    3    3    0    0 -0.39178321806E+02  0.38875047690E+01 -0.18866495502E+03  0.19273172766E+03  0.10000000000E+01 0.  0.
         -4    1    1    2    0  502 -0.40444627959E+01  0.43408129737E+02 -0.41012344548E+02  0.59868595373E+02  0.12700000000E+01 0. -1.
<mgrwt>
<rscale>  1 0.13238650E+03</rscale>
<asrwt>0</asrwt>
<pdfrwt beam="1">  1       21 0.40433367E-02 0.13238650E+03</pdfrwt>
<pdfrwt beam="2">  1       -4 0.47755880E-01 0.13238650E+03</pdfrwt>
<totfact> 0.65874653E+04</totfact>
</mgrwt>
</event>
<event>
 6    3  0.7601760E-003  0.1327985E+03  0.7818608E-02  0.1223361E+00
          4   -1    0    0  502    0 -0.00000000000E+00  0.00000000000E+00  0.22958951003E+03  0.22959302258E+03  0.12700000000E+01 0.  1.
         21   -1    0    0  501  502  0.00000000000E+00 -0.00000000000E+00 -0.42044185149E+02  0.42044185149E+02  0.00000000000E+00 0. -1.
         25    2    1    2    0    0 -0.36391728977E+02  0.26185697312E+02  0.18362691930E+03  0.22661481903E+03  0.12500152811E+03 0.  0.
    9000005    1    3    3    0    0 -0.16012242255E+02 -0.47505144269E+02  0.40941606216E+02  0.64732880004E+02  0.10000000000E+01 0.  0.
    9000005    1    3    3    0    0 -0.20379486722E+02  0.73690841581E+02  0.14268531309E+03  0.16188193902E+03  0.10000000000E+01 0.  0.
          4    1    1    2  501    0  0.36391728977E+02 -0.26185697312E+02  0.39184055794E+01  0.45022388696E+02  0.12700000000E+01 0. -1.
<mgrwt>
<rscale>  1 0.13279846E+03</rscale>
<asrwt>0</asrwt>
<pdfrwt beam="2">  1       21 0.64683363E-02 0.13279846E+03</pdfrwt>
<pdfrwt beam="1">  1        4 0.35323208E-01 0.13279846E+03</pdfrwt>
<totfact> 0.54221352E+04</totfact>
</mgrwt>
</event>
<event>
 6    3  0.7601760E-003  0.1283740E+03  0.7818608E-02  0.1229889E+00
         -4   -1    0    0    0  501 -0.00000000000E+00  0.00000000000E+00  0.10507317590E+03  0.10508085075E+03  0.12700000000E+01 0. -1.
         21   -1    0    0  501  502  0.00000000000E+00 -0.00000000000E+00 -0.10916714732E+03  0.10916714732E+03  0.00000000000E+00 0. -1.
         25    2    1    2    0    0  0.29021641097E+02  0.35169157736E+01  0.61557988672E+02  0.14237020516E+03  0.12500106000E+03 0.  0.
    9000005    1    3    3    0    0  0.66063680035E+02 -0.21727137720E+02  0.43538798942E+01  0.69688123834E+02  0.10000000000E+01 0.  0.
    9000005    1    3    3    0    0 -0.37042038939E+02  0.25244053494E+02  0.57204108778E+02  0.72682081331E+02  0.10000000000E+01 0.  0.
         -4    1    1    2    0  502 -0.29021641097E+02 -0.35169157736E+01 -0.65651960097E+02  0.71877792906E+02  0.12700000000E+01 0.  1.
<mgrwt>
<rscale>  1 0.12837402E+03</rscale>
<asrwt>0</asrwt>
<pdfrwt beam="2">  1       21 0.16794946E-01 0.12837402E+03</pdfrwt>
<pdfrwt beam="1">  1       -4 0.16166263E-01 0.12837402E+03</pdfrwt>
<totfact> 0.42469272E+04</totfact>
</mgrwt>
</event>
<event>
 6    3  0.7601760E-003  0.1311877E+03  0.7818608E-02  0.1225704E+00
          4   -1    0    0  502    0 -0.00000000000E+00  0.00000000000E+00  0.50333150069E+02  0.50349169763E+02  0.12700000000E+01 0. -1.
         21   -1    0    0  501  502  0.00000000000E+00 -0.00000000000E+00 -0.23603680529E+03  0.23603680529E+03  0.00000000000E+00 0.  1.
         25    2    1    2    0    0  0.31145116355E+02 -0.24801462902E+02 -0.42736579406E+02  0.13797327849E+03  0.12500031809E+03 0.  0.
    9000005    1    3    3    0    0 -0.13553060073E+01 -0.64522425965E+02  0.89090497038E+01  0.65156361726E+02  0.10000000000E+01 0.  0.
    9000005    1    3    3    0    0  0.32500422362E+02  0.39720963063E+02 -0.51645629109E+02  0.72816916761E+02  0.10000000000E+01 0.  0.
          4    1    1    2  501    0 -0.31145116355E+02  0.24801462902E+02 -0.14296707582E+03  0.14841269657E+03  0.12700000000E+01 0.  1.
<mgrwt>
<rscale>  1 0.13118769E+03</rscale>
<asrwt>0</asrwt>
<pdfrwt beam="2">  1       21 0.36313355E-01 0.13118769E+03</pdfrwt>
<pdfrwt beam="1">  1        4 0.77450567E-02 0.13118769E+03</pdfrwt>
<totfact> 0.34622773E+04</totfact>
</mgrwt>
</event>
<event>
 6    3  0.7601760E-003  0.1328285E+03  0.7818608E-02  0.1223318E+00
         21   -1    0    0  501  502  0.00000000000E+00  0.00000000000E+00  0.72790092092E+02  0.72790092092E+02  0.00000000000E+00 0.  1.
          4   -1    0    0  502    0 -0.00000000000E+00 -0.00000000000E+00 -0.11057013059E+03  0.11057742391E+03  0.12700000000E+01 0.  1.
         25    2    1    2    0    0  0.22217211280E+02 -0.39050954562E+02 -0.38898574390E+02  0.13840702721E+03  0.12499929825E+03 0.  0.
    9000005    1    3    3    0    0 -0.45449918112E+01 -0.55578679278E+02 -0.73088841796E+02  0.91938160390E+02  0.10000000000E+01 0.  0.
    9000005    1    3    3    0    0  0.26762203091E+02  0.16527724716E+02  0.34190267406E+02  0.46468866824E+02  0.10000000000E+01 0.  0.
          4    1    1    2  501    0 -0.22217211280E+02  0.39050954562E+02  0.11185358940E+01  0.44960488785E+02  0.12700000000E+01 0. -1.
<mgrwt>
<rscale>  1 0.13282848E+03</rscale>
<asrwt>0</asrwt>
<pdfrwt beam="1">  1       21 0.11198476E-01 0.13282848E+03</pdfrwt>
<pdfrwt beam="2">  1        4 0.17012203E-01 0.13282848E+03</pdfrwt>
<totfact> 0.80570522E+04</totfact>
</mgrwt>
</event>
<event>
 6    3  0.7601760E-003  0.1510845E+03  0.7818608E-02  0.1199147E+00
         -4   -1    0    0    0  501 -0.00000000000E+00  0.00000000000E+00  0.84707967312E+02  0.84717487133E+02  0.12700000000E+01 0.  1.
         21   -1    0    0  501  502  0.00000000000E+00 -0.00000000000E+00 -0.37516602099E+03  0.37516602099E+03  0.00000000000E+00 0. -1.
         25    2    1    2    0    0 -0.80486397969E+02 -0.26880831448E+02  0.63131564872E+01  0.15121636792E+03  0.12500357845E+03 0.  0.
    9000005    1    3    3    0    0  0.14434636232E+02  0.26439650991E+02 -0.23628642253E+02  0.38297866812E+02  0.10000000000E+01 0.  0.
    9000005    1    3    3    0    0 -0.94921034201E+02 -0.53320482439E+02  0.29941798740E+02  0.11291850111E+03  0.10000000000E+01 0.  0.
         -4    1    1    2    0  502  0.80486397969E+02  0.26880831448E+02 -0.29677121017E+03  0.30866714021E+03  0.12700000000E+01 0. -1.
<mgrwt>
<rscale>  1 0.15108453E+03</rscale>
<asrwt>0</asrwt>
<pdfrwt beam="2">  1       21 0.57717849E-01 0.15108453E+03</pdfrwt>
<pdfrwt beam="1">  1       -4 0.13032893E-01 0.15108453E+03</pdfrwt>
<totfact> 0.56439740E+03</totfact>
</mgrwt>
</event>
<event>
 6    3  0.7601760E-003  0.1268132E+03  0.7818608E-02  0.1232263E+00
         21   -1    0    0  501  502  0.00000000000E+00  0.00000000000E+00  0.12648471627E+02  0.12648471627E+02  0.00000000000E+00 0. -1.
          4   -1    0    0  502    0 -0.00000000000E+00 -0.00000000000E+00 -0.43497086434E+03  0.43497271837E+03  0.12700000000E+01 0. -1.
         25    2    1    2    0    0 -0.20957199733E+02  0.33626671959E+01 -0.37071304060E+03  0.39180318325E+03  0.12502425438E+03 0.  0.
    9000005    1    3    3    0    0 -0.57744046771E+02 -0.36582281492E+02 -0.25454550550E+03  0.26356603086E+03  0.10000000000E+01 0.  0.
    9000005    1    3    3    0    0  0.36786847038E+02  0.39944948688E+02 -0.11616753510E+03  0.12823715238E+03  0.10000000000E+01 0.  0.
          4    1    1    2  501    0  0.20957199733E+02 -0.33626671959E+01 -0.51609352114E+02  0.55818006745E+02  0.12700000000E+01 0.  1.
<mgrwt>
<rscale>  1 0.12681315E+03</rscale>
<asrwt>0</asrwt>
<pdfrwt beam="1">  1       21 0.19459187E-02 0.12681315E+03</pdfrwt>
<pdfrwt beam="2">  1        4 0.66923642E-01 0.12681315E+03</pdfrwt>
<totfact> 0.10743818E+05</totfact>
</mgrwt>
</event>
<event>
 6    3  0.7601760E-003  0.1663397E+03  0.7818608E-02  0.1181720E+00
         21   -1    0    0  501  502  0.00000000000E+00  0.00000000000E+00  0.15643939880E+03  0.15643939880E+03  0.00000000000E+00 0.  1.
         -4   -1    0    0    0  501 -0.00000000000E+00 -0.00000000000E+00 -0.20525370990E+03  0.20525763890E+03  0.12700000000E+01 0. -1.
         25    2    1    2    0    0  0.96909852198E+02  0.51509043930E+02 -0.14123561068E+03  0.21821180997E+03  0.12499678086E+03 0.  0.
    9000005    1    3    3    0    0  0.26047189353E+02  0.13811206612E+02 -0.13445568734E+03  0.13765368633E+03  0.10000000000E+01 0.  0.
    9000005    1    3    3    0    0  0.70862662845E+02  0.37697837318E+02 -0.67799233396E+01  0.80558123640E+02  0.10000000000E+01 0.  0.
         -4    1    1    2    0  502 -0.96909852198E+02 -0.51509043930E+02  0.92421299590E+02  0.14348522773E+03  0.12700000000E+01 0.  1.
<mgrwt>
<rscale>  1 0.16633970E+03</rscale>
<asrwt>0</asrwt>
<pdfrwt beam="1">  1       21 0.24067600E-01 0.16633970E+03</pdfrwt>
<pdfrwt beam="2">  1       -4 0.31578192E-01 0.16633970E+03</pdfrwt>
<totfact> 0.65492268E+03</totfact>
</mgrwt>
</event>
<event>
 6    3  0.7601760E-003  0.1272166E+03  0.7818608E-02  0.1231645E+00
         21   -1    0    0  501  502  0.00000000000E+00  0.00000000000E+00  0.55957936916E+02  0.55957936916E+02  0.00000000000E+00 0. -1.
         -4   -1    0    0    0  501 -0.00000000000E+00 -0.00000000000E+00 -0.12596965914E+03  0.12597606092E+03  0.12700000000E+01 0.  1.
         25    2    1    2    0    0 -0.23457575000E+02  0.30083199353E+01 -0.85821624060E+02  0.15345815351E+03  0.12499898363E+03 0.  0.
    9000005    1    3    3    0    0 -0.30439216247E+02 -0.32628697513E+02  0.14364970026E+02  0.46888486337E+02  0.10000000000E+01 0.  0.
    9000005    1    3    3    0    0  0.69816412468E+01  0.35637017449E+02 -0.10018659409E+03  0.10656966717E+03  0.10000000000E+01 0.  0.
         -4    1    1    2    0  502  0.23457575000E+02 -0.30083199353E+01  0.15809901835E+02  0.28475844320E+02  0.12700000000E+01 0. -1.
<mgrwt>
<rscale>  1 0.12721656E+03</rscale>
<asrwt>0</asrwt>
<pdfrwt beam="1">  1       21 0.86089133E-02 0.12721656E+03</pdfrwt>
<pdfrwt beam="2">  1       -4 0.19381549E-01 0.12721656E+03</pdfrwt>
<totfact> 0.10056205E+05</totfact>
</mgrwt>
</event>
<event>
 6    3  0.7601760E-003  0.1311058E+03  0.7818608E-02  0.1225824E+00
          4   -1    0    0  502    0 -0.00000000000E+00  0.00000000000E+00  0.31042980148E+03  0.31043239932E+03  0.12700000000E+01 0. -1.
         21   -1    0    0  501  502  0.00000000000E+00 -0.00000000000E+00 -0.10500185149E+03  0.10500185149E+03  0.00000000000E+00 0.  1.
         25    2    1    2    0    0  0.35192446925E+02  0.18110505865E+02  0.29208397091E+03  0.32015897803E+03  0.12498890515E+03 0.  0.
    9000005    1    3    3    0    0  0.50484742742E+02  0.59890308693E+02  0.23540632298E+03  0.24809815643E+03  0.10000000000E+01 0.  0.
    9000005    1    3    3    0    0 -0.15292295818E+02 -0.41779802827E+02  0.56677647925E+02  0.72060821602E+02  0.10000000000E+01 0.  0.
          4    1    1    2  501    0 -0.35192446925E+02 -0.18110505865E+02 -0.86656020910E+02  0.95275272779E+02  0.12700000000E+01 0.  1.
<mgrwt>
<rscale>  1 0.13110578E+03</rscale>
<asrwt>0</asrwt>
<pdfrwt beam="2">  1       21 0.16154131E-01 0.13110578E+03</pdfrwt>
<pdfrwt beam="1">  1        4 0.47759221E-01 0.13110578E+03</pdfrwt>
<totfact> 0.59879372E+03</totfact>
</mgrwt>
</event>
<event>
 6    3  0.7601760E-003  0.1294355E+03  0.7818608E-02  0.1228296E+00
         -4   -1    0    0    0  501 -0.00000000000E+00  0.00000000000E+00  0.15202632481E+02  0.15255586989E+02  0.12700000000E+01 0.  1.
         21   -1    0    0  501  502  0.00000000000E+00 -0.00000000000E+00 -0.60846698272E+03  0.60846698272E+03  0.00000000000E+00 0. -1.
         25    2    1    2    0    0 -0.27843958458E+02  0.18790450411E+02 -0.27782058021E+03  0.30649276026E+03  0.12500068103E+03 0.  0.
    9000005    1    3    3    0    0  0.33122204714E+02  0.46890173011E+02 -0.87305699748E+02  0.10449427725E+03  0.10000000000E+01 0.  0.
    9000005    1    3    3    0    0 -0.60966163172E+02 -0.28099722600E+02 -0.19051488046E+03  0.20199848301E+03  0.10000000000E+01 0.  0.
         -4    1    1    2    0  502  0.27843958458E+02 -0.18790450411E+02 -0.31544377003E+03  0.31722980944E+03  0.12700000000E+01 0. -1.
<mgrwt>
<rscale>  1 0.12943546E+03</rscale>
<asrwt>0</asrwt>
<pdfrwt beam="2">  1       21 0.93610323E-01 0.12943546E+03</pdfrwt>
<pdfrwt beam="1">  1       -4 0.23430415E-02 0.12943546E+03</pdfrwt>
<totfact> 0.31184913E+04</totfact>
</mgrwt>
</event>
<event>
 6    3  0.7601760E-003  0.1353552E+03  0.7818608E-02  0.1219719E+00
          4   -1    0    0  502    0 -0.00000000000E+00  0.00000000000E+00  0.23422401887E+03  0.23422746192E+03  0.12700000000E+01 0. -1.
         21   -1    0    0  501  502  0.00000000000E+00 -0.00000000000E+00 -0.54816276651E+02  0.54816276651E+02  0.00000000000E+00 0.  1.
         25    2    1    2    0    0 -0.25769100593E+01 -0.51843979747E+02  0.19266100746E+03  0.23545548761E+03  0.12500633644E+03 0.  0.
    9000005    1    3    3    0    0 -0.55528483549E+02  0.72052070150E+01  0.82267985610E+02  0.99520595606E+02  0.10000000000E+01 0.  0.
    9000005    1    3    3    0    0  0.52951573490E+02 -0.59049186762E+02  0.11039302185E+03  0.13593489201E+03  0.10000000000E+01 0.  0.
          4    1    1    2  501    0  0.25769100593E+01  0.51843979747E+02 -0.13253265235E+02  0.53588250959E+02  0.12700000000E+01 0.  1.
<mgrwt>
<rscale>  1 0.13535517E+03</rscale>
<asrwt>0</asrwt>
<pdfrwt beam="2">  1       21 0.84332735E-02 0.13535517E+03</pdfrwt>
<pdfrwt beam="1">  1        4 0.36035860E-01 0.13535517E+03</pdfrwt>
<totfact> 0.33149075E+04</totfact>
</mgrwt>
</event>
<event>
 6    3  0.7601760E-003  0.1277490E+03  0.7818608E-02  0.1230835E+00
         21   -1    0    0  501  502  0.00000000000E+00  0.00000000000E+00  0.14974092640E+03  0.14974092640E+03  0.00000000000E+00 0.  1.
         -4   -1    0    0    0  501 -0.00000000000E+00 -0.00000000000E+00 -0.13062249676E+03  0.13062867052E+03  0.12700000000E+01 0. -1.
         25    2    1    2    0    0 -0.74535129730E+01 -0.25284507211E+02 -0.97561586882E+02  0.16074225759E+03  0.12499979591E+03 0.  0.
    9000005    1    3    3    0    0 -0.62919998587E+02 -0.34026682026E+02 -0.52406924110E+02  0.88680477031E+02  0.10000000000E+01 0.  0.
    9000005    1    3    3    0    0  0.55466485614E+02  0.87421748144E+01 -0.45154662773E+02  0.72061780556E+02  0.10000000000E+01 0.  0.
         -4    1    1    2    0  502  0.74535129730E+01  0.25284507211E+02  0.11668001651E+03  0.11962733933E+03  0.12700000000E+01 0.  1.
<mgrwt>
<rscale>  1 0.12774901E+03</rscale>
<asrwt>0</asrwt>
<pdfrwt beam="1">  1       21 0.23037065E-01 0.12774901E+03</pdfrwt>
<pdfrwt beam="2">  1       -4 0.20096658E-01 0.12774901E+03</pdfrwt>
<totfact> 0.16091137E+04</totfact>
</mgrwt>
</event>
<event>
 6    3  0.7601760E-003  0.1279144E+03  0.7818608E-02  0.1230584E+00
          4   -1    0    0  502    0 -0.00000000000E+00  0.00000000000E+00  0.21987934626E+03  0.21988301393E+03  0.12700000000E+01 0. -1.
         21   -1    0    0  501  502  0.00000000000E+00 -0.00000000000E+00 -0.45139643857E+02  0.45139643857E+02  0.00000000000E+00 0.  1.
         25    2    1    2    0    0 -0.96302367561E+01 -0.25396277449E+02  0.19352182576E+03  0.23197582093E+03  0.12499748831E+03 0.  0.
    9000005    1    3    3    0    0  0.14017006286E+02 -0.77010578877E-01  0.19667234412E+03  0.19717376432E+03  0.10000000000E+01 0.  0.
    9000005    1    3    3    0    0 -0.23647243042E+02 -0.25319266871E+02 -0.31505183576E+01  0.34802056610E+02  0.10000000000E+01 0.  0.
          4    1    1    2  501    0  0.96302367561E+01  0.25396277449E+02 -0.18782123354E+02  0.33046836852E+02  0.12700000000E+01 0.  1.
<mgrwt>
<rscale>  1 0.12791436E+03</rscale>
<asrwt>0</asrwt>
<pdfrwt beam="2">  1       21 0.69445607E-02 0.12791436E+03</pdfrwt>
<pdfrwt beam="1">  1        4 0.33829247E-01 0.12791436E+03</pdfrwt>
<totfact> 0.51938501E+04</totfact>
</mgrwt>
</event>
<event>
 6    3  0.7601760E-003  0.1266559E+03  0.7818608E-02  0.1232504E+00
         -4   -1    0    0    0  501 -0.00000000000E+00  0.00000000000E+00  0.13823955587E+03  0.13824538946E+03  0.12700000000E+01 0. -1.
         21   -1    0    0  501  502  0.00000000000E+00 -0.00000000000E+00 -0.97385350496E+02  0.97385350496E+02  0.00000000000E+00 0.  1.
         25    2    1    2    0    0  0.20343999185E+02 -0.62053363354E+00  0.10738042189E+03  0.16604903439E+03  0.12500985342E+03 0.  0.
    9000005    1    3    3    0    0  0.14398056298E+02 -0.43448130506E+02 -0.45937757444E+01  0.46012464020E+02  0.10000000000E+01 0.  0.
    9000005    1    3    3    0    0  0.59459428873E+01  0.42827596872E+02  0.11197419764E+03  0.12003657037E+03  0.10000000000E+01 0.  0.
         -4    1    1    2    0  502 -0.20343999185E+02  0.62053363354E+00 -0.66526216518E+02  0.69581705563E+02  0.12700000000E+01 0.  1.
<mgrwt>
<rscale>  1 0.12665594E+03</rscale>
<asrwt>0</asrwt>
<pdfrwt beam="2">  1       21 0.14982362E-01 0.12665594E+03</pdfrwt>
<pdfrwt beam="1">  1       -4 0.21268710E-01 0.12665594E+03</pdfrwt>
<totfact> 0.31980057E+04</totfact>
</mgrwt>
</event>
<event>
 6    3  0.7601760E-003  0.1359770E+03  0.7818608E-02  0.1218847E+00
         21   -1    0    0  501  502  0.00000000000E+00  0.00000000000E+00  0.63357267397E+02  0.63357267397E+02  0.00000000000E+00 0. -1.
          4   -1    0    0  502    0 -0.00000000000E+00 -0.00000000000E+00 -0.37173348884E+03  0.37173565827E+03  0.12700000000E+01 0.  1.
         25    2    1    2    0    0  0.21412046874E+02  0.49057997233E+02 -0.34459365213E+03  0.37045177755E+03  0.12499828623E+03 0.  0.
    9000005    1    3    3    0    0 -0.37514261436E+02  0.20934320968E+02 -0.39235355726E+02  0.58189163462E+02  0.10000000000E+01 0.  0.
    9000005    1    3    3    0    0  0.58926308309E+02  0.28123676265E+02 -0.30535829640E+03  0.31226261409E+03  0.10000000000E+01 0.  0.
          4    1    1    2  501    0 -0.21412046874E+02 -0.49057997233E+02  0.36217430682E+02  0.64641148110E+02  0.12700000000E+01 0. -1.
<mgrwt>
<rscale>  1 0.13597696E+03</rscale>
<asrwt>0</asrwt>
<pdfrwt beam="1">  1       21 0.97472723E-02 0.13597696E+03</pdfrwt>
<pdfrwt beam="2">  1        4 0.57190911E-01 0.13597696E+03</pdfrwt>
<totfact> 0.10198767E+04</totfact>
</mgrwt>
</event>
<event>
 6    3  0.7601760E-003  0.1345173E+03  0.7818608E-02  0.1220903E+00
          4   -1    0    0  502    0 -0.00000000000E+00  0.00000000000E+00  0.75554730247E+02  0.75565403213E+02  0.12700000000E+01 0.  1.
         21   -1    0    0  501  502  0.00000000000E+00 -0.00000000000E+00 -0.34607381617E+03  0.34607381617E+03  0.00000000000E+00 0. -1.
         25    2    1    2    0    0 -0.96626859176E+00 -0.49684299328E+02  0.11747132634E+02  0.13502921552E+03  0.12500172257E+03 0.  0.
    9000005    1    3    3    0    0 -0.10825555207E+02  0.26247072748E+02  0.43644306939E+02  0.52076165388E+02  0.10000000000E+01 0.  0.
    9000005    1    3    3    0    0  0.98592866149E+01 -0.75931372075E+02 -0.31897174305E+02  0.82953050133E+02  0.10000000000E+01 0.  0.
          4    1    1    2  501    0  0.96626859176E+00  0.49684299328E+02 -0.28226621855E+03  0.28661000386E+03  0.12700000000E+01 0. -1.
<mgrwt>
<rscale>  1 0.13451726E+03</rscale>
<asrwt>0</asrwt>
<pdfrwt beam="2">  1       21 0.53242126E-01 0.13451726E+03</pdfrwt>
<pdfrwt beam="1">  1        4 0.11624805E-01 0.13451726E+03</pdfrwt>
<totfact> 0.80802491E+03</totfact>
</mgrwt>
</event>
<event>
 6    3  0.7601760E-003  0.1271750E+03  0.7818608E-02  0.1231709E+00
         21   -1    0    0  501  502  0.00000000000E+00  0.00000000000E+00  0.96049502108E+02  0.96049502108E+02  0.00000000000E+00 0.  1.
          4   -1    0    0  502    0 -0.00000000000E+00 -0.00000000000E+00 -0.59264261563E+02  0.59277867696E+02  0.12700000000E+01 0.  1.
         25    2    1    2    0    0  0.22266851149E+02 -0.71584845456E+01  0.34625084603E+02  0.13180428041E+03  0.12500566103E+03 0.  0.
    9000005    1    3    3    0    0  0.26787037396E+02 -0.27593804732E+02 -0.39283340070E+02  0.54983126859E+02  0.10000000000E+01 0.  0.
    9000005    1    3    3    0    0 -0.45201862473E+01  0.20435320186E+02  0.73908424673E+02  0.76821153548E+02  0.10000000000E+01 0.  0.
          4    1    1    2  501    0 -0.22266851149E+02  0.71584845456E+01  0.21601559426E+01  0.23523089397E+02  0.12700000000E+01 0. -1.
<mgrwt>
<rscale>  1 0.12717497E+03</rscale>
<asrwt>0</asrwt>
<pdfrwt beam="1">  1       21 0.14776846E-01 0.12717497E+03</pdfrwt>
<pdfrwt beam="2">  1        4 0.91192712E-02 0.12717497E+03</pdfrwt>
<totfact> 0.14244769E+05</totfact>
</mgrwt>
</event>
<event>
 6    3  0.7601760E-003  0.1332734E+03  0.7818608E-02  0.1222678E+00
         21   -1    0    0  501  502  0.00000000000E+00  0.00000000000E+00  0.12667938154E+04  0.12667938154E+04  0.00000000000E+00 0.  1.
          4   -1    0    0  502    0 -0.00000000000E+00 -0.00000000000E+00 -0.97869760290E+01  0.98690323635E+01  0.12700000000E+01 0. -1.
         25    2    1    2    0    0 -0.45420797837E+02  0.86122811766E+01  0.47649512439E+03  0.49478218527E+03  0.12499834810E+03 0.  0.
    9000005    1    3    3    0    0 -0.34802628114E+02  0.66150059527E+02  0.26870507120E+03  0.27890942721E+03  0.10000000000E+01 0.  0.
    9000005    1    3    3    0    0 -0.10618169724E+02 -0.57537778350E+02  0.20779005319E+03  0.21587275806E+03  0.10000000000E+01 0.  0.
          4    1    1    2  501    0  0.45420797837E+02 -0.86122811766E+01  0.78051171498E+03  0.78188066249E+03  0.12700000000E+01 0.  1.
<mgrwt>
<rscale>  1 0.13327343E+03</rscale>
<asrwt>0</asrwt>
<pdfrwt beam="1">  1       21 0.19489123E+00 0.13327343E+03</pdfrwt>
<pdfrwt beam="2">  1        4 0.15120506E-02 0.13327343E+03</pdfrwt>
<totfact> 0.95125105E+03</totfact>
</mgrwt>
</event>
<event>
 6    3  0.7601760E-003  0.1267236E+03  0.7818608E-02  0.1232400E+00
         -4   -1    0    0    0  501 -0.00000000000E+00  0.00000000000E+00  0.33045450026E+02  0.33069845289E+02  0.12700000000E+01 0. -1.
         21   -1    0    0  501  502  0.00000000000E+00 -0.00000000000E+00 -0.40052727402E+03  0.40052727402E+03  0.00000000000E+00 0. -1.
         25    2    1    2    0    0 -0.24863270265E+01  0.20688626640E+02 -0.90239813223E+02  0.15557023836E+03  0.12499869631E+03 0.  0.
    9000005    1    3    3    0    0 -0.35075670562E+02  0.61513496126E+02 -0.69896853331E+02  0.99502678239E+02  0.10000000000E+01 0.  0.
    9000005    1    3    3    0    0  0.32589343535E+02 -0.40824869486E+02 -0.20342959891E+02  0.56067560120E+02  0.10000000000E+01 0.  0.
         -4    1    1    2    0  502  0.24863270265E+01 -0.20688626640E+02 -0.27724201077E+03  0.27802688095E+03  0.12700000000E+01 0.  1.
<mgrwt>
<rscale>  1 0.12672362E+03</rscale>
<asrwt>0</asrwt>
<pdfrwt beam="2">  1       21 0.61619579E-01 0.12672362E+03</pdfrwt>
<pdfrwt beam="1">  1       -4 0.50859469E-02 0.12672362E+03</pdfrwt>
<totfact> 0.23165797E+04</totfact>
</mgrwt>
</event>
<event>
 6    3  0.7601760E-003  0.1285892E+03  0.7818608E-02  0.1229564E+00
         -4   -1    0    0    0  501 -0.00000000000E+00  0.00000000000E+00  0.15503726583E+03  0.15504246740E+03  0.12700000000E+01 0.  1.
         21   -1    0    0  501  502  0.00000000000E+00 -0.00000000000E+00 -0.41739156586E+02  0.41739156586E+02  0.00000000000E+00 0. -1.
         25    2    1    2    0    0  0.20488495226E+02 -0.22126043022E+02  0.10344044337E+03  0.16503061309E+03  0.12500335082E+03 0.  0.
    9000005    1    3    3    0    0  0.58752200300E+02 -0.24056245442E+02  0.10314383858E+02  0.64326592474E+02  0.10000000000E+01 0.  0.
    9000005    1    3    3    0    0 -0.38263705074E+02  0.19302024204E+01  0.93126059515E+02  0.10070402062E+03  0.10000000000E+01 0.  0.
         -4    1    1    2    0  502 -0.20488495226E+02  0.22126043022E+02  0.98576658752E+01  0.31751010896E+02  0.12700000000E+01 0. -1.
<mgrwt>
<rscale>  1 0.12858918E+03</rscale>
<asrwt>0</asrwt>
<pdfrwt beam="2">  1       21 0.64214088E-02 0.12858918E+03</pdfrwt>
<pdfrwt beam="1">  1       -4 0.23853773E-01 0.12858918E+03</pdfrwt>
<totfact> 0.11436611E+05</totfact>
</mgrwt>
</event>
<event>
 6    3  0.7601760E-003  0.1316381E+03  0.7818608E-02  0.1225045E+00
         -4   -1    0    0    0  501 -0.00000000000E+00  0.00000000000E+00  0.28949093327E+02  0.28976937458E+02  0.12700000000E+01 0. -1.
         21   -1    0    0  501  502  0.00000000000E+00 -0.00000000000E+00 -0.39305125526E+03  0.39305125526E+03  0.00000000000E+00 0.  1.
         25    2    1    2    0    0  0.39770811848E+02 -0.11061717875E+02 -0.13250849501E+03  0.18678083665E+03  0.12499800243E+03 0.  0.
    9000005    1    3    3    0    0  0.15574069141E+02 -0.36515219579E+02 -0.14434449956E+03  0.14970720572E+03  0.10000000000E+01 0.  0.
    9000005    1    3    3    0    0  0.24196742707E+02  0.25453501704E+02  0.11836004554E+02  0.37073630931E+02  0.10000000000E+01 0.  0.
         -4    1    1    2    0  502 -0.39770811848E+02  0.11061717875E+02 -0.23159366693E+03  0.23524735607E+03  0.12700000000E+01 0.  1.
<mgrwt>
<rscale>  1 0.13163806E+03</rscale>
<asrwt>0</asrwt>
<pdfrwt beam="2">  1       21 0.60469423E-01 0.13163806E+03</pdfrwt>
<pdfrwt beam="1">  1       -4 0.44560064E-02 0.13163806E+03</pdfrwt>
<totfact> 0.29909745E+04</totfact>
</mgrwt>
</event>
<event>
 6    3  0.7601760E-003  0.1282070E+03  0.7818608E-02  0.1230141E+00
         21   -1    0    0  501  502  0.00000000000E+00  0.00000000000E+00  0.19233628762E+04  0.19233628762E+04  0.00000000000E+00 0.  1.
         -4   -1    0    0    0  501 -0.00000000000E+00 -0.00000000000E+00 -0.55546837313E+01  0.56980181953E+01  0.12700000000E+01 0.  1.
         25    2    1    2    0    0  0.82912442340E+01 -0.27309675886E+02  0.74827633152E+03  0.75918015269E+03  0.12498989081E+03 0.  0.
    9000005    1    3    3    0    0 -0.38016027426E+02 -0.36393206516E+02  0.62442230824E+03  0.62663697852E+03  0.10000000000E+01 0.  0.
    9000005    1    3    3    0    0  0.46307271660E+02  0.90835306300E+01  0.12385402327E+03  0.13254317417E+03  0.10000000000E+01 0.  0.
         -4    1    1    2    0  502 -0.82912442340E+01  0.27309675886E+02  0.11695318610E+04  0.11698807417E+04  0.12700000000E+01 0. -1.
<mgrwt>
<rscale>  1 0.12820700E+03</rscale>
<asrwt>0</asrwt>
<pdfrwt beam="1">  1       21 0.29590146E+00 0.12820700E+03</pdfrwt>
<pdfrwt beam="2">  1       -4 0.86562624E-03 0.12820700E+03</pdfrwt>
<totfact> 0.56714462E+03</totfact>
</mgrwt>
</event>
<event>
 6    3  0.7601760E-003  0.1271771E+03  0.7818608E-02  0.1231706E+00
         -4   -1    0    0    0  501 -0.00000000000E+00  0.00000000000E+00  0.13690656967E+03  0.13691246005E+03  0.12700000000E+01 0. -1.
         21   -1    0    0  501  502  0.00000000000E+00 -0.00000000000E+00 -0.28874090382E+03  0.28874090382E+03  0.00000000000E+00 0.  1.
         25    2    1    2    0    0  0.23470537920E+02  0.13401861834E+01  0.10672474948E+03  0.16602463880E+03  0.12498538430E+03 0.  0.
    9000005    1    3    3    0    0  0.72549683455E+00 -0.22599501694E+02  0.12583791841E+03  0.12785712938E+03  0.10000000000E+01 0.  0.
    9000005    1    3    3    0    0  0.22745041085E+02  0.23939687877E+02 -0.19113168927E+02  0.38167509429E+02  0.10000000000E+01 0.  0.
         -4    1    1    2    0  502 -0.23470537920E+02 -0.13401861834E+01 -0.25855908363E+03  0.25962872507E+03  0.12700000000E+01 0.  1.
<mgrwt>
<rscale>  1 0.12717708E+03</rscale>
<asrwt>0</asrwt>
<pdfrwt beam="2">  1       21 0.44421677E-01 0.12717708E+03</pdfrwt>
<pdfrwt beam="1">  1       -4 0.21063217E-01 0.12717708E+03</pdfrwt>
<totfact> 0.41207365E+03</totfact>
</mgrwt>
</event>
<event>
 6    3  0.7601760E-003  0.1457275E+03  0.7818608E-02  0.1205824E+00
         21   -1    0    0  501  502  0.00000000000E+00  0.00000000000E+00  0.48265425663E+03  0.48265425663E+03  0.00000000000E+00 0.  1.
          4   -1    0    0  502    0 -0.00000000000E+00 -0.00000000000E+00 -0.25205733823E+02  0.25237708247E+02  0.12700000000E+01 0.  1.
         25    2    1    2    0    0  0.50767018463E+02  0.55083035747E+02  0.30549841433E+03  0.33847567476E+03  0.12500028102E+03 0.  0.
    9000005    1    3    3    0    0 -0.25266395615E+02  0.52354525628E+02  0.20080673890E+03  0.20905437926E+03  0.10000000000E+01 0.  0.
    9000005    1    3    3    0    0  0.76033414079E+02  0.27285101188E+01  0.10469167543E+03  0.12942129550E+03  0.10000000000E+01 0.  0.
          4    1    1    2  501    0 -0.50767018463E+02 -0.55083035747E+02  0.15195010848E+03  0.16941629012E+03  0.12700000000E+01 0. -1.
<mgrwt>
<rscale>  1 0.14572749E+03</rscale>
<asrwt>0</asrwt>
<pdfrwt beam="1">  1       21 0.74254494E-01 0.14572749E+03</pdfrwt>
<pdfrwt beam="2">  1        4 0.38803937E-02 0.14572749E+03</pdfrwt>
<totfact> 0.24094174E+04</totfact>
</mgrwt>
</event>
<event>
 6    3  0.7601760E-003  0.1435891E+03  0.7818608E-02  0.1208580E+00
         21   -1    0    0  501  502  0.00000000000E+00  0.00000000000E+00  0.46744967338E+02  0.46744967338E+02  0.00000000000E+00 0. -1.
         -4   -1    0    0    0  501 -0.00000000000E+00 -0.00000000000E+00 -0.24601500993E+03  0.24601828796E+03  0.12700000000E+01 0.  1.
         25    2    1    2    0    0 -0.43352060869E+02  0.55796152194E+02 -0.13972579456E+03  0.20035252998E+03  0.12500090728E+03 0.  0.
    9000005    1    3    3    0    0 -0.16972371293E+02  0.11997264099E+02  0.22268713955E+02  0.30477718983E+02  0.10000000000E+01 0.  0.
    9000005    1    3    3    0    0 -0.26379689576E+02  0.43798888095E+02 -0.16199450852E+03  0.16987481099E+03  0.10000000000E+01 0.  0.
         -4    1    1    2    0  502  0.43352060869E+02 -0.55796152194E+02 -0.59544248035E+02  0.92410725326E+02  0.12700000000E+01 0. -1.
<mgrwt>
<rscale>  1 0.14358913E+03</rscale>
<asrwt>0</asrwt>
<pdfrwt beam="1">  1       21 0.71915335E-02 0.14358913E+03</pdfrwt>
<pdfrwt beam="2">  1       -4 0.37850042E-01 0.14358913E+03</pdfrwt>
<totfact> 0.39919225E+04</totfact>
</mgrwt>
</event>
<event>
 6    3  0.7601760E-003  0.1310612E+03  0.7818608E-02  0.1225890E+00
          4   -1    0    0  502    0 -0.00000000000E+00  0.00000000000E+00  0.70897534027E+02  0.70908907981E+02  0.12700000000E+01 0. -1.
         21   -1    0    0  501  502  0.00000000000E+00 -0.00000000000E+00 -0.63159297425E+03  0.63159297425E+03  0.00000000000E+00 0.  1.
         25    2    1    2    0    0 -0.64706187099E+01  0.38845395410E+02  0.90710094736E+01  0.13137470397E+03  0.12500478382E+03 0.  0.
    9000005    1    3    3    0    0  0.37976142938E+02  0.62961940684E+02 -0.15489905587E+02  0.75148723091E+02  0.10000000000E+01 0.  0.
    9000005    1    3    3    0    0 -0.44446761648E+02 -0.24116545274E+02  0.24560915060E+02  0.56225980877E+02  0.10000000000E+01 0.  0.
          4    1    1    2  501    0  0.64706187099E+01 -0.38845395410E+02 -0.56976644969E+03  0.57112717826E+03  0.12700000000E+01 0.  1.
<mgrwt>
<rscale>  1 0.13106117E+03</rscale>
<asrwt>0</asrwt>
<pdfrwt beam="2">  1       21 0.97168149E-01 0.13106117E+03</pdfrwt>
<pdfrwt beam="1">  1        4 0.10908286E-01 0.13106117E+03</pdfrwt>
<totfact> 0.23982446E+03</totfact>
</mgrwt>
</event>
<event>
 6    3  0.7601760E-003  0.1320542E+03  0.7818608E-02  0.1224439E+00
         21   -1    0    0  501  502  0.00000000000E+00  0.00000000000E+00  0.11990265492E+03  0.11990265492E+03  0.00000000000E+00 0. -1.
          4   -1    0    0  502    0 -0.00000000000E+00 -0.00000000000E+00 -0.10230048420E+03  0.10230836705E+03  0.12700000000E+01 0. -1.
         25    2    1    2    0    0  0.41473473697E+02 -0.96299879710E+01 -0.50917488026E+02  0.14153052728E+03  0.12500205548E+03 0.  0.
    9000005    1    3    3    0    0 -0.39702278716E+02 -0.21181905630E+02 -0.37195797144E+02  0.58390678935E+02  0.10000000000E+01 0.  0.
    9000005    1    3    3    0    0  0.81175752413E+02  0.11551917659E+02 -0.13721690883E+02  0.83139848340E+02  0.10000000000E+01 0.  0.
          4    1    1    2  501    0 -0.41473473697E+02  0.96299879710E+01  0.68519658744E+02  0.80680494689E+02  0.12700000000E+01 0.  1.
<mgrwt>
<rscale>  1 0.13205415E+03</rscale>
<asrwt>0</asrwt>
<pdfrwt beam="1">  1       21 0.18446562E-01 0.13205415E+03</pdfrwt>
<pdfrwt beam="2">  1        4 0.15739660E-01 0.13205415E+03</pdfrwt>
<totfact> 0.37624714E+04</totfact>
</mgrwt>
</event>
<event>
 6    3  0.7601760E-003  0.1523439E+03  0.7818608E-02  0.1197622E+00
         21   -1    0    0  501  502  0.00000000000E+00  0.00000000000E+00  0.15323658913E+04  0.15323658913E+04  0.00000000000E+00 0. -1.
         -4   -1    0    0    0  501 -0.00000000000E+00 -0.00000000000E+00 -0.20988428177E+02  0.21026816624E+02  0.12700000000E+01 0.  1.
         25    2    1    2    0    0 -0.91525024084E+01  0.86598661213E+02  0.27851059493E+03  0.31745362204E+03  0.12500221692E+03 0.  0.
    9000005    1    3    3    0    0 -0.57537286403E+02  0.77023002729E+02  0.13528829447E+03  0.16597290410E+03  0.10000000000E+01 0.  0.
    9000005    1    3    3    0    0  0.48384783994E+02  0.95756584834E+01  0.14322230046E+03  0.15148071794E+03  0.10000000000E+01 0.  0.
         -4    1    1    2    0  502  0.91525024084E+01 -0.86598661213E+02  0.12328668682E+04  0.12359390859E+04  0.12700000000E+01 0. -1.
<mgrwt>
<rscale>  1 0.15234386E+03</rscale>
<asrwt>0</asrwt>
<pdfrwt beam="1">  1       21 0.23574851E+00 0.15234386E+03</pdfrwt>
<pdfrwt beam="2">  1       -4 0.32319836E-02 0.15234386E+03</pdfrwt>
<totfact> 0.16499957E+03</totfact>
</mgrwt>
</event>
<event>
 6    3  0.7601760E-003  0.1267076E+03  0.7818608E-02  0.1232424E+00
         -4   -1    0    0    0  501 -0.00000000000E+00  0.00000000000E+00  0.94178598144E+03  0.94178683773E+03  0.12700000000E+01 0. -1.
         21   -1    0    0  501  502  0.00000000000E+00 -0.00000000000E+00 -0.65920049080E+01  0.65920049080E+01  0.00000000000E+00 0. -1.
         25    2    1    2    0    0  0.44135404004E+01  0.20236531453E+02  0.88560106114E+03  0.89461950205E+03  0.12500326961E+03 0.  0.
    9000005    1    3    3    0    0 -0.54988421561E+02 -0.67591624648E+01  0.27398788669E+03  0.27953492597E+03  0.10000000000E+01 0.  0.
    9000005    1    3    3    0    0  0.59401961961E+02  0.26995693918E+02  0.61161317444E+03  0.61508457607E+03  0.10000000000E+01 0.  0.
         -4    1    1    2    0  502 -0.44135404004E+01 -0.20236531453E+02  0.49592915392E+02  0.53759340595E+02  0.12700000000E+01 0.  1.
<mgrwt>
<rscale>  1 0.12670759E+03</rscale>
<asrwt>0</asrwt>
<pdfrwt beam="2">  1       21 0.10141553E-02 0.12670759E+03</pdfrwt>
<pdfrwt beam="1">  1       -4 0.14489952E+00 0.12670759E+03</pdfrwt>
<totfact> 0.51030164E+04</totfact>
</mgrwt>
</event>
<event>
 6    3  0.7601760E-003  0.1266188E+03  0.7818608E-02  0.1232561E+00
         21   -1    0    0  501  502  0.00000000000E+00  0.00000000000E+00  0.50496339587E+03  0.50496339587E+03  0.00000000000E+00 0. -1.
         -4   -1    0    0    0  501 -0.00000000000E+00 -0.00000000000E+00 -0.10944826927E+02  0.11018263768E+02  0.12700000000E+01 0. -1.
         25    2    1    2    0    0  0.17930149985E+02  0.91864553737E+01  0.39055865145E+03  0.41057080313E+03  0.12500577157E+03 0.  0.
    9000005    1    3    3    0    0 -0.18297354029E+01 -0.10122347975E+02  0.38126465764E+03  0.38140470504E+03  0.10000000000E+01 0.  0.
    9000005    1    3    3    0    0  0.19759885388E+02  0.19308803349E+02  0.92939938093E+01  0.29166098098E+02  0.10000000000E+01 0.  0.
         -4    1    1    2    0  502 -0.17930149985E+02 -0.91864553737E+01  0.10345991750E+03  0.10541085651E+03  0.12700000000E+01 0.  1.
<mgrwt>
<rscale>  1 0.12661881E+03</rscale>
<asrwt>0</asrwt>
<pdfrwt beam="1">  1       21 0.77686658E-01 0.12661881E+03</pdfrwt>
<pdfrwt beam="2">  1       -4 0.16895918E-02 0.12661881E+03</pdfrwt>
<totfact> 0.78450859E+04</totfact>
</mgrwt>
</event>
<event>
 6    3  0.7601760E-003  0.1267463E+03  0.7818608E-02  0.1232365E+00
         21   -1    0    0  501  502  0.00000000000E+00  0.00000000000E+00  0.75553301331E+01  0.75553301331E+01  0.00000000000E+00 0. -1.
         -4   -1    0    0    0  501 -0.00000000000E+00 -0.00000000000E+00 -0.91408231468E+03  0.91408319693E+03  0.12700000000E+01 0.  1.
         25    2    1    2    0    0 -0.12217567609E+02 -0.16942558943E+02 -0.87274119069E+03  0.88189670994E+03  0.12501320655E+03 0.  0.
    9000005    1    3    3    0    0  0.28156374341E+02  0.20025994678E+02 -0.78533795381E+02  0.85804305812E+02  0.10000000000E+01 0.  0.
    9000005    1    3    3    0    0 -0.40373941951E+02 -0.36968553621E+02 -0.79420739531E+03  0.79609240413E+03  0.10000000000E+01 0.  0.
         -4    1    1    2    0  502  0.12217567609E+02  0.16942558943E+02 -0.33785793856E+02  0.39741817123E+02  0.12700000000E+01 0. -1.
<mgrwt>
<rscale>  1 0.12674629E+03</rscale>
<asrwt>0</asrwt>
<pdfrwt beam="1">  1       21 0.11623593E-02 0.12674629E+03</pdfrwt>
<pdfrwt beam="2">  1       -4 0.14063623E+00 0.12674629E+03</pdfrwt>
<totfact> 0.44343543E+04</totfact>
</mgrwt>
</event>
<event>
 6    3  0.7601760E-003  0.1274208E+03  0.7818608E-02  0.1231334E+00
         21   -1    0    0  501  502  0.00000000000E+00  0.00000000000E+00  0.17833355436E+02  0.17833355436E+02  0.00000000000E+00 0. -1.
          4   -1    0    0  502    0 -0.00000000000E+00 -0.00000000000E+00 -0.67679320130E+03  0.67679439288E+03  0.12700000000E+01 0. -1.
         25    2    1    2    0    0  0.52305176581E+01 -0.24144098003E+02 -0.65762417562E+03  0.66985492654E+03  0.12500308187E+03 0.  0.
    9000005    1    3    3    0    0  0.61462176252E+02  0.89291146479E+01 -0.33109581175E+03  0.33687203024E+03  0.10000000000E+01 0.  0.
    9000005    1    3    3    0    0 -0.56231658594E+02 -0.33073212651E+02 -0.32652836386E+03  0.33298289630E+03  0.10000000000E+01 0.  0.
          4    1    1    2  501    0 -0.52305176581E+01  0.24144098003E+02 -0.13356702493E+01  0.24772821768E+02  0.12700000000E+01 0.  1.
<mgrwt>
<rscale>  1 0.12742082E+03</rscale>
<asrwt>0</asrwt>
<pdfrwt beam="1">  1       21 0.27435933E-02 0.12742082E+03</pdfrwt>
<pdfrwt beam="2">  1        4 0.10412560E+00 0.12742082E+03</pdfrwt>
<totfact> 0.23003641E+04</totfact>
</mgrwt>
</event>
<event>
 6    3  0.7601760E-003  0.1272179E+03  0.7818608E-02  0.1231643E+00
         21   -1    0    0  501  502  0.00000000000E+00  0.00000000000E+00  0.70404986625E+03  0.70404986625E+03  0.00000000000E+00 0.  1.
          4   -1    0    0  502    0 -0.00000000000E+00 -0.00000000000E+00 -0.15870449269E+03  0.15870957406E+03  0.12700000000E+01 0. -1.
         25    2    1    2    0    0  0.13773182753E+02  0.19212335636E+02 -0.13297319113E+03  0.18402790096E+03  0.12500233744E+03 0.  0.
    9000005    1    3    3    0    0  0.28688680301E+02 -0.22934499477E+02  0.67191969599E+01  0.37352098355E+02  0.10000000000E+01 0.  0.
    9000005    1    3    3    0    0 -0.14915497548E+02  0.42146835113E+02 -0.13969238809E+03  0.14667580260E+03  0.10000000000E+01 0.  0.
          4    1    1    2  501    0 -0.13773182753E+02 -0.19212335636E+02  0.67831856470E+03  0.67873153935E+03  0.12700000000E+01 0.  1.
<mgrwt>
<rscale>  1 0.12721792E+03</rscale>
<asrwt>0</asrwt>
<pdfrwt beam="1">  1       21 0.10831536E+00 0.12721792E+03</pdfrwt>
<pdfrwt beam="2">  1        4 0.24416555E-01 0.12721792E+03</pdfrwt>
<totfact> 0.44891325E+02</totfact>
</mgrwt>
</event>
<event>
 6    3  0.7601760E-003  0.1300111E+03  0.7818608E-02  0.1227439E+00
         -4   -1    0    0    0  501 -0.00000000000E+00  0.00000000000E+00  0.38402173960E+03  0.38402383961E+03  0.12700000000E+01 0.  1.
         21   -1    0    0  501  502  0.00000000000E+00 -0.00000000000E+00 -0.19347682239E+02  0.19347682239E+02  0.00000000000E+00 0.  1.
         25    2    1    2    0    0 -0.17011176738E+02  0.31433962000E+02  0.23182493620E+03  0.26579254091E+03  0.12500159863E+03 0.  0.
    9000005    1    3    3    0    0  0.50196120157E+02  0.32352182710E+02  0.13801835390E+03  0.15038743371E+03  0.10000000000E+01 0.  0.
    9000005    1    3    3    0    0 -0.67207296895E+02 -0.91822071084E+00  0.93806582295E+02  0.11540510720E+03  0.10000000000E+01 0.  0.
         -4    1    1    2    0  502  0.17011176738E+02 -0.31433962000E+02  0.13284912117E+03  0.13757898094E+03  0.12700000000E+01 0. -1.
<mgrwt>
<rscale>  1 0.13001105E+03</rscale>
<asrwt>0</asrwt>
<pdfrwt beam="2">  1       21 0.29765668E-02 0.13001105E+03</pdfrwt>
<pdfrwt beam="1">  1       -4 0.59083630E-01 0.13001105E+03</pdfrwt>
<totfact> 0.70339270E+04</totfact>
</mgrwt>
</event>
<event>
 6    3  0.7601760E-003  0.1291915E+03  0.7818608E-02  0.1228660E+00
         -4   -1    0    0    0  501 -0.00000000000E+00  0.00000000000E+00  0.19600370834E+02  0.19641472369E+02  0.12700000000E+01 0. -1.
         21   -1    0    0  501  502  0.00000000000E+00 -0.00000000000E+00 -0.33604031314E+03  0.33604031314E+03  0.00000000000E+00 0.  1.
         25    2    1    2    0    0 -0.30268084471E+02  0.12219328762E+02 -0.24021232145E+03  0.27274969272E+03  0.12499986628E+03 0.  0.
    9000005    1    3    3    0    0  0.16116665212E+02  0.60081756740E+02 -0.12555774011E+03  0.14012605216E+03  0.10000000000E+01 0.  0.
    9000005    1    3    3    0    0 -0.46384749682E+02 -0.47862427978E+02 -0.11465458134E+03  0.13262364057E+03  0.10000000000E+01 0.  0.
         -4    1    1    2    0  502  0.30268084471E+02 -0.12219328762E+02 -0.76227620852E+02  0.82932092785E+02  0.12700000000E+01 0.  1.
<mgrwt>
<rscale>  1 0.12919147E+03</rscale>
<asrwt>0</asrwt>
<pdfrwt beam="2">  1       21 0.51698512E-01 0.12919147E+03</pdfrwt>
<pdfrwt beam="1">  1       -4 0.30187878E-02 0.12919147E+03</pdfrwt>
<totfact> 0.76753887E+04</totfact>
</mgrwt>
</event>
<event>
 6    3  0.7601760E-003  0.1285937E+03  0.7818608E-02  0.1229558E+00
         -4   -1    0    0    0  501 -0.00000000000E+00  0.00000000000E+00  0.77283530310E+02  0.77293964559E+02  0.12700000000E+01 0. -1.
         21   -1    0    0  501  502  0.00000000000E+00 -0.00000000000E+00 -0.10940347540E+03  0.10940347540E+03  0.00000000000E+00 0. -1.
         25    2    1    2    0    0  0.67228419124E-01 -0.30197803614E+02  0.16295677429E+02  0.12962207516E+03  0.12499768559E+03 0.  0.
    9000005    1    3    3    0    0 -0.51979192976E+02  0.73557681905E+01 -0.19639765756E+02  0.56059470449E+02  0.10000000000E+01 0.  0.
    9000005    1    3    3    0    0  0.52046421395E+02 -0.37553571804E+02  0.35935443185E+02  0.73562604713E+02  0.10000000000E+01 0.  0.
         -4    1    1    2    0  502 -0.67228419124E-01  0.30197803614E+02 -0.48415622521E+02  0.57075364798E+02  0.12700000000E+01 0.  1.
<mgrwt>
<rscale>  1 0.12859368E+03</rscale>
<asrwt>0</asrwt>
<pdfrwt beam="2">  1       21 0.16831304E-01 0.12859368E+03</pdfrwt>
<pdfrwt beam="1">  1       -4 0.11891144E-01 0.12859368E+03</pdfrwt>
<totfact> 0.72010637E+04</totfact>
</mgrwt>
</event>
<event>
 6    3  0.7601760E-003  0.1619696E+03  0.7818608E-02  0.1186491E+00
         21   -1    0    0  501  502  0.00000000000E+00  0.00000000000E+00  0.34314747951E+02  0.34314747951E+02  0.00000000000E+00 0. -1.
          4   -1    0    0  502    0 -0.00000000000E+00 -0.00000000000E+00 -0.64983707585E+03  0.64983831685E+03  0.12700000000E+01 0.  1.
         25    2    1    2    0    0 -0.10298991334E+03 -0.11718425066E+01 -0.51638575196E+03  0.54119163975E+03  0.12500340251E+03 0.  0.
    9000005    1    3    3    0    0 -0.67537125215E+02 -0.49349559747E+02 -0.16764275518E+03  0.18735457212E+03  0.10000000000E+01 0.  0.
    9000005    1    3    3    0    0 -0.35452788126E+02  0.48177717240E+02 -0.34874299678E+03  0.35383706763E+03  0.10000000000E+01 0.  0.
          4    1    1    2  501    0  0.10298991334E+03  0.11718425066E+01 -0.99136575931E+02  0.14296142505E+03  0.12700000000E+01 0. -1.
<mgrwt>
<rscale>  1 0.16196958E+03</rscale>
<asrwt>0</asrwt>
<pdfrwt beam="1">  1       21 0.52791924E-02 0.16196958E+03</pdfrwt>
<pdfrwt beam="2">  1        4 0.99976831E-01 0.16196958E+03</pdfrwt>
<totfact> 0.87197562E+03</totfact>
</mgrwt>
</event>
<event>
 6    3  0.7601760E-003  0.1373589E+03  0.7818608E-02  0.1216928E+00
         21   -1    0    0  501  502  0.00000000000E+00  0.00000000000E+00  0.17489105960E+03  0.17489105960E+03  0.00000000000E+00 0. -1.
         -4   -1    0    0    0  501 -0.00000000000E+00 -0.00000000000E+00 -0.63216944541E+02  0.63229700118E+02  0.12700000000E+01 0.  1.
         25    2    1    2    0    0 -0.35674117255E+02  0.44375668989E+02  0.33471371035E+02  0.14137819043E+03  0.12500246961E+03 0.  0.
    9000005    1    3    3    0    0  0.34012981395E+02 -0.22407951981E+02  0.12273704501E+02  0.42551651408E+02  0.10000000000E+01 0.  0.
    9000005    1    3    3    0    0 -0.69687098650E+02  0.66783620970E+02  0.21197666534E+02  0.98826539020E+02  0.10000000000E+01 0.  0.
         -4    1    1    2    0  502  0.35674117255E+02 -0.44375668989E+02  0.78202744023E+02  0.96742569290E+02  0.12700000000E+01 0. -1.
<mgrwt>
<rscale>  1 0.13735887E+03</rscale>
<asrwt>0</asrwt>
<pdfrwt beam="1">  1       21 0.26906317E-01 0.13735887E+03</pdfrwt>
<pdfrwt beam="2">  1       -4 0.97270197E-02 0.13735887E+03</pdfrwt>
<totfact> 0.42586161E+04</totfact>
</mgrwt>
</event>
<event>
 6    3  0.7601760E-003  0.1269860E+03  0.7818608E-02  0.1231998E+00
         21   -1    0    0  501  502  0.00000000000E+00  0.00000000000E+00  0.67055428452E+01  0.67055428452E+01  0.00000000000E+00 0.  1.
         -4   -1    0    0    0  501 -0.00000000000E+00 -0.00000000000E+00 -0.96832229465E+03  0.96832312748E+03  0.12700000000E+01 0.  1.
         25    2    1    2    0    0  0.20680287541E+02  0.85161260180E+01 -0.90920976492E+03  0.91803477706E+03  0.12500102630E+03 0.  0.
    9000005    1    3    3    0    0  0.26675121653E+02  0.17891723512E+02 -0.54620751141E+02  0.63372725527E+02  0.10000000000E+01 0.  0.
    9000005    1    3    3    0    0 -0.59948341124E+01 -0.93755974941E+01 -0.85458901377E+03  0.85466205153E+03  0.10000000000E+01 0.  0.
         -4    1    1    2    0  502 -0.20680287541E+02 -0.85161260180E+01 -0.52406986886E+02  0.56993893266E+02  0.12700000000E+01 0. -1.
<mgrwt>
<rscale>  1 0.12698604E+03</rscale>
<asrwt>0</asrwt>
<pdfrwt beam="1">  1       21 0.10316223E-02 0.12698604E+03</pdfrwt>
<pdfrwt beam="2">  1       -4 0.14898192E+00 0.12698604E+03</pdfrwt>
<totfact> 0.46320282E+04</totfact>
</mgrwt>
</event>
<event>
 6    3  0.7601760E-003  0.1267171E+03  0.7818608E-02  0.1232410E+00
         21   -1    0    0  501  502  0.00000000000E+00  0.00000000000E+00  0.36062071044E+03  0.36062071044E+03  0.00000000000E+00 0. -1.
          4   -1    0    0  502    0 -0.00000000000E+00 -0.00000000000E+00 -0.29810681896E+02  0.29837722016E+02  0.12700000000E+01 0.  1.
         25    2    1    2    0    0  0.18371107999E+02  0.97218755069E+01  0.10748113910E+03  0.16616082160E+03  0.12500084361E+03 0.  0.
    9000005    1    3    3    0    0  0.60661704217E+02  0.41739614579E+02  0.64023195589E+02  0.97580773502E+02  0.10000000000E+01 0.  0.
    9000005    1    3    3    0    0 -0.42290596218E+02 -0.32017739072E+02  0.43457943508E+02  0.68580048103E+02  0.10000000000E+01 0.  0.
          4    1    1    2  501    0 -0.18371107999E+02 -0.97218755069E+01  0.22332888945E+03  0.22429761085E+03  0.12700000000E+01 0. -1.
<mgrwt>
<rscale>  1 0.12671710E+03</rscale>
<asrwt>0</asrwt>
<pdfrwt beam="1">  1       21 0.55480106E-01 0.12671710E+03</pdfrwt>
<pdfrwt beam="2">  1        4 0.45885111E-02 0.12671710E+03</pdfrwt>
<totfact> 0.34104162E+04</totfact>
</mgrwt>
</event>
<event>
 6    3  0.7601760E-003  0.1276164E+03  0.7818608E-02  0.1231036E+00
          4   -1    0    0  502    0 -0.00000000000E+00  0.00000000000E+00  0.98892719832E+02  0.98900874293E+02  0.12700000000E+01 0. -1.
         21   -1    0    0  501  502  0.00000000000E+00 -0.00000000000E+00 -0.79144410949E+02  0.79144410949E+02  0.00000000000E+00 0.  1.
         25    2    1    2    0    0  0.25374636117E+02  0.40658863007E+01  0.51117849040E+02  0.13747356431E+03  0.12500217120E+03 0.  0.
    9000005    1    3    3    0    0  0.72700907730E+02 -0.76073580417E+01  0.50252814979E+02  0.88710987451E+02  0.10000000000E+01 0.  0.
    9000005    1    3    3    0    0 -0.47326271613E+02  0.11673244342E+02  0.86503406124E+00  0.48762576862E+02  0.10000000000E+01 0.  0.
          4    1    1    2  501    0 -0.25374636117E+02 -0.40658863007E+01 -0.31369540157E+02  0.40571720929E+02  0.12700000000E+01 0.  1.
<mgrwt>
<rscale>  1 0.12761640E+03</rscale>
<asrwt>0</asrwt>
<pdfrwt beam="2">  1       21 0.12176063E-01 0.12761640E+03</pdfrwt>
<pdfrwt beam="1">  1        4 0.15215676E-01 0.12761640E+03</pdfrwt>
<totfact> 0.84071300E+04</totfact>
</mgrwt>
</event>
<event>
 6    3  0.7601760E-003  0.1357879E+03  0.7818608E-02  0.1219112E+00
         21   -1    0    0  501  502  0.00000000000E+00  0.00000000000E+00  0.34556808490E+03  0.34556808490E+03  0.00000000000E+00 0. -1.
          4   -1    0    0  502    0 -0.00000000000E+00 -0.00000000000E+00 -0.30367741148E+02  0.30394285687E+02  0.12700000000E+01 0.  1.
         25    2    1    2    0    0  0.52727690406E+02  0.57759319185E+01  0.14944067062E+03  0.20191797148E+03  0.12499912978E+03 0.  0.
    9000005    1    3    3    0    0  0.34105808406E+02  0.46321195655E+02  0.14626950740E+03  0.15717705981E+03  0.10000000000E+01 0.  0.
    9000005    1    3    3    0    0  0.18621882000E+02 -0.40545263737E+02  0.31711632171E+01  0.44740911668E+02  0.10000000000E+01 0.  0.
          4    1    1    2  501    0 -0.52727690406E+02 -0.57759319185E+01  0.16575967313E+03  0.17404439911E+03  0.12700000000E+01 0. -1.
<mgrwt>
<rscale>  1 0.13578790E+03</rscale>
<asrwt>0</asrwt>
<pdfrwt beam="1">  1       21 0.53164318E-01 0.13578790E+03</pdfrwt>
<pdfrwt beam="2">  1        4 0.46741818E-02 0.13578790E+03</pdfrwt>
<totfact> 0.36447481E+04</totfact>
</mgrwt>
</event>
<event>
 6    3  0.7601760E-003  0.1270294E+03  0.7818608E-02  0.1231931E+00
         21   -1    0    0  501  502  0.00000000000E+00  0.00000000000E+00  0.12129525876E+02  0.12129525876E+02  0.00000000000E+00 0. -1.
         -4   -1    0    0    0  501 -0.00000000000E+00 -0.00000000000E+00 -0.53450932208E+03  0.53451083084E+03  0.12700000000E+01 0. -1.
         25    2    1    2    0    0 -0.17835579240E+02  0.13945432968E+02 -0.34179096334E+03  0.36463342707E+03  0.12499556202E+03 0.  0.
    9000005    1    3    3    0    0  0.33175426389E+02 -0.52830922003E+01 -0.21865708910E+02  0.40095251657E+02  0.10000000000E+01 0.  0.
    9000005    1    3    3    0    0 -0.51011005629E+02  0.19228525168E+02 -0.31992525443E+03  0.32453817541E+03  0.10000000000E+01 0.  0.
         -4    1    1    2    0  502  0.17835579240E+02 -0.13945432968E+02 -0.18058883286E+03  0.18200692965E+03  0.12700000000E+01 0.  1.
<mgrwt>
<rscale>  1 0.12702942E+03</rscale>
<asrwt>0</asrwt>
<pdfrwt beam="1">  1       21 0.18660810E-02 0.12702942E+03</pdfrwt>
<pdfrwt beam="2">  1       -4 0.82237431E-01 0.12702942E+03</pdfrwt>
<totfact> 0.73400138E+04</totfact>
</mgrwt>
</event>
<event>
 6    3  0.7601760E-003  0.1278945E+03  0.7818608E-02  0.1230614E+00
         21   -1    0    0  501  502  0.00000000000E+00  0.00000000000E+00  0.44138226114E+03  0.44138226114E+03  0.00000000000E+00 0.  1.
         -4   -1    0    0    0  501 -0.00000000000E+00 -0.00000000000E+00 -0.15800805293E+02  0.15851761665E+02  0.12700000000E+01 0.  1.
         25    2    1    2    0    0  0.21303342825E+02 -0.16694136950E+02  0.26343747129E+03  0.29284177465E+03  0.12499790830E+03 0.  0.
    9000005    1    3    3    0    0  0.34107590591E+02 -0.17355059888E+02  0.10661760900E+02  0.39739136693E+02  0.10000000000E+01 0.  0.
    9000005    1    3    3    0    0 -0.12804247765E+02  0.66092293780E+00  0.25277571039E+03  0.25310263796E+03  0.10000000000E+01 0.  0.
         -4    1    1    2    0  502 -0.21303342825E+02  0.16694136950E+02  0.16214398456E+03  0.16439224815E+03  0.12700000000E+01 0. -1.
<mgrwt>
<rscale>  1 0.12789450E+03</rscale>
<asrwt>0</asrwt>
<pdfrwt beam="1">  1       21 0.67904954E-01 0.12789450E+03</pdfrwt>
<pdfrwt beam="2">  1       -4 0.24349537E-02 0.12789450E+03</pdfrwt>
<totfact> 0.60117338E+04</totfact>
</mgrwt>
</event>
<event>
 6    3  0.7601760E-003  0.1285247E+03  0.7818608E-02  0.1229661E+00
          4   -1    0    0  502    0 -0.00000000000E+00  0.00000000000E+00  0.83732591586E+01  0.84690240841E+01  0.12700000000E+01 0. -1.
         21   -1    0    0  501  502  0.00000000000E+00 -0.00000000000E+00 -0.89778298464E+03  0.89778298464E+03  0.00000000000E+00 0. -1.
         25    2    1    2    0    0 -0.29186102692E+02 -0.64680014767E+01 -0.52059203879E+03  0.53622260104E+03  0.12499977353E+03 0.  0.
    9000005    1    3    3    0    0 -0.73514296114E+02 -0.28447560681E+02 -0.30494459738E+03  0.31496955870E+03  0.10000000000E+01 0.  0.
    9000005    1    3    3    0    0  0.44328193422E+02  0.21979559204E+02 -0.21564744141E+03  0.22125304233E+03  0.10000000000E+01 0.  0.
          4    1    1    2  501    0  0.29186102692E+02  0.64680014767E+01 -0.36881768670E+03  0.37002940769E+03  0.12700000000E+01 0.  1.
<mgrwt>
<rscale>  1 0.12852473E+03</rscale>
<asrwt>0</asrwt>
<pdfrwt beam="2">  1       21 0.13812031E+00 0.12852473E+03</pdfrwt>
<pdfrwt beam="1">  1        4 0.12956307E-02 0.12852473E+03</pdfrwt>
<totfact> 0.30227577E+04</totfact>
</mgrwt>
</event>
<event>
 6    3  0.7601760E-003  0.1994967E+03  0.7818608E-02  0.1150164E+00
         21   -1    0    0  501  502  0.00000000000E+00  0.00000000000E+00  0.19803092005E+03  0.19803092005E+03  0.00000000000E+00 0. -1.
         -4   -1    0    0    0  501 -0.00000000000E+00 -0.00000000000E+00 -0.18400723382E+03  0.18401161648E+03  0.12700000000E+01 0.  1.
         25    2    1    2    0    0 -0.94851711419E+01  0.15517492750E+03 -0.62097353082E+02  0.20893779332E+03  0.12501877308E+03 0.  0.
    9000005    1    3    3    0    0 -0.23629452402E+02  0.60654041702E+01  0.25595239982E+02  0.35373103600E+02  0.10000000000E+01 0.  0.
    9000005    1    3    3    0    0  0.14144281260E+02  0.14910952333E+03 -0.87692593064E+02  0.17356468972E+03  0.10000000000E+01 0.  0.
         -4    1    1    2    0  502  0.94851711419E+01 -0.15517492750E+03  0.76121039308E+02  0.17310474321E+03  0.12700000000E+01 0. -1.
<mgrwt>
<rscale>  1 0.19949667E+03</rscale>
<asrwt>0</asrwt>
<pdfrwt beam="1">  1       21 0.30466295E-01 0.19949667E+03</pdfrwt>
<pdfrwt beam="2">  1       -4 0.28309456E-01 0.19949667E+03</pdfrwt>
<totfact> 0.51670804E+03</totfact>
</mgrwt>
</event>
<event>
 6    3  0.7601760E-003  0.1324204E+03  0.7818608E-02  0.1223908E+00
         21   -1    0    0  501  502  0.00000000000E+00  0.00000000000E+00  0.10556801402E+03  0.10556801402E+03  0.00000000000E+00 0.  1.
         -4   -1    0    0    0  501 -0.00000000000E+00 -0.00000000000E+00 -0.34672400359E+03  0.34672632949E+03  0.12700000000E+01 0. -1.
         25    2    1    2    0    0  0.28730424170E+02  0.32893932551E+02 -0.32874472121E+03  0.35441254295E+03  0.12501084276E+03 0.  0.
    9000005    1    3    3    0    0  0.24477412495E+01  0.79143653101E+02 -0.20013679523E+03  0.21523346875E+03  0.10000000000E+01 0.  0.
    9000005    1    3    3    0    0  0.26282682920E+02 -0.46249720550E+02 -0.12860792598E+03  0.13917907420E+03  0.10000000000E+01 0.  0.
         -4    1    1    2    0  502 -0.28730424170E+02 -0.32893932551E+02  0.87588731634E+02  0.97881800560E+02  0.12700000000E+01 0.  1.
<mgrwt>
<rscale>  1 0.13242039E+03</rscale>
<asrwt>0</asrwt>
<pdfrwt beam="1">  1       21 0.16241233E-01 0.13242039E+03</pdfrwt>
<pdfrwt beam="2">  1       -4 0.53342921E-01 0.13242039E+03</pdfrwt>
<totfact> 0.47365309E+03</totfact>
</mgrwt>
</event>
<event>
 6    3  0.7601760E-003  0.2004098E+03  0.7818608E-02  0.1149394E+00
         21   -1    0    0  501  502  0.00000000000E+00  0.00000000000E+00  0.21039246105E+04  0.21039246105E+04  0.00000000000E+00 0.  1.
          4   -1    0    0  502    0 -0.00000000000E+00 -0.00000000000E+00 -0.58398252137E+02  0.58412059993E+02  0.12700000000E+01 0. -1.
         25    2    1    2    0    0 -0.42898223624E+02  0.15066206021E+03  0.12664604803E+03  0.23707238415E+03  0.12499911948E+03 0.  0.
    9000005    1    3    3    0    0 -0.74506890014E+01  0.16276391515E+03  0.10249244767E+03  0.19249235484E+03  0.10000000000E+01 0.  0.
    9000005    1    3    3    0    0 -0.35447534623E+02 -0.12101854939E+02  0.24153600357E+02  0.44580029318E+02  0.10000000000E+01 0.  0.
          4    1    1    2  501    0  0.42898223624E+02 -0.15066206021E+03  0.19188803104E+04  0.19252642864E+04  0.12700000000E+01 0.  1.
<mgrwt>
<rscale>  1 0.20040981E+03</rscale>
<asrwt>0</asrwt>
<pdfrwt beam="1">  1       21 0.32368065E+00 0.20040981E+03</pdfrwt>
<pdfrwt beam="2">  1        4 0.89854397E-02 0.20040981E+03</pdfrwt>
<totfact> 0.94757895E+01</totfact>
</mgrwt>
</event>
<event>
 6    3  0.7601760E-003  0.1440032E+03  0.7818608E-02  0.1208042E+00
          4   -1    0    0  502    0 -0.00000000000E+00  0.00000000000E+00  0.40731848449E+03  0.40732046438E+03  0.12700000000E+01 0.  1.
         21   -1    0    0  501  502  0.00000000000E+00 -0.00000000000E+00 -0.41928775272E+02  0.41928775272E+02  0.00000000000E+00 0. -1.
         25    2    1    2    0    0 -0.68594654528E+02  0.20160360518E+02  0.34658520174E+03  0.37531082496E+03  0.12500098600E+03 0.  0.
    9000005    1    3    3    0    0  0.25649173419E+02  0.24987203461E+02  0.18284691168E+03  0.18632292812E+03  0.10000000000E+01 0.  0.
    9000005    1    3    3    0    0 -0.94243827947E+02 -0.48268429431E+01  0.16373829006E+03  0.18898789684E+03  0.10000000000E+01 0.  0.
          4    1    1    2  501    0  0.68594654528E+02 -0.20160360518E+02  0.18804507475E+02  0.73938414694E+02  0.12700000000E+01 0. -1.
<mgrwt>
<rscale>  1 0.14400317E+03</rscale>
<asrwt>0</asrwt>
<pdfrwt beam="2">  1       21 0.64505811E-02 0.14400317E+03</pdfrwt>
<pdfrwt beam="1">  1        4 0.62666011E-01 0.14400317E+03</pdfrwt>
<totfact> 0.17262353E+04</totfact>
</mgrwt>
</event>
<event>
 6    3  0.7601760E-003  0.1290325E+03  0.7818608E-02  0.1228898E+00
         21   -1    0    0  501  502  0.00000000000E+00  0.00000000000E+00  0.17531609279E+02  0.17531609279E+02  0.00000000000E+00 0. -1.
          4   -1    0    0  502    0 -0.00000000000E+00 -0.00000000000E+00 -0.39207423196E+03  0.39207628883E+03  0.12700000000E+01 0.  1.
         25    2    1    2    0    0 -0.27997361567E+02 -0.15518684820E+02 -0.33315876283E+03  0.35727321946E+03  0.12499884104E+03 0.  0.
    9000005    1    3    3    0    0 -0.15834757043E+02 -0.75518511549E+01  0.54139563694E+01  0.18386976642E+02  0.10000000000E+01 0.  0.
    9000005    1    3    3    0    0 -0.12162604524E+02 -0.79668336655E+01 -0.33857271920E+03  0.33888624282E+03  0.10000000000E+01 0.  0.
          4    1    1    2  501    0  0.27997361567E+02  0.15518684820E+02 -0.41383859850E+02  0.52334678650E+02  0.12700000000E+01 0. -1.
<mgrwt>
<rscale>  1 0.12903252E+03</rscale>
<asrwt>0</asrwt>
<pdfrwt beam="1">  1       21 0.26971704E-02 0.12903252E+03</pdfrwt>
<pdfrwt beam="2">  1        4 0.60322815E-01 0.12903252E+03</pdfrwt>
<totfact> 0.79043484E+04</totfact>
</mgrwt>
</event>
<event>
 6    3  0.7601760E-003  0.1355727E+03  0.7818608E-02  0.1219414E+00
         21   -1    0    0  501  502  0.00000000000E+00  0.00000000000E+00  0.66907379369E+02  0.66907379369E+02  0.00000000000E+00 0. -1.
          4   -1    0    0  502    0 -0.00000000000E+00 -0.00000000000E+00 -0.30360174656E+03  0.30360440283E+03  0.12700000000E+01 0.  1.
         25    2    1    2    0    0 -0.42237119871E+02 -0.31177514796E+02 -0.27426460858E+03  0.30594284491E+03  0.12499574836E+03 0.  0.
    9000005    1    3    3    0    0 -0.81362071868E+01 -0.45846184789E+02 -0.26306417039E+03  0.26715506409E+03  0.10000000000E+01 0.  0.
    9000005    1    3    3    0    0 -0.34100912684E+02  0.14668669993E+02 -0.11200438195E+02  0.38787780821E+02  0.10000000000E+01 0.  0.
          4    1    1    2  501    0  0.42237119871E+02  0.31177514796E+02  0.37570241390E+02  0.64568937284E+02  0.12700000000E+01 0. -1.
<mgrwt>
<rscale>  1 0.13557267E+03</rscale>
<asrwt>0</asrwt>
<pdfrwt beam="1">  1       21 0.10293443E-01 0.13557267E+03</pdfrwt>
<pdfrwt beam="2">  1        4 0.46709092E-01 0.13557267E+03</pdfrwt>
<totfact> 0.14029826E+04</totfact>
</mgrwt>
</event>
<event>
 6    3  0.7601760E-003  0.1277712E+03  0.7818608E-02  0.1230801E+00
         -4   -1    0    0    0  501 -0.00000000000E+00  0.00000000000E+00  0.29970819758E+03  0.29971088835E+03  0.12700000000E+01 0. -1.
         21   -1    0    0  501  502  0.00000000000E+00 -0.00000000000E+00 -0.22718209358E+03  0.22718209358E+03  0.00000000000E+00 0.  1.
         25    2    1    2    0    0  0.18569901133E+02 -0.18855901885E+02  0.28523244954E+03  0.31254282775E+03  0.12500033056E+03 0.  0.
    9000005    1    3    3    0    0  0.12617047153E+02 -0.67210836122E+02  0.10101985760E+03  0.12199384411E+03  0.10000000000E+01 0.  0.
    9000005    1    3    3    0    0  0.59528539798E+01  0.48354934236E+02  0.18421259194E+03  0.19054898364E+03  0.10000000000E+01 0.  0.
         -4    1    1    2    0  502 -0.18569901133E+02  0.18855901885E+02 -0.21270634555E+03  0.21435015419E+03  0.12700000000E+01 0.  1.
<mgrwt>
<rscale>  1 0.12777116E+03</rscale>
<asrwt>0</asrwt>
<pdfrwt beam="2">  1       21 0.34951091E-01 0.12777116E+03</pdfrwt>
<pdfrwt beam="1">  1       -4 0.46109434E-01 0.12777116E+03</pdfrwt>
<totfact> 0.15001376E+03</totfact>
</mgrwt>
</event>
<event>
 6    3  0.7601760E-003  0.1312019E+03  0.7818608E-02  0.1225683E+00
         -4   -1    0    0    0  501 -0.00000000000E+00  0.00000000000E+00  0.59503149803E+02  0.59516701324E+02  0.12700000000E+01 0.  1.
         21   -1    0    0  501  502  0.00000000000E+00 -0.00000000000E+00 -0.12312037802E+03  0.12312037802E+03  0.00000000000E+00 0.  1.
         25    2    1    2    0    0  0.32633751402E+02 -0.22872129877E+02 -0.51729313237E+02  0.14103141292E+03  0.12500336606E+03 0.  0.
    9000005    1    3    3    0    0 -0.24917325827E+02  0.38913367931E+02 -0.24479592232E+02  0.52300800815E+02  0.10000000000E+01 0.  0.
    9000005    1    3    3    0    0  0.57551077229E+02 -0.61785497808E+02 -0.27249721004E+02  0.88730612104E+02  0.10000000000E+01 0.  0.
         -4    1    1    2    0  502 -0.32633751402E+02  0.22872129877E+02 -0.11887914976E+02  0.41605666419E+02  0.12700000000E+01 0. -1.
<mgrwt>
<rscale>  1 0.13120190E+03</rscale>
<asrwt>0</asrwt>
<pdfrwt beam="2">  1       21 0.18941596E-01 0.13120190E+03</pdfrwt>
<pdfrwt beam="1">  1       -4 0.91558771E-02 0.13120190E+03</pdfrwt>
<totfact> 0.90464611E+04</totfact>
</mgrwt>
</event>
<event>
 6    3  0.7601760E-003  0.1522373E+03  0.7818608E-02  0.1197750E+00
         21   -1    0    0  501  502  0.00000000000E+00  0.00000000000E+00  0.10064793844E+03  0.10064793844E+03  0.00000000000E+00 0. -1.
         -4   -1    0    0    0  501 -0.00000000000E+00 -0.00000000000E+00 -0.34756714047E+03  0.34756946073E+03  0.12700000000E+01 0.  1.
         25    2    1    2    0    0 -0.42364282806E+02 -0.75829480462E+02 -0.30694612180E+03  0.34262532295E+03  0.12502538811E+03 0.  0.
    9000005    1    3    3    0    0 -0.16475262062E+02 -0.10861834540E+03 -0.23523210160E+03  0.25962380638E+03  0.10000000000E+01 0.  0.
    9000005    1    3    3    0    0 -0.25889020744E+02  0.32788864939E+02 -0.71714020201E+02  0.83001516567E+02  0.10000000000E+01 0.  0.
         -4    1    1    2    0  502  0.42364282806E+02  0.75829480462E+02  0.60026919769E+02  0.10559207623E+03  0.12700000000E+01 0. -1.
<mgrwt>
<rscale>  1 0.15223728E+03</rscale>
<asrwt>0</asrwt>
<pdfrwt beam="1">  1       21 0.15484298E-01 0.15223728E+03</pdfrwt>
<pdfrwt beam="2">  1       -4 0.53472664E-01 0.15223728E+03</pdfrwt>
<totfact> 0.51875009E+03</totfact>
</mgrwt>
</event>
<event>
 6    3  0.7601760E-003  0.1396823E+03  0.7818608E-02  0.1213757E+00
          4   -1    0    0  502    0 -0.00000000000E+00  0.00000000000E+00  0.73128952646E+03  0.73129062923E+03  0.12700000000E+01 0.  1.
         21   -1    0    0  501  502  0.00000000000E+00 -0.00000000000E+00 -0.49084634201E+02  0.49084634201E+02  0.00000000000E+00 0. -1.
         25    2    1    2    0    0 -0.28334160151E+02  0.55524362662E+02  0.70137249933E+03  0.71514651562E+03  0.12500150602E+03 0.  0.
    9000005    1    3    3    0    0 -0.31352315668E+02  0.28596764519E+01  0.36617336607E+02  0.48300877708E+02  0.10000000000E+01 0.  0.
    9000005    1    3    3    0    0  0.30181555171E+01  0.52664686210E+02  0.66475516272E+03  0.66684563791E+03  0.10000000000E+01 0.  0.
          4    1    1    2  501    0  0.28334160151E+02 -0.55524362662E+02 -0.19167607075E+02  0.65228747815E+02  0.12700000000E+01 0. -1.
<mgrwt>
<rscale>  1 0.13968234E+03</rscale>
<asrwt>0</asrwt>
<pdfrwt beam="2">  1       21 0.75514828E-02 0.13968234E+03</pdfrwt>
<pdfrwt beam="1">  1        4 0.11250742E+00 0.13968234E+03</pdfrwt>
<totfact> 0.35486993E+03</totfact>
</mgrwt>
</event>
<event>
 6    3  0.7601760E-003  0.1336487E+03  0.7818608E-02  0.1222140E+00
          4   -1    0    0  502    0 -0.00000000000E+00  0.00000000000E+00  0.11861593911E+02  0.11929388505E+02  0.12700000000E+01 0. -1.
         21   -1    0    0  501  502  0.00000000000E+00 -0.00000000000E+00 -0.76678695413E+03  0.76678695413E+03  0.00000000000E+00 0.  1.
         25    2    1    2    0    0  0.47218438750E+02  0.28325740569E+01 -0.42792684851E+03  0.44831167561E+03  0.12499746548E+03 0.  0.
    9000005    1    3    3    0    0 -0.19124516390E+02  0.25679766470E+02 -0.30569120898E+03  0.30736511315E+03  0.10000000000E+01 0.  0.
    9000005    1    3    3    0    0  0.66342955140E+02 -0.22847192413E+02 -0.12223563954E+03  0.14094656246E+03  0.10000000000E+01 0.  0.
          4    1    1    2  501    0 -0.47218438750E+02 -0.28325740569E+01 -0.32699851170E+03  0.33040466702E+03  0.12700000000E+01 0.  1.
<mgrwt>
<rscale>  1 0.13364868E+03</rscale>
<asrwt>0</asrwt>
<pdfrwt beam="2">  1       21 0.11796721E+00 0.13364868E+03</pdfrwt>
<pdfrwt beam="1">  1        4 0.18301566E-02 0.13364868E+03</pdfrwt>
<totfact> 0.26469459E+04</totfact>
</mgrwt>
</event>
<event>
 6    3  0.7601760E-003  0.1290639E+03  0.7818608E-02  0.1228851E+00
         -4   -1    0    0    0  501 -0.00000000000E+00  0.00000000000E+00  0.87542266604E+02  0.87551478240E+02  0.12700000000E+01 0.  1.
         21   -1    0    0  501  502  0.00000000000E+00 -0.00000000000E+00 -0.82444817616E+02  0.82444817616E+02  0.00000000000E+00 0.  1.
         25    2    1    2    0    0 -0.31911486587E+02  0.37851385027E+01  0.25977596462E+02  0.13165227796E+03  0.12499926610E+03 0.  0.
    9000005    1    3    3    0    0 -0.55647697073E+01 -0.44467298613E+02  0.53801137305E+02  0.70027635139E+02  0.10000000000E+01 0.  0.
    9000005    1    3    3    0    0 -0.26346716880E+02  0.48252437116E+02 -0.27823540843E+02  0.61624642823E+02  0.10000000000E+01 0.  0.
         -4    1    1    2    0  502  0.31911486587E+02 -0.37851385027E+01 -0.20880147475E+02  0.38344017894E+02  0.12700000000E+01 0. -1.
<mgrwt>
<rscale>  1 0.12906389E+03</rscale>
<asrwt>0</asrwt>
<pdfrwt beam="2">  1       21 0.12683818E-01 0.12906389E+03</pdfrwt>
<pdfrwt beam="1">  1       -4 0.13469502E-01 0.12906389E+03</pdfrwt>
<totfact> 0.96770467E+04</totfact>
</mgrwt>
</event>
<event>
 6    3  0.7601760E-003  0.1286744E+03  0.7818608E-02  0.1229436E+00
          4   -1    0    0  502    0 -0.00000000000E+00  0.00000000000E+00  0.25391978049E+03  0.25392295648E+03  0.12700000000E+01 0.  1.
         21   -1    0    0  501  502  0.00000000000E+00 -0.00000000000E+00 -0.26879887281E+02  0.26879887281E+02  0.00000000000E+00 0.  1.
         25    2    1    2    0    0 -0.68130706661E+00  0.30535260913E+02  0.20862561841E+03  0.24511580473E+03  0.12499697089E+03 0.  0.
    9000005    1    3    3    0    0 -0.11947277227E+02  0.73100971312E+02  0.17393161507E+03  0.18904945427E+03  0.10000000000E+01 0.  0.
    9000005    1    3    3    0    0  0.11265970160E+02 -0.42565710399E+02  0.34694003343E+02  0.56066350455E+02  0.10000000000E+01 0.  0.
          4    1    1    2  501    0  0.68130706661E+00 -0.30535260913E+02  0.18414274800E+02  0.35687039030E+02  0.12700000000E+01 0. -1.
<mgrwt>
<rscale>  1 0.12867443E+03</rscale>
<asrwt>0</asrwt>
<pdfrwt beam="2">  1       21 0.41353675E-02 0.12867443E+03</pdfrwt>
<pdfrwt beam="1">  1        4 0.39067132E-01 0.12867443E+03</pdfrwt>
<totfact> 0.94230246E+04</totfact>
</mgrwt>
</event>
<event>
 6    3  0.7601760E-003  0.1268639E+03  0.7818608E-02  0.1232185E+00
         21   -1    0    0  501  502  0.00000000000E+00  0.00000000000E+00  0.13997427462E+03  0.13997427462E+03  0.00000000000E+00 0.  1.
         -4   -1    0    0    0  501 -0.00000000000E+00 -0.00000000000E+00 -0.49348974072E+02  0.49365313145E+02  0.12700000000E+01 0.  1.
         25    2    1    2    0    0  0.21387268856E+02  0.34642116517E+01  0.38028516843E+02  0.13244098859E+03  0.12500012534E+03 0.  0.
    9000005    1    3    3    0    0 -0.15364572339E+02  0.42283099621E+02  0.59691642763E+02  0.74753078950E+02  0.10000000000E+01 0.  0.
    9000005    1    3    3    0    0  0.36751841195E+02 -0.38818887970E+02 -0.21663125920E+02  0.57687909644E+02  0.10000000000E+01 0.  0.
         -4    1    1    2    0  502 -0.21387268856E+02 -0.34642116517E+01  0.52596783706E+02  0.56898599172E+02  0.12700000000E+01 0. -1.
<mgrwt>
<rscale>  1 0.12686389E+03</rscale>
<asrwt>0</asrwt>
<pdfrwt beam="1">  1       21 0.21534504E-01 0.12686389E+03</pdfrwt>
<pdfrwt beam="2">  1       -4 0.75938500E-02 0.12686389E+03</pdfrwt>
<totfact> 0.96878604E+04</totfact>
</mgrwt>
</event>
<event>
 6    3  0.7601760E-003  0.1299157E+03  0.7818608E-02  0.1227581E+00
         21   -1    0    0  501  502  0.00000000000E+00  0.00000000000E+00  0.24261608971E+03  0.24261608971E+03  0.00000000000E+00 0. -1.
         -4   -1    0    0    0  501 -0.00000000000E+00 -0.00000000000E+00 -0.37923356345E+02  0.37944615645E+02  0.12700000000E+01 0.  1.
         25    2    1    2    0    0  0.20749292726E+02 -0.28671329910E+02  0.83824976658E+02  0.15461148615E+03  0.12500202650E+03 0.  0.
    9000005    1    3    3    0    0  0.60837993499E+02  0.17505636463E+02  0.64716496572E+02  0.90536918930E+02  0.10000000000E+01 0.  0.
    9000005    1    3    3    0    0 -0.40088700772E+02 -0.46176966372E+02  0.19108480086E+02  0.64074567218E+02  0.10000000000E+01 0.  0.
         -4    1    1    2    0  502 -0.20749292726E+02  0.28671329910E+02  0.12086775671E+03  0.12594921921E+03  0.12700000000E+01 0. -1.
<mgrwt>
<rscale>  1 0.12991568E+03</rscale>
<asrwt>0</asrwt>
<pdfrwt beam="1">  1       21 0.37325551E-01 0.12991568E+03</pdfrwt>
<pdfrwt beam="2">  1       -4 0.58362537E-02 0.12991568E+03</pdfrwt>
<totfact> 0.52038982E+04</totfact>
</mgrwt>
</event>
<event>
 6    3  0.7601760E-003  0.1329231E+03  0.7818608E-02  0.1223182E+00
         21   -1    0    0  501  502  0.00000000000E+00  0.00000000000E+00  0.13585368964E+03  0.13585368964E+03  0.00000000000E+00 0.  1.
         -4   -1    0    0    0  501 -0.00000000000E+00 -0.00000000000E+00 -0.10243444255E+03  0.10244231508E+03  0.12700000000E+01 0. -1.
         25    2    1    2    0    0  0.19259037287E+02 -0.40889846115E+02 -0.51128119677E+02  0.14241712196E+03  0.12500264786E+03 0.  0.
    9000005    1    3    3    0    0  0.17415332863E+02 -0.30216706890E+02 -0.92908622176E+02  0.99243918044E+02  0.10000000000E+01 0.  0.
    9000005    1    3    3    0    0  0.18437044238E+01 -0.10673139224E+02  0.41780502499E+02  0.43173203911E+02  0.10000000000E+01 0.  0.
         -4    1    1    2    0  502 -0.19259037287E+02  0.40889846115E+02  0.84547366770E+02  0.95878882765E+02  0.12700000000E+01 0.  1.
<mgrwt>
<rscale>  1 0.13292311E+03</rscale>
<asrwt>0</asrwt>
<pdfrwt beam="1">  1       21 0.20900568E-01 0.13292311E+03</pdfrwt>
<pdfrwt beam="2">  1       -4 0.15760207E-01 0.13292311E+03</pdfrwt>
<totfact> 0.29826500E+04</totfact>
</mgrwt>
</event>
<event>
 6    3  0.7601760E-003  0.1746567E+03  0.7818608E-02  0.1173077E+00
         21   -1    0    0  501  502  0.00000000000E+00  0.00000000000E+00  0.78354351200E+03  0.78354351200E+03  0.00000000000E+00 0.  1.
          4   -1    0    0  502    0 -0.00000000000E+00 -0.00000000000E+00 -0.47212770192E+02  0.47229848287E+02  0.12700000000E+01 0. -1.
         25    2    1    2    0    0  0.21981365752E+02 -0.11998723384E+03  0.14503417170E+03  0.22702393921E+03  0.12499936516E+03 0.  0.
    9000005    1    3    3    0    0  0.72616660170E+02 -0.87840639555E+02  0.10447259060E+03  0.15461138211E+03  0.10000000000E+01 0.  0.
    9000005    1    3    3    0    0 -0.50635294418E+02 -0.32146594285E+02  0.40561581098E+02  0.72412557102E+02  0.10000000000E+01 0.  0.
          4    1    1    2  501    0 -0.21981365752E+02  0.11998723384E+03  0.59129657011E+03  0.60374942107E+03  0.12700000000E+01 0.  1.
<mgrwt>
<rscale>  1 0.17465669E+03</rscale>
<asrwt>0</asrwt>
<pdfrwt beam="1">  1       21 0.12054515E+00 0.17465669E+03</pdfrwt>
<pdfrwt beam="2">  1        4 0.72648966E-02 0.17465669E+03</pdfrwt>
<totfact> 0.28454265E+03</totfact>
</mgrwt>
</event>
<event>
 6    3  0.7601760E-003  0.1344801E+03  0.7818608E-02  0.1220956E+00
         21   -1    0    0  501  502  0.00000000000E+00  0.00000000000E+00  0.27555529875E+02  0.27555529875E+02  0.00000000000E+00 0. -1.
          4   -1    0    0  502    0 -0.00000000000E+00 -0.00000000000E+00 -0.67777796062E+03  0.67777915047E+03  0.12700000000E+01 0.  1.
         25    2    1    2    0    0  0.14564965944E+02  0.47414944228E+02 -0.64088951774E+03  0.65484674778E+03  0.12499829583E+03 0.  0.
    9000005    1    3    3    0    0 -0.49043681441E+02  0.48013420468E+02 -0.39141750639E+03  0.39739053278E+03  0.10000000000E+01 0.  0.
    9000005    1    3    3    0    0  0.63608647385E+02 -0.59847623908E+00 -0.24947201135E+03  0.25745621500E+03  0.10000000000E+01 0.  0.
          4    1    1    2  501    0 -0.14564965944E+02 -0.47414944228E+02 -0.93329130102E+01  0.50487932562E+02  0.12700000000E+01 0. -1.
<mgrwt>
<rscale>  1 0.13448007E+03</rscale>
<asrwt>0</asrwt>
<pdfrwt beam="1">  1       21 0.42393125E-02 0.13448007E+03</pdfrwt>
<pdfrwt beam="2">  1        4 0.10427587E+00 0.13448007E+03</pdfrwt>
<totfact> 0.11246475E+04</totfact>
</mgrwt>
</event>
<event>
 6    3  0.7601760E-003  0.1269629E+03  0.7818608E-02  0.1232033E+00
          4   -1    0    0  502    0 -0.00000000000E+00  0.00000000000E+00  0.93948320653E+02  0.93956904235E+02  0.12700000000E+01 0.  1.
         21   -1    0    0  501  502  0.00000000000E+00 -0.00000000000E+00 -0.59333557057E+02  0.59333557057E+02  0.00000000000E+00 0.  1.
         25    2    1    2    0    0 -0.10019425855E+02 -0.19616345291E+02  0.25958108781E+02  0.12958939656E+03  0.12503758791E+03 0.  0.
    9000005    1    3    3    0    0 -0.51599899205E+02 -0.40012484593E+02  0.45207811796E+02  0.79424774275E+02  0.10000000000E+01 0.  0.
    9000005    1    3    3    0    0  0.41580473350E+02  0.20396139301E+02 -0.19249703015E+02  0.50164622281E+02  0.10000000000E+01 0.  0.
          4    1    1    2  501    0  0.10019425855E+02  0.19616345291E+02  0.86566548147E+01  0.23701064736E+02  0.12700000000E+01 0. -1.
<mgrwt>
<rscale>  1 0.12696294E+03</rscale>
<asrwt>0</asrwt>
<pdfrwt beam="2">  1       21 0.91282396E-02 0.12696294E+03</pdfrwt>
<pdfrwt beam="1">  1        4 0.14455293E-01 0.12696294E+03</pdfrwt>
<totfact> 0.15230339E+05</totfact>
</mgrwt>
</event>
<event>
 6    3  0.7601760E-003  0.1357417E+03  0.7818608E-02  0.1219176E+00
         21   -1    0    0  501  502  0.00000000000E+00  0.00000000000E+00  0.14330005667E+02  0.14330005667E+02  0.00000000000E+00 0.  1.
          4   -1    0    0  502    0 -0.00000000000E+00 -0.00000000000E+00 -0.75612999034E+03  0.75613105688E+03  0.12700000000E+01 0.  1.
         25    2    1    2    0    0 -0.14691347863E+02  0.50849027955E+02 -0.65395914070E+03  0.66789846647E+03  0.12499737782E+03 0.  0.
    9000005    1    3    3    0    0  0.21625709468E+02 -0.33410357594E+02 -0.28160034945E+03  0.28440056278E+03  0.10000000000E+01 0.  0.
    9000005    1    3    3    0    0 -0.36317057331E+02  0.84259385549E+02 -0.37235879125E+03  0.38349790368E+03  0.10000000000E+01 0.  0.
          4    1    1    2  501    0  0.14691347863E+02 -0.50849027955E+02 -0.87840843973E+02  0.10256259609E+03  0.12700000000E+01 0. -1.
<mgrwt>
<rscale>  1 0.13574168E+03</rscale>
<asrwt>0</asrwt>
<pdfrwt beam="1">  1       21 0.22046158E-02 0.13574168E+03</pdfrwt>
<pdfrwt beam="2">  1        4 0.11633212E+00 0.13574168E+03</pdfrwt>
<totfact> 0.25477171E+04</totfact>
</mgrwt>
</event>
<event>
 6    3  0.7601760E-003  0.1307738E+03  0.7818608E-02  0.1226312E+00
          4   -1    0    0  502    0 -0.00000000000E+00  0.00000000000E+00  0.43837791125E+03  0.43837975087E+03  0.12700000000E+01 0.  1.
         21   -1    0    0  501  502  0.00000000000E+00 -0.00000000000E+00 -0.34016990913E+02  0.34016990913E+02  0.00000000000E+00 0.  1.
         25    2    1    2    0    0 -0.31795048803E+02  0.21656538096E+02  0.41277639393E+03  0.43299669271E+03  0.12498741435E+03 0.  0.
    9000005    1    3    3    0    0 -0.22252489843E+02 -0.46155906748E+02  0.95190907543E+02  0.10811035987E+03  0.10000000000E+01 0.  0.
    9000005    1    3    3    0    0 -0.95425589599E+01  0.67812444844E+02  0.31758548638E+03  0.32488633285E+03  0.10000000000E+01 0.  0.
          4    1    1    2  501    0  0.31795048803E+02 -0.21656538096E+02 -0.84154735936E+01  0.39400049067E+02  0.12700000000E+01 0. -1.
<mgrwt>
<rscale>  1 0.13077379E+03</rscale>
<asrwt>0</asrwt>
<pdfrwt beam="2">  1       21 0.52333835E-02 0.13077379E+03</pdfrwt>
<pdfrwt beam="1">  1        4 0.67444717E-01 0.13077379E+03</pdfrwt>
<totfact> 0.20834150E+04</totfact>
</mgrwt>
</event>
<event>
 6    3  0.7601760E-003  0.1266611E+03  0.7818608E-02  0.1232496E+00
         -4   -1    0    0    0  501 -0.00000000000E+00  0.00000000000E+00  0.44232566296E+02  0.44250794581E+02  0.12700000000E+01 0. -1.
         21   -1    0    0  501  502  0.00000000000E+00 -0.00000000000E+00 -0.13899478430E+03  0.13899478430E+03  0.00000000000E+00 0. -1.
         25    2    1    2    0    0 -0.19654157919E+02 -0.57340714774E+01 -0.54157556844E+02  0.13775363556E+03  0.12499543051E+03 0.  0.
    9000005    1    3    3    0    0  0.21739288639E+02 -0.44911205060E+02  0.11079826939E+02  0.51121185193E+02  0.10000000000E+01 0.  0.
    9000005    1    3    3    0    0 -0.41393446558E+02  0.39177133583E+02 -0.65237383783E+02  0.86632450367E+02  0.10000000000E+01 0.  0.
         -4    1    1    2    0  502  0.19654157919E+02  0.57340714774E+01 -0.40604661162E+02  0.45491943323E+02  0.12700000000E+01 0.  1.
<mgrwt>
<rscale>  1 0.12666106E+03</rscale>
<asrwt>0</asrwt>
<pdfrwt beam="2">  1       21 0.21383813E-01 0.12666106E+03</pdfrwt>
<pdfrwt beam="1">  1       -4 0.68068587E-02 0.12666106E+03</pdfrwt>
<totfact> 0.11744459E+05</totfact>
</mgrwt>
</event>
<event>
 6    3  0.7601760E-003  0.1352553E+03  0.7818608E-02  0.1219860E+00
         21   -1    0    0  501  502  0.00000000000E+00  0.00000000000E+00  0.61596298677E+02  0.61596298677E+02  0.00000000000E+00 0.  1.
         -4   -1    0    0    0  501 -0.00000000000E+00 -0.00000000000E+00 -0.28899830692E+03  0.28900109740E+03  0.12700000000E+01 0. -1.
         25    2    1    2    0    0  0.50477657388E+02 -0.10986902304E+02 -0.25745301878E+03  0.29081962386E+03  0.12500116330E+03 0.  0.
    9000005    1    3    3    0    0  0.80871834055E+02 -0.41896010023E+02 -0.18873411047E+03  0.20956405620E+03  0.10000000000E+01 0.  0.
    9000005    1    3    3    0    0 -0.30394176667E+02  0.30909107718E+02 -0.68718908311E+02  0.81255567653E+02  0.10000000000E+01 0.  0.
         -4    1    1    2    0  502 -0.50477657388E+02  0.10986902304E+02  0.30051010538E+02  0.59777772223E+02  0.12700000000E+01 0.  1.
<mgrwt>
<rscale>  1 0.13525530E+03</rscale>
<asrwt>0</asrwt>
<pdfrwt beam="1">  1       21 0.94763536E-02 0.13525530E+03</pdfrwt>
<pdfrwt beam="2">  1       -4 0.44462500E-01 0.13525530E+03</pdfrwt>
<totfact> 0.17897316E+04</totfact>
</mgrwt>
</event>
<event>
 6    3  0.7601760E-003  0.1367143E+03  0.7818608E-02  0.1217820E+00
         21   -1    0    0  501  502  0.00000000000E+00  0.00000000000E+00  0.13892169784E+03  0.13892169784E+03  0.00000000000E+00 0.  1.
         -4   -1    0    0    0  501 -0.00000000000E+00 -0.00000000000E+00 -0.28193948359E+03  0.28194234394E+03  0.12700000000E+01 0. -1.
         25    2    1    2    0    0 -0.26914533086E+02  0.48383442200E+02 -0.25870341538E+03  0.29260599185E+03  0.12500183905E+03 0.  0.
    9000005    1    3    3    0    0 -0.55083184754E+02 -0.14893304822E+02 -0.17436352832E+03  0.18346554930E+03  0.10000000000E+01 0.  0.
    9000005    1    3    3    0    0  0.28168651668E+02  0.63276747022E+02 -0.84339887061E+02  0.10914044255E+03  0.10000000000E+01 0.  0.
         -4    1    1    2    0  502  0.26914533086E+02 -0.48383442200E+02  0.11568562963E+03  0.12825804993E+03  0.12700000000E+01 0.  1.
<mgrwt>
<rscale>  1 0.13671433E+03</rscale>
<asrwt>0</asrwt>
<pdfrwt beam="1">  1       21 0.21372569E-01 0.13671433E+03</pdfrwt>
<pdfrwt beam="2">  1       -4 0.43375972E-01 0.13671433E+03</pdfrwt>
<totfact> 0.43543994E+03</totfact>
</mgrwt>
</event>
<event>
 6    3  0.7601760E-003  0.1350775E+03  0.7818608E-02  0.1220110E+00
         -4   -1    0    0    0  501 -0.00000000000E+00  0.00000000000E+00  0.20098141865E+03  0.20098543117E+03  0.12700000000E+01 0. -1.
         21   -1    0    0  501  502  0.00000000000E+00 -0.00000000000E+00 -0.46067988590E+02  0.46067988590E+02  0.00000000000E+00 0. -1.
         25    2    1    2    0    0 -0.12093267801E+02 -0.49743693029E+02  0.13804537868E+03  0.19313842946E+03  0.12500097693E+03 0.  0.
    9000005    1    3    3    0    0 -0.16316326346E+02  0.40240295265E+02  0.31745622830E+02  0.53798591406E+02  0.10000000000E+01 0.  0.
    9000005    1    3    3    0    0  0.42230585450E+01 -0.89983988294E+02  0.10629975585E+03  0.13933983805E+03  0.10000000000E+01 0.  0.
         -4    1    1    2    0  502  0.12093267801E+02  0.49743693029E+02  0.16868051374E+02  0.53914990304E+02  0.12700000000E+01 0.  1.
<mgrwt>
<rscale>  1 0.13507748E+03</rscale>
<asrwt>0</asrwt>
<pdfrwt beam="2">  1       21 0.70873830E-02 0.13507748E+03</pdfrwt>
<pdfrwt beam="1">  1       -4 0.30921873E-01 0.13507748E+03</pdfrwt>
<totfact> 0.59963254E+04</totfact>
</mgrwt>
</event>
<event>
 6    3  0.7601760E-003  0.1343394E+03  0.7818608E-02  0.1221155E+00
         21   -1    0    0  501  502  0.00000000000E+00  0.00000000000E+00  0.49715538170E+02  0.49715538170E+02  0.00000000000E+00 0.  1.
          4   -1    0    0  502    0 -0.00000000000E+00 -0.00000000000E+00 -0.56813997859E+03  0.56814139804E+03  0.12700000000E+01 0. -1.
         25    2    1    2    0    0  0.47925128942E+02 -0.11197810450E+02 -0.54541205092E+03  0.56171289856E+03  0.12499946474E+03 0.  0.
    9000005    1    3    3    0    0  0.61081893624E+01 -0.15095988999E+01  0.59287278182E+01  0.87027972324E+01  0.10000000000E+01 0.  0.
    9000005    1    3    3    0    0  0.41816939580E+02 -0.96882115497E+01 -0.55134077874E+03  0.55301010133E+03  0.10000000000E+01 0.  0.
          4    1    1    2  501    0 -0.47925128942E+02  0.11197810450E+02  0.26987610500E+02  0.56144037648E+02  0.12700000000E+01 0.  1.
<mgrwt>
<rscale>  1 0.13433940E+03</rscale>
<asrwt>0</asrwt>
<pdfrwt beam="1">  1       21 0.76485445E-02 0.13433940E+03</pdfrwt>
<pdfrwt beam="2">  1        4 0.87407506E-01 0.13433940E+03</pdfrwt>
<totfact> 0.62003159E+03</totfact>
</mgrwt>
</event>
<event>
 6    3  0.7601760E-003  0.1334879E+03  0.7818608E-02  0.1222370E+00
          4   -1    0    0  502    0 -0.00000000000E+00  0.00000000000E+00  0.26121811678E+04  0.26121814765E+04  0.12700000000E+01 0.  1.
         21   -1    0    0  501  502  0.00000000000E+00 -0.00000000000E+00 -0.32240711817E+01  0.32240711817E+01  0.00000000000E+00 0. -1.
         25    2    1    2    0    0 -0.31034553781E+02  0.35145713236E+02  0.21221021875E+04  0.21262964800E+04  0.12498264663E+03 0.  0.
    9000005    1    3    3    0    0 -0.78854832978E+02  0.12232455274E+02  0.11702988590E+04  0.11730166823E+04  0.10000000000E+01 0.  0.
    9000005    1    3    3    0    0  0.47820279197E+02  0.22913257961E+02  0.95180332858E+03  0.95327979774E+03  0.10000000000E+01 0.  0.
          4    1    1    2  501    0  0.31034553781E+02 -0.35145713236E+02  0.48685490908E+03  0.48910906768E+03  0.12700000000E+01 0. -1.
<mgrwt>
<rscale>  1 0.13348793E+03</rscale>
<asrwt>0</asrwt>
<pdfrwt beam="2">  1       21 0.49601304E-03 0.13348793E+03</pdfrwt>
<pdfrwt beam="1">  1        4 0.40189160E+00 0.13348793E+03</pdfrwt>
<totfact> 0.41109572E+03</totfact>
</mgrwt>
</event>
<event>
 6    3  0.7601760E-003  0.1288509E+03  0.7818608E-02  0.1229171E+00
         21   -1    0    0  501  502  0.00000000000E+00  0.00000000000E+00  0.15451745611E+04  0.15451745611E+04  0.00000000000E+00 0. -1.
          4   -1    0    0  502    0 -0.00000000000E+00 -0.00000000000E+00 -0.37426400763E+02  0.37447942187E+02  0.12700000000E+01 0.  1.
         25    2    1    2    0    0  0.10343157428E+02 -0.29504994628E+02  0.74110903140E+02  0.14864379921E+03  0.12500010987E+03 0.  0.
    9000005    1    3    3    0    0  0.42374984410E+02 -0.20062162746E+02  0.97275486823E+02  0.10798911989E+03  0.10000000000E+01 0.  0.
    9000005    1    3    3    0    0 -0.32031826982E+02 -0.94428318820E+01 -0.23164583683E+02  0.40654679324E+02  0.10000000000E+01 0.  0.
          4    1    1    2  501    0 -0.10343157428E+02  0.29504994628E+02  0.14336372572E+04  0.14339787041E+04  0.12700000000E+01 0. -1.
<mgrwt>
<rscale>  1 0.12885089E+03</rscale>
<asrwt>0</asrwt>
<pdfrwt beam="1">  1       21 0.23771911E+00 0.12885089E+03</pdfrwt>
<pdfrwt beam="2">  1        4 0.57596062E-02 0.12885089E+03</pdfrwt>
<totfact> 0.64347365E+02</totfact>
</mgrwt>
</event>
<event>
 6    3  0.7601760E-003  0.1272730E+03  0.7818608E-02  0.1231559E+00
          4   -1    0    0  502    0 -0.00000000000E+00  0.00000000000E+00  0.10352506391E+03  0.10353285352E+03  0.12700000000E+01 0.  1.
         21   -1    0    0  501  502  0.00000000000E+00 -0.00000000000E+00 -0.55796008019E+02  0.55796008019E+02  0.00000000000E+00 0.  1.
         25    2    1    2    0    0 -0.19300866935E+02 -0.14239427501E+02  0.45682229339E+02  0.13522311204E+03  0.12499255654E+03 0.  0.
    9000005    1    3    3    0    0 -0.51016530894E+02  0.27959985230E+02 -0.93816897369E+01  0.58936095059E+02  0.10000000000E+01 0.  0.
    9000005    1    3    3    0    0  0.31715663959E+02 -0.42199412732E+02  0.55063919076E+02  0.76287016977E+02  0.10000000000E+01 0.  0.
          4    1    1    2  501    0  0.19300866935E+02  0.14239427501E+02  0.20468265512E+01  0.24105749499E+02  0.12700000000E+01 0. -1.
<mgrwt>
<rscale>  1 0.12727303E+03</rscale>
<asrwt>0</asrwt>
<pdfrwt beam="2">  1       21 0.85840013E-02 0.12727303E+03</pdfrwt>
<pdfrwt beam="1">  1        4 0.15928644E-01 0.12727303E+03</pdfrwt>
<totfact> 0.14308612E+05</totfact>
</mgrwt>
</event>
<event>
 6    3  0.7601760E-003  0.1282299E+03  0.7818608E-02  0.1230106E+00
         21   -1    0    0  501  502  0.00000000000E+00  0.00000000000E+00  0.41111326118E+03  0.41111326118E+03  0.00000000000E+00 0.  1.
         -4   -1    0    0    0  501 -0.00000000000E+00 -0.00000000000E+00 -0.17062454846E+02  0.17109654157E+02  0.12700000000E+01 0.  1.
         25    2    1    2    0    0  0.28581748038E+02  0.93339546636E+00  0.24583665543E+03  0.27726982667E+03  0.12500043233E+03 0.  0.
    9000005    1    3    3    0    0  0.45355779770E+02  0.45815645464E+02  0.70660430736E+02  0.95656241822E+02  0.10000000000E+01 0.  0.
    9000005    1    3    3    0    0 -0.16774031732E+02 -0.44882249997E+02  0.17517622469E+03  0.18161358485E+03  0.10000000000E+01 0.  0.
         -4    1    1    2    0  502 -0.28581748038E+02 -0.93339546636E+00  0.14821415091E+03  0.15095308867E+03  0.12700000000E+01 0. -1.
<mgrwt>
<rscale>  1 0.12822985E+03</rscale>
<asrwt>0</asrwt>
<pdfrwt beam="1">  1       21 0.63248186E-01 0.12822985E+03</pdfrwt>
<pdfrwt beam="2">  1       -4 0.26287750E-02 0.12822985E+03</pdfrwt>
<totfact> 0.62224505E+04</totfact>
</mgrwt>
</event>
<event>
 6    3  0.7601760E-003  0.1277511E+03  0.7818608E-02  0.1230831E+00
         -4   -1    0    0    0  501 -0.00000000000E+00  0.00000000000E+00  0.45634785652E+02  0.45652454057E+02  0.12700000000E+01 0. -1.
         21   -1    0    0  501  502  0.00000000000E+00 -0.00000000000E+00 -0.17737316361E+03  0.17737316361E+03  0.00000000000E+00 0.  1.
         25    2    1    2    0    0 -0.26016783439E+02 -0.42839553201E+01 -0.50097057657E+02  0.13722268430E+03  0.12500049843E+03 0.  0.
    9000005    1    3    3    0    0 -0.54789106343E+02 -0.35610368321E+02  0.73188050383E+01  0.65761002220E+02  0.10000000000E+01 0.  0.
    9000005    1    3    3    0    0  0.28772322903E+02  0.31326413001E+02 -0.57415862695E+02  0.71461682081E+02  0.10000000000E+01 0.  0.
         -4    1    1    2    0  502  0.26016783439E+02  0.42839553201E+01 -0.81641320297E+02  0.85802933362E+02  0.12700000000E+01 0.  1.
<mgrwt>
<rscale>  1 0.12775112E+03</rscale>
<asrwt>0</asrwt>
<pdfrwt beam="2">  1       21 0.27288179E-01 0.12775112E+03</pdfrwt>
<pdfrwt beam="1">  1       -4 0.70224451E-02 0.12775112E+03</pdfrwt>
<totfact> 0.70597555E+04</totfact>
</mgrwt>
</event>
<event>
 6    3  0.7601760E-003  0.1266061E+03  0.7818608E-02  0.1232580E+00
          4   -1    0    0  502    0 -0.00000000000E+00  0.00000000000E+00  0.18799595876E+04  0.18799600166E+04  0.12700000000E+01 0. -1.
         21   -1    0    0  501  502  0.00000000000E+00 -0.00000000000E+00 -0.52932200883E+01  0.52932200883E+01  0.00000000000E+00 0.  1.
         25    2    1    2    0    0  0.19967468565E+02  0.24157464874E+01  0.18452922017E+04  0.18496303487E+04  0.12499832561E+03 0.  0.
    9000005    1    3    3    0    0  0.21866742343E+02 -0.40320761969E+02  0.15983400254E+04  0.15989983600E+04  0.10000000000E+01 0.  0.
    9000005    1    3    3    0    0 -0.18992737780E+01  0.42736508456E+02  0.24695217629E+03  0.25063198872E+03  0.10000000000E+01 0.  0.
          4    1    1    2  501    0 -0.19967468565E+02 -0.24157464874E+01  0.29374165794E+02  0.35622887981E+02  0.12700000000E+01 0.  1.
<mgrwt>
<rscale>  1 0.12660615E+03</rscale>
<asrwt>0</asrwt>
<pdfrwt beam="2">  1       21 0.81434306E-03 0.12660615E+03</pdfrwt>
<pdfrwt beam="1">  1        4 0.28923577E+00 0.12660615E+03</pdfrwt>
<totfact> 0.91929992E+03</totfact>
</mgrwt>
</event>
<event>
 6    3  0.7601760E-003  0.1333128E+03  0.7818608E-02  0.1222621E+00
          4   -1    0    0  502    0 -0.00000000000E+00  0.00000000000E+00  0.69347050869E+02  0.69358679083E+02  0.12700000000E+01 0. -1.
         21   -1    0    0  501  502  0.00000000000E+00 -0.00000000000E+00 -0.61591209441E+03  0.61591209441E+03  0.00000000000E+00 0.  1.
         25    2    1    2    0    0 -0.13492422430E+02  0.44346497952E+02  0.33982001038E+01  0.13335607030E+03  0.12499454539E+03 0.  0.
    9000005    1    3    3    0    0 -0.21130754086E+02 -0.41359828989E+02  0.81842395370E+01  0.47171241228E+02  0.10000000000E+01 0.  0.
    9000005    1    3    3    0    0  0.76383316562E+01  0.85706326941E+02 -0.47860394333E+01  0.86184829069E+02  0.10000000000E+01 0.  0.
          4    1    1    2  501    0  0.13492422430E+02 -0.44346497952E+02 -0.54996324365E+03  0.55191470320E+03  0.12700000000E+01 0.  1.
<mgrwt>
<rscale>  1 0.13331277E+03</rscale>
<asrwt>0</asrwt>
<pdfrwt beam="2">  1       21 0.94755711E-01 0.13331277E+03</pdfrwt>
<pdfrwt beam="1">  1        4 0.10669772E-01 0.13331277E+03</pdfrwt>
<totfact> 0.26407719E+03</totfact>
</mgrwt>
</event>
<event>
 6    3  0.7601760E-003  0.1298061E+03  0.7818608E-02  0.1227744E+00
         21   -1    0    0  501  502  0.00000000000E+00  0.00000000000E+00  0.16654988233E+04  0.16654988233E+04  0.00000000000E+00 0.  1.
          4   -1    0    0  502    0 -0.00000000000E+00 -0.00000000000E+00 -0.41329465095E+01  0.43236728426E+01  0.12700000000E+01 0.  1.
         25    2    1    2    0    0 -0.92341362960E+01  0.33754230199E+02  0.11613187496E+04  0.11685507538E+04  0.12500003510E+03 0.  0.
    9000005    1    3    3    0    0 -0.56402857135E+02 -0.14515131043E+02  0.68520493659E+03  0.68767636026E+03  0.10000000000E+01 0.  0.
    9000005    1    3    3    0    0  0.47168720839E+02  0.48269361242E+02  0.47611381301E+03  0.48087439358E+03  0.10000000000E+01 0.  0.
          4    1    1    2  501    0  0.92341362960E+01 -0.33754230199E+02  0.50004712719E+03  0.50127174231E+03  0.12700000000E+01 0. -1.
<mgrwt>
<rscale>  1 0.12980611E+03</rscale>
<asrwt>0</asrwt>
<pdfrwt beam="1">  1       21 0.25623006E+00 0.12980611E+03</pdfrwt>
<pdfrwt beam="2">  1        4 0.65054776E-03 0.12980611E+03</pdfrwt>
<totfact> 0.14539688E+04</totfact>
</mgrwt>
</event>
<event>
 6    3  0.7601760E-003  0.1300244E+03  0.7818608E-02  0.1227420E+00
          4   -1    0    0  502    0 -0.00000000000E+00  0.00000000000E+00  0.50010746624E+03  0.50010907879E+03  0.12700000000E+01 0.  1.
         21   -1    0    0  501  502  0.00000000000E+00 -0.00000000000E+00 -0.21633403931E+02  0.21633403931E+02  0.00000000000E+00 0. -1.
         25    2    1    2    0    0  0.22388513596E+02 -0.27948547922E+02  0.46600118778E+03  0.48380104929E+03  0.12499592557E+03 0.  0.
    9000005    1    3    3    0    0  0.32967885688E+01 -0.38313712494E+02  0.34260541282E+02  0.51513047559E+02  0.10000000000E+01 0.  0.
    9000005    1    3    3    0    0  0.19091725028E+02  0.10365164571E+02  0.43174064650E+03  0.43228800173E+03  0.10000000000E+01 0.  0.
          4    1    1    2  501    0 -0.22388513596E+02  0.27948547922E+02  0.12472874532E+02  0.37941433435E+02  0.12700000000E+01 0. -1.
<mgrwt>
<rscale>  1 0.13002441E+03</rscale>
<asrwt>0</asrwt>
<pdfrwt beam="2">  1       21 0.33282164E-02 0.13002441E+03</pdfrwt>
<pdfrwt beam="1">  1        4 0.76942593E-01 0.13002441E+03</pdfrwt>
<totfact> 0.33253281E+04</totfact>
</mgrwt>
</event>
<event>
 6    3  0.7601760E-003  0.1269582E+03  0.7818608E-02  0.1232040E+00
         21   -1    0    0  501  502  0.00000000000E+00  0.00000000000E+00  0.75180036940E+02  0.75180036940E+02  0.00000000000E+00 0. -1.
          4   -1    0    0  502    0 -0.00000000000E+00 -0.00000000000E+00 -0.10418357647E+03  0.10419131685E+03  0.12700000000E+01 0.  1.
         25    2    1    2    0    0 -0.18232342867E+02  0.12619542121E+02 -0.60656230149E+02  0.14070383650E+03  0.12500688053E+03 0.  0.
    9000005    1    3    3    0    0  0.30562750742E+02  0.52538024799E+02 -0.14307907514E+02  0.62450316253E+02  0.10000000000E+01 0.  0.
    9000005    1    3    3    0    0 -0.48795093609E+02 -0.39918482678E+02 -0.46348322635E+02  0.78253520245E+02  0.10000000000E+01 0.  0.
          4    1    1    2  501    0  0.18232342867E+02 -0.12619542121E+02  0.31652690619E+02  0.38667517288E+02  0.12700000000E+01 0. -1.
<mgrwt>
<rscale>  1 0.12695823E+03</rscale>
<asrwt>0</asrwt>
<pdfrwt beam="1">  1       21 0.11566160E-01 0.12695823E+03</pdfrwt>
<pdfrwt beam="2">  1        4 0.16029663E-01 0.12695823E+03</pdfrwt>
<totfact> 0.83986328E+04</totfact>
</mgrwt>
</event>
<event>
 6    3  0.7601760E-003  0.1319316E+03  0.7818608E-02  0.1224617E+00
         21   -1    0    0  501  502  0.00000000000E+00  0.00000000000E+00  0.15988736489E+02  0.15988736489E+02  0.00000000000E+00 0.  1.
         -4   -1    0    0    0  501 -0.00000000000E+00 -0.00000000000E+00 -0.59317808047E+03  0.59317944001E+03  0.12700000000E+01 0. -1.
         25    2    1    2    0    0 -0.23525823959E+02 -0.35048763568E+02 -0.52848626528E+03  0.54470514062E+03  0.12499630954E+03 0.  0.
    9000005    1    3    3    0    0 -0.14245472414E+02  0.20331670069E+02 -0.43455533520E+03  0.43526503380E+03  0.10000000000E+01 0.  0.
    9000005    1    3    3    0    0 -0.92803515452E+01 -0.55380433637E+02 -0.93930930080E+02  0.10944010682E+03  0.10000000000E+01 0.  0.
         -4    1    1    2    0  502  0.23525823959E+02  0.35048763568E+02 -0.48703078693E+02  0.64463035879E+02  0.12700000000E+01 0.  1.
<mgrwt>
<rscale>  1 0.13193164E+03</rscale>
<asrwt>0</asrwt>
<pdfrwt beam="1">  1       21 0.24598059E-02 0.13193164E+03</pdfrwt>
<pdfrwt beam="2">  1       -4 0.91262138E-01 0.13193164E+03</pdfrwt>
<totfact> 0.37367459E+04</totfact>
</mgrwt>
</event>
<event>
 6    3  0.7601760E-003  0.1316268E+03  0.7818608E-02  0.1225062E+00
         21   -1    0    0  501  502  0.00000000000E+00  0.00000000000E+00  0.90570980253E+02  0.90570980253E+02  0.00000000000E+00 0.  1.
          4   -1    0    0  502    0 -0.00000000000E+00 -0.00000000000E+00 -0.24847576000E+03  0.24847900557E+03  0.12700000000E+01 0. -1.
         25    2    1    2    0    0 -0.25794692396E+02 -0.32172275873E+02 -0.22477391579E+03  0.26047826224E+03  0.12500076155E+03 0.  0.
    9000005    1    3    3    0    0 -0.72916850218E+02  0.19563021918E+01 -0.13604454919E+03  0.15436908216E+03  0.10000000000E+01 0.  0.
    9000005    1    3    3    0    0  0.47122157822E+02 -0.34128578065E+02 -0.88729366610E+02  0.10610918008E+03  0.10000000000E+01 0.  0.
          4    1    1    2  501    0  0.25794692396E+02  0.32172275873E+02  0.66869136047E+02  0.78571723580E+02  0.12700000000E+01 0.  1.
<mgrwt>
<rscale>  1 0.13162679E+03</rscale>
<asrwt>0</asrwt>
<pdfrwt beam="1">  1       21 0.13933997E-01 0.13162679E+03</pdfrwt>
<pdfrwt beam="2">  1        4 0.38227974E-01 0.13162679E+03</pdfrwt>
<totfact> 0.12169552E+04</totfact>
</mgrwt>
</event>
<event>
 6    3  0.7601760E-003  0.1281292E+03  0.7818608E-02  0.1230258E+00
         21   -1    0    0  501  502  0.00000000000E+00  0.00000000000E+00  0.30122856589E+02  0.30122856589E+02  0.00000000000E+00 0.  1.
          4   -1    0    0  502    0 -0.00000000000E+00 -0.00000000000E+00 -0.22499973162E+03  0.22500331582E+03  0.12700000000E+01 0.  1.
         25    2    1    2    0    0 -0.27527553874E+02  0.58343348041E+01 -0.18547931291E+03  0.22543218718E+03  0.12500115925E+03 0.  0.
    9000005    1    3    3    0    0  0.34832556948E+02 -0.11353703792E+02 -0.14398271480E+03  0.14857400774E+03  0.10000000000E+01 0.  0.
    9000005    1    3    3    0    0 -0.62360110821E+02  0.17188038596E+02 -0.41496598111E+02  0.76858179443E+02  0.10000000000E+01 0.  0.
          4    1    1    2  501    0  0.27527553874E+02 -0.58343348041E+01 -0.93975621166E+01  0.29693985226E+02  0.12700000000E+01 0. -1.
<mgrwt>
<rscale>  1 0.12812921E+03</rscale>
<asrwt>0</asrwt>
<pdfrwt beam="1">  1       21 0.46342855E-02 0.12812921E+03</pdfrwt>
<pdfrwt beam="2">  1        4 0.34617680E-01 0.12812921E+03</pdfrwt>
<totfact> 0.98477234E+04</totfact>
</mgrwt>
</event>
<event>
 6    3  0.7601760E-003  0.1312155E+03  0.7818608E-02  0.1225663E+00
          4   -1    0    0  502    0 -0.00000000000E+00  0.00000000000E+00  0.67240498933E+03  0.67240618868E+03  0.12700000000E+01 0. -1.
         21   -1    0    0  501  502  0.00000000000E+00 -0.00000000000E+00 -0.26591514567E+02  0.26591514567E+02  0.00000000000E+00 0.  1.
         25    2    1    2    0    0 -0.16358175983E+02 -0.36424681838E+02  0.64585372322E+03  0.65904821153E+03  0.12499266363E+03 0.  0.
    9000005    1    3    3    0    0  0.16669334152E+02 -0.74109644178E+02  0.29461874084E+03  0.30425533441E+03  0.10000000000E+01 0.  0.
    9000005    1    3    3    0    0 -0.33027510136E+02  0.37684962340E+02  0.35123498237E+03  0.35479287712E+03  0.10000000000E+01 0.  0.
          4    1    1    2  501    0  0.16358175983E+02  0.36424681838E+02 -0.40248454185E-01  0.39949491717E+02  0.12700000000E+01 0.  1.
<mgrwt>
<rscale>  1 0.13121552E+03</rscale>
<asrwt>0</asrwt>
<pdfrwt beam="2">  1       21 0.40910027E-02 0.13121552E+03</pdfrwt>
<pdfrwt beam="1">  1        4 0.10344933E+00 0.13121552E+03</pdfrwt>
<totfact> 0.12128901E+04</totfact>
</mgrwt>
</event>
<event>
 6    3  0.7601760E-003  0.1319355E+03  0.7818608E-02  0.1224612E+00
         21   -1    0    0  501  502  0.00000000000E+00  0.00000000000E+00  0.41214617789E+02  0.41214617789E+02  0.00000000000E+00 0. -1.
          4   -1    0    0  502    0 -0.00000000000E+00 -0.00000000000E+00 -0.20598288132E+03  0.20598679642E+03  0.12700000000E+01 0. -1.
         25    2    1    2    0    0 -0.36448099204E+02  0.21286686150E+02 -0.85001613702E+02  0.15694667323E+03  0.12500158785E+03 0.  0.
    9000005    1    3    3    0    0  0.53074469430E+01  0.61630928138E+02 -0.76295771804E+02  0.98227211563E+02  0.10000000000E+01 0.  0.
    9000005    1    3    3    0    0 -0.41755546147E+02 -0.40344241988E+02 -0.87058418982E+01  0.58719461670E+02  0.10000000000E+01 0.  0.
          4    1    1    2  501    0  0.36448099204E+02 -0.21286686150E+02 -0.79766649833E+02  0.90254740975E+02  0.12700000000E+01 0.  1.
<mgrwt>
<rscale>  1 0.13193553E+03</rscale>
<asrwt>0</asrwt>
<pdfrwt beam="1">  1       21 0.63407105E-02 0.13193553E+03</pdfrwt>
<pdfrwt beam="2">  1        4 0.31691480E-01 0.13193553E+03</pdfrwt>
<totfact> 0.69001580E+04</totfact>
</mgrwt>
</event>
<event>
 6    3  0.7601760E-003  0.1286404E+03  0.7818608E-02  0.1229487E+00
         21   -1    0    0  501  502  0.00000000000E+00  0.00000000000E+00  0.11014690648E+03  0.11014690648E+03  0.00000000000E+00 0. -1.
         -4   -1    0    0    0  501 -0.00000000000E+00 -0.00000000000E+00 -0.88086787207E+02  0.88095941906E+02  0.12700000000E+01 0.  1.
         25    2    1    2    0    0 -0.73252325999E+01 -0.29482649208E+02 -0.35235961252E+02  0.13337884157E+03  0.12500182709E+03 0.  0.
    9000005    1    3    3    0    0 -0.54734970686E+02 -0.14422451257E+01 -0.52280903249E+02  0.75711887650E+02  0.10000000000E+01 0.  0.
    9000005    1    3    3    0    0  0.47409738086E+02 -0.28040404083E+02  0.17044941996E+02  0.57666953918E+02  0.10000000000E+01 0.  0.
         -4    1    1    2    0  502  0.73252325999E+01  0.29482649208E+02  0.57296080529E+02  0.64864006822E+02  0.12700000000E+01 0. -1.
<mgrwt>
<rscale>  1 0.12864036E+03</rscale>
<asrwt>0</asrwt>
<pdfrwt beam="1">  1       21 0.16945678E-01 0.12864036E+03</pdfrwt>
<pdfrwt beam="2">  1       -4 0.13553081E-01 0.12864036E+03</pdfrwt>
<totfact> 0.56820576E+04</totfact>
</mgrwt>
</event>
<event>
 6    3  0.7601760E-003  0.1291990E+03  0.7818608E-02  0.1228649E+00
          4   -1    0    0  502    0 -0.00000000000E+00  0.00000000000E+00  0.14825005808E+03  0.14825549777E+03  0.12700000000E+01 0. -1.
         21   -1    0    0  501  502  0.00000000000E+00 -0.00000000000E+00 -0.48670833783E+02  0.48670833783E+02  0.00000000000E+00 0. -1.
         25    2    1    2    0    0  0.29933457580E+02 -0.13074290901E+02  0.52157882150E+02  0.13932992927E+03  0.12500174221E+03 0.  0.
    9000005    1    3    3    0    0  0.24481386570E+02 -0.66024129478E+02  0.49393847361E+02  0.86019045094E+02  0.10000000000E+01 0.  0.
    9000005    1    3    3    0    0  0.54520710093E+01  0.52949838577E+02  0.27640347893E+01  0.53310884179E+02  0.10000000000E+01 0.  0.
          4    1    1    2  501    0 -0.29933457580E+02  0.13074290901E+02  0.47421342144E+02  0.57596402283E+02  0.12700000000E+01 0.  1.
<mgrwt>
<rscale>  1 0.12919901E+03</rscale>
<asrwt>0</asrwt>
<pdfrwt beam="2">  1       21 0.74878207E-02 0.12919901E+03</pdfrwt>
<pdfrwt beam="1">  1        4 0.22809394E-01 0.12919901E+03</pdfrwt>
<totfact> 0.95515658E+04</totfact>
</mgrwt>
</event>
<event>
 6    3  0.7601760E-003  0.1269024E+03  0.7818608E-02  0.1232126E+00
         21   -1    0    0  501  502  0.00000000000E+00  0.00000000000E+00  0.11529239079E+03  0.11529239079E+03  0.00000000000E+00 0.  1.
          4   -1    0    0  502    0 -0.00000000000E+00 -0.00000000000E+00 -0.49593757660E+03  0.49593920270E+03  0.12700000000E+01 0. -1.
         25    2    1    2    0    0 -0.75709686464E+01  0.20558068312E+02 -0.48667839264E+03  0.50295136635E+03  0.12499706125E+03 0.  0.
    9000005    1    3    3    0    0  0.46920660814E+02 -0.13740144753E+02 -0.10437588833E+03  0.11526346366E+03  0.10000000000E+01 0.  0.
    9000005    1    3    3    0    0 -0.54491629461E+02  0.34298213065E+02 -0.38230250430E+03  0.38768790270E+03  0.10000000000E+01 0.  0.
          4    1    1    2  501    0  0.75709686464E+01 -0.20558068312E+02  0.10603320683E+03  0.10828022714E+03  0.12700000000E+01 0.  1.
<mgrwt>
<rscale>  1 0.12690240E+03</rscale>
<asrwt>0</asrwt>
<pdfrwt beam="1">  1       21 0.17737291E-01 0.12690240E+03</pdfrwt>
<pdfrwt beam="2">  1        4 0.76298751E-01 0.12690240E+03</pdfrwt>
<totfact> 0.18830964E+03</totfact>
</mgrwt>
</event>
<event>
 6    3  0.7601760E-003  0.1268459E+03  0.7818608E-02  0.1232212E+00
         -4   -1    0    0    0  501 -0.00000000000E+00  0.00000000000E+00  0.89795444260E+02  0.89804424779E+02  0.12700000000E+01 0. -1.
         21   -1    0    0  501  502  0.00000000000E+00 -0.00000000000E+00 -0.73634054596E+02  0.73634054596E+02  0.00000000000E+00 0. -1.
         25    2    1    2    0    0  0.32408786268E+01  0.21311763312E+02  0.38310319918E+02  0.13250496097E+03  0.12500075807E+03 0.  0.
    9000005    1    3    3    0    0  0.23124200771E+01 -0.46593484859E+02  0.44275780532E+02  0.64324527667E+02  0.10000000000E+01 0.  0.
    9000005    1    3    3    0    0  0.92845854976E+00  0.67905248172E+02 -0.59654606139E+01  0.68180433299E+02  0.10000000000E+01 0.  0.
         -4    1    1    2    0  502 -0.32408786268E+01 -0.21311763312E+02 -0.22148930253E+02  0.30933518408E+02  0.12700000000E+01 0.  1.
<mgrwt>
<rscale>  1 0.12684591E+03</rscale>
<asrwt>0</asrwt>
<pdfrwt beam="2">  1       21 0.11328316E-01 0.12684591E+03</pdfrwt>
<pdfrwt beam="1">  1       -4 0.13816217E-01 0.12684591E+03</pdfrwt>
<totfact> 0.11285483E+05</totfact>
</mgrwt>
</event>
<event>
 6    3  0.7601760E-003  0.1277904E+03  0.7818608E-02  0.1230772E+00
         21   -1    0    0  501  502  0.00000000000E+00  0.00000000000E+00  0.54988500856E+02  0.54988500856E+02  0.00000000000E+00 0.  1.
         -4   -1    0    0    0  501 -0.00000000000E+00 -0.00000000000E+00 -0.25328918509E+03  0.25329236898E+03  0.12700000000E+01 0. -1.
         25    2    1    2    0    0 -0.87547611382E+01  0.25076832093E+02 -0.23229287528E+03  0.26512330615E+03  0.12499957683E+03 0.  0.
    9000005    1    3    3    0    0 -0.20100300257E+02 -0.48535864021E+02 -0.11053047678E+03  0.12238357105E+03  0.10000000000E+01 0.  0.
    9000005    1    3    3    0    0  0.11345539118E+02  0.73612696114E+02 -0.12176239850E+03  0.14273973510E+03  0.10000000000E+01 0.  0.
         -4    1    1    2    0  502  0.87547611382E+01 -0.25076832093E+02  0.33992191051E+02  0.43157563681E+02  0.12700000000E+01 0.  1.
<mgrwt>
<rscale>  1 0.12779040E+03</rscale>
<asrwt>0</asrwt>
<pdfrwt beam="1">  1       21 0.84597694E-02 0.12779040E+03</pdfrwt>
<pdfrwt beam="2">  1       -4 0.38968940E-01 0.12779040E+03</pdfrwt>
<totfact> 0.28121359E+04</totfact>
</mgrwt>
</event>
<event>
 6    3  0.7601760E-003  0.1276670E+03  0.7818608E-02  0.1230959E+00
         -4   -1    0    0    0  501 -0.00000000000E+00  0.00000000000E+00  0.13224579580E+03  0.13225189377E+03  0.12700000000E+01 0. -1.
         21   -1    0    0  501  502  0.00000000000E+00 -0.00000000000E+00 -0.69457959101E+02  0.69457959101E+02  0.00000000000E+00 0.  1.
         25    2    1    2    0    0 -0.10896032597E+02  0.23555089294E+02  0.95860996533E+02  0.15965022188E+03  0.12500118772E+03 0.  0.
    9000005    1    3    3    0    0  0.46597644156E+01  0.41533339327E+02 -0.16390722770E+02  0.44904203289E+02  0.10000000000E+01 0.  0.
    9000005    1    3    3    0    0 -0.15555797013E+02 -0.17978250033E+02  0.11225171930E+03  0.11474601859E+03  0.10000000000E+01 0.  0.
         -4    1    1    2    0  502  0.10896032597E+02 -0.23555089294E+02 -0.33073159836E+02  0.42059630996E+02  0.12700000000E+01 0.  1.
<mgrwt>
<rscale>  1 0.12766700E+03</rscale>
<asrwt>0</asrwt>
<pdfrwt beam="2">  1       21 0.10685840E-01 0.12766700E+03</pdfrwt>
<pdfrwt beam="1">  1       -4 0.20346869E-01 0.12766700E+03</pdfrwt>
<totfact> 0.63249594E+04</totfact>
</mgrwt>
</event>
<event>
 6    3  0.7601760E-003  0.1385911E+03  0.7818608E-02  0.1215237E+00
         -4   -1    0    0    0  501 -0.00000000000E+00  0.00000000000E+00  0.72244576688E+02  0.72255738601E+02  0.12700000000E+01 0. -1.
         21   -1    0    0  501  502  0.00000000000E+00 -0.00000000000E+00 -0.41372049709E+03  0.41372049709E+03  0.00000000000E+00 0.  1.
         25    2    1    2    0    0  0.66362385612E+01 -0.59477758921E+02  0.71100340346E+00  0.13859294998E+03  0.12500342711E+03 0.  0.
    9000005    1    3    3    0    0 -0.93547535410E-01 -0.39585071055E+02 -0.61377032973E+02  0.73041952179E+02  0.10000000000E+01 0.  0.
    9000005    1    3    3    0    0  0.67297860966E+01 -0.19892687865E+02  0.62088036377E+02  0.65550997799E+02  0.10000000000E+01 0.  0.
         -4    1    1    2    0  502 -0.66362385612E+01  0.59477758921E+02 -0.34218692381E+03  0.34738328572E+03  0.12700000000E+01 0.  1.
<mgrwt>
<rscale>  1 0.13859113E+03</rscale>
<asrwt>0</asrwt>
<pdfrwt beam="2">  1       21 0.63649307E-01 0.13859113E+03</pdfrwt>
<pdfrwt beam="1">  1       -4 0.11115559E-01 0.13859113E+03</pdfrwt>
<totfact> 0.59872583E+03</totfact>
</mgrwt>
</event>
<event>
 6    3  0.7601760E-003  0.1267429E+03  0.7818608E-02  0.1232370E+00
         21   -1    0    0  501  502  0.00000000000E+00  0.00000000000E+00  0.72011398689E+03  0.72011398689E+03  0.00000000000E+00 0.  1.
          4   -1    0    0  502    0 -0.00000000000E+00 -0.00000000000E+00 -0.85100760288E+01  0.86043183354E+01  0.12700000000E+01 0. -1.
         25    2    1    2    0    0 -0.95541575831E+01 -0.18656992725E+02  0.49016690719E+03  0.50628781091E+03  0.12499754106E+03 0.  0.
    9000005    1    3    3    0    0  0.55553259656E+02 -0.28872416316E+00  0.16334395964E+03  0.17253549539E+03  0.10000000000E+01 0.  0.
    9000005    1    3    3    0    0 -0.65107417239E+02 -0.18368268562E+02  0.32682294755E+03  0.33375231552E+03  0.10000000000E+01 0.  0.
          4    1    1    2  501    0  0.95541575831E+01  0.18656992725E+02  0.22143700367E+03  0.22243049431E+03  0.12700000000E+01 0.  1.
<mgrwt>
<rscale>  1 0.12674285E+03</rscale>
<asrwt>0</asrwt>
<pdfrwt beam="1">  1       21 0.11078672E+00 0.12674285E+03</pdfrwt>
<pdfrwt beam="2">  1        4 0.13165786E-02 0.12674285E+03</pdfrwt>
<totfact> 0.50645364E+04</totfact>
</mgrwt>
</event>
<event>
 6    3  0.7601760E-003  0.1266270E+03  0.7818608E-02  0.1232548E+00
         -4   -1    0    0    0  501 -0.00000000000E+00  0.00000000000E+00  0.41882596283E+02  0.41901846873E+02  0.12700000000E+01 0.  1.
         21   -1    0    0  501  502  0.00000000000E+00 -0.00000000000E+00 -0.16659899041E+03  0.16659899041E+03  0.00000000000E+00 0.  1.
         25    2    1    2    0    0  0.17823011236E+02  0.95532524604E+01 -0.58935771579E+02  0.13967041113E+03  0.12500189683E+03 0.  0.
    9000005    1    3    3    0    0 -0.17297901738E+02 -0.86270284033E+01  0.33743722273E+02  0.38900923080E+02  0.10000000000E+01 0.  0.
    9000005    1    3    3    0    0  0.35120912975E+02  0.18180280864E+02 -0.92679493852E+02  0.10076948805E+03  0.10000000000E+01 0.  0.
         -4    1    1    2    0  502 -0.17823011236E+02 -0.95532524604E+01 -0.65780622547E+02  0.68830426156E+02  0.12700000000E+01 0. -1.
<mgrwt>
<rscale>  1 0.12662701E+03</rscale>
<asrwt>0</asrwt>
<pdfrwt beam="2">  1       21 0.25630613E-01 0.12662701E+03</pdfrwt>
<pdfrwt beam="1">  1       -4 0.64453296E-02 0.12662701E+03</pdfrwt>
<totfact> 0.91391107E+04</totfact>
</mgrwt>
</event>
<event>
 6    3  0.7601760E-003  0.1316272E+03  0.7818608E-02  0.1225061E+00
         -4   -1    0    0    0  501 -0.00000000000E+00  0.00000000000E+00  0.45317926877E+03  0.45318104830E+03  0.12700000000E+01 0.  1.
         21   -1    0    0  501  502  0.00000000000E+00 -0.00000000000E+00 -0.11056680358E+03  0.11056680358E+03  0.00000000000E+00 0. -1.
         25    2    1    2    0    0 -0.22690364039E+02 -0.34434921768E+02  0.43931576107E+03  0.45861100396E+03  0.12500039428E+03 0.  0.
    9000005    1    3    3    0    0 -0.65504724025E+02 -0.52944252070E+02  0.30529619966E+03  0.31670290845E+03  0.10000000000E+01 0.  0.
    9000005    1    3    3    0    0  0.42814359986E+02  0.18509330302E+02  0.13401956141E+03  0.14190809550E+03  0.10000000000E+01 0.  0.
         -4    1    1    2    0  502  0.22690364039E+02  0.34434921768E+02 -0.96703295879E+02  0.10513684792E+03  0.12700000000E+01 0. -1.
<mgrwt>
<rscale>  1 0.13162718E+03</rscale>
<asrwt>0</asrwt>
<pdfrwt beam="2">  1       21 0.17010278E-01 0.13162718E+03</pdfrwt>
<pdfrwt beam="1">  1       -4 0.69720585E-01 0.13162718E+03</pdfrwt>
<totfact> 0.24771632E+03</totfact>
</mgrwt>
</event>
<event>
 6    3  0.7601760E-003  0.1268217E+03  0.7818608E-02  0.1232249E+00
         -4   -1    0    0    0  501 -0.00000000000E+00  0.00000000000E+00  0.20451940318E+02  0.20491333846E+02  0.12700000000E+01 0.  1.
         21   -1    0    0  501  502  0.00000000000E+00 -0.00000000000E+00 -0.34517661025E+03  0.34517661025E+03  0.00000000000E+00 0.  1.
         25    2    1    2    0    0 -0.17097253702E+02  0.12903653777E+02 -0.18494436688E+03  0.22425024228E+03  0.12499972783E+03 0.  0.
    9000005    1    3    3    0    0 -0.12934012166E+02 -0.40369832356E+02 -0.15953175628E+03  0.16507087356E+03  0.10000000000E+01 0.  0.
    9000005    1    3    3    0    0 -0.41632415359E+01  0.53273486133E+02 -0.25412610594E+02  0.59179368720E+02  0.10000000000E+01 0.  0.
         -4    1    1    2    0  502  0.17097253702E+02 -0.12903653777E+02 -0.13978030306E+03  0.14141770182E+03  0.12700000000E+01 0. -1.
<mgrwt>
<rscale>  1 0.12682173E+03</rscale>
<asrwt>0</asrwt>
<pdfrwt beam="2">  1       21 0.53104089E-01 0.12682173E+03</pdfrwt>
<pdfrwt beam="1">  1       -4 0.31496626E-02 0.12682173E+03</pdfrwt>
<totfact> 0.67776217E+04</totfact>
</mgrwt>
</event>
<event>
 6    3  0.7601760E-003  0.1386433E+03  0.7818608E-02  0.1215166E+00
         21   -1    0    0  501  502  0.00000000000E+00  0.00000000000E+00  0.32305780724E+03  0.32305780724E+03  0.00000000000E+00 0. -1.
          4   -1    0    0  502    0 -0.00000000000E+00 -0.00000000000E+00 -0.61346112962E+03  0.61346244421E+03  0.12700000000E+01 0.  1.
         25    2    1    2    0    0 -0.25930068227E+02 -0.54078093721E+02 -0.60273759321E+03  0.61847761548E+03  0.12500058369E+03 0.  0.
    9000005    1    3    3    0    0  0.27915395294E+02 -0.59532863229E+02 -0.16847257455E+03  0.18085198223E+03  0.10000000000E+01 0.  0.
    9000005    1    3    3    0    0 -0.53845463522E+02  0.54547695077E+01 -0.43426501866E+03  0.43762563325E+03  0.10000000000E+01 0.  0.
          4    1    1    2  501    0  0.25930068227E+02  0.54078093721E+02  0.31233427083E+03  0.31804263597E+03  0.12700000000E+01 0. -1.
<mgrwt>
<rscale>  1 0.13864326E+03</rscale>
<asrwt>0</asrwt>
<pdfrwt beam="1">  1       21 0.49701201E-01 0.13864326E+03</pdfrwt>
<pdfrwt beam="2">  1        4 0.94378928E-01 0.13864326E+03</pdfrwt>
<totfact> 0.15988562E+02</totfact>
</mgrwt>
</event>
<event>
 6    3  0.7601760E-003  0.1327868E+03  0.7818608E-02  0.1223378E+00
         -4   -1    0    0    0  501 -0.00000000000E+00  0.00000000000E+00  0.12366009909E+03  0.12366662042E+03  0.12700000000E+01 0.  1.
         21   -1    0    0  501  502  0.00000000000E+00 -0.00000000000E+00 -0.92682419233E+02  0.92682419233E+02  0.00000000000E+00 0. -1.
         25    2    1    2    0    0 -0.10594809961E+02  0.43533665406E+02  0.75851654612E+02  0.15292415075E+03  0.12499956941E+03 0.  0.
    9000005    1    3    3    0    0 -0.29392583345E+02  0.80467603552E+02  0.29194239816E+02  0.90511119844E+02  0.10000000000E+01 0.  0.
    9000005    1    3    3    0    0  0.18797773384E+02 -0.36933938145E+02  0.46657414796E+02  0.62413030903E+02  0.10000000000E+01 0.  0.
         -4    1    1    2    0  502  0.10594809961E+02 -0.43533665406E+02 -0.44873974760E+02  0.63424888904E+02  0.12700000000E+01 0. -1.
<mgrwt>
<rscale>  1 0.13278676E+03</rscale>
<asrwt>0</asrwt>
<pdfrwt beam="2">  1       21 0.14258834E-01 0.13278676E+03</pdfrwt>
<pdfrwt beam="1">  1       -4 0.19025802E-01 0.13278676E+03</pdfrwt>
<totfact> 0.42956890E+04</totfact>
</mgrwt>
</event>
<event>
 6    3  0.7601760E-003  0.1265931E+03  0.7818608E-02  0.1232600E+00
          4   -1    0    0  502    0 -0.00000000000E+00  0.00000000000E+00  0.34321629439E+02  0.34345118246E+02  0.12700000000E+01 0. -1.
         21   -1    0    0  501  502  0.00000000000E+00 -0.00000000000E+00 -0.64554664155E+03  0.64554664155E+03  0.00000000000E+00 0.  1.
         25    2    1    2    0    0  0.17721477773E+02  0.93201675428E+01 -0.83200904827E+02  0.15148662444E+03  0.12499956209E+03 0.  0.
    9000005    1    3    3    0    0  0.12263745092E+02 -0.18897263869E+02 -0.10993375087E+03  0.11222270539E+03  0.10000000000E+01 0.  0.
    9000005    1    3    3    0    0  0.54577326815E+01  0.28217431412E+02  0.26732846042E+02  0.39263919048E+02  0.10000000000E+01 0.  0.
          4    1    1    2  501    0 -0.17721477773E+02 -0.93201675428E+01 -0.52802410728E+03  0.52840513535E+03  0.12700000000E+01 0.  1.
<mgrwt>
<rscale>  1 0.12659308E+03</rscale>
<asrwt>0</asrwt>
<pdfrwt beam="2">  1       21 0.99314876E-01 0.12659308E+03</pdfrwt>
<pdfrwt beam="1">  1        4 0.52821532E-02 0.12659308E+03</pdfrwt>
<totfact> 0.75303783E+03</totfact>
</mgrwt>
</event>
<event>
 6    3  0.7601760E-003  0.1285082E+03  0.7818608E-02  0.1229686E+00
         21   -1    0    0  501  502  0.00000000000E+00  0.00000000000E+00  0.51794677348E+02  0.51794677348E+02  0.00000000000E+00 0. -1.
         -4   -1    0    0    0  501 -0.00000000000E+00 -0.00000000000E+00 -0.19033936670E+03  0.19034360356E+03  0.12700000000E+01 0.  1.
         25    2    1    2    0    0  0.25439427071E+02 -0.15567615826E+02 -0.16011600947E+03  0.20530826783E+03  0.12499933295E+03 0.  0.
    9000005    1    3    3    0    0  0.38267745135E+02 -0.66088255539E+02 -0.95276041090E+02  0.12210897528E+03  0.10000000000E+01 0.  0.
    9000005    1    3    3    0    0 -0.12828318064E+02  0.50520639713E+02 -0.64839968378E+02  0.83199292549E+02  0.10000000000E+01 0.  0.
         -4    1    1    2    0  502 -0.25439427071E+02  0.15567615826E+02  0.21571320113E+02  0.36830013082E+02  0.12700000000E+01 0. -1.
<mgrwt>
<rscale>  1 0.12850816E+03</rscale>
<asrwt>0</asrwt>
<pdfrwt beam="1">  1       21 0.79684119E-02 0.12850816E+03</pdfrwt>
<pdfrwt beam="2">  1       -4 0.29284503E-01 0.12850816E+03</pdfrwt>
<totfact> 0.53984870E+04</totfact>
</mgrwt>
</event>
<event>
 6    3  0.7601760E-003  0.1326668E+03  0.7818608E-02  0.1223551E+00
         21   -1    0    0  501  502  0.00000000000E+00  0.00000000000E+00  0.11143854354E+02  0.11143854354E+02  0.00000000000E+00 0.  1.
          4   -1    0    0  502    0 -0.00000000000E+00 -0.00000000000E+00 -0.74731491480E+03  0.74731599393E+03  0.12700000000E+01 0.  1.
         25    2    1    2    0    0  0.22746501241E+02  0.38173892136E+02 -0.62086429687E+03  0.63488027073E+03  0.12500333470E+03 0.  0.
    9000005    1    3    3    0    0  0.68580722695E+02  0.44364988286E+02 -0.30950282446E+03  0.32010086857E+03  0.10000000000E+01 0.  0.
    9000005    1    3    3    0    0 -0.45834221454E+02 -0.61910961501E+01 -0.31136147241E+03  0.31477940217E+03  0.10000000000E+01 0.  0.
          4    1    1    2  501    0 -0.22746501241E+02 -0.38173892136E+02 -0.11530676358E+03  0.12357957755E+03  0.12700000000E+01 0. -1.
<mgrwt>
<rscale>  1 0.13266681E+03</rscale>
<asrwt>0</asrwt>
<pdfrwt beam="1">  1       21 0.17144393E-02 0.13266681E+03</pdfrwt>
<pdfrwt beam="2">  1        4 0.11497716E+00 0.13266681E+03</pdfrwt>
<totfact> 0.39200218E+04</totfact>
</mgrwt>
</event>
<event>
 6    3  0.7601760E-003  0.1267030E+03  0.7818608E-02  0.1232432E+00
         21   -1    0    0  501  502  0.00000000000E+00  0.00000000000E+00  0.10991945918E+02  0.10991945918E+02  0.00000000000E+00 0.  1.
          4   -1    0    0  502    0 -0.00000000000E+00 -0.00000000000E+00 -0.15550835368E+04  0.15550840554E+04  0.12700000000E+01 0. -1.
         25    2    1    2    0    0 -0.20543884349E+02  0.24625537420E+01 -0.15396766735E+04  0.15448811965E+04  0.12500214814E+03 0.  0.
    9000005    1    3    3    0    0 -0.25854008372E+02  0.60583826756E+02 -0.66354209608E+03  0.66680427645E+03  0.10000000000E+01 0.  0.
    9000005    1    3    3    0    0  0.53101240231E+01 -0.58121273014E+02 -0.87613457740E+03  0.87807692004E+03  0.10000000000E+01 0.  0.
          4    1    1    2  501    0  0.20543884349E+02 -0.24625537420E+01 -0.44149173801E+01  0.21194804801E+02  0.12700000000E+01 0.  1.
<mgrwt>
<rscale>  1 0.12670301E+03</rscale>
<asrwt>0</asrwt>
<pdfrwt beam="1">  1       21 0.16910675E-02 0.12670301E+03</pdfrwt>
<pdfrwt beam="2">  1        4 0.23924946E+00 0.12670301E+03</pdfrwt>
<totfact> 0.55950658E+03</totfact>
</mgrwt>
</event>
<event>
 6    3  0.7601760E-003  0.1359868E+03  0.7818608E-02  0.1218833E+00
         21   -1    0    0  501  502  0.00000000000E+00  0.00000000000E+00  0.86609200427E+01  0.86609200427E+01  0.00000000000E+00 0. -1.
         -4   -1    0    0    0  501 -0.00000000000E+00 -0.00000000000E+00 -0.10508493682E+04  0.10508501356E+04  0.12700000000E+01 0. -1.
         25    2    1    2    0    0 -0.60276965964E+01 -0.53202787634E+02 -0.79955709702E+03  0.81103881337E+03  0.12500214262E+03 0.  0.
    9000005    1    3    3    0    0  0.49684528532E+02 -0.59540661794E+02 -0.53597104028E+03  0.54155295106E+03  0.10000000000E+01 0.  0.
    9000005    1    3    3    0    0 -0.55712225129E+02  0.63378741599E+01 -0.26358605674E+03  0.26948586231E+03  0.10000000000E+01 0.  0.
         -4    1    1    2    0  502  0.60276965964E+01  0.53202787634E+02 -0.24263135113E+03  0.24847224230E+03  0.12700000000E+01 0.  1.
<mgrwt>
<rscale>  1 0.13598678E+03</rscale>
<asrwt>0</asrwt>
<pdfrwt beam="1">  1       21 0.13324491E-02 0.13598678E+03</pdfrwt>
<pdfrwt beam="2">  1       -4 0.16167637E+00 0.13598678E+03</pdfrwt>
<totfact> 0.25221243E+04</totfact>
</mgrwt>
</event>
<event>
 6    3  0.7601760E-003  0.1287013E+03  0.7818608E-02  0.1229396E+00
         21   -1    0    0  501  502  0.00000000000E+00  0.00000000000E+00  0.17139767439E+03  0.17139767439E+03  0.00000000000E+00 0. -1.
          4   -1    0    0  502    0 -0.00000000000E+00 -0.00000000000E+00 -0.37270963187E+02  0.37292594398E+02  0.12700000000E+01 0. -1.
         25    2    1    2    0    0 -0.26690865301E+02  0.15084819242E+02  0.11452502119E+03  0.17227882535E+03  0.12499623643E+03 0.  0.
    9000005    1    3    3    0    0 -0.59526644398E+02  0.32060407993E+02  0.19594328629E+02  0.70400489120E+02  0.10000000000E+01 0.  0.
    9000005    1    3    3    0    0  0.32835779097E+02 -0.16975588750E+02  0.94930692560E+02  0.10187833623E+03  0.10000000000E+01 0.  0.
          4    1    1    2  501    0  0.26690865301E+02 -0.15084819242E+02  0.19601690016E+02  0.36411443443E+02  0.12700000000E+01 0.  1.
<mgrwt>
<rscale>  1 0.12870126E+03</rscale>
<asrwt>0</asrwt>
<pdfrwt beam="1">  1       21 0.26368873E-01 0.12870126E+03</pdfrwt>
<pdfrwt beam="2">  1        4 0.57360203E-02 0.12870126E+03</pdfrwt>
<totfact> 0.10488420E+05</totfact>
</mgrwt>
</event>
<event>
 6    3  0.7601760E-003  0.1270349E+03  0.7818608E-02  0.1231923E+00
         -4   -1    0    0    0  501 -0.00000000000E+00  0.00000000000E+00  0.17396431962E+02  0.17442727568E+02  0.12700000000E+01 0.  1.
         21   -1    0    0  501  502  0.00000000000E+00 -0.00000000000E+00 -0.34730935491E+03  0.34730935491E+03  0.00000000000E+00 0.  1.
         25    2    1    2    0    0  0.96036379482E+01  0.20512771524E+02 -0.23470425265E+03  0.26687814592E+03  0.12499941960E+03 0.  0.
    9000005    1    3    3    0    0  0.25429747094E+02 -0.49234292156E+02 -0.10732700608E+03  0.12079227540E+03  0.10000000000E+01 0.  0.
    9000005    1    3    3    0    0 -0.15826109145E+02  0.69747063681E+02 -0.12737724657E+03  0.14608587052E+03  0.10000000000E+01 0.  0.
         -4    1    1    2    0  502 -0.96036379482E+01 -0.20512771524E+02 -0.95208670303E+02  0.97873936563E+02  0.12700000000E+01 0. -1.
<mgrwt>
<rscale>  1 0.12703487E+03</rscale>
<asrwt>0</asrwt>
<pdfrwt beam="2">  1       21 0.53432210E-01 0.12703487E+03</pdfrwt>
<pdfrwt beam="1">  1       -4 0.26801139E-02 0.12703487E+03</pdfrwt>
<totfact> 0.86121652E+04</totfact>
</mgrwt>
</event>
<event>
 6    3  0.7601760E-003  0.1287078E+03  0.7818608E-02  0.1229386E+00
         21   -1    0    0  501  502  0.00000000000E+00  0.00000000000E+00  0.28859104585E+03  0.28859104585E+03  0.00000000000E+00 0. -1.
         -4   -1    0    0    0  501 -0.00000000000E+00 -0.00000000000E+00 -0.26432531509E+02  0.26463023674E+02  0.12700000000E+01 0. -1.
         25    2    1    2    0    0 -0.30638755964E+02  0.87093896171E+00  0.14471562297E+03  0.19367063764E+03  0.12500484971E+03 0.  0.
    9000005    1    3    3    0    0 -0.59924067672E+02  0.22556155995E+02  0.14356445450E+03  0.15719868528E+03  0.10000000000E+01 0.  0.
    9000005    1    3    3    0    0  0.29285311708E+02 -0.21685217034E+02  0.11511684678E+01  0.36471952354E+02  0.10000000000E+01 0.  0.
         -4    1    1    2    0  502  0.30638755964E+02 -0.87093896171E+00  0.11744289137E+03  0.12138343188E+03  0.12700000000E+01 0.  1.
<mgrwt>
<rscale>  1 0.12870783E+03</rscale>
<asrwt>0</asrwt>
<pdfrwt beam="1">  1       21 0.44398620E-01 0.12870783E+03</pdfrwt>
<pdfrwt beam="2">  1       -4 0.40691040E-02 0.12870783E+03</pdfrwt>
<totfact> 0.65471694E+04</totfact>
</mgrwt>
</event>
<event>
 6    3  0.7601760E-003  0.1266299E+03  0.7818608E-02  0.1232544E+00
         21   -1    0    0  501  502  0.00000000000E+00  0.00000000000E+00  0.25929755413E+02  0.25929755413E+02  0.00000000000E+00 0. -1.
         -4   -1    0    0    0  501 -0.00000000000E+00 -0.00000000000E+00 -0.20868991898E+03  0.20869378329E+03  0.12700000000E+01 0. -1.
         25    2    1    2    0    0  0.11817187512E+02 -0.16447089482E+02 -0.15303272553E+03  0.19863067628E+03  0.12499991121E+03 0.  0.
    9000005    1    3    3    0    0 -0.52470635875E+02  0.14023923766E+02 -0.79720266664E+02  0.96468435168E+02  0.10000000000E+01 0.  0.
    9000005    1    3    3    0    0  0.64287823387E+02 -0.30471013248E+02 -0.73312458868E+02  0.10216224111E+03  0.10000000000E+01 0.  0.
         -4    1    1    2    0  502 -0.11817187512E+02  0.16447089482E+02 -0.29727438040E+02  0.35992862425E+02  0.12700000000E+01 0.  1.
<mgrwt>
<rscale>  1 0.12662990E+03</rscale>
<asrwt>0</asrwt>
<pdfrwt beam="1">  1       21 0.39891932E-02 0.12662990E+03</pdfrwt>
<pdfrwt beam="2">  1       -4 0.32108830E-01 0.12662990E+03</pdfrwt>
<totfact> 0.14574543E+05</totfact>
</mgrwt>
</event>
<event>
 6    3  0.7601760E-003  0.1410271E+03  0.7818608E-02  0.1211954E+00
         21   -1    0    0  501  502  0.00000000000E+00  0.00000000000E+00  0.12827199590E+03  0.12827199590E+03  0.00000000000E+00 0.  1.
          4   -1    0    0  502    0 -0.00000000000E+00 -0.00000000000E+00 -0.87999660621E+02  0.88008824383E+02  0.12700000000E+01 0.  1.
         25    2    1    2    0    0 -0.60716807488E+02 -0.23990446915E+02  0.29242308931E+01  0.14105737942E+03  0.12500624347E+03 0.  0.
    9000005    1    3    3    0    0 -0.81497283422E+01 -0.68266972724E+02 -0.14222396702E+02  0.70214487144E+02  0.10000000000E+01 0.  0.
    9000005    1    3    3    0    0 -0.52567079146E+02  0.44276525809E+02  0.17146627595E+02  0.70842892272E+02  0.10000000000E+01 0.  0.
          4    1    1    2  501    0  0.60716807488E+02  0.23990446915E+02  0.37348104389E+02  0.75223440869E+02  0.12700000000E+01 0. -1.
<mgrwt>
<rscale>  1 0.14102707E+03</rscale>
<asrwt>0</asrwt>
<pdfrwt beam="1">  1       21 0.19734153E-01 0.14102707E+03</pdfrwt>
<pdfrwt beam="2">  1        4 0.13539598E-01 0.14102707E+03</pdfrwt>
<totfact> 0.43500389E+04</totfact>
</mgrwt>
</event>
<event>
 6    3  0.7601760E-003  0.1406266E+03  0.7818608E-02  0.1212488E+00
         21   -1    0    0  501  502  0.00000000000E+00  0.00000000000E+00  0.62995065662E+02  0.62995065662E+02  0.00000000000E+00 0.  1.
          4   -1    0    0  502    0 -0.00000000000E+00 -0.00000000000E+00 -0.23330093917E+03  0.23330439584E+03  0.12700000000E+01 0.  1.
         25    2    1    2    0    0 -0.64124449368E+02 -0.62434450695E+01 -0.18282643919E+03  0.23065417927E+03  0.12499967174E+03 0.  0.
    9000005    1    3    3    0    0  0.22915124433E+02 -0.36089971507E+02 -0.91541921244E+02  0.10103718284E+03  0.10000000000E+01 0.  0.
    9000005    1    3    3    0    0 -0.87039573801E+02  0.29846526438E+02 -0.91284517947E+02  0.12961699643E+03  0.10000000000E+01 0.  0.
          4    1    1    2  501    0  0.64124449368E+02  0.62434450695E+01  0.12520565686E+02  0.65645282223E+02  0.12700000000E+01 0. -1.
<mgrwt>
<rscale>  1 0.14062661E+03</rscale>
<asrwt>0</asrwt>
<pdfrwt beam="1">  1       21 0.96915485E-02 0.14062661E+03</pdfrwt>
<pdfrwt beam="2">  1        4 0.35893703E-01 0.14062661E+03</pdfrwt>
<totfact> 0.26331258E+04</totfact>
</mgrwt>
</event>
<event>
 6    3  0.7601760E-003  0.1285559E+03  0.7818608E-02  0.1229614E+00
         -4   -1    0    0    0  501 -0.00000000000E+00  0.00000000000E+00  0.40623720163E+03  0.40623918679E+03  0.12700000000E+01 0. -1.
         21   -1    0    0  501  502  0.00000000000E+00 -0.00000000000E+00 -0.24844495105E+02  0.24844495105E+02  0.00000000000E+00 0. -1.
         25    2    1    2    0    0 -0.26402812466E+02  0.14288171415E+02  0.37982962073E+03  0.40099520428E+03  0.12500141087E+03 0.  0.
    9000005    1    3    3    0    0  0.45153228958E+02  0.14427238535E+02  0.82300214861E+02  0.94980443583E+02  0.10000000000E+01 0.  0.
    9000005    1    3    3    0    0 -0.71556041425E+02 -0.13906712051E+00  0.29752940587E+03  0.30601476069E+03  0.10000000000E+01 0.  0.
         -4    1    1    2    0  502  0.26402812466E+02 -0.14288171415E+02  0.15630857927E+01  0.30088477624E+02  0.12700000000E+01 0.  1.
<mgrwt>
<rscale>  1 0.12855588E+03</rscale>
<asrwt>0</asrwt>
<pdfrwt beam="2">  1       21 0.38222303E-02 0.12855588E+03</pdfrwt>
<pdfrwt beam="1">  1       -4 0.62500676E-01 0.12855588E+03</pdfrwt>
<totfact> 0.41320091E+04</totfact>
</mgrwt>
</event>
<event>
 6    3  0.7601760E-003  0.1456798E+03  0.7818608E-02  0.1205884E+00
          4   -1    0    0  502    0 -0.00000000000E+00  0.00000000000E+00  0.25899539464E+03  0.25899850838E+03  0.12700000000E+01 0. -1.
         21   -1    0    0  501  502  0.00000000000E+00 -0.00000000000E+00 -0.14458573343E+03  0.14458573343E+03  0.00000000000E+00 0.  1.
         25    2    1    2    0    0  0.73477825271E+02  0.14097604571E+02  0.22620547142E+03  0.26905673778E+03  0.12499951833E+03 0.  0.
    9000005    1    3    3    0    0 -0.34710092602E+02 -0.46365092547E+01  0.42974619021E+02  0.55444617652E+02  0.10000000000E+01 0.  0.
    9000005    1    3    3    0    0  0.10818791787E+03  0.18734113826E+02  0.18323085240E+03  0.21361212013E+03  0.10000000000E+01 0.  0.
          4    1    1    2  501    0 -0.73477825271E+02 -0.14097604571E+02 -0.11179581021E+03  0.13452750403E+03  0.12700000000E+01 0.  1.
<mgrwt>
<rscale>  1 0.14567983E+03</rscale>
<asrwt>0</asrwt>
<pdfrwt beam="2">  1       21 0.22243959E-01 0.14567983E+03</pdfrwt>
<pdfrwt beam="1">  1        4 0.39846114E-01 0.14567983E+03</pdfrwt>
<totfact> 0.47999923E+03</totfact>
</mgrwt>
</event>
<event>
 6    3  0.7601760E-003  0.1287284E+03  0.7818608E-02  0.1229355E+00
         21   -1    0    0  501  502  0.00000000000E+00  0.00000000000E+00  0.33516916540E+02  0.33516916540E+02  0.00000000000E+00 0.  1.
         -4   -1    0    0    0  501 -0.00000000000E+00 -0.00000000000E+00 -0.45083868929E+03  0.45084047806E+03  0.12700000000E+01 0. -1.
         25    2    1    2    0    0 -0.15009470199E+02  0.26756808092E+02 -0.43167699946E+03  0.45046202016E+03  0.12501915358E+03 0.  0.
    9000005    1    3    3    0    0 -0.14896886795E+02  0.61823334625E+02 -0.39353143422E+03  0.39863771981E+03  0.10000000000E+01 0.  0.
    9000005    1    3    3    0    0 -0.11258340454E+00 -0.35066526532E+02 -0.38145565245E+02  0.51824300342E+02  0.10000000000E+01 0.  0.
         -4    1    1    2    0  502  0.15009470199E+02 -0.26756808092E+02  0.14355226713E+02  0.33895374448E+02  0.12700000000E+01 0.  1.
<mgrwt>
<rscale>  1 0.12872840E+03</rscale>
<asrwt>0</asrwt>
<pdfrwt beam="1">  1       21 0.51564485E-02 0.12872840E+03</pdfrwt>
<pdfrwt beam="2">  1       -4 0.69361790E-01 0.12872840E+03</pdfrwt>
<totfact> 0.20076896E+04</totfact>
</mgrwt>
</event>
<event>
 6    3  0.7601760E-003  0.1336178E+03  0.7818608E-02  0.1222184E+00
         21   -1    0    0  501  502  0.00000000000E+00  0.00000000000E+00  0.88777450437E+01  0.88777450437E+01  0.00000000000E+00 0. -1.
         -4   -1    0    0    0  501 -0.00000000000E+00 -0.00000000000E+00 -0.10478972620E+04  0.10478980316E+04  0.12700000000E+01 0. -1.
         25    2    1    2    0    0 -0.45892037968E+02 -0.11100548806E+02 -0.90201869061E+03  0.91186152387E+03  0.12499767671E+03 0.  0.
    9000005    1    3    3    0    0 -0.85705849817E+02 -0.12358799581E+02 -0.73840594717E+03  0.74346659335E+03  0.10000000000E+01 0.  0.
    9000005    1    3    3    0    0  0.39813811848E+02  0.12582507752E+01 -0.16361274344E+03  0.16839493052E+03  0.10000000000E+01 0.  0.
         -4    1    1    2    0  502  0.45892037968E+02  0.11100548806E+02 -0.13700082636E+03  0.14491425277E+03  0.12700000000E+01 0.  1.
<mgrwt>
<rscale>  1 0.13361782E+03</rscale>
<asrwt>0</asrwt>
<pdfrwt beam="1">  1       21 0.13658083E-02 0.13361782E+03</pdfrwt>
<pdfrwt beam="2">  1       -4 0.16122185E+00 0.13361782E+03</pdfrwt>
<totfact> 0.24382183E+04</totfact>
</mgrwt>
</event>
<event>
 6    3  0.7601760E-003  0.1448873E+03  0.7818608E-02  0.1206900E+00
         -4   -1    0    0    0  501 -0.00000000000E+00  0.00000000000E+00  0.91735482783E+02  0.91744273399E+02  0.12700000000E+01 0. -1.
         21   -1    0    0  501  502  0.00000000000E+00 -0.00000000000E+00 -0.14153673168E+03  0.14153673168E+03  0.00000000000E+00 0. -1.
         25    2    1    2    0    0  0.56481144002E+02  0.46653736888E+02 -0.35362551419E+00  0.14488772959E+03  0.12500255334E+03 0.  0.
    9000005    1    3    3    0    0  0.52816685022E+02  0.54232820453E+02 -0.52452530771E+02  0.92103577646E+02  0.10000000000E+01 0.  0.
    9000005    1    3    3    0    0  0.36644589807E+01 -0.75790835650E+01  0.52098905256E+02  0.52784151942E+02  0.10000000000E+01 0.  0.
         -4    1    1    2    0  502 -0.56481144002E+02 -0.46653736888E+02 -0.49447623379E+02  0.88393275487E+02  0.12700000000E+01 0.  1.
<mgrwt>
<rscale>  1 0.14488730E+03</rscale>
<asrwt>0</asrwt>
<pdfrwt beam="2">  1       21 0.21774882E-01 0.14488730E+03</pdfrwt>
<pdfrwt beam="1">  1       -4 0.14114266E-01 0.14488730E+03</pdfrwt>
<totfact> 0.33801372E+04</totfact>
</mgrwt>
</event>
<event>
 6    3  0.7601760E-003  0.1295079E+03  0.7818608E-02  0.1228188E+00
         -4   -1    0    0    0  501 -0.00000000000E+00  0.00000000000E+00  0.51058705985E+03  0.51058863930E+03  0.12700000000E+01 0. -1.
         21   -1    0    0  501  502  0.00000000000E+00 -0.00000000000E+00 -0.17463299387E+02  0.17463299387E+02  0.00000000000E+00 0.  1.
         25    2    1    2    0    0  0.33783546108E+02  0.20787035759E+01  0.46877911085E+03  0.48633954412E+03  0.12500659347E+03 0.  0.
    9000005    1    3    3    0    0 -0.22759957996E+02  0.45147882314E+02  0.11717867179E+03  0.12762518595E+03  0.10000000000E+01 0.  0.
    9000005    1    3    3    0    0  0.56543504104E+02 -0.43069178738E+02  0.35160043905E+03  0.35871435817E+03  0.10000000000E+01 0.  0.
         -4    1    1    2    0  502 -0.33783546108E+02 -0.20787035759E+01  0.24344649616E+02  0.41712394574E+02  0.12700000000E+01 0.  1.
<mgrwt>
<rscale>  1 0.12950790E+03</rscale>
<asrwt>0</asrwt>
<pdfrwt beam="2">  1       21 0.26866618E-02 0.12950790E+03</pdfrwt>
<pdfrwt beam="1">  1       -4 0.78555518E-01 0.12950790E+03</pdfrwt>
<totfact> 0.45116731E+04</totfact>
</mgrwt>
</event>
<event>
 6    3  0.7601760E-003  0.1274227E+03  0.7818608E-02  0.1231331E+00
         21   -1    0    0  501  502  0.00000000000E+00  0.00000000000E+00  0.14794988296E+02  0.14794988296E+02  0.00000000000E+00 0.  1.
         -4   -1    0    0    0  501 -0.00000000000E+00 -0.00000000000E+00 -0.42072175225E+03  0.42072366907E+03  0.12700000000E+01 0.  1.
         25    2    1    2    0    0  0.19729292825E+02 -0.14894852669E+02 -0.37406014972E+03  0.39516775113E+03  0.12500181716E+03 0.  0.
    9000005    1    3    3    0    0  0.30402493241E+02  0.47695599213E+02 -0.11140224477E+03  0.12494255448E+03  0.10000000000E+01 0.  0.
    9000005    1    3    3    0    0 -0.10673200415E+02 -0.62590451882E+02 -0.26265790494E+03  0.27022519665E+03  0.10000000000E+01 0.  0.
         -4    1    1    2    0  502 -0.19729292825E+02  0.14894852669E+02 -0.31866614239E+02  0.40350906241E+02  0.12700000000E+01 0. -1.
<mgrwt>
<rscale>  1 0.12742274E+03</rscale>
<asrwt>0</asrwt>
<pdfrwt beam="1">  1       21 0.22761518E-02 0.12742274E+03</pdfrwt>
<pdfrwt beam="2">  1       -4 0.64730772E-01 0.12742274E+03</pdfrwt>
<totfact> 0.89593899E+04</totfact>
</mgrwt>
</event>
<event>
 6    3  0.7601760E-003  0.1270847E+03  0.7818608E-02  0.1231847E+00
         21   -1    0    0  501  502  0.00000000000E+00  0.00000000000E+00  0.60979085774E+02  0.60979085774E+02  0.00000000000E+00 0.  1.
         -4   -1    0    0    0  501 -0.00000000000E+00 -0.00000000000E+00 -0.11560763812E+03  0.11561461366E+03  0.12700000000E+01 0.  1.
         25    2    1    2    0    0  0.22861083369E+02  0.25388883207E+01 -0.73504911898E+02  0.14681107133E+03  0.12498577321E+03 0.  0.
    9000005    1    3    3    0    0  0.50030381355E+02  0.26991591090E+02  0.80603032176E+01  0.57424328782E+02  0.10000000000E+01 0.  0.
    9000005    1    3    3    0    0 -0.27169297986E+02 -0.24452702769E+02 -0.81565215115E+02  0.89386742544E+02  0.10000000000E+01 0.  0.
         -4    1    1    2    0  502 -0.22861083369E+02 -0.25388883207E+01  0.18876359556E+02  0.29782628104E+02  0.12700000000E+01 0. -1.
<mgrwt>
<rscale>  1 0.12708469E+03</rscale>
<asrwt>0</asrwt>
<pdfrwt beam="1">  1       21 0.93813978E-02 0.12708469E+03</pdfrwt>
<pdfrwt beam="2">  1       -4 0.17787344E-01 0.12708469E+03</pdfrwt>
<totfact> 0.10092350E+05</totfact>
</mgrwt>
</event>
<event>
 6    3  0.7601760E-003  0.1305803E+03  0.7818608E-02  0.1226597E+00
          4   -1    0    0  502    0 -0.00000000000E+00  0.00000000000E+00  0.98569587311E+02  0.98577768501E+02  0.12700000000E+01 0.  1.
         21   -1    0    0  501  502  0.00000000000E+00 -0.00000000000E+00 -0.10869294398E+03  0.10869294398E+03  0.00000000000E+00 0. -1.
         25    2    1    2    0    0  0.29668505282E+02 -0.23362710657E+02  0.47000538721E+02  0.13878137916E+03  0.12500073642E+03 0.  0.
    9000005    1    3    3    0    0  0.56293210059E+02  0.34185106915E+02  0.14185213802E+02  0.67377795483E+02  0.10000000000E+01 0.  0.
    9000005    1    3    3    0    0 -0.26624704777E+02 -0.57547817572E+02  0.32815324919E+02  0.71403583672E+02  0.10000000000E+01 0.  0.
          4    1    1    2  501    0 -0.29668505282E+02  0.23362710657E+02 -0.57123895392E+02  0.68489333328E+02  0.12700000000E+01 0. -1.
<mgrwt>
<rscale>  1 0.13058032E+03</rscale>
<asrwt>0</asrwt>
<pdfrwt beam="2">  1       21 0.16721991E-01 0.13058032E+03</pdfrwt>
<pdfrwt beam="1">  1        4 0.15165752E-01 0.13058032E+03</pdfrwt>
<totfact> 0.47974811E+04</totfact>
</mgrwt>
</event>
<event>
 6    3  0.7601760E-003  0.1293464E+03  0.7818608E-02  0.1228429E+00
         21   -1    0    0  501  502  0.00000000000E+00  0.00000000000E+00  0.52621719947E+03  0.52621719947E+03  0.00000000000E+00 0. -1.
         -4   -1    0    0    0  501 -0.00000000000E+00 -0.00000000000E+00 -0.21831991254E+02  0.21868898969E+02  0.12700000000E+01 0.  1.
         25    2    1    2    0    0  0.16271075967E+02 -0.29002576791E+02  0.17813080157E+03  0.22013877320E+03  0.12499839849E+03 0.  0.
    9000005    1    3    3    0    0  0.64895343129E+02  0.26072690161E+01  0.12772579870E+03  0.14329369514E+03  0.10000000000E+01 0.  0.
    9000005    1    3    3    0    0 -0.48624267162E+02 -0.31609845807E+02  0.50405002869E+02  0.76845078068E+02  0.10000000000E+01 0.  0.
         -4    1    1    2    0  502 -0.16271075967E+02  0.29002576791E+02  0.32625440664E+03  0.32794732523E+03  0.12700000000E+01 0. -1.
<mgrwt>
<rscale>  1 0.12934642E+03</rscale>
<asrwt>0</asrwt>
<pdfrwt beam="1">  1       21 0.80956482E-01 0.12934642E+03</pdfrwt>
<pdfrwt beam="2">  1       -4 0.33617252E-02 0.12934642E+03</pdfrwt>
<totfact> 0.24691896E+04</totfact>
</mgrwt>
</event>
<event>
 6    3  0.7601760E-003  0.1275279E+03  0.7818608E-02  0.1231171E+00
          4   -1    0    0  502    0 -0.00000000000E+00  0.00000000000E+00  0.26136315328E+02  0.26167152671E+02  0.12700000000E+01 0.  1.
         21   -1    0    0  501  502  0.00000000000E+00 -0.00000000000E+00 -0.35233972950E+03  0.35233972950E+03  0.00000000000E+00 0.  1.
         25    2    1    2    0    0  0.20253336039E+02  0.15070177126E+02 -0.13526699723E+03  0.18590460785E+03  0.12500421921E+03 0.  0.
    9000005    1    3    3    0    0  0.67834551256E+02  0.31586809232E+02 -0.97679114937E+02  0.12305064956E+03  0.10000000000E+01 0.  0.
    9000005    1    3    3    0    0 -0.47581215217E+02 -0.16516632105E+02 -0.37587882291E+02  0.62853958290E+02  0.10000000000E+01 0.  0.
          4    1    1    2  501    0 -0.20253336039E+02 -0.15070177126E+02 -0.19093641694E+03  0.19260227432E+03  0.12700000000E+01 0. -1.
<mgrwt>
<rscale>  1 0.12752789E+03</rscale>
<asrwt>0</asrwt>
<pdfrwt beam="2">  1       21 0.54206109E-01 0.12752789E+03</pdfrwt>
<pdfrwt beam="1">  1        4 0.40235200E-02 0.12752789E+03</pdfrwt>
<totfact> 0.44162450E+04</totfact>
</mgrwt>
</event>
<event>
 6    3  0.7601760E-003  0.1409957E+03  0.7818608E-02  0.1211995E+00
         21   -1    0    0  501  502  0.00000000000E+00  0.00000000000E+00  0.11378672680E+04  0.11378672680E+04  0.00000000000E+00 0. -1.
          4   -1    0    0  502    0 -0.00000000000E+00 -0.00000000000E+00 -0.12359414922E+02  0.12424493439E+02  0.12700000000E+01 0.  1.
         25    2    1    2    0    0  0.63837527160E+02 -0.13386594657E+02  0.44832026435E+03  0.46996898950E+03  0.12500144349E+03 0.  0.
    9000005    1    3    3    0    0  0.89709685034E+02  0.20134996596E+02  0.23229357693E+03  0.24982904467E+03  0.10000000000E+01 0.  0.
    9000005    1    3    3    0    0 -0.25872157874E+02 -0.33521591252E+02  0.21602668742E+03  0.22013994483E+03  0.10000000000E+01 0.  0.
          4    1    1    2  501    0 -0.63837527160E+02  0.13386594657E+02  0.67718758871E+03  0.68032277192E+03  0.12700000000E+01 0. -1.
<mgrwt>
<rscale>  1 0.14099572E+03</rscale>
<asrwt>0</asrwt>
<pdfrwt beam="1">  1       21 0.17505642E+00 0.14099572E+03</pdfrwt>
<pdfrwt beam="2">  1        4 0.19065099E-02 0.14099572E+03</pdfrwt>
<totfact> 0.90274158E+03</totfact>
</mgrwt>
</event>
<event>
 6    3  0.7601760E-003  0.1365447E+03  0.7818608E-02  0.1218055E+00
         -4   -1    0    0    0  501 -0.00000000000E+00  0.00000000000E+00  0.55977976483E+02  0.55992381188E+02  0.12700000000E+01 0. -1.
         21   -1    0    0  501  502  0.00000000000E+00 -0.00000000000E+00 -0.21647914270E+03  0.21647914270E+03  0.00000000000E+00 0.  1.
         25    2    1    2    0    0  0.13442329210E+02 -0.53240639053E+02 -0.43644781291E+02  0.14335030387E+03  0.12501672218E+03 0.  0.
    9000005    1    3    3    0    0  0.23303405082E+02 -0.90469774400E+02 -0.47175198710E+02  0.10466292630E+03  0.10000000000E+01 0.  0.
    9000005    1    3    3    0    0 -0.98610758715E+01  0.37229135347E+02  0.35304174181E+01  0.38687377569E+02  0.10000000000E+01 0.  0.
         -4    1    1    2    0  502 -0.13442329210E+02  0.53240639053E+02 -0.11685638493E+03  0.12912122002E+03  0.12700000000E+01 0.  1.
<mgrwt>
<rscale>  1 0.13654465E+03</rscale>
<asrwt>0</asrwt>
<pdfrwt beam="2">  1       21 0.33304484E-01 0.13654465E+03</pdfrwt>
<pdfrwt beam="1">  1       -4 0.86133909E-02 0.13654465E+03</pdfrwt>
<totfact> 0.34547113E+04</totfact>
</mgrwt>
</event>
<event>
 6    3  0.7601760E-003  0.1306958E+03  0.7818608E-02  0.1226427E+00
         21   -1    0    0  501  502  0.00000000000E+00  0.00000000000E+00  0.51342529814E+02  0.51342529814E+02  0.00000000000E+00 0. -1.
         -4   -1    0    0    0  501 -0.00000000000E+00 -0.00000000000E+00 -0.39790301613E+03  0.39790504287E+03  0.12700000000E+01 0.  1.
         25    2    1    2    0    0 -0.27393078521E+02 -0.26564981908E+02 -0.37789395019E+03  0.39985650190E+03  0.12500122203E+03 0.  0.
    9000005    1    3    3    0    0 -0.39711275199E+02 -0.61208539083E+02 -0.12856510024E+03  0.14782914339E+03  0.10000000000E+01 0.  0.
    9000005    1    3    3    0    0  0.12318196678E+02  0.34643557174E+02 -0.24932884995E+03  0.25202735852E+03  0.10000000000E+01 0.  0.
         -4    1    1    2    0  502  0.27393078521E+02  0.26564981908E+02  0.31333463877E+02  0.49391070784E+02  0.12700000000E+01 0. -1.
<mgrwt>
<rscale>  1 0.13069577E+03</rscale>
<asrwt>0</asrwt>
<pdfrwt beam="1">  1       21 0.78988507E-02 0.13069577E+03</pdfrwt>
<pdfrwt beam="2">  1       -4 0.61217213E-01 0.13069577E+03</pdfrwt>
<totfact> 0.12694061E+04</totfact>
</mgrwt>
</event>
<event>
 6    3  0.7601760E-003  0.1300720E+03  0.7818608E-02  0.1227349E+00
         21   -1    0    0  501  502  0.00000000000E+00  0.00000000000E+00  0.18244148197E+03  0.18244148197E+03  0.00000000000E+00 0.  1.
          4   -1    0    0  502    0 -0.00000000000E+00 -0.00000000000E+00 -0.38613343265E+02  0.38634222887E+02  0.12700000000E+01 0.  1.
         25    2    1    2    0    0  0.27953281433E+01 -0.35858573542E+02  0.12525695814E+03  0.18057690483E+03  0.12500024736E+03 0.  0.
    9000005    1    3    3    0    0 -0.41737163283E+02  0.24460790528E+01  0.11309916665E+03  0.12058356273E+03  0.10000000000E+01 0.  0.
    9000005    1    3    3    0    0  0.44532491427E+02 -0.38304652595E+02  0.12157791486E+02  0.59993342105E+02  0.10000000000E+01 0.  0.
          4    1    1    2  501    0 -0.27953281433E+01  0.35858573542E+02  0.18571180562E+02  0.40498800024E+02  0.12700000000E+01 0. -1.
<mgrwt>
<rscale>  1 0.13007195E+03</rscale>
<asrwt>0</asrwt>
<pdfrwt beam="1">  1       21 0.28067920E-01 0.13007195E+03</pdfrwt>
<pdfrwt beam="2">  1        4 0.59424606E-02 0.13007195E+03</pdfrwt>
<totfact> 0.88044853E+04</totfact>
</mgrwt>
</event>
<event>
 6    3  0.7601760E-003  0.1275689E+03  0.7818608E-02  0.1231108E+00
         21   -1    0    0  501  502  0.00000000000E+00  0.00000000000E+00  0.69615404318E+01  0.69615404318E+01  0.00000000000E+00 0.  1.
          4   -1    0    0  502    0 -0.00000000000E+00 -0.00000000000E+00 -0.12429385083E+04  0.12429391571E+04  0.12700000000E+01 0.  1.
         25    2    1    2    0    0 -0.20656544467E+02 -0.14937757943E+02 -0.11938403519E+04  0.12006367478E+04  0.12499593943E+03 0.  0.
    9000005    1    3    3    0    0  0.40675620234E+02 -0.24495600822E+02 -0.84368938738E+03  0.84502504277E+03  0.10000000000E+01 0.  0.
    9000005    1    3    3    0    0 -0.61332164701E+02  0.95578428787E+01 -0.35015096450E+03  0.35561170500E+03  0.10000000000E+01 0.  0.
          4    1    1    2  501    0  0.20656544467E+02  0.14937757943E+02 -0.42136615977E+02  0.49263949777E+02  0.12700000000E+01 0. -1.
<mgrwt>
<rscale>  1 0.12756886E+03</rscale>
<asrwt>0</asrwt>
<pdfrwt beam="1">  1       21 0.10710069E-02 0.12756886E+03</pdfrwt>
<pdfrwt beam="2">  1        4 0.19123015E+00 0.12756886E+03</pdfrwt>
<totfact> 0.22526773E+04</totfact>
</mgrwt>
</event>
<event>
 6    3  0.7601760E-003  0.1268729E+03  0.7818608E-02  0.1232171E+00
         21   -1    0    0  501  502  0.00000000000E+00  0.00000000000E+00  0.23350557945E+03  0.23350557945E+03  0.00000000000E+00 0. -1.
          4   -1    0    0  502    0 -0.00000000000E+00 -0.00000000000E+00 -0.73277006647E+02  0.73288011320E+02  0.12700000000E+01 0.  1.
         25    2    1    2    0    0  0.14111899502E+02  0.16486573011E+02 -0.17204276992E+02  0.12803402632E+03  0.12500308777E+03 0.  0.
    9000005    1    3    3    0    0  0.28774401237E+02  0.95639756143E+01 -0.68130118678E+02  0.74579815414E+02  0.10000000000E+01 0.  0.
    9000005    1    3    3    0    0 -0.14662501735E+02  0.69225973970E+01  0.50925841686E+02  0.53454210903E+02  0.10000000000E+01 0.  0.
          4    1    1    2  501    0 -0.14111899502E+02 -0.16486573011E+02  0.17743284979E+03  0.17875956445E+03  0.12700000000E+01 0. -1.
<mgrwt>
<rscale>  1 0.12687287E+03</rscale>
<asrwt>0</asrwt>
<pdfrwt beam="1">  1       21 0.35923935E-01 0.12687287E+03</pdfrwt>
<pdfrwt beam="2">  1        4 0.11274498E-01 0.12687287E+03</pdfrwt>
<totfact> 0.18795488E+04</totfact>
</mgrwt>
</event>
<event>
 6    3  0.7601760E-003  0.1336174E+03  0.7818608E-02  0.1222185E+00
         21   -1    0    0  501  502  0.00000000000E+00  0.00000000000E+00  0.28208360494E+02  0.28208360494E+02  0.00000000000E+00 0. -1.
          4   -1    0    0  502    0 -0.00000000000E+00 -0.00000000000E+00 -0.58375900430E+03  0.58376038578E+03  0.12700000000E+01 0.  1.
         25    2    1    2    0    0 -0.44556447725E+02 -0.15629469556E+02 -0.54809719642E+03  0.56414904186E+03  0.12499618937E+03 0.  0.
    9000005    1    3    3    0    0  0.26493872282E+02 -0.45078385164E+02 -0.15463574850E+03  0.16323970347E+03  0.10000000000E+01 0.  0.
    9000005    1    3    3    0    0 -0.71050320006E+02  0.29448915607E+02 -0.39346144792E+03  0.40090933838E+03  0.10000000000E+01 0.  0.
          4    1    1    2  501    0  0.44556447725E+02  0.15629469556E+02 -0.74534473938E+01  0.47819704417E+02  0.12700000000E+01 0. -1.
<mgrwt>
<rscale>  1 0.13361738E+03</rscale>
<asrwt>0</asrwt>
<pdfrwt beam="1">  1       21 0.43397475E-02 0.13361738E+03</pdfrwt>
<pdfrwt beam="2">  1        4 0.89811388E-01 0.13361738E+03</pdfrwt>
<totfact> 0.15227739E+04</totfact>
</mgrwt>
</event>
<event>
 6    3  0.7601760E-003  0.1269960E+03  0.7818608E-02  0.1231982E+00
         -4   -1    0    0    0  501 -0.00000000000E+00  0.00000000000E+00  0.23152535553E+02  0.23187341429E+02  0.12700000000E+01 0. -1.
         21   -1    0    0  501  502  0.00000000000E+00 -0.00000000000E+00 -0.26700488457E+03  0.26700488457E+03  0.00000000000E+00 0.  1.
         25    2    1    2    0    0 -0.92468040757E+01 -0.20416190256E+02 -0.16504200368E+03  0.20824707580E+03  0.12500262952E+03 0.  0.
    9000005    1    3    3    0    0  0.33219004199E+02 -0.52107758876E+02 -0.13210877785E+03  0.14585077977E+03  0.10000000000E+01 0.  0.
    9000005    1    3    3    0    0 -0.42465808275E+02  0.31691568619E+02 -0.32933225838E+02  0.62396296029E+02  0.10000000000E+01 0.  0.
         -4    1    1    2    0  502  0.92468040757E+01  0.20416190256E+02 -0.78810345329E+02  0.81945150199E+02  0.12700000000E+01 0.  1.
<mgrwt>
<rscale>  1 0.12699599E+03</rscale>
<asrwt>0</asrwt>
<pdfrwt beam="2">  1       21 0.41077674E-01 0.12699599E+03</pdfrwt>
<pdfrwt beam="1">  1       -4 0.35648383E-02 0.12699599E+03</pdfrwt>
<totfact> 0.94265474E+04</totfact>
</mgrwt>
</event>
<event>
 6    3  0.7601760E-003  0.1398335E+03  0.7818608E-02  0.1213553E+00
         21   -1    0    0  501  502  0.00000000000E+00  0.00000000000E+00  0.84837627845E+02  0.84837627845E+02  0.00000000000E+00 0.  1.
         -4   -1    0    0    0  501 -0.00000000000E+00 -0.00000000000E+00 -0.26799323461E+03  0.26799624381E+03  0.12700000000E+01 0. -1.
         25    2    1    2    0    0 -0.79913670268E+01 -0.62168993396E+02 -0.23367518540E+03  0.27231874009E+03  0.12499823297E+03 0.  0.
    9000005    1    3    3    0    0 -0.46613976374E+02 -0.57037374674E+02 -0.21834384573E+03  0.23043688913E+03  0.10000000000E+01 0.  0.
    9000005    1    3    3    0    0  0.38622609347E+02 -0.51316187214E+01 -0.15331339664E+02  0.41881850955E+02  0.10000000000E+01 0.  0.
         -4    1    1    2    0  502  0.79913670268E+01  0.62168993396E+02  0.50519578631E+02  0.80515131571E+02  0.12700000000E+01 0.  1.
<mgrwt>
<rscale>  1 0.13983349E+03</rscale>
<asrwt>0</asrwt>
<pdfrwt beam="1">  1       21 0.13051943E-01 0.13983349E+03</pdfrwt>
<pdfrwt beam="2">  1       -4 0.41230691E-01 0.13983349E+03</pdfrwt>
<totfact> 0.11854299E+04</totfact>
</mgrwt>
</event>
<event>
 6    3  0.7601760E-003  0.1360629E+03  0.7818608E-02  0.1218727E+00
          4   -1    0    0  502    0 -0.00000000000E+00  0.00000000000E+00  0.62448283509E+01  0.63726588747E+01  0.12700000000E+01 0. -1.
         21   -1    0    0  501  502  0.00000000000E+00 -0.00000000000E+00 -0.16729852586E+04  0.16729852586E+04  0.00000000000E+00 0.  1.
         25    2    1    2    0    0  0.66624496948E+01  0.53324140284E+02 -0.84719734702E+03  0.85805387491E+03  0.12500102107E+03 0.  0.
    9000005    1    3    3    0    0 -0.14488578101E+02  0.81445824543E+02 -0.75234406767E+03  0.75687907713E+03  0.10000000000E+01 0.  0.
    9000005    1    3    3    0    0  0.21151027796E+02 -0.28121684259E+02 -0.94853279347E+02  0.10117479778E+03  0.10000000000E+01 0.  0.
          4    1    1    2  501    0 -0.66624496948E+01 -0.53324140284E+02 -0.81954308322E+03  0.82130404256E+03  0.12700000000E+01 0.  1.
<mgrwt>
<rscale>  1 0.13606288E+03</rscale>
<asrwt>0</asrwt>
<pdfrwt beam="2">  1       21 0.25738249E+00 0.13606288E+03</pdfrwt>
<pdfrwt beam="1">  1        4 0.97061250E-03 0.13606288E+03</pdfrwt>
<totfact> 0.78705158E+03</totfact>
</mgrwt>
</event>
<event>
 6    3  0.7601760E-003  0.1277109E+03  0.7818608E-02  0.1230892E+00
         21   -1    0    0  501  502  0.00000000000E+00  0.00000000000E+00  0.13413150673E+03  0.13413150673E+03  0.00000000000E+00 0. -1.
         -4   -1    0    0    0  501 -0.00000000000E+00 -0.00000000000E+00 -0.44546973934E+02  0.44565073619E+02  0.12700000000E+01 0. -1.
         25    2    1    2    0    0  0.74678484701E+01  0.25091298975E+02  0.67664608442E+02  0.14452878808E+03  0.12499891721E+03 0.  0.
    9000005    1    3    3    0    0  0.17926080266E+02  0.51435829382E+02 -0.15516069581E+02  0.56645717518E+02  0.10000000000E+01 0.  0.
    9000005    1    3    3    0    0 -0.10458231796E+02 -0.26344530407E+02  0.83180678023E+02  0.87883070560E+02  0.10000000000E+01 0.  0.
         -4    1    1    2    0  502 -0.74678484701E+01 -0.25091298975E+02  0.21919924356E+02  0.34167792273E+02  0.12700000000E+01 0.  1.
<mgrwt>
<rscale>  1 0.12771089E+03</rscale>
<asrwt>0</asrwt>
<pdfrwt beam="1">  1       21 0.20635616E-01 0.12771089E+03</pdfrwt>
<pdfrwt beam="2">  1       -4 0.68552355E-02 0.12771089E+03</pdfrwt>
<totfact> 0.12417231E+05</totfact>
</mgrwt>
</event>
<event>
 6    3  0.7601760E-003  0.1296381E+03  0.7818608E-02  0.1227994E+00
         -4   -1    0    0    0  501 -0.00000000000E+00  0.00000000000E+00  0.34506191249E+02  0.34529554508E+02  0.12700000000E+01 0. -1.
         21   -1    0    0  501  502  0.00000000000E+00 -0.00000000000E+00 -0.20404543837E+03  0.20404543837E+03  0.00000000000E+00 0.  1.
         25    2    1    2    0    0  0.22165917869E+02  0.26259423743E+02 -0.11092267139E+03  0.17061617373E+03  0.12500061783E+03 0.  0.
    9000005    1    3    3    0    0  0.25255828762E+02 -0.20694333156E+02  0.15176317723E+02  0.36019896319E+02  0.10000000000E+01 0.  0.
    9000005    1    3    3    0    0 -0.30899108923E+01  0.46953756900E+02 -0.12609898912E+03  0.13459627741E+03  0.10000000000E+01 0.  0.
         -4    1    1    2    0  502 -0.22165917869E+02 -0.26259423743E+02 -0.58616575732E+02  0.67958819154E+02  0.12700000000E+01 0.  1.
<mgrwt>
<rscale>  1 0.12963811E+03</rscale>
<asrwt>0</asrwt>
<pdfrwt beam="2">  1       21 0.31391606E-01 0.12963811E+03</pdfrwt>
<pdfrwt beam="1">  1       -4 0.53107460E-02 0.12963811E+03</pdfrwt>
<totfact> 0.85072507E+04</totfact>
</mgrwt>
</event>
<event>
 6    3  0.7601760E-003  0.1278232E+03  0.7818608E-02  0.1230722E+00
         21   -1    0    0  501  502  0.00000000000E+00  0.00000000000E+00  0.45020991127E+02  0.45020991127E+02  0.00000000000E+00 0.  1.
          4   -1    0    0  502    0 -0.00000000000E+00 -0.00000000000E+00 -0.14029305490E+03  0.14029880311E+03  0.12700000000E+01 0.  1.
         25    2    1    2    0    0 -0.51991257456E+01  0.26211044361E+02 -0.60418378739E+02  0.14138299854E+03  0.12499888813E+03 0.  0.
    9000005    1    3    3    0    0 -0.29165880092E+02  0.70954764796E+02 -0.31331595655E+02  0.82872770529E+02  0.10000000000E+01 0.  0.
    9000005    1    3    3    0    0  0.23966754346E+02 -0.44743720436E+02 -0.29086783084E+02  0.58510228016E+02  0.10000000000E+01 0.  0.
          4    1    1    2  501    0  0.51991257456E+01 -0.26211044361E+02 -0.34853685039E+02  0.43936795693E+02  0.12700000000E+01 0. -1.
<mgrwt>
<rscale>  1 0.12782321E+03</rscale>
<asrwt>0</asrwt>
<pdfrwt beam="1">  1       21 0.69263065E-02 0.12782321E+03</pdfrwt>
<pdfrwt beam="2">  1        4 0.21585367E-01 0.12782321E+03</pdfrwt>
<totfact> 0.12048832E+05</totfact>
</mgrwt>
</event>
<event>
 6    3  0.7601760E-003  0.1339098E+03  0.7818608E-02  0.1221767E+00
         21   -1    0    0  501  502  0.00000000000E+00  0.00000000000E+00  0.14988015651E+02  0.14988015651E+02  0.00000000000E+00 0. -1.
          4   -1    0    0  502    0 -0.00000000000E+00 -0.00000000000E+00 -0.74183625369E+03  0.74183734079E+03  0.12700000000E+01 0. -1.
         25    2    1    2    0    0 -0.37530593600E+02 -0.29975084342E+02 -0.66581882107E+03  0.67915133393E+03  0.12499912301E+03 0.  0.
    9000005    1    3    3    0    0 -0.78454519980E+02 -0.44777912346E+02 -0.45704250824E+03  0.46588520847E+03  0.10000000000E+01 0.  0.
    9000005    1    3    3    0    0  0.40923926381E+02  0.14802828004E+02 -0.20877631283E+03  0.21326612545E+03  0.10000000000E+01 0.  0.
          4    1    1    2  501    0  0.37530593600E+02  0.29975084342E+02 -0.61029416973E+02  0.77674022513E+02  0.12700000000E+01 0.  1.
<mgrwt>
<rscale>  1 0.13390979E+03</rscale>
<asrwt>0</asrwt>
<pdfrwt beam="1">  1       21 0.23058491E-02 0.13390979E+03</pdfrwt>
<pdfrwt beam="2">  1        4 0.11413285E+00 0.13390979E+03</pdfrwt>
<totfact> 0.24747798E+04</totfact>
</mgrwt>
</event>
<event>
 6    3  0.7601760E-003  0.1315131E+03  0.7818608E-02  0.1225228E+00
         21   -1    0    0  501  502  0.00000000000E+00  0.00000000000E+00  0.17385677267E+03  0.17385677267E+03  0.00000000000E+00 0.  1.
         -4   -1    0    0    0  501 -0.00000000000E+00 -0.00000000000E+00 -0.83731777740E+02  0.83741408536E+02  0.12700000000E+01 0. -1.
         25    2    1    2    0    0  0.19095049842E+02 -0.36140204875E+02 -0.26372744623E+02  0.13413129675E+03  0.12499979109E+03 0.  0.
    9000005    1    3    3    0    0 -0.31232241913E+02 -0.58084793072E+02  0.12133029303E+02  0.67063451456E+02  0.10000000000E+01 0.  0.
    9000005    1    3    3    0    0  0.50327291755E+02  0.21944588197E+02 -0.38505773926E+02  0.67067845292E+02  0.10000000000E+01 0.  0.
         -4    1    1    2    0  502 -0.19095049842E+02  0.36140204875E+02  0.11649773955E+03  0.12346688445E+03  0.12700000000E+01 0.  1.
<mgrwt>
<rscale>  1 0.13151305E+03</rscale>
<asrwt>0</asrwt>
<pdfrwt beam="1">  1       21 0.26747196E-01 0.13151305E+03</pdfrwt>
<pdfrwt beam="2">  1       -4 0.12882910E-01 0.13151305E+03</pdfrwt>
<totfact> 0.26589639E+04</totfact>
</mgrwt>
</event>
<event>
 6    3  0.7601760E-003  0.1269011E+03  0.7818608E-02  0.1232128E+00
         21   -1    0    0  501  502  0.00000000000E+00  0.00000000000E+00  0.61319318877E+03  0.61319318877E+03  0.00000000000E+00 0.  1.
         -4   -1    0    0    0  501 -0.00000000000E+00 -0.00000000000E+00 -0.15344978711E+02  0.15397443672E+02  0.12700000000E+01 0.  1.
         25    2    1    2    0    0 -0.21274110826E+02  0.51596591530E+01  0.25296383646E+03  0.28300988366E+03  0.12499872727E+03 0.  0.
    9000005    1    3    3    0    0 -0.54030513373E+02 -0.42656281632E+02  0.14250671764E+03  0.15826566056E+03  0.10000000000E+01 0.  0.
    9000005    1    3    3    0    0  0.32756402547E+02  0.47815940786E+02  0.11045711882E+03  0.12474422310E+03  0.10000000000E+01 0.  0.
         -4    1    1    2    0  502  0.21274110826E+02 -0.51596591530E+01  0.34488437360E+03  0.34558074878E+03  0.12700000000E+01 0. -1.
<mgrwt>
<rscale>  1 0.12690111E+03</rscale>
<asrwt>0</asrwt>
<pdfrwt beam="1">  1       21 0.94337395E-01 0.12690111E+03</pdfrwt>
<pdfrwt beam="2">  1       -4 0.23649034E-02 0.12690111E+03</pdfrwt>
<totfact> 0.30143045E+04</totfact>
</mgrwt>
</event>
<event>
 6    3  0.7601760E-003  0.1275930E+03  0.7818608E-02  0.1231072E+00
         -4   -1    0    0    0  501 -0.00000000000E+00  0.00000000000E+00  0.11909895158E+04  0.11909901929E+04  0.12700000000E+01 0.  1.
         21   -1    0    0  501  502  0.00000000000E+00 -0.00000000000E+00 -0.70006048329E+01  0.70006048329E+01  0.00000000000E+00 0.  1.
         25    2    1    2    0    0  0.15621449410E+02 -0.20274439289E+02  0.11397190121E+04  0.11468388729E+04  0.12499956523E+03 0.  0.
    9000005    1    3    3    0    0  0.37970969886E+00 -0.53890807160E+02  0.22467737557E+03  0.23105256192E+03  0.10000000000E+01 0.  0.
    9000005    1    3    3    0    0  0.15241739712E+02  0.33616367871E+02  0.91504163653E+03  0.91578631100E+03  0.10000000000E+01 0.  0.
         -4    1    1    2    0  502 -0.15621449410E+02  0.20274439289E+02  0.44269898882E+02  0.51151924863E+02  0.12700000000E+01 0. -1.
<mgrwt>
<rscale>  1 0.12759300E+03</rscale>
<asrwt>0</asrwt>
<pdfrwt beam="2">  1       21 0.10770171E-02 0.12759300E+03</pdfrwt>
<pdfrwt beam="1">  1       -4 0.18323791E+00 0.12759300E+03</pdfrwt>
<totfact> 0.25123049E+04</totfact>
</mgrwt>
</event>
<event>
 6    3  0.7601760E-003  0.1325421E+03  0.7818608E-02  0.1223732E+00
         21   -1    0    0  501  502  0.00000000000E+00  0.00000000000E+00  0.30075200422E+03  0.30075200422E+03  0.00000000000E+00 0. -1.
         -4   -1    0    0    0  501 -0.00000000000E+00 -0.00000000000E+00 -0.91591543069E+02  0.91600347498E+02  0.12700000000E+01 0.  1.
         25    2    1    2    0    0 -0.25659663732E+02  0.35828072840E+02 -0.40685848949E+02  0.13864610285E+03  0.12500133753E+03 0.  0.
    9000005    1    3    3    0    0 -0.89976402157E+01  0.11237105034E+02 -0.84488576117E+02  0.85712015221E+02  0.10000000000E+01 0.  0.
    9000005    1    3    3    0    0 -0.16662023516E+02  0.24590967807E+02  0.43802727168E+02  0.52934087625E+02  0.10000000000E+01 0.  0.
         -4    1    1    2    0  502  0.25659663732E+02 -0.35828072840E+02  0.24984631010E+03  0.25370624887E+03  0.12700000000E+01 0. -1.
<mgrwt>
<rscale>  1 0.13254208E+03</rscale>
<asrwt>0</asrwt>
<pdfrwt beam="1">  1       21 0.46269539E-01 0.13254208E+03</pdfrwt>
<pdfrwt beam="2">  1       -4 0.14091890E-01 0.13254208E+03</pdfrwt>
<totfact> 0.77446774E+03</totfact>
</mgrwt>
</event>
<event>
 6    3  0.7601760E-003  0.1265891E+03  0.7818608E-02  0.1232606E+00
         -4   -1    0    0    0  501 -0.00000000000E+00  0.00000000000E+00  0.11076311854E+03  0.11077039916E+03  0.12700000000E+01 0. -1.
         21   -1    0    0  501  502  0.00000000000E+00 -0.00000000000E+00 -0.52293871993E+02  0.52293871993E+02  0.00000000000E+00 0. -1.
         25    2    1    2    0    0  0.19351423603E+02 -0.52036096573E+01  0.64533621880E+02  0.14208941246E+03  0.12499303033E+03 0.  0.
    9000005    1    3    3    0    0  0.10427362211E+02 -0.49555261898E+01  0.10246020890E+03  0.10311344011E+03  0.10000000000E+01 0.  0.
    9000005    1    3    3    0    0  0.89240613917E+01 -0.24808346755E+00 -0.37926587024E+02  0.38975972348E+02  0.10000000000E+01 0.  0.
         -4    1    1    2    0  502 -0.19351423603E+02  0.52036096573E+01 -0.60643753320E+01  0.20974858691E+02  0.12700000000E+01 0.  1.
<mgrwt>
<rscale>  1 0.12658915E+03</rscale>
<asrwt>0</asrwt>
<pdfrwt beam="2">  1       21 0.80452112E-02 0.12658915E+03</pdfrwt>
<pdfrwt beam="1">  1       -4 0.17042226E-01 0.12658915E+03</pdfrwt>
<totfact> 0.14197996E+05</totfact>
</mgrwt>
</event>
<event>
 6    3  0.7601760E-003  0.1271603E+03  0.7818608E-02  0.1231731E+00
          4   -1    0    0  502    0 -0.00000000000E+00  0.00000000000E+00  0.44754366912E+01  0.46521429016E+01  0.12700000000E+01 0. -1.
         21   -1    0    0  501  502  0.00000000000E+00 -0.00000000000E+00 -0.20641050583E+04  0.20641050583E+04  0.00000000000E+00 0.  1.
         25    2    1    2    0    0  0.15751733146E+02  0.17226712016E+02 -0.90488840219E+03  0.91377937742E+03  0.12499941390E+03 0.  0.
    9000005    1    3    3    0    0 -0.47792519501E+02  0.36883183350E+02 -0.45978177765E+03  0.46372920675E+03  0.10000000000E+01 0.  0.
    9000005    1    3    3    0    0  0.63544252647E+02 -0.19656471334E+02 -0.44510662454E+03  0.45005017067E+03  0.10000000000E+01 0.  0.
          4    1    1    2  501    0 -0.15751733146E+02 -0.17226712016E+02 -0.11547412194E+04  0.11549778237E+04  0.12700000000E+01 0.  1.
<mgrwt>
<rscale>  1 0.12716025E+03</rscale>
<asrwt>0</asrwt>
<pdfrwt beam="2">  1       21 0.31755377E+00 0.12716025E+03</pdfrwt>
<pdfrwt beam="1">  1        4 0.70215345E-03 0.12716025E+03</pdfrwt>
<totfact> 0.58603223E+03</totfact>
</mgrwt>
</event>
<event>
 6    3  0.7601760E-003  0.1373045E+03  0.7818608E-02  0.1217003E+00
         -4   -1    0    0    0  501 -0.00000000000E+00  0.00000000000E+00  0.74189391233E+02  0.74200260589E+02  0.12700000000E+01 0.  1.
         21   -1    0    0  501  502  0.00000000000E+00 -0.00000000000E+00 -0.15860444734E+03  0.15860444734E+03  0.00000000000E+00 0. -1.
         25    2    1    2    0    0  0.56502510634E+02  0.58962024219E+01 -0.79457193910E+01  0.13753419167E+03  0.12500088204E+03 0.  0.
    9000005    1    3    3    0    0  0.64709528834E+02 -0.30924404642E+02 -0.44977704349E+02  0.84661891149E+02  0.10000000000E+01 0.  0.
    9000005    1    3    3    0    0 -0.82070181998E+01  0.36820607064E+02  0.37031984958E+02  0.52872300519E+02  0.10000000000E+01 0.  0.
         -4    1    1    2    0  502 -0.56502510634E+02 -0.58962024219E+01 -0.76469336721E+02  0.95270516265E+02  0.12700000000E+01 0. -1.
<mgrwt>
<rscale>  1 0.13730448E+03</rscale>
<asrwt>0</asrwt>
<pdfrwt beam="2">  1       21 0.24400684E-01 0.13730448E+03</pdfrwt>
<pdfrwt beam="1">  1       -4 0.11414980E-01 0.13730448E+03</pdfrwt>
<totfact> 0.39101364E+04</totfact>
</mgrwt>
</event>
<event>
 6    3  0.7601760E-003  0.1281397E+03  0.7818608E-02  0.1230243E+00
         21   -1    0    0  501  502  0.00000000000E+00  0.00000000000E+00  0.61405997511E+01  0.61405997511E+01  0.00000000000E+00 0. -1.
          4   -1    0    0  502    0 -0.00000000000E+00 -0.00000000000E+00 -0.10148232285E+04  0.10148240231E+04  0.12700000000E+01 0.  1.
         25    2    1    2    0    0  0.96720871335E+01 -0.26533650585E+02 -0.87432310727E+03  0.88366321071E+03  0.12498876019E+03 0.  0.
    9000005    1    3    3    0    0 -0.20222558690E+01 -0.22241433319E+02 -0.22394960678E+02  0.31643405927E+02  0.10000000000E+01 0.  0.
    9000005    1    3    3    0    0  0.11694343003E+02 -0.42922172655E+01 -0.85192814659E+03  0.85201980478E+03  0.10000000000E+01 0.  0.
          4    1    1    2  501    0 -0.96720871335E+01  0.26533650585E+02 -0.13435952145E+03  0.13730141218E+03  0.12700000000E+01 0. -1.
<mgrwt>
<rscale>  1 0.12813967E+03</rscale>
<asrwt>0</asrwt>
<pdfrwt beam="1">  1       21 0.94470857E-03 0.12813967E+03</pdfrwt>
<pdfrwt beam="2">  1        4 0.15613666E+00 0.12813967E+03</pdfrwt>
<totfact> 0.47255239E+04</totfact>
</mgrwt>
</event>
<event>
 6    3  0.7601760E-003  0.1284010E+03  0.7818608E-02  0.1229848E+00
         21   -1    0    0  501  502  0.00000000000E+00  0.00000000000E+00  0.26594585752E+02  0.26594585752E+02  0.00000000000E+00 0.  1.
         -4   -1    0    0    0  501 -0.00000000000E+00 -0.00000000000E+00 -0.26151389802E+03  0.26151698178E+03  0.12700000000E+01 0. -1.
         25    2    1    2    0    0  0.17337919795E+02 -0.23702854835E+02 -0.22098813804E+03  0.25558282169E+03  0.12499757118E+03 0.  0.
    9000005    1    3    3    0    0  0.19482345454E+02  0.37781196458E+02 -0.23184661804E+02  0.48430456669E+02  0.10000000000E+01 0.  0.
    9000005    1    3    3    0    0 -0.21444256591E+01 -0.61484051293E+02 -0.19780347624E+03  0.20715236503E+03  0.10000000000E+01 0.  0.
         -4    1    1    2    0  502 -0.17337919795E+02  0.23702854835E+02 -0.13931174226E+02  0.32528745833E+02  0.12700000000E+01 0.  1.
<mgrwt>
<rscale>  1 0.12840102E+03</rscale>
<asrwt>0</asrwt>
<pdfrwt beam="1">  1       21 0.40914746E-02 0.12840102E+03</pdfrwt>
<pdfrwt beam="2">  1       -4 0.40235479E-01 0.12840102E+03</pdfrwt>
<totfact> 0.90498354E+04</totfact>
</mgrwt>
</event>
<event>
 6    3  0.7601760E-003  0.1271793E+03  0.7818608E-02  0.1231702E+00
          4   -1    0    0  502    0 -0.00000000000E+00  0.00000000000E+00  0.25348638345E+03  0.25348956487E+03  0.12700000000E+01 0.  1.
         21   -1    0    0  501  502  0.00000000000E+00 -0.00000000000E+00 -0.29402213460E+02  0.29402213460E+02  0.00000000000E+00 0. -1.
         25    2    1    2    0    0 -0.18032505035E+02  0.14935693150E+02  0.22603924058E+03  0.25936134338E+03  0.12500528785E+03 0.  0.
    9000005    1    3    3    0    0 -0.27475784496E+02  0.32987969466E+01  0.23834255373E+03  0.23994577245E+03  0.10000000000E+01 0.  0.
    9000005    1    3    3    0    0  0.94432794605E+01  0.11636896203E+02 -0.12303313152E+02  0.19415570935E+02  0.10000000000E+01 0.  0.
          4    1    1    2  501    0  0.18032505035E+02 -0.14935693150E+02 -0.19550705880E+01  0.23530434945E+02  0.12700000000E+01 0. -1.
<mgrwt>
<rscale>  1 0.12717928E+03</rscale>
<asrwt>0</asrwt>
<pdfrwt beam="2">  1       21 0.45234176E-02 0.12717928E+03</pdfrwt>
<pdfrwt beam="1">  1        4 0.39000258E-01 0.12717928E+03</pdfrwt>
<totfact> 0.81276368E+04</totfact>
</mgrwt>
</event>
<event>
 6    3  0.7601760E-003  0.1283822E+03  0.7818608E-02  0.1229876E+00
         21   -1    0    0  501  502  0.00000000000E+00  0.00000000000E+00  0.12438436980E+03  0.12438436980E+03  0.00000000000E+00 0.  1.
          4   -1    0    0  502    0 -0.00000000000E+00 -0.00000000000E+00 -0.17360793149E+03  0.17361257667E+03  0.12700000000E+01 0. -1.
         25    2    1    2    0    0 -0.14464345360E+02  0.25470199187E+02 -0.14743838910E+03  0.19549956329E+03  0.12499620928E+03 0.  0.
    9000005    1    3    3    0    0  0.54459908065E+02 -0.11664025549E+01 -0.62075943607E+02  0.82593370533E+02  0.10000000000E+01 0.  0.
    9000005    1    3    3    0    0 -0.68924253424E+02  0.26636601742E+02 -0.85362445498E+02  0.11290619276E+03  0.10000000000E+01 0.  0.
          4    1    1    2  501    0  0.14464345360E+02 -0.25470199187E+02  0.98214827418E+02  0.10249738318E+03  0.12700000000E+01 0.  1.
<mgrwt>
<rscale>  1 0.12838224E+03</rscale>
<asrwt>0</asrwt>
<pdfrwt beam="1">  1       21 0.19136057E-01 0.12838224E+03</pdfrwt>
<pdfrwt beam="2">  1        4 0.26709769E-01 0.12838224E+03</pdfrwt>
<totfact> 0.13509780E+04</totfact>
</mgrwt>
</event>
<event>
 6    3  0.7601760E-003  0.1285650E+03  0.7818608E-02  0.1229601E+00
         -4   -1    0    0    0  501 -0.00000000000E+00  0.00000000000E+00  0.14951545164E+03  0.14952084530E+03  0.12700000000E+01 0.  1.
         21   -1    0    0  501  502  0.00000000000E+00 -0.00000000000E+00 -0.70853995163E+02  0.70853995163E+02  0.00000000000E+00 0. -1.
         25    2    1    2    0    0  0.28435615469E+02  0.97982333625E+01  0.11548184580E+03  0.17281494586E+03  0.12499743677E+03 0.  0.
    9000005    1    3    3    0    0  0.41673078662E+02 -0.48461391265E+02  0.83132014779E+02  0.10486698150E+03  0.10000000000E+01 0.  0.
    9000005    1    3    3    0    0 -0.13237463193E+02  0.58259624627E+02  0.32349831024E+02  0.67947964361E+02  0.10000000000E+01 0.  0.
         -4    1    1    2    0  502 -0.28435615469E+02 -0.97982333625E+01 -0.36820389326E+02  0.47559894598E+02  0.12700000000E+01 0. -1.
<mgrwt>
<rscale>  1 0.12856496E+03</rscale>
<asrwt>0</asrwt>
<pdfrwt beam="2">  1       21 0.10900615E-01 0.12856496E+03</pdfrwt>
<pdfrwt beam="1">  1       -4 0.23003668E-01 0.12856496E+03</pdfrwt>
<totfact> 0.48937044E+04</totfact>
</mgrwt>
</event>
<event>
 6    3  0.7601760E-003  0.1284393E+03  0.7818608E-02  0.1229790E+00
         -4   -1    0    0    0  501 -0.00000000000E+00  0.00000000000E+00  0.93538801545E+02  0.93547422704E+02  0.12700000000E+01 0.  1.
         21   -1    0    0  501  502  0.00000000000E+00 -0.00000000000E+00 -0.69206032773E+02  0.69206032773E+02  0.00000000000E+00 0.  1.
         25    2    1    2    0    0  0.16389086512E+02  0.24540976790E+02  0.31736184644E+02  0.13230209812E+03  0.12500319217E+03 0.  0.
    9000005    1    3    3    0    0  0.38059708850E+02 -0.34626829000E+02  0.44462164751E+02  0.68010608134E+02  0.10000000000E+01 0.  0.
    9000005    1    3    3    0    0 -0.21670622338E+02  0.59167805790E+02 -0.12725980107E+02  0.64291489983E+02  0.10000000000E+01 0.  0.
         -4    1    1    2    0  502 -0.16389086512E+02 -0.24540976790E+02 -0.74034158722E+01  0.30451357360E+02  0.12700000000E+01 0. -1.
<mgrwt>
<rscale>  1 0.12843932E+03</rscale>
<asrwt>0</asrwt>
<pdfrwt beam="2">  1       21 0.10647082E-01 0.12843932E+03</pdfrwt>
<pdfrwt beam="1">  1       -4 0.14392144E-01 0.12843932E+03</pdfrwt>
<totfact> 0.11748076E+05</totfact>
</mgrwt>
</event>
<event>
 6    3  0.7601760E-003  0.1337049E+03  0.7818608E-02  0.1222060E+00
         -4   -1    0    0    0  501 -0.00000000000E+00  0.00000000000E+00  0.21033736104E+02  0.21072042011E+02  0.12700000000E+01 0.  1.
         21   -1    0    0  501  502  0.00000000000E+00 -0.00000000000E+00 -0.52493369188E+03  0.52493369188E+03  0.00000000000E+00 0.  1.
         25    2    1    2    0    0  0.43130550696E+02  0.19790289102E+02 -0.21465277064E+03  0.25288895349E+03  0.12500044362E+03 0.  0.
    9000005    1    3    3    0    0  0.12496923071E+02 -0.51112967646E+02 -0.11767654658E+03  0.12890879785E+03  0.10000000000E+01 0.  0.
    9000005    1    3    3    0    0  0.30633627625E+02  0.70903256748E+02 -0.96976224064E+02  0.12398015564E+03  0.10000000000E+01 0.  0.
         -4    1    1    2    0  502 -0.43130550696E+02 -0.19790289102E+02 -0.28924718513E+03  0.29311678040E+03  0.12700000000E+01 0. -1.
<mgrwt>
<rscale>  1 0.13370494E+03</rscale>
<asrwt>0</asrwt>
<pdfrwt beam="2">  1       21 0.80759037E-01 0.13370494E+03</pdfrwt>
<pdfrwt beam="1">  1       -4 0.32390239E-02 0.13370494E+03</pdfrwt>
<totfact> 0.26398073E+04</totfact>
</mgrwt>
</event>
<event>
 6    3  0.7601760E-003  0.1394814E+03  0.7818608E-02  0.1214029E+00
         -4   -1    0    0    0  501 -0.00000000000E+00  0.00000000000E+00  0.54049530448E+02  0.54064448963E+02  0.12700000000E+01 0.  1.
         21   -1    0    0  501  502  0.00000000000E+00 -0.00000000000E+00 -0.38919018837E+03  0.38919018837E+03  0.00000000000E+00 0. -1.
         25    2    1    2    0    0 -0.31759972606E+02 -0.53127410585E+02 -0.44967797451E+02  0.14655088025E+03  0.12499536023E+03 0.  0.
    9000005    1    3    3    0    0 -0.22160151942E+02  0.66133265601E+01  0.37616447219E+02  0.44167924150E+02  0.10000000000E+01 0.  0.
    9000005    1    3    3    0    0 -0.95998206636E+01 -0.59740737145E+02 -0.82584244670E+02  0.10238295610E+03  0.10000000000E+01 0.  0.
         -4    1    1    2    0  502  0.31759972606E+02  0.53127410585E+02 -0.29017286048E+03  0.29670375709E+03  0.12700000000E+01 0. -1.
<mgrwt>
<rscale>  1 0.13948139E+03</rscale>
<asrwt>0</asrwt>
<pdfrwt beam="2">  1       21 0.59875415E-01 0.13948139E+03</pdfrwt>
<pdfrwt beam="1">  1       -4 0.83166191E-02 0.13948139E+03</pdfrwt>
<totfact> 0.11115338E+04</totfact>
</mgrwt>
</event>
<event>
 6    3  0.7601760E-003  0.1316912E+03  0.7818608E-02  0.1224968E+00
          4   -1    0    0  502    0 -0.00000000000E+00  0.00000000000E+00  0.34575381619E+03  0.34575614863E+03  0.12700000000E+01 0.  1.
         21   -1    0    0  501  502  0.00000000000E+00 -0.00000000000E+00 -0.30784535331E+02  0.30784535331E+02  0.00000000000E+00 0. -1.
         25    2    1    2    0    0  0.45861931359E+01 -0.41171098579E+02  0.30738521420E+03  0.33440728280E+03  0.12500587329E+03 0.  0.
    9000005    1    3    3    0    0 -0.49588647385E+02  0.65933282742E+00  0.20730292911E+03  0.21315481014E+03  0.10000000000E+01 0.  0.
    9000005    1    3    3    0    0  0.54174840521E+02 -0.41830431406E+02  0.10008228509E+03  0.12125247266E+03  0.10000000000E+01 0.  0.
          4    1    1    2  501    0 -0.45861931359E+01  0.41171098579E+02  0.75840666628E+01  0.42133401154E+02  0.12700000000E+01 0. -1.
<mgrwt>
<rscale>  1 0.13169116E+03</rscale>
<asrwt>0</asrwt>
<pdfrwt beam="2">  1       21 0.47360826E-02 0.13169116E+03</pdfrwt>
<pdfrwt beam="1">  1        4 0.53195087E-01 0.13169116E+03</pdfrwt>
<totfact> 0.40575086E+04</totfact>
</mgrwt>
</event>
<event>
 6    3  0.7601760E-003  0.1431526E+03  0.7818608E-02  0.1209149E+00
         21   -1    0    0  501  502  0.00000000000E+00  0.00000000000E+00  0.16541103619E+02  0.16541103619E+02  0.00000000000E+00 0. -1.
         -4   -1    0    0    0  501 -0.00000000000E+00 -0.00000000000E+00 -0.77278992227E+03  0.77279096582E+03  0.12700000000E+01 0.  1.
         25    2    1    2    0    0 -0.37447053815E+02  0.58792423589E+02 -0.61965068761E+03  0.63597140560E+03  0.12503528771E+03 0.  0.
    9000005    1    3    3    0    0 -0.42003046820E+02 -0.23403722506E+02 -0.11503355344E+03  0.12468243094E+03  0.10000000000E+01 0.  0.
    9000005    1    3    3    0    0  0.45559930051E+01  0.82196146095E+02 -0.50461713417E+03  0.51128897466E+03  0.10000000000E+01 0.  0.
         -4    1    1    2    0  502  0.37447053815E+02 -0.58792423589E+02 -0.13659813104E+03  0.15336066384E+03  0.12700000000E+01 0. -1.
<mgrwt>
<rscale>  1 0.14315256E+03</rscale>
<asrwt>0</asrwt>
<pdfrwt beam="1">  1       21 0.25447853E-02 0.14315256E+03</pdfrwt>
<pdfrwt beam="2">  1       -4 0.11889458E+00 0.14315256E+03</pdfrwt>
<totfact> 0.19257617E+04</totfact>
</mgrwt>
</event>
<event>
 6    3  0.7601760E-003  0.1401209E+03  0.7818608E-02  0.1213166E+00
         21   -1    0    0  501  502  0.00000000000E+00  0.00000000000E+00  0.12327374453E+02  0.12327374453E+02  0.00000000000E+00 0. -1.
         -4   -1    0    0    0  501 -0.00000000000E+00 -0.00000000000E+00 -0.12492714332E+04  0.12492720787E+04  0.12700000000E+01 0.  1.
         25    2    1    2    0    0  0.62848335860E+02  0.77123223048E+01 -0.11188945123E+04  0.11276341534E+04  0.12499784391E+03 0.  0.
    9000005    1    3    3    0    0 -0.33756362381E+02 -0.12504572033E+02 -0.18009009791E+03  0.18365538296E+03  0.10000000000E+01 0.  0.
    9000005    1    3    3    0    0  0.96604698241E+02  0.20216894338E+02 -0.93880441436E+03  0.94397877040E+03  0.10000000000E+01 0.  0.
         -4    1    1    2    0  502 -0.62848335860E+02 -0.77123223048E+01 -0.11804954643E+03  0.13396529979E+03  0.12700000000E+01 0. -1.
<mgrwt>
<rscale>  1 0.14012086E+03</rscale>
<asrwt>0</asrwt>
<pdfrwt beam="1">  1       21 0.18965185E-02 0.14012086E+03</pdfrwt>
<pdfrwt beam="2">  1       -4 0.19220075E+00 0.14012086E+03</pdfrwt>
<totfact> 0.89985058E+03</totfact>
</mgrwt>
</event>
<event>
 6    3  0.7601760E-003  0.1291898E+03  0.7818608E-02  0.1228663E+00
         -4   -1    0    0    0  501 -0.00000000000E+00  0.00000000000E+00  0.81546070124E+02  0.81555959026E+02  0.12700000000E+01 0. -1.
         21   -1    0    0  501  502  0.00000000000E+00 -0.00000000000E+00 -0.13828771274E+03  0.13828771274E+03  0.00000000000E+00 0. -1.
         25    2    1    2    0    0  0.48680102218E+01  0.32272994834E+02  0.25206594537E+02  0.13162592870E+03  0.12499907591E+03 0.  0.
    9000005    1    3    3    0    0  0.63997980613E+02  0.20434141376E+02  0.23859274689E+02  0.71299092877E+02  0.10000000000E+01 0.  0.
    9000005    1    3    3    0    0 -0.59129970392E+02  0.11838853458E+02  0.13473198478E+01  0.60326835824E+02  0.10000000000E+01 0.  0.
         -4    1    1    2    0  502 -0.48680102218E+01 -0.32272994834E+02 -0.81948237150E+02  0.88217743063E+02  0.12700000000E+01 0.  1.
<mgrwt>
<rscale>  1 0.12918983E+03</rscale>
<asrwt>0</asrwt>
<pdfrwt beam="2">  1       21 0.21275033E-01 0.12918983E+03</pdfrwt>
<pdfrwt beam="1">  1       -4 0.12546759E-01 0.12918983E+03</pdfrwt>
<totfact> 0.42717502E+04</totfact>
</mgrwt>
</event>
<event>
 6    3  0.7601760E-003  0.2078833E+03  0.7818608E-02  0.1143253E+00
         -4   -1    0    0    0  501 -0.00000000000E+00  0.00000000000E+00  0.23210611536E+03  0.23210958982E+03  0.12700000000E+01 0.  1.
         21   -1    0    0  501  502  0.00000000000E+00 -0.00000000000E+00 -0.20751477361E+03  0.20751477361E+03  0.00000000000E+00 0. -1.
         25    2    1    2    0    0  0.80500223126E+02  0.14529362021E+03  0.12783617418E+03  0.24404412332E+03  0.12499969881E+03 0.  0.
    9000005    1    3    3    0    0  0.56345038514E+02  0.41798579468E+01  0.69176986538E+02  0.89323513388E+02  0.10000000000E+01 0.  0.
    9000005    1    3    3    0    0  0.24155184612E+02  0.14111376226E+03  0.58659187645E+02  0.15472060993E+03  0.10000000000E+01 0.  0.
         -4    1    1    2    0  502 -0.80500223126E+02 -0.14529362021E+03 -0.10324483244E+03  0.19558024011E+03  0.12700000000E+01 0. -1.
<mgrwt>
<rscale>  1 0.20788325E+03</rscale>
<asrwt>0</asrwt>
<pdfrwt beam="2">  1       21 0.31925350E-01 0.20788325E+03</pdfrwt>
<pdfrwt beam="1">  1       -4 0.35709199E-01 0.20788325E+03</pdfrwt>
<totfact> 0.30217301E+03</totfact>
</mgrwt>
</event>
<event>
 6    3  0.7601760E-003  0.1286782E+03  0.7818608E-02  0.1229430E+00
         21   -1    0    0  501  502  0.00000000000E+00  0.00000000000E+00  0.27925604944E+02  0.27925604944E+02  0.00000000000E+00 0. -1.
          4   -1    0    0  502    0 -0.00000000000E+00 -0.00000000000E+00 -0.37212987101E+03  0.37213203813E+03  0.12700000000E+01 0. -1.
         25    2    1    2    0    0  0.15586853360E+02 -0.26275923809E+02 -0.34627408830E+03  0.36941011081E+03  0.12499884626E+03 0.  0.
    9000005    1    3    3    0    0  0.20909108557E+02 -0.53114234012E+02 -0.33495154358E+03  0.33978206136E+03  0.10000000000E+01 0.  0.
    9000005    1    3    3    0    0 -0.53222551970E+01  0.26838310203E+02 -0.11322544722E+02  0.29628049445E+02  0.10000000000E+01 0.  0.
          4    1    1    2  501    0 -0.15586853360E+02  0.26275923809E+02  0.20698222364E+01  0.30647532263E+02  0.12700000000E+01 0.  1.
<mgrwt>
<rscale>  1 0.12867823E+03</rscale>
<asrwt>0</asrwt>
<pdfrwt beam="1">  1       21 0.42962468E-02 0.12867823E+03</pdfrwt>
<pdfrwt beam="2">  1        4 0.57253139E-01 0.12867823E+03</pdfrwt>
<totfact> 0.40895397E+04</totfact>
</mgrwt>
</event>
<event>
 6    3  0.7601760E-003  0.1305596E+03  0.7818608E-02  0.1226628E+00
         21   -1    0    0  501  502  0.00000000000E+00  0.00000000000E+00  0.13065682684E+02  0.13065682684E+02  0.00000000000E+00 0. -1.
          4   -1    0    0  502    0 -0.00000000000E+00 -0.00000000000E+00 -0.65479475876E+03  0.65479599036E+03  0.12700000000E+01 0. -1.
         25    2    1    2    0    0 -0.33441830420E+02 -0.17391164368E+02 -0.58733714074E+03  0.60167327414E+03  0.12500001323E+03 0.  0.
    9000005    1    3    3    0    0 -0.39014289131E+02 -0.54024501154E+02 -0.16853873410E+03  0.18123759647E+03  0.10000000000E+01 0.  0.
    9000005    1    3    3    0    0  0.55724587111E+01  0.36633336786E+02 -0.41879840663E+03  0.42043567767E+03  0.10000000000E+01 0.  0.
          4    1    1    2  501    0  0.33441830420E+02  0.17391164368E+02 -0.54391935334E+02  0.66188398902E+02  0.12700000000E+01 0.  1.
<mgrwt>
<rscale>  1 0.13055961E+03</rscale>
<asrwt>0</asrwt>
<pdfrwt beam="1">  1       21 0.20101055E-02 0.13055961E+03</pdfrwt>
<pdfrwt beam="2">  1        4 0.10074247E+00 0.13055961E+03</pdfrwt>
<totfact> 0.41288839E+04</totfact>
</mgrwt>
</event>
<event>
 6    3  0.7601760E-003  0.1277551E+03  0.7818608E-02  0.1230825E+00
          4   -1    0    0  502    0 -0.00000000000E+00  0.00000000000E+00  0.21447638068E+03  0.21448014073E+03  0.12700000000E+01 0. -1.
         21   -1    0    0  501  502  0.00000000000E+00 -0.00000000000E+00 -0.82665236540E+02  0.82665236540E+02  0.00000000000E+00 0.  1.
         25    2    1    2    0    0 -0.13317492717E+02 -0.22780392458E+02  0.19245421901E+03  0.23099783520E+03  0.12500028623E+03 0.  0.
    9000005    1    3    3    0    0  0.81352603044E+01 -0.48607601231E+02  0.16674661989E+02  0.52037733522E+02  0.10000000000E+01 0.  0.
    9000005    1    3    3    0    0 -0.21452753022E+02  0.25827208773E+02  0.17577955702E+03  0.17896010167E+03  0.10000000000E+01 0.  0.
          4    1    1    2  501    0  0.13317492717E+02  0.22780392458E+02 -0.60643074871E+02  0.66147542076E+02  0.12700000000E+01 0.  1.
<mgrwt>
<rscale>  1 0.12775513E+03</rscale>
<asrwt>0</asrwt>
<pdfrwt beam="2">  1       21 0.12717729E-01 0.12775513E+03</pdfrwt>
<pdfrwt beam="1">  1        4 0.32997406E-01 0.12775513E+03</pdfrwt>
<totfact> 0.18979960E+04</totfact>
</mgrwt>
</event>
<event>
 6    3  0.7601760E-003  0.1274283E+03  0.7818608E-02  0.1231322E+00
          4   -1    0    0  502    0 -0.00000000000E+00  0.00000000000E+00  0.11593698371E+02  0.11663050284E+02  0.12700000000E+01 0. -1.
         21   -1    0    0  501  502  0.00000000000E+00 -0.00000000000E+00 -0.50018642627E+03  0.50018642627E+03  0.00000000000E+00 0. -1.
         25    2    1    2    0    0 -0.12012000628E+02  0.21663803717E+02 -0.39639486183E+03  0.41637346932E+03  0.12499748363E+03 0.  0.
    9000005    1    3    3    0    0  0.43915557231E+02  0.10060948829E+01 -0.57993756088E+02  0.72758945423E+02  0.10000000000E+01 0.  0.
    9000005    1    3    3    0    0 -0.55927557859E+02  0.20657708834E+02 -0.33840110575E+03  0.34361452390E+03  0.10000000000E+01 0.  0.
          4    1    1    2  501    0  0.12012000628E+02 -0.21663803717E+02 -0.92197866068E+02  0.95476007238E+02  0.12700000000E+01 0.  1.
<mgrwt>
<rscale>  1 0.12742833E+03</rscale>
<asrwt>0</asrwt>
<pdfrwt beam="2">  1       21 0.76951730E-01 0.12742833E+03</pdfrwt>
<pdfrwt beam="1">  1        4 0.17891053E-02 0.12742833E+03</pdfrwt>
<totfact> 0.73456621E+04</totfact>
</mgrwt>
</event>
<event>
 6    3  0.7601760E-003  0.1300808E+03  0.7818608E-02  0.1227336E+00
         21   -1    0    0  501  502  0.00000000000E+00  0.00000000000E+00  0.56190833413E+02  0.56190833413E+02  0.00000000000E+00 0. -1.
          4   -1    0    0  502    0 -0.00000000000E+00 -0.00000000000E+00 -0.88185570604E+03  0.88185662053E+03  0.12700000000E+01 0.  1.
         25    2    1    2    0    0 -0.27258266190E+02  0.23526352896E+02 -0.87070580919E+03  0.88036902450E+03  0.12499804311E+03 0.  0.
    9000005    1    3    3    0    0  0.38688175826E+02  0.37090371121E+02 -0.55382869009E+03  0.55641682985E+03  0.10000000000E+01 0.  0.
    9000005    1    3    3    0    0 -0.65946442016E+02 -0.13564018225E+02 -0.31687711910E+03  0.32395219465E+03  0.10000000000E+01 0.  0.
          4    1    1    2  501    0  0.27258266190E+02 -0.23526352896E+02  0.45040936567E+02  0.57678429443E+02  0.12700000000E+01 0. -1.
<mgrwt>
<rscale>  1 0.13008079E+03</rscale>
<asrwt>0</asrwt>
<pdfrwt beam="1">  1       21 0.86447447E-02 0.13008079E+03</pdfrwt>
<pdfrwt beam="2">  1        4 0.13567127E+00 0.13008079E+03</pdfrwt>
<totfact> 0.17796115E+03</totfact>
</mgrwt>
</event>
<event>
 6    3  0.7601760E-003  0.1280298E+03  0.7818608E-02  0.1230409E+00
         21   -1    0    0  501  502  0.00000000000E+00  0.00000000000E+00  0.14522791889E+03  0.14522791889E+03  0.00000000000E+00 0.  1.
         -4   -1    0    0    0  501 -0.00000000000E+00 -0.00000000000E+00 -0.75194651032E+02  0.75205375099E+02  0.12700000000E+01 0. -1.
         25    2    1    2    0    0  0.19666387533E+02 -0.19474611244E+02 -0.16947338503E+02  0.12914656952E+03  0.12500238739E+03 0.  0.
    9000005    1    3    3    0    0  0.31575721332E+02 -0.52325716161E+02 -0.51550493386E+02  0.79959115289E+02  0.10000000000E+01 0.  0.
    9000005    1    3    3    0    0 -0.11909333799E+02  0.32851104917E+02  0.34603154883E+02  0.49187454230E+02  0.10000000000E+01 0.  0.
         -4    1    1    2    0  502 -0.19666387533E+02  0.19474611244E+02  0.86980606366E+02  0.91286724475E+02  0.12700000000E+01 0.  1.
<mgrwt>
<rscale>  1 0.12802978E+03</rscale>
<asrwt>0</asrwt>
<pdfrwt beam="1">  1       21 0.22342757E-01 0.12802978E+03</pdfrwt>
<pdfrwt beam="2">  1       -4 0.11569660E-01 0.12802978E+03</pdfrwt>
<totfact> 0.44738236E+04</totfact>
</mgrwt>
</event>
<event>
 6    3  0.7601760E-003  0.1309006E+03  0.7818608E-02  0.1226125E+00
         -4   -1    0    0    0  501 -0.00000000000E+00  0.00000000000E+00  0.71841279168E+01  0.72955187564E+01  0.12700000000E+01 0. -1.
         21   -1    0    0  501  502  0.00000000000E+00 -0.00000000000E+00 -0.31699431533E+04  0.31699431533E+04  0.00000000000E+00 0.  1.
         25    2    1    2    0    0 -0.38782908473E+02  0.25267932038E+01 -0.59688947773E+03  0.61107448262E+03  0.12499790402E+03 0.  0.
    9000005    1    3    3    0    0  0.27339538339E+02  0.12247714898E+02 -0.38963971832E+02  0.49159413929E+02  0.10000000000E+01 0.  0.
    9000005    1    3    3    0    0 -0.66122446812E+02 -0.97209216944E+01 -0.55792550590E+03  0.56191506869E+03  0.10000000000E+01 0.  0.
         -4    1    1    2    0  502  0.38782908473E+02 -0.25267932038E+01 -0.25658695477E+04  0.25661641895E+04  0.12700000000E+01 0.  1.
<mgrwt>
<rscale>  1 0.13090063E+03</rscale>
<asrwt>0</asrwt>
<pdfrwt beam="2">  1       21 0.48768365E+00 0.13090063E+03</pdfrwt>
<pdfrwt beam="1">  1       -4 0.11138383E-02 0.13090063E+03</pdfrwt>
<totfact> 0.26030527E+02</totfact>
</mgrwt>
</event>
<event>
 6    3  0.7601760E-003  0.1357987E+03  0.7818608E-02  0.1219097E+00
         -4   -1    0    0    0  501 -0.00000000000E+00  0.00000000000E+00  0.59466317308E+01  0.60807342437E+01  0.12700000000E+01 0. -1.
         21   -1    0    0  501  502  0.00000000000E+00 -0.00000000000E+00 -0.18359573620E+04  0.18359573620E+04  0.00000000000E+00 0.  1.
         25    2    1    2    0    0 -0.46918931583E+02 -0.24775525671E+02 -0.86744712354E+03  0.87801241053E+03  0.12500427231E+03 0.  0.
    9000005    1    3    3    0    0 -0.19181297724E+02 -0.69574546584E+02 -0.32022184401E+03  0.32825534130E+03  0.10000000000E+01 0.  0.
    9000005    1    3    3    0    0 -0.27737633860E+02  0.44799020913E+02 -0.54722527953E+03  0.54975706923E+03  0.10000000000E+01 0.  0.
         -4    1    1    2    0  502  0.46918931583E+02  0.24775525671E+02 -0.96256360670E+03  0.96402568569E+03  0.12700000000E+01 0.  1.
<mgrwt>
<rscale>  1 0.13579868E+03</rscale>
<asrwt>0</asrwt>
<pdfrwt beam="2">  1       21 0.28245522E+00 0.13579868E+03</pdfrwt>
<pdfrwt beam="1">  1       -4 0.92521499E-03 0.13579868E+03</pdfrwt>
<totfact> 0.60961664E+03</totfact>
</mgrwt>
</event>
<event>
 6    3  0.7601760E-003  0.1269096E+03  0.7818608E-02  0.1232115E+00
          4   -1    0    0  502    0 -0.00000000000E+00  0.00000000000E+00  0.12126975634E+03  0.12127640621E+03  0.12700000000E+01 0.  1.
         21   -1    0    0  501  502  0.00000000000E+00 -0.00000000000E+00 -0.20825060788E+03  0.20825060788E+03  0.00000000000E+00 0. -1.
         25    2    1    2    0    0  0.79803588082E+01  0.20419196079E+02  0.87191776646E+02  0.15397546324E+03  0.12500163067E+03 0.  0.
    9000005    1    3    3    0    0  0.61775992114E+02  0.27785433399E+01  0.72854488478E+02  0.95565527237E+02  0.10000000000E+01 0.  0.
    9000005    1    3    3    0    0 -0.53795633305E+02  0.17640652739E+02  0.14337288168E+02  0.58409936002E+02  0.10000000000E+01 0.  0.
          4    1    1    2  501    0 -0.79803588082E+01 -0.20419196079E+02 -0.17417262819E+03  0.17555155085E+03  0.12700000000E+01 0. -1.
<mgrwt>
<rscale>  1 0.12690956E+03</rscale>
<asrwt>0</asrwt>
<pdfrwt beam="2">  1       21 0.32038555E-01 0.12690956E+03</pdfrwt>
<pdfrwt beam="1">  1        4 0.18657695E-01 0.12690956E+03</pdfrwt>
<totfact> 0.97931529E+03</totfact>
</mgrwt>
</event>
<event>
 6    3  0.7601760E-003  0.1270433E+03  0.7818608E-02  0.1231910E+00
          4   -1    0    0  502    0 -0.00000000000E+00  0.00000000000E+00  0.13684494493E+03  0.13685083797E+03  0.12700000000E+01 0.  1.
         21   -1    0    0  501  502  0.00000000000E+00 -0.00000000000E+00 -0.50655300732E+02  0.50655300732E+02  0.00000000000E+00 0.  1.
         25    2    1    2    0    0  0.22683694106E+02  0.68367323687E+00  0.99317867732E+02  0.16125769988E+03  0.12499995813E+03 0.  0.
    9000005    1    3    3    0    0  0.24233995196E+02  0.18289891518E+02 -0.22725250306E+02  0.37937364911E+02  0.10000000000E+01 0.  0.
    9000005    1    3    3    0    0 -0.15503010900E+01 -0.17606218281E+02  0.12204311804E+03  0.12332033497E+03  0.10000000000E+01 0.  0.
          4    1    1    2  501    0 -0.22683694106E+02 -0.68367323687E+00 -0.13128223536E+02  0.26248438822E+02  0.12700000000E+01 0. -1.
<mgrwt>
<rscale>  1 0.12704333E+03</rscale>
<asrwt>0</asrwt>
<pdfrwt beam="2">  1       21 0.77931233E-02 0.12704333E+03</pdfrwt>
<pdfrwt beam="1">  1        4 0.21054746E-01 0.12704333E+03</pdfrwt>
<totfact> 0.10287050E+05</totfact>
</mgrwt>
</event>
<event>
 6    3  0.7601760E-003  0.1294481E+03  0.7818608E-02  0.1228277E+00
         -4   -1    0    0    0  501 -0.00000000000E+00  0.00000000000E+00  0.37192442378E+02  0.37214119230E+02  0.12700000000E+01 0. -1.
         21   -1    0    0  501  502  0.00000000000E+00 -0.00000000000E+00 -0.51419042790E+03  0.51419042790E+03  0.00000000000E+00 0.  1.
         25    2    1    2    0    0 -0.28104136365E+02  0.18498254146E+02 -0.78298828455E+02  0.15128624133E+03  0.12499916957E+03 0.  0.
    9000005    1    3    3    0    0  0.47766598797E+02 -0.53496758030E+01 -0.42082890845E+02  0.63892383691E+02  0.10000000000E+01 0.  0.
    9000005    1    3    3    0    0 -0.75870735161E+02  0.23847929949E+02 -0.36215937610E+02  0.87393857643E+02  0.10000000000E+01 0.  0.
         -4    1    1    2    0  502  0.28104136365E+02 -0.18498254146E+02 -0.39869915707E+03  0.40011830580E+03  0.12700000000E+01 0.  1.
<mgrwt>
<rscale>  1 0.12944814E+03</rscale>
<asrwt>0</asrwt>
<pdfrwt beam="2">  1       21 0.79106220E-01 0.12944814E+03</pdfrwt>
<pdfrwt beam="1">  1       -4 0.57237023E-02 0.12944814E+03</pdfrwt>
<totfact> 0.11127479E+04</totfact>
</mgrwt>
</event>
<event>
 6    3  0.7601760E-003  0.1302407E+03  0.7818608E-02  0.1227099E+00
          4   -1    0    0  502    0 -0.00000000000E+00  0.00000000000E+00  0.39146052400E+02  0.39166648038E+02  0.12700000000E+01 0. -1.
         21   -1    0    0  501  502  0.00000000000E+00 -0.00000000000E+00 -0.21492252271E+03  0.21492252271E+03  0.00000000000E+00 0.  1.
         25    2    1    2    0    0  0.11738323425E+02 -0.34625360072E+02 -0.83201829417E+02  0.15454832067E+03  0.12500374078E+03 0.  0.
    9000005    1    3    3    0    0  0.37552901346E+01 -0.78295379760E+02 -0.76694464367E+02  0.10966909118E+03  0.10000000000E+01 0.  0.
    9000005    1    3    3    0    0  0.79830332901E+01  0.43670019688E+02 -0.65073650505E+01  0.44879229494E+02  0.10000000000E+01 0.  0.
          4    1    1    2  501    0 -0.11738323425E+02  0.34625360072E+02 -0.92574640893E+02  0.99540850074E+02  0.12700000000E+01 0.  1.
<mgrwt>
<rscale>  1 0.13024070E+03</rscale>
<asrwt>0</asrwt>
<pdfrwt beam="2">  1       21 0.33065002E-01 0.13024070E+03</pdfrwt>
<pdfrwt beam="1">  1        4 0.60243428E-02 0.13024070E+03</pdfrwt>
<totfact> 0.62745563E+04</totfact>
</mgrwt>
</event>
<event>
 6    3  0.7601760E-003  0.1289121E+03  0.7818608E-02  0.1229079E+00
          4   -1    0    0  502    0 -0.00000000000E+00  0.00000000000E+00  0.19177682646E+02  0.19219688126E+02  0.12700000000E+01 0. -1.
         21   -1    0    0  501  502  0.00000000000E+00 -0.00000000000E+00 -0.52344859961E+03  0.52344859961E+03  0.00000000000E+00 0.  1.
         25    2    1    2    0    0  0.30066609003E+02 -0.94461198725E+01 -0.20789960075E+03  0.24462332446E+03  0.12500038689E+03 0.  0.
    9000005    1    3    3    0    0  0.70020575328E+02 -0.29608603434E+02 -0.86131205902E+02  0.11488748843E+03  0.10000000000E+01 0.  0.
    9000005    1    3    3    0    0 -0.39953966325E+02  0.20162483562E+02 -0.12176839485E+03  0.12973583604E+03  0.10000000000E+01 0.  0.
          4    1    1    2  501    0 -0.30066609003E+02  0.94461198725E+01 -0.29637131622E+03  0.29804496327E+03  0.12700000000E+01 0.  1.
<mgrwt>
<rscale>  1 0.12891209E+03</rscale>
<asrwt>0</asrwt>
<pdfrwt beam="2">  1       21 0.80530540E-01 0.12891209E+03</pdfrwt>
<pdfrwt beam="1">  1        4 0.29537629E-02 0.12891209E+03</pdfrwt>
<totfact> 0.30596953E+04</totfact>
</mgrwt>
</event>
<event>
 6    3  0.7601760E-003  0.1273107E+03  0.7818608E-02  0.1231502E+00
         21   -1    0    0  501  502  0.00000000000E+00  0.00000000000E+00  0.12549469865E+02  0.12549469865E+02  0.00000000000E+00 0. -1.
          4   -1    0    0  502    0 -0.00000000000E+00 -0.00000000000E+00 -0.46604397277E+03  0.46604570318E+03  0.12700000000E+01 0. -1.
         25    2    1    2    0    0 -0.18891143426E+02 -0.15095292391E+02 -0.40228183783E+03  0.42194631502E+03  0.12499309003E+03 0.  0.
    9000005    1    3    3    0    0 -0.11582267906E+02  0.53664609784E+02 -0.22625417158E+03  0.23282179758E+03  0.10000000000E+01 0.  0.
    9000005    1    3    3    0    0 -0.73088755201E+01 -0.68759902175E+02 -0.17602766626E+03  0.18912451744E+03  0.10000000000E+01 0.  0.
          4    1    1    2  501    0  0.18891143426E+02  0.15095292391E+02 -0.51212665072E+02  0.56648858030E+02  0.12700000000E+01 0.  1.
<mgrwt>
<rscale>  1 0.12731071E+03</rscale>
<asrwt>0</asrwt>
<pdfrwt beam="1">  1       21 0.19306876E-02 0.12731071E+03</pdfrwt>
<pdfrwt beam="2">  1        4 0.71704152E-01 0.12731071E+03</pdfrwt>
<totfact> 0.93859026E+04</totfact>
</mgrwt>
</event>
<event>
 6    3  0.7601760E-003  0.1270437E+03  0.7818608E-02  0.1231910E+00
         -4   -1    0    0    0  501 -0.00000000000E+00  0.00000000000E+00  0.20585682410E+02  0.20624820491E+02  0.12700000000E+01 0.  1.
         21   -1    0    0  501  502  0.00000000000E+00 -0.00000000000E+00 -0.27561152223E+03  0.27561152223E+03  0.00000000000E+00 0.  1.
         25    2    1    2    0    0 -0.14998062299E+02 -0.17019226670E+02 -0.20315976525E+03  0.23961215584E+03  0.12500199622E+03 0.  0.
    9000005    1    3    3    0    0  0.50789126579E+02 -0.19597483477E+02 -0.54573787896E+02  0.77090174877E+02  0.10000000000E+01 0.  0.
    9000005    1    3    3    0    0 -0.65787188878E+02  0.25782568073E+01 -0.14858597736E+03  0.16252198096E+03  0.10000000000E+01 0.  0.
         -4    1    1    2    0  502  0.14998062299E+02  0.17019226670E+02 -0.51866074571E+02  0.56624186886E+02  0.12700000000E+01 0. -1.
<mgrwt>
<rscale>  1 0.12704367E+03</rscale>
<asrwt>0</asrwt>
<pdfrwt beam="2">  1       21 0.42401770E-01 0.12704367E+03</pdfrwt>
<pdfrwt beam="1">  1       -4 0.31702639E-02 0.12704367E+03</pdfrwt>
<totfact> 0.10636404E+05</totfact>
</mgrwt>
</event>
<event>
 6    3  0.7601760E-003  0.1363317E+03  0.7818608E-02  0.1218352E+00
          4   -1    0    0  502    0 -0.00000000000E+00  0.00000000000E+00  0.74717074938E+02  0.74727867542E+02  0.12700000000E+01 0.  1.
         21   -1    0    0  501  502  0.00000000000E+00 -0.00000000000E+00 -0.12745190699E+03  0.12745190699E+03  0.00000000000E+00 0. -1.
         25    2    1    2    0    0 -0.95899613979E+01  0.53569201348E+02 -0.17776613960E+02  0.13748575159E+03  0.12499878877E+03 0.  0.
    9000005    1    3    3    0    0  0.31439083798E+02  0.78619039510E+02  0.38465940551E+01  0.84765356422E+02  0.10000000000E+01 0.  0.
    9000005    1    3    3    0    0 -0.41029045196E+02 -0.25049838162E+02 -0.21623208015E+02  0.52720395166E+02  0.10000000000E+01 0.  0.
          4    1    1    2  501    0  0.95899613979E+01 -0.53569201348E+02 -0.34958218095E+02  0.64694022947E+02  0.12700000000E+01 0. -1.
<mgrwt>
<rscale>  1 0.13633167E+03</rscale>
<asrwt>0</asrwt>
<pdfrwt beam="2">  1       21 0.19607985E-01 0.13633167E+03</pdfrwt>
<pdfrwt beam="1">  1        4 0.11496252E-01 0.13633167E+03</pdfrwt>
<totfact> 0.58073995E+04</totfact>
</mgrwt>
</event>
<event>
 6    3  0.7601760E-003  0.1273765E+03  0.7818608E-02  0.1231401E+00
         21   -1    0    0  501  502  0.00000000000E+00  0.00000000000E+00  0.31902959974E+02  0.31902959974E+02  0.00000000000E+00 0.  1.
         -4   -1    0    0    0  501 -0.00000000000E+00 -0.00000000000E+00 -0.19870564095E+03  0.19870969942E+03  0.12700000000E+01 0.  1.
         25    2    1    2    0    0  0.20987302049E+02 -0.12615005590E+02 -0.16121727248E+03  0.20546479862E+03  0.12500067725E+03 0.  0.
    9000005    1    3    3    0    0  0.23925458564E+02 -0.25088294176E+02 -0.17966435886E+03  0.18298123379E+03  0.10000000000E+01 0.  0.
    9000005    1    3    3    0    0 -0.29381565153E+01  0.12473288586E+02  0.18447086381E+02  0.22483564837E+02  0.10000000000E+01 0.  0.
         -4    1    1    2    0  502 -0.20987302049E+02  0.12615005590E+02 -0.55854084895E+01  0.25147860770E+02  0.12700000000E+01 0. -1.
<mgrwt>
<rscale>  1 0.12737651E+03</rscale>
<asrwt>0</asrwt>
<pdfrwt beam="1">  1       21 0.49081478E-02 0.12737651E+03</pdfrwt>
<pdfrwt beam="2">  1       -4 0.30572355E-01 0.12737651E+03</pdfrwt>
<totfact> 0.11328349E+05</totfact>
</mgrwt>
</event>
<event>
 6    3  0.7601760E-003  0.1305086E+03  0.7818608E-02  0.1226703E+00
          4   -1    0    0  502    0 -0.00000000000E+00  0.00000000000E+00  0.11058932606E+04  0.11058939898E+04  0.12700000000E+01 0. -1.
         21   -1    0    0  501  502  0.00000000000E+00 -0.00000000000E+00 -0.63985704098E+01  0.63985704098E+01  0.00000000000E+00 0. -1.
         25    2    1    2    0    0 -0.34826776508E+02  0.13932400896E+02  0.83036626226E+03  0.84055971390E+03  0.12500194792E+03 0.  0.
    9000005    1    3    3    0    0 -0.56949264661E+02 -0.31382547197E+02  0.65090885070E+03  0.65414938274E+03  0.10000000000E+01 0.  0.
    9000005    1    3    3    0    0  0.22122488152E+02  0.45314948093E+02  0.17945741155E+03  0.18641033116E+03  0.10000000000E+01 0.  0.
          4    1    1    2  501    0  0.34826776508E+02 -0.13932400896E+02  0.26912842793E+03  0.27173284633E+03  0.12700000000E+01 0.  1.
<mgrwt>
<rscale>  1 0.13050863E+03</rscale>
<asrwt>0</asrwt>
<pdfrwt beam="2">  1       21 0.98439633E-03 0.13050863E+03</pdfrwt>
<pdfrwt beam="1">  1        4 0.17014702E+00 0.13050863E+03</pdfrwt>
<totfact> 0.35449623E+04</totfact>
</mgrwt>
</event>
<event>
 6    3  0.7601760E-003  0.1432652E+03  0.7818608E-02  0.1209002E+00
         21   -1    0    0  501  502  0.00000000000E+00  0.00000000000E+00  0.20985320301E+03  0.20985320301E+03  0.00000000000E+00 0.  1.
          4   -1    0    0  502    0 -0.00000000000E+00 -0.00000000000E+00 -0.75796584281E+02  0.75807223196E+02  0.12700000000E+01 0. -1.
         25    2    1    2    0    0 -0.35338749745E+02 -0.60424852042E+02  0.10503227498E+02  0.14364971054E+03  0.12499972630E+03 0.  0.
    9000005    1    3    3    0    0 -0.15473428250E+02 -0.55143364797E+02  0.64262179496E+02  0.86086267061E+02  0.10000000000E+01 0.  0.
    9000005    1    3    3    0    0 -0.19865321495E+02 -0.52814872448E+01 -0.53758951999E+02  0.57563443483E+02  0.10000000000E+01 0.  0.
          4    1    1    2  501    0  0.35338749745E+02  0.60424852042E+02  0.12355339123E+03  0.14201071566E+03  0.12700000000E+01 0.  1.
<mgrwt>
<rscale>  1 0.14326521E+03</rscale>
<asrwt>0</asrwt>
<pdfrwt beam="1">  1       21 0.32285108E-01 0.14326521E+03</pdfrwt>
<pdfrwt beam="2">  1        4 0.11662127E-01 0.14326521E+03</pdfrwt>
<totfact> 0.22122455E+04</totfact>
</mgrwt>
</event>
<event>
 6    3  0.7601760E-003  0.1331726E+03  0.7818608E-02  0.1222823E+00
          4   -1    0    0  502    0 -0.00000000000E+00  0.00000000000E+00  0.27305224709E+03  0.27305520053E+03  0.12700000000E+01 0.  1.
         21   -1    0    0  501  502  0.00000000000E+00 -0.00000000000E+00 -0.29537752336E+02  0.29537752336E+02  0.00000000000E+00 0.  1.
         25    2    1    2    0    0  0.45771534495E+02  0.37560294377E+01  0.19062220063E+03  0.23253334393E+03  0.12500316612E+03 0.  0.
    9000005    1    3    3    0    0  0.77928696722E+02 -0.12871487069E+01  0.61268045683E+02  0.99142886514E+02  0.10000000000E+01 0.  0.
    9000005    1    3    3    0    0 -0.32157162227E+02  0.50431781446E+01  0.12935415495E+03  0.13339045742E+03  0.10000000000E+01 0.  0.
          4    1    1    2  501    0 -0.45771534495E+02 -0.37560294377E+01  0.52892294119E+02  0.70059608936E+02  0.12700000000E+01 0. -1.
<mgrwt>
<rscale>  1 0.13317257E+03</rscale>
<asrwt>0</asrwt>
<pdfrwt beam="2">  1       21 0.45442698E-02 0.13317257E+03</pdfrwt>
<pdfrwt beam="1">  1        4 0.42010364E-01 0.13317257E+03</pdfrwt>
<totfact> 0.70122108E+04</totfact>
</mgrwt>
</event>
<event>
 6    3  0.7601760E-003  0.1303190E+03  0.7818608E-02  0.1226983E+00
         21   -1    0    0  501  502  0.00000000000E+00  0.00000000000E+00  0.56943644437E+02  0.56943644437E+02  0.00000000000E+00 0.  1.
         -4   -1    0    0    0  501 -0.00000000000E+00 -0.00000000000E+00 -0.27139267151E+03  0.27139564302E+03  0.12700000000E+01 0. -1.
         25    2    1    2    0    0  0.36764918251E+02 -0.26079827064E+01 -0.24692165267E+03  0.27920126653E+03  0.12499833554E+03 0.  0.
    9000005    1    3    3    0    0  0.29691130964E+02  0.38857158325E+02 -0.22778580739E+03  0.23297814502E+03  0.10000000000E+01 0.  0.
    9000005    1    3    3    0    0  0.70737872877E+01 -0.41465141032E+02 -0.19135845281E+02  0.46223121508E+02  0.10000000000E+01 0.  0.
         -4    1    1    2    0  502 -0.36764918251E+02  0.26079827064E+01  0.32472625592E+02  0.49138020928E+02  0.12700000000E+01 0.  1.
<mgrwt>
<rscale>  1 0.13031901E+03</rscale>
<asrwt>0</asrwt>
<pdfrwt beam="1">  1       21 0.87605607E-02 0.13031901E+03</pdfrwt>
<pdfrwt beam="2">  1       -4 0.41754036E-01 0.13031901E+03</pdfrwt>
<totfact> 0.23159716E+04</totfact>
</mgrwt>
</event>
<event>
 6    3  0.7601760E-003  0.1293984E+03  0.7818608E-02  0.1228351E+00
         -4   -1    0    0    0  501 -0.00000000000E+00  0.00000000000E+00  0.32729271774E+02  0.32753902528E+02  0.12700000000E+01 0.  1.
         21   -1    0    0  501  502  0.00000000000E+00 -0.00000000000E+00 -0.20313321667E+03  0.20313321667E+03  0.00000000000E+00 0.  1.
         25    2    1    2    0    0  0.33201122102E+02 -0.41063162132E+01 -0.13012137344E+03  0.18350892903E+03  0.12499911547E+03 0.  0.
    9000005    1    3    3    0    0  0.85086547971E+01 -0.63912450522E+02 -0.59802890915E+02  0.87946485433E+02  0.10000000000E+01 0.  0.
    9000005    1    3    3    0    0  0.24692467305E+02  0.59806134309E+02 -0.70318482523E+02  0.95562443601E+02  0.10000000000E+01 0.  0.
         -4    1    1    2    0  502 -0.33201122102E+02  0.41063162132E+01 -0.40282571462E+02  0.52378190168E+02  0.12700000000E+01 0. -1.
<mgrwt>
<rscale>  1 0.12939844E+03</rscale>
<asrwt>0</asrwt>
<pdfrwt beam="2">  1       21 0.31251264E-01 0.12939844E+03</pdfrwt>
<pdfrwt beam="1">  1       -4 0.50374727E-02 0.12939844E+03</pdfrwt>
<totfact> 0.93406671E+04</totfact>
</mgrwt>
</event>
<event>
 6    3  0.7601760E-003  0.1270425E+03  0.7818608E-02  0.1231911E+00
         21   -1    0    0  501  502  0.00000000000E+00  0.00000000000E+00  0.40603573808E+02  0.40603573808E+02  0.00000000000E+00 0.  1.
          4   -1    0    0  502    0 -0.00000000000E+00 -0.00000000000E+00 -0.14794118709E+03  0.14794663814E+03  0.12700000000E+01 0.  1.
         25    2    1    2    0    0 -0.22468169972E+02  0.32759745280E+01 -0.10652712814E+03  0.16579454327E+03  0.12499700347E+03 0.  0.
    9000005    1    3    3    0    0  0.25094102353E+02 -0.16917656361E+02 -0.10990779997E+03  0.11400283139E+03  0.10000000000E+01 0.  0.
    9000005    1    3    3    0    0 -0.47562272325E+02  0.20193630889E+02  0.33806718346E+01  0.51791711878E+02  0.10000000000E+01 0.  0.
          4    1    1    2  501    0  0.22468169972E+02 -0.32759745280E+01 -0.81048514107E+00  0.22755668682E+02  0.12700000000E+01 0. -1.
<mgrwt>
<rscale>  1 0.12704252E+03</rscale>
<asrwt>0</asrwt>
<pdfrwt beam="1">  1       21 0.62467037E-02 0.12704252E+03</pdfrwt>
<pdfrwt beam="2">  1        4 0.22762130E-01 0.12704252E+03</pdfrwt>
<totfact> 0.13033905E+05</totfact>
</mgrwt>
</event>
<event>
 6    3  0.7601760E-003  0.1293683E+03  0.7818608E-02  0.1228396E+00
         21   -1    0    0  501  502  0.00000000000E+00  0.00000000000E+00  0.10421747258E+03  0.10421747258E+03  0.00000000000E+00 0.  1.
         -4   -1    0    0    0  501 -0.00000000000E+00 -0.00000000000E+00 -0.87454847109E+02  0.87464067953E+02  0.12700000000E+01 0.  1.
         25    2    1    2    0    0  0.26886994003E+02 -0.19717158410E+02 -0.31367722937E+02  0.13311687439E+03  0.12499796568E+03 0.  0.
    9000005    1    3    3    0    0  0.40068957322E+02 -0.22910440477E+02  0.39620619352E+02  0.60837513933E+02  0.10000000000E+01 0.  0.
    9000005    1    3    3    0    0 -0.13181963318E+02  0.31932820669E+01 -0.70988342289E+02  0.72279360458E+02  0.10000000000E+01 0.  0.
         -4    1    1    2    0  502 -0.26886994003E+02  0.19717158410E+02  0.48130348407E+02  0.58564666140E+02  0.12700000000E+01 0. -1.
<mgrwt>
<rscale>  1 0.12936834E+03</rscale>
<asrwt>0</asrwt>
<pdfrwt beam="1">  1       21 0.16033457E-01 0.12936834E+03</pdfrwt>
<pdfrwt beam="2">  1       -4 0.13455896E-01 0.12936834E+03</pdfrwt>
<totfact> 0.63661251E+04</totfact>
</mgrwt>
</event>
<event>
 6    3  0.7601760E-003  0.1298200E+03  0.7818608E-02  0.1227723E+00
         21   -1    0    0  501  502  0.00000000000E+00  0.00000000000E+00  0.24071979671E+03  0.24071979671E+03  0.00000000000E+00 0.  1.
         -4   -1    0    0    0  501 -0.00000000000E+00 -0.00000000000E+00 -0.15701397129E+03  0.15701910737E+03  0.12700000000E+01 0. -1.
         25    2    1    2    0    0  0.34966670882E+02  0.32515361549E+01 -0.12848876353E+03  0.18265427646E+03  0.12497992556E+03 0.  0.
    9000005    1    3    3    0    0 -0.96438404390E+01  0.18327415908E+02  0.18818398346E+02  0.28000534791E+02  0.10000000000E+01 0.  0.
    9000005    1    3    3    0    0  0.44610511321E+02 -0.15075879753E+02 -0.14730716188E+03  0.15465374166E+03  0.10000000000E+01 0.  0.
         -4    1    1    2    0  502 -0.34966670882E+02 -0.32515361549E+01  0.21219458895E+03  0.21508462763E+03  0.12700000000E+01 0.  1.
<mgrwt>
<rscale>  1 0.12981996E+03</rscale>
<asrwt>0</asrwt>
<pdfrwt beam="1">  1       21 0.37033815E-01 0.12981996E+03</pdfrwt>
<pdfrwt beam="2">  1       -4 0.24156648E-01 0.12981996E+03</pdfrwt>
<totfact> 0.46273108E+03</totfact>
</mgrwt>
</event>
<event>
 6    3  0.7601760E-003  0.1290668E+03  0.7818608E-02  0.1228847E+00
         21   -1    0    0  501  502  0.00000000000E+00  0.00000000000E+00  0.11139091836E+02  0.11139091836E+02  0.00000000000E+00 0.  1.
          4   -1    0    0  502    0 -0.00000000000E+00 -0.00000000000E+00 -0.86012699089E+03  0.86012792848E+03  0.12700000000E+01 0.  1.
         25    2    1    2    0    0  0.12102103998E+02 -0.29792576903E+02 -0.81219288348E+03  0.82238405160E+03  0.12499675912E+03 0.  0.
    9000005    1    3    3    0    0 -0.26648996524E+02 -0.63064382566E+02 -0.61027900113E+03  0.61410808868E+03  0.10000000000E+01 0.  0.
    9000005    1    3    3    0    0  0.38751100522E+02  0.33271805664E+02 -0.20191388235E+03  0.20827596292E+03  0.10000000000E+01 0.  0.
          4    1    1    2  501    0 -0.12102103998E+02  0.29792576903E+02 -0.36795015571E+02  0.48882968717E+02  0.12700000000E+01 0. -1.
<mgrwt>
<rscale>  1 0.12906684E+03</rscale>
<asrwt>0</asrwt>
<pdfrwt beam="1">  1       21 0.17137062E-02 0.12906684E+03</pdfrwt>
<pdfrwt beam="2">  1        4 0.13233289E+00 0.12906684E+03</pdfrwt>
<totfact> 0.27833840E+04</totfact>
</mgrwt>
</event>
<event>
 6    3  0.7601760E-003  0.1276179E+03  0.7818608E-02  0.1231034E+00
         21   -1    0    0  501  502  0.00000000000E+00  0.00000000000E+00  0.58932561312E+02  0.58932561312E+02  0.00000000000E+00 0. -1.
          4   -1    0    0  502    0 -0.00000000000E+00 -0.00000000000E+00 -0.11704300319E+03  0.11704989319E+03  0.12700000000E+01 0. -1.
         25    2    1    2    0    0  0.54856300155E+01  0.25110179437E+02 -0.72218582064E+02  0.14663512468E+03  0.12500289175E+03 0.  0.
    9000005    1    3    3    0    0  0.52414434881E+01  0.73077067133E+02 -0.65326742348E+02  0.98164727557E+02  0.10000000000E+01 0.  0.
    9000005    1    3    3    0    0  0.24418652744E+00 -0.47966887696E+02 -0.68918397159E+01  0.48470397120E+02  0.10000000000E+01 0.  0.
          4    1    1    2  501    0 -0.54856300155E+01 -0.25110179437E+02  0.14108140189E+02  0.29347329821E+02  0.12700000000E+01 0.  1.
<mgrwt>
<rscale>  1 0.12761793E+03</rscale>
<asrwt>0</asrwt>
<pdfrwt beam="1">  1       21 0.90665479E-02 0.12761793E+03</pdfrwt>
<pdfrwt beam="2">  1        4 0.18008198E-01 0.12761793E+03</pdfrwt>
<totfact> 0.10484175E+05</totfact>
</mgrwt>
</event>
<event>
 6    3  0.7601760E-003  0.1502502E+03  0.7818608E-02  0.1200166E+00
         -4   -1    0    0    0  501 -0.00000000000E+00  0.00000000000E+00  0.19055132229E+03  0.19055555443E+03  0.12700000000E+01 0. -1.
         21   -1    0    0  501  502  0.00000000000E+00 -0.00000000000E+00 -0.86964351324E+02  0.86964351324E+02  0.00000000000E+00 0.  1.
         25    2    1    2    0    0 -0.81718327566E+02 -0.16489991373E+02  0.12031171202E+03  0.19248382671E+03  0.12500124248E+03 0.  0.
    9000005    1    3    3    0    0 -0.38496973977E+02  0.30584460849E+02  0.11877216041E+03  0.12855058280E+03  0.10000000000E+01 0.  0.
    9000005    1    3    3    0    0 -0.43221353589E+02 -0.47074452222E+02  0.15395516139E+01  0.63933243913E+02  0.10000000000E+01 0.  0.
         -4    1    1    2    0  502  0.81718327566E+02  0.16489991373E+02 -0.16724741057E+02  0.85036079043E+02  0.12700000000E+01 0.  1.
<mgrwt>
<rscale>  1 0.15025018E+03</rscale>
<asrwt>0</asrwt>
<pdfrwt beam="2">  1       21 0.13379131E-01 0.15025018E+03</pdfrwt>
<pdfrwt beam="1">  1       -4 0.29316627E-01 0.15025018E+03</pdfrwt>
<totfact> 0.22059721E+04</totfact>
</mgrwt>
</event>
<event>
 6    3  0.7601760E-003  0.1267487E+03  0.7818608E-02  0.1232361E+00
         21   -1    0    0  501  502  0.00000000000E+00  0.00000000000E+00  0.11710832765E+03  0.11710832765E+03  0.00000000000E+00 0. -1.
          4   -1    0    0  502    0 -0.00000000000E+00 -0.00000000000E+00 -0.46634406421E+02  0.46651696242E+02  0.12700000000E+01 0. -1.
         25    2    1    2    0    0 -0.20830828191E+02  0.24126045545E+01  0.62101490328E+02  0.14114466267E+03  0.12500190653E+03 0.  0.
    9000005    1    3    3    0    0  0.11964899171E+02 -0.56955576174E+02  0.21270582138E+02  0.61972043164E+02  0.10000000000E+01 0.  0.
    9000005    1    3    3    0    0 -0.32795727362E+02  0.59368180728E+02  0.40830908190E+02  0.79172619509E+02  0.10000000000E+01 0.  0.
          4    1    1    2  501    0  0.20830828191E+02 -0.24126045545E+01  0.83724309001E+01  0.22615361218E+02  0.12700000000E+01 0.  1.
<mgrwt>
<rscale>  1 0.12674865E+03</rscale>
<asrwt>0</asrwt>
<pdfrwt beam="1">  1       21 0.18016666E-01 0.12674865E+03</pdfrwt>
<pdfrwt beam="2">  1        4 0.71763838E-02 0.12674865E+03</pdfrwt>
<totfact> 0.14774642E+05</totfact>
</mgrwt>
</event>
<event>
 6    3  0.7601760E-003  0.1287038E+03  0.7818608E-02  0.1229392E+00
         -4   -1    0    0    0  501 -0.00000000000E+00  0.00000000000E+00  0.10418863727E+02  0.10495981200E+02  0.12700000000E+01 0.  1.
         21   -1    0    0  501  502  0.00000000000E+00 -0.00000000000E+00 -0.91979859878E+03  0.91979859878E+03  0.00000000000E+00 0.  1.
         25    2    1    2    0    0  0.68205299432E+01 -0.29895397291E+02 -0.40447791187E+03  0.42446089352E+03  0.12499765808E+03 0.  0.
    9000005    1    3    3    0    0 -0.36436414420E+02 -0.57393853204E+01 -0.32422886024E+02  0.49120223714E+02  0.10000000000E+01 0.  0.
    9000005    1    3    3    0    0  0.43256944363E+02 -0.24156011970E+02 -0.37205502585E+03  0.37534066980E+03  0.10000000000E+01 0.  0.
         -4    1    1    2    0  502 -0.68205299432E+01  0.29895397291E+02 -0.50490182318E+03  0.50583368646E+03  0.12700000000E+01 0. -1.
<mgrwt>
<rscale>  1 0.12870380E+03</rscale>
<asrwt>0</asrwt>
<pdfrwt beam="2">  1       21 0.14150755E+00 0.12870380E+03</pdfrwt>
<pdfrwt beam="1">  1       -4 0.16089008E-02 0.12870380E+03</pdfrwt>
<totfact> 0.20446546E+04</totfact>
</mgrwt>
</event>
<event>
 6    3  0.7601760E-003  0.1275412E+03  0.7818608E-02  0.1231150E+00
         21   -1    0    0  501  502  0.00000000000E+00  0.00000000000E+00  0.38225118242E+03  0.38225118242E+03  0.00000000000E+00 0.  1.
         -4   -1    0    0    0  501 -0.00000000000E+00 -0.00000000000E+00 -0.15928279313E+02  0.15978829177E+02  0.12700000000E+01 0.  1.
         25    2    1    2    0    0 -0.18286927863E+02 -0.17521414417E+02  0.26972854735E+03  0.29836262875E+03  0.12500142912E+03 0.  0.
    9000005    1    3    3    0    0  0.40565983565E+02 -0.16103433725E+01  0.28666447500E+02  0.49708726000E+02  0.10000000000E+01 0.  0.
    9000005    1    3    3    0    0 -0.58852911427E+02 -0.15911071044E+02  0.24106209985E+03  0.24865390274E+03  0.10000000000E+01 0.  0.
         -4    1    1    2    0  502  0.18286927863E+02  0.17521414417E+02  0.96594355759E+02  0.99867382855E+02  0.12700000000E+01 0. -1.
<mgrwt>
<rscale>  1 0.12754124E+03</rscale>
<asrwt>0</asrwt>
<pdfrwt beam="1">  1       21 0.58807868E-01 0.12754124E+03</pdfrwt>
<pdfrwt beam="2">  1       -4 0.24545555E-02 0.12754124E+03</pdfrwt>
<totfact> 0.80770856E+04</totfact>
</mgrwt>
</event>
<event>
 6    3  0.7601760E-003  0.1344340E+03  0.7818608E-02  0.1221021E+00
         21   -1    0    0  501  502  0.00000000000E+00  0.00000000000E+00  0.54693923684E+02  0.54693923684E+02  0.00000000000E+00 0. -1.
          4   -1    0    0  502    0 -0.00000000000E+00 -0.00000000000E+00 -0.26445864885E+03  0.26446169827E+03  0.12700000000E+01 0.  1.
         25    2    1    2    0    0 -0.46196924712E+02  0.17699058175E+02 -0.22942122209E+03  0.26590711696E+03  0.12500034077E+03 0.  0.
    9000005    1    3    3    0    0  0.10952035860E+02 -0.45372463628E+02 -0.57481169168E+02  0.74051957126E+02  0.10000000000E+01 0.  0.
    9000005    1    3    3    0    0 -0.57148960571E+02  0.63071521803E+02 -0.17194005292E+03  0.19185515983E+03  0.10000000000E+01 0.  0.
          4    1    1    2  501    0  0.46196924712E+02 -0.17699058175E+02  0.19656496919E+02  0.53248504995E+02  0.12700000000E+01 0. -1.
<mgrwt>
<rscale>  1 0.13443399E+03</rscale>
<asrwt>0</asrwt>
<pdfrwt beam="1">  1       21 0.84144498E-02 0.13443399E+03</pdfrwt>
<pdfrwt beam="2">  1        4 0.40687315E-01 0.13443399E+03</pdfrwt>
<totfact> 0.26227574E+04</totfact>
</mgrwt>
</event>
<event>
 6    3  0.7601760E-003  0.1267363E+03  0.7818608E-02  0.1232380E+00
          4   -1    0    0  502    0 -0.00000000000E+00  0.00000000000E+00  0.26693115785E+02  0.26723310617E+02  0.12700000000E+01 0.  1.
         21   -1    0    0  501  502  0.00000000000E+00 -0.00000000000E+00 -0.77181494878E+03  0.77181494878E+03  0.00000000000E+00 0. -1.
         25    2    1    2    0    0  0.13220140054E+02  0.16218950028E+02 -0.12482006003E+03  0.17788237335E+03  0.12499705964E+03 0.  0.
    9000005    1    3    3    0    0 -0.40110779181E+02  0.42766131167E+02 -0.94025528916E+02  0.11081343181E+03  0.10000000000E+01 0.  0.
    9000005    1    3    3    0    0  0.53330919235E+02 -0.26547181139E+02 -0.30794531117E+02  0.67068941542E+02  0.10000000000E+01 0.  0.
          4    1    1    2  501    0 -0.13220140054E+02 -0.16218950028E+02 -0.62030177296E+03  0.62065588604E+03  0.12700000000E+01 0. -1.
<mgrwt>
<rscale>  1 0.12673631E+03</rscale>
<asrwt>0</asrwt>
<pdfrwt beam="2">  1       21 0.11874077E+00 0.12673631E+03</pdfrwt>
<pdfrwt beam="1">  1        4 0.41090361E-02 0.12673631E+03</pdfrwt>
<totfact> 0.73535774E+03</totfact>
</mgrwt>
</event>
<event>
 6    3  0.7601760E-003  0.1283308E+03  0.7818608E-02  0.1229954E+00
         21   -1    0    0  501  502  0.00000000000E+00  0.00000000000E+00  0.11167587355E+04  0.11167587355E+04  0.00000000000E+00 0. -1.
          4   -1    0    0  502    0 -0.00000000000E+00 -0.00000000000E+00 -0.50832849009E+02  0.50848711276E+02  0.12700000000E+01 0.  1.
         25    2    1    2    0    0 -0.32677036835E+01 -0.28853398318E+02  0.30671574140E+02  0.13194519458E+03  0.12500236970E+03 0.  0.
    9000005    1    3    3    0    0 -0.15044015041E+02 -0.41546780512E+02  0.73484793901E+02  0.85752389437E+02  0.10000000000E+01 0.  0.
    9000005    1    3    3    0    0  0.11776311358E+02  0.12693382194E+02 -0.42813219761E+02  0.46192805143E+02  0.10000000000E+01 0.  0.
          4    1    1    2  501    0  0.32677036835E+01  0.28853398318E+02  0.10352543124E+04  0.10356622522E+04  0.12700000000E+01 0. -1.
<mgrwt>
<rscale>  1 0.12833078E+03</rscale>
<asrwt>0</asrwt>
<pdfrwt beam="1">  1       21 0.17180902E+00 0.12833078E+03</pdfrwt>
<pdfrwt beam="2">  1        4 0.78217149E-02 0.12833078E+03</pdfrwt>
<totfact> 0.10078619E+03</totfact>
</mgrwt>
</event>
<event>
 6    3  0.7601760E-003  0.1266322E+03  0.7818608E-02  0.1232540E+00
         21   -1    0    0  501  502  0.00000000000E+00  0.00000000000E+00  0.26682198208E+03  0.26682198208E+03  0.00000000000E+00 0. -1.
         -4   -1    0    0    0  501 -0.00000000000E+00 -0.00000000000E+00 -0.57616862566E+02  0.57630857637E+02  0.12700000000E+01 0.  1.
         25    2    1    2    0    0 -0.16264809927E+01 -0.20199532803E+02  0.13109672071E+02  0.12730897353E+03  0.12500017870E+03 0.  0.
    9000005    1    3    3    0    0  0.56603150079E+02  0.14910436534E+02  0.84130915718E+01  0.59144043033E+02  0.10000000000E+01 0.  0.
    9000005    1    3    3    0    0 -0.58229631072E+02 -0.35109969337E+02  0.46965804993E+01  0.68164930500E+02  0.10000000000E+01 0.  0.
         -4    1    1    2    0  502  0.16264809927E+01  0.20199532803E+02  0.19609544744E+03  0.19714386618E+03  0.12700000000E+01 0. -1.
<mgrwt>
<rscale>  1 0.12663219E+03</rscale>
<asrwt>0</asrwt>
<pdfrwt beam="1">  1       21 0.41049535E-01 0.12663219E+03</pdfrwt>
<pdfrwt beam="2">  1       -4 0.88654419E-02 0.12663219E+03</pdfrwt>
<totfact> 0.21604252E+04</totfact>
</mgrwt>
</event>
<event>
 6    3  0.7601760E-003  0.1284360E+03  0.7818608E-02  0.1229795E+00
         -4   -1    0    0    0  501 -0.00000000000E+00  0.00000000000E+00  0.52266307135E+03  0.52266461431E+03  0.12700000000E+01 0.  1.
         21   -1    0    0  501  502  0.00000000000E+00 -0.00000000000E+00 -0.11965143223E+02  0.11965143223E+02  0.00000000000E+00 0.  1.
         25    2    1    2    0    0 -0.27092664386E+02  0.11691776405E+02  0.42518423484E+03  0.44415923891E+03  0.12500034344E+03 0.  0.
    9000005    1    3    3    0    0 -0.20436106854E+02 -0.55497510857E+02  0.23549143225E+03  0.24280614250E+03  0.10000000000E+01 0.  0.
    9000005    1    3    3    0    0 -0.66565575320E+01  0.67189287261E+02  0.18969280259E+03  0.20135309641E+03  0.10000000000E+01 0.  0.
         -4    1    1    2    0  502  0.27092664386E+02 -0.11691776405E+02  0.85513693290E+02  0.90470518618E+02  0.12700000000E+01 0. -1.
<mgrwt>
<rscale>  1 0.12843596E+03</rscale>
<asrwt>0</asrwt>
<pdfrwt beam="2">  1       21 0.18407917E-02 0.12843596E+03</pdfrwt>
<pdfrwt beam="1">  1       -4 0.80414989E-01 0.12843596E+03</pdfrwt>
<totfact> 0.78972854E+04</totfact>
</mgrwt>
</event>
<event>
 6    3  0.7601760E-003  0.1518348E+03  0.7818608E-02  0.1198236E+00
         -4   -1    0    0    0  501 -0.00000000000E+00  0.00000000000E+00  0.49640807224E+02  0.49657050273E+02  0.12700000000E+01 0.  1.
         21   -1    0    0  501  502  0.00000000000E+00 -0.00000000000E+00 -0.35497516742E+03  0.35497516742E+03  0.00000000000E+00 0. -1.
         25    2    1    2    0    0 -0.50496088265E+02  0.69848813705E+02 -0.99647644101E+02  0.18161349699E+03  0.12500039043E+03 0.  0.
    9000005    1    3    3    0    0 -0.49715675917E+02  0.42532538606E+02 -0.12704398674E+03  0.14290500285E+03  0.10000000000E+01 0.  0.
    9000005    1    3    3    0    0 -0.78041234736E+00  0.27316275099E+02  0.27396342639E+02  0.38708494142E+02  0.10000000000E+01 0.  0.
         -4    1    1    2    0  502  0.50496088265E+02 -0.69848813705E+02 -0.20568671609E+03  0.22301872070E+03  0.12700000000E+01 0. -1.
<mgrwt>
<rscale>  1 0.15183481E+03</rscale>
<asrwt>0</asrwt>
<pdfrwt beam="2">  1       21 0.54611565E-01 0.15183481E+03</pdfrwt>
<pdfrwt beam="1">  1       -4 0.76384714E-02 0.15183481E+03</pdfrwt>
<totfact> 0.15644888E+04</totfact>
</mgrwt>
</event>
<event>
 6    3  0.7601760E-003  0.1283374E+03  0.7818608E-02  0.1229944E+00
         -4   -1    0    0    0  501 -0.00000000000E+00  0.00000000000E+00  0.40823225909E+03  0.40823423455E+03  0.12700000000E+01 0.  1.
         21   -1    0    0  501  502  0.00000000000E+00 -0.00000000000E+00 -0.16102159191E+02  0.16102159191E+02  0.00000000000E+00 0.  1.
         25    2    1    2    0    0  0.10754075219E+02 -0.26882476422E+02  0.35326969983E+03  0.37585896327E+03  0.12502864382E+03 0.  0.
    9000005    1    3    3    0    0  0.10789526220E+02  0.35528860024E+02  0.33389795063E+02  0.49945892574E+02  0.10000000000E+01 0.  0.
    9000005    1    3    3    0    0 -0.35451000606E-01 -0.62411336446E+02  0.31987990477E+03  0.32591307069E+03  0.10000000000E+01 0.  0.
         -4    1    1    2    0  502 -0.10754075219E+02  0.26882476422E+02  0.38860400066E+02  0.48477430477E+02  0.12700000000E+01 0. -1.
<mgrwt>
<rscale>  1 0.12833737E+03</rscale>
<asrwt>0</asrwt>
<pdfrwt beam="2">  1       21 0.24772556E-02 0.12833737E+03</pdfrwt>
<pdfrwt beam="1">  1       -4 0.62808960E-01 0.12833737E+03</pdfrwt>
<totfact> 0.83323123E+04</totfact>
</mgrwt>
</event>
<event>
 6    3  0.7601760E-003  0.1278440E+03  0.7818608E-02  0.1230690E+00
          4   -1    0    0  502    0 -0.00000000000E+00  0.00000000000E+00  0.15511935915E+04  0.15511941114E+04  0.12700000000E+01 0. -1.
         21   -1    0    0  501  502  0.00000000000E+00 -0.00000000000E+00 -0.14154311492E+02  0.14154311492E+02  0.00000000000E+00 0.  1.
         25    2    1    2    0    0  0.17271357771E+01  0.26754518278E+02  0.15328632273E+04  0.15381852205E+04  0.12500124743E+03 0.  0.
    9000005    1    3    3    0    0  0.26794144627E+02  0.20213667236E+02  0.14672719860E+04  0.14676561585E+04  0.10000000000E+01 0.  0.
    9000005    1    3    3    0    0 -0.25067008849E+02  0.65408510426E+01  0.65591241247E+02  0.70529062047E+02  0.10000000000E+01 0.  0.
          4    1    1    2  501    0 -0.17271357771E+01 -0.26754518278E+02  0.41760527408E+01  0.27163202366E+02  0.12700000000E+01 0.  1.
<mgrwt>
<rscale>  1 0.12784404E+03</rscale>
<asrwt>0</asrwt>
<pdfrwt beam="2">  1       21 0.21775876E-02 0.12784404E+03</pdfrwt>
<pdfrwt beam="1">  1        4 0.23864946E+00 0.12784404E+03</pdfrwt>
<totfact> 0.37552388E+03</totfact>
</mgrwt>
</event>
<event>
 6    3  0.7601760E-003  0.1286519E+03  0.7818608E-02  0.1229470E+00
         21   -1    0    0  501  502  0.00000000000E+00  0.00000000000E+00  0.47215216906E+02  0.47215216906E+02  0.00000000000E+00 0. -1.
         -4   -1    0    0    0  501 -0.00000000000E+00 -0.00000000000E+00 -0.13970551001E+03  0.13971128239E+03  0.12700000000E+01 0. -1.
         25    2    1    2    0    0  0.26638701247E+02  0.14715889142E+02 -0.88623532258E+02  0.15622238659E+03  0.12500050322E+03 0.  0.
    9000005    1    3    3    0    0 -0.46523816987E+02  0.20160403177E+02 -0.57088216004E+02  0.76360800217E+02  0.10000000000E+01 0.  0.
    9000005    1    3    3    0    0  0.73162518234E+02 -0.54445140347E+01 -0.31535316254E+02  0.79861586377E+02  0.10000000000E+01 0.  0.
         -4    1    1    2    0  502 -0.26638701247E+02 -0.14715889142E+02 -0.38667608473E+01  0.30704112702E+02  0.12700000000E+01 0.  1.
<mgrwt>
<rscale>  1 0.12865187E+03</rscale>
<asrwt>0</asrwt>
<pdfrwt beam="1">  1       21 0.72638797E-02 0.12865187E+03</pdfrwt>
<pdfrwt beam="2">  1       -4 0.21494913E-01 0.12865187E+03</pdfrwt>
<totfact> 0.11201890E+05</totfact>
</mgrwt>
</event>
<event>
 6    3  0.7601760E-003  0.1276825E+03  0.7818608E-02  0.1230936E+00
         -4   -1    0    0    0  501 -0.00000000000E+00  0.00000000000E+00  0.49309271617E+03  0.49309435166E+03  0.12700000000E+01 0.  1.
         21   -1    0    0  501  502  0.00000000000E+00 -0.00000000000E+00 -0.12205186189E+02  0.12205186189E+02  0.00000000000E+00 0.  1.
         25    2    1    2    0    0 -0.71964176224E+01 -0.25004454673E+02  0.42232605081E+03  0.44120530314E+03  0.12500326055E+03 0.  0.
    9000005    1    3    3    0    0  0.30001551223E+02  0.10651159541E+02  0.35496231931E+03  0.35638853574E+03  0.10000000000E+01 0.  0.
    9000005    1    3    3    0    0 -0.37197968846E+02 -0.35655614214E+02  0.67363731499E+02  0.84816767403E+02  0.10000000000E+01 0.  0.
         -4    1    1    2    0  502  0.71964176224E+01  0.25004454673E+02  0.58561479174E+02  0.64094234711E+02  0.12700000000E+01 0. -1.
<mgrwt>
<rscale>  1 0.12768252E+03</rscale>
<asrwt>0</asrwt>
<pdfrwt beam="2">  1       21 0.18777213E-02 0.12768252E+03</pdfrwt>
<pdfrwt beam="1">  1       -4 0.75865611E-01 0.12768252E+03</pdfrwt>
<totfact> 0.86860710E+04</totfact>
</mgrwt>
</event>
<event>
 6    3  0.7601760E-003  0.1280821E+03  0.7818608E-02  0.1230330E+00
         -4   -1    0    0    0  501 -0.00000000000E+00  0.00000000000E+00  0.25001358732E+03  0.25001681292E+03  0.12700000000E+01 0.  1.
         21   -1    0    0  501  502  0.00000000000E+00 -0.00000000000E+00 -0.54108213169E+02  0.54108213169E+02  0.00000000000E+00 0. -1.
         25    2    1    2    0    0  0.27991666066E+02  0.18039650713E+00  0.22800393926E+03  0.26151638032E+03  0.12498581899E+03 0.  0.
    9000005    1    3    3    0    0  0.45298546027E+02 -0.14752343019E+02  0.19056574140E+02  0.51320005014E+02  0.10000000000E+01 0.  0.
    9000005    1    3    3    0    0 -0.17306879961E+02  0.14932739526E+02  0.20894736512E+03  0.21019637531E+03  0.10000000000E+01 0.  0.
         -4    1    1    2    0  502 -0.27991666066E+02 -0.18039650713E+00 -0.32098565109E+02  0.42608645767E+02  0.12700000000E+01 0. -1.
<mgrwt>
<rscale>  1 0.12808209E+03</rscale>
<asrwt>0</asrwt>
<pdfrwt beam="2">  1       21 0.83243407E-02 0.12808209E+03</pdfrwt>
<pdfrwt beam="1">  1       -4 0.38465023E-01 0.12808209E+03</pdfrwt>
<totfact> 0.29670428E+04</totfact>
</mgrwt>
</event>
<event>
 6    3  0.7601760E-003  0.1327753E+03  0.7818608E-02  0.1223395E+00
         -4   -1    0    0    0  501 -0.00000000000E+00  0.00000000000E+00  0.44679988129E+03  0.44680168623E+03  0.12700000000E+01 0. -1.
         21   -1    0    0  501  502  0.00000000000E+00 -0.00000000000E+00 -0.44582767330E+02  0.44582767330E+02  0.00000000000E+00 0.  1.
         25    2    1    2    0    0 -0.40555339042E+02 -0.18940833762E+02  0.42202636277E+03  0.44242007930E+03  0.12500313988E+03 0.  0.
    9000005    1    3    3    0    0  0.16977677072E+00 -0.35744570274E+01  0.38569686662E+03  0.38571476312E+03  0.10000000000E+01 0.  0.
    9000005    1    3    3    0    0 -0.40725115813E+02 -0.15366376735E+02  0.36329496149E+02  0.56705316173E+02  0.10000000000E+01 0.  0.
         -4    1    1    2    0  502  0.40555339042E+02  0.18940833762E+02 -0.19809248817E+02  0.48964374264E+02  0.12700000000E+01 0.  1.
<mgrwt>
<rscale>  1 0.13277528E+03</rscale>
<asrwt>0</asrwt>
<pdfrwt beam="2">  1       21 0.68588876E-02 0.13277528E+03</pdfrwt>
<pdfrwt beam="1">  1       -4 0.68739971E-01 0.13277528E+03</pdfrwt>
<totfact> 0.12660471E+04</totfact>
</mgrwt>
</event>
<event>
 6    3  0.7601760E-003  0.1267380E+03  0.7818608E-02  0.1232378E+00
          4   -1    0    0  502    0 -0.00000000000E+00  0.00000000000E+00  0.21004432936E+02  0.21042792186E+02  0.12700000000E+01 0. -1.
         21   -1    0    0  501  502  0.00000000000E+00 -0.00000000000E+00 -0.47088235435E+03  0.47088235435E+03  0.00000000000E+00 0. -1.
         25    2    1    2    0    0  0.45394377805E+01  0.20426528448E+02 -0.17406329005E+03  0.21531499969E+03  0.12499868236E+03 0.  0.
    9000005    1    3    3    0    0 -0.24201136125E+02  0.12481989175E+01 -0.17878949484E+03  0.18042709457E+03  0.10000000000E+01 0.  0.
    9000005    1    3    3    0    0  0.28740573906E+02  0.19178329530E+02  0.47262047947E+01  0.34887905121E+02  0.10000000000E+01 0.  0.
          4    1    1    2  501    0 -0.45394377805E+01 -0.20426528448E+02 -0.27581463137E+03  0.27661014685E+03  0.12700000000E+01 0.  1.
<mgrwt>
<rscale>  1 0.12673800E+03</rscale>
<asrwt>0</asrwt>
<pdfrwt beam="2">  1       21 0.72443438E-01 0.12673800E+03</pdfrwt>
<pdfrwt beam="1">  1        4 0.32345337E-02 0.12673800E+03</pdfrwt>
<totfact> 0.33494283E+04</totfact>
</mgrwt>
</event>
<event>
 6    3  0.7601760E-003  0.1308257E+03  0.7818608E-02  0.1226236E+00
         -4   -1    0    0    0  501 -0.00000000000E+00  0.00000000000E+00  0.31035515892E+02  0.31061489769E+02  0.12700000000E+01 0. -1.
         21   -1    0    0  501  502  0.00000000000E+00 -0.00000000000E+00 -0.30988388774E+03  0.30988388774E+03  0.00000000000E+00 0.  1.
         25    2    1    2    0    0  0.85768283091E+01 -0.37646269380E+02 -0.12019912903E+03  0.17766035453E+03  0.12499826947E+03 0.  0.
    9000005    1    3    3    0    0 -0.48166515263E+01  0.30979505364E+02 -0.10010264101E+03  0.10490218597E+03  0.10000000000E+01 0.  0.
    9000005    1    3    3    0    0  0.13393479835E+02 -0.68625774744E+02 -0.20096488020E+02  0.72758168559E+02  0.10000000000E+01 0.  0.
         -4    1    1    2    0  502 -0.85768283091E+01  0.37646269380E+02 -0.15864924282E+03  0.16328502298E+03  0.12700000000E+01 0.  1.
<mgrwt>
<rscale>  1 0.13082573E+03</rscale>
<asrwt>0</asrwt>
<pdfrwt beam="2">  1       21 0.47674445E-01 0.13082573E+03</pdfrwt>
<pdfrwt beam="1">  1       -4 0.47768928E-02 0.13082573E+03</pdfrwt>
<totfact> 0.43927438E+04</totfact>
</mgrwt>
</event>
<event>
 6    3  0.7601760E-003  0.1346934E+03  0.7818608E-02  0.1220653E+00
          4   -1    0    0  502    0 -0.00000000000E+00  0.00000000000E+00  0.13067800133E+03  0.13068417246E+03  0.12700000000E+01 0.  1.
         21   -1    0    0  501  502  0.00000000000E+00 -0.00000000000E+00 -0.12525523472E+03  0.12525523472E+03  0.00000000000E+00 0. -1.
         25    2    1    2    0    0 -0.49587945465E+02  0.76546201473E+01  0.86864275941E+02  0.16027389674E+03  0.12499904798E+03 0.  0.
    9000005    1    3    3    0    0  0.33290727083E+02 -0.27775434584E+02  0.38434631691E+02  0.57947978302E+02  0.10000000000E+01 0.  0.
    9000005    1    3    3    0    0 -0.82878672548E+02  0.35430054731E+02  0.48429644250E+02  0.10232591844E+03  0.10000000000E+01 0.  0.
          4    1    1    2  501    0  0.49587945465E+02 -0.76546201473E+01 -0.81441509329E+02  0.95665510435E+02  0.12700000000E+01 0. -1.
<mgrwt>
<rscale>  1 0.13469343E+03</rscale>
<asrwt>0</asrwt>
<pdfrwt beam="2">  1       21 0.19270036E-01 0.13469343E+03</pdfrwt>
<pdfrwt beam="1">  1        4 0.20105278E-01 0.13469343E+03</pdfrwt>
<totfact> 0.22525452E+04</totfact>
</mgrwt>
</event>
<event>
 6    3  0.7601760E-003  0.1341371E+03  0.7818608E-02  0.1221443E+00
         21   -1    0    0  501  502  0.00000000000E+00  0.00000000000E+00  0.25475516430E+03  0.25475516430E+03  0.00000000000E+00 0.  1.
         -4   -1    0    0    0  501 -0.00000000000E+00 -0.00000000000E+00 -0.82474653234E+02  0.82484430810E+02  0.12700000000E+01 0. -1.
         25    2    1    2    0    0 -0.95000433068E+01  0.47824361059E+02 -0.22881625405E+02  0.13607475538E+03  0.12496139378E+03 0.  0.
    9000005    1    3    3    0    0  0.50242495218E+02  0.52625485395E+02 -0.26646536311E+01  0.72813806505E+02  0.10000000000E+01 0.  0.
    9000005    1    3    3    0    0 -0.59742538525E+02 -0.48011243367E+01 -0.20216971774E+02  0.63260948871E+02  0.10000000000E+01 0.  0.
         -4    1    1    2    0  502  0.95000433068E+01 -0.47824361059E+02  0.19516213647E+03  0.20116483973E+03  0.12700000000E+01 0.  1.
<mgrwt>
<rscale>  1 0.13413713E+03</rscale>
<asrwt>0</asrwt>
<pdfrwt beam="1">  1       21 0.39193102E-01 0.13413713E+03</pdfrwt>
<pdfrwt beam="2">  1       -4 0.12689404E-01 0.13413713E+03</pdfrwt>
<totfact> 0.12986720E+04</totfact>
</mgrwt>
</event>
<event>
 6    3  0.7601760E-003  0.1266121E+03  0.7818608E-02  0.1232571E+00
         21   -1    0    0  501  502  0.00000000000E+00  0.00000000000E+00  0.25913923239E+03  0.25913923239E+03  0.00000000000E+00 0.  1.
          4   -1    0    0  502    0 -0.00000000000E+00 -0.00000000000E+00 -0.93215910363E+02  0.93224561381E+02  0.12700000000E+01 0. -1.
         25    2    1    2    0    0 -0.12633589210E+02 -0.15701096512E+02 -0.49538099795E+02  0.13595822730E+03  0.12499793690E+03 0.  0.
    9000005    1    3    3    0    0 -0.20553565851E+02  0.40320521450E+02  0.17229880944E+02  0.48436167442E+02  0.10000000000E+01 0.  0.
    9000005    1    3    3    0    0  0.79199766406E+01 -0.56021617962E+02 -0.66767980738E+02  0.87522059853E+02  0.10000000000E+01 0.  0.
          4    1    1    2  501    0  0.12633589210E+02  0.15701096512E+02  0.21546142182E+03  0.21640556648E+03  0.12700000000E+01 0.  1.
<mgrwt>
<rscale>  1 0.12661207E+03</rscale>
<asrwt>0</asrwt>
<pdfrwt beam="1">  1       21 0.39867574E-01 0.12661207E+03</pdfrwt>
<pdfrwt beam="2">  1        4 0.14341814E-01 0.12661207E+03</pdfrwt>
<totfact> 0.10111902E+04</totfact>
</mgrwt>
</event>
<event>
 6    3  0.7601760E-003  0.1300728E+03  0.7818608E-02  0.1227348E+00
         21   -1    0    0  501  502  0.00000000000E+00  0.00000000000E+00  0.60324526436E+01  0.60324526436E+01  0.00000000000E+00 0.  1.
          4   -1    0    0  502    0 -0.00000000000E+00 -0.00000000000E+00 -0.11710938633E+04  0.11710945519E+04  0.12700000000E+01 0.  1.
         25    2    1    2    0    0  0.35246565568E+02  0.71132888785E+01 -0.82858506574E+03  0.83873246730E+03  0.12500408507E+03 0.  0.
    9000005    1    3    3    0    0  0.35354529156E+02 -0.50937667873E+02 -0.58709512224E+03  0.59036113633E+03  0.10000000000E+01 0.  0.
    9000005    1    3    3    0    0 -0.10796358845E+00  0.58050956752E+02 -0.24148994350E+03  0.24837133097E+03  0.10000000000E+01 0.  0.
          4    1    1    2  501    0 -0.35246565568E+02 -0.71132888785E+01 -0.33647634493E+03  0.33839453728E+03  0.12700000000E+01 0. -1.
<mgrwt>
<rscale>  1 0.13007283E+03</rscale>
<asrwt>0</asrwt>
<pdfrwt beam="1">  1       21 0.92807039E-03 0.13007283E+03</pdfrwt>
<pdfrwt beam="2">  1        4 0.18017848E+00 0.13007283E+03</pdfrwt>
<totfact> 0.33329130E+04</totfact>
</mgrwt>
</event>
<event>
 6    3  0.7601760E-003  0.1266828E+03  0.7818608E-02  0.1232463E+00
         21   -1    0    0  501  502  0.00000000000E+00  0.00000000000E+00  0.28308787219E+03  0.28308787219E+03  0.00000000000E+00 0.  1.
         -4   -1    0    0    0  501 -0.00000000000E+00 -0.00000000000E+00 -0.52130115679E+02  0.52145583329E+02  0.12700000000E+01 0. -1.
         25    2    1    2    0    0  0.45186694878E+01  0.20074544714E+02  0.26103187363E+02  0.12934413302E+03  0.12500049054E+03 0.  0.
    9000005    1    3    3    0    0  0.29339072974E+02 -0.44745387370E+02  0.26958067085E+02  0.59922185164E+02  0.10000000000E+01 0.  0.
    9000005    1    3    3    0    0 -0.24820403486E+02  0.64819932084E+02 -0.85487972142E+00  0.69421947855E+02  0.10000000000E+01 0.  0.
         -4    1    1    2    0  502 -0.45186694878E+01 -0.20074544714E+02  0.20485456915E+03  0.20588932250E+03  0.12700000000E+01 0.  1.
<mgrwt>
<rscale>  1 0.12668279E+03</rscale>
<asrwt>0</asrwt>
<pdfrwt beam="1">  1       21 0.43551979E-01 0.12668279E+03</pdfrwt>
<pdfrwt beam="2">  1       -4 0.80214269E-02 0.12668279E+03</pdfrwt>
<totfact> 0.22644040E+04</totfact>
</mgrwt>
</event>
<event>
 6    3  0.7601760E-003  0.1304117E+03  0.7818608E-02  0.1226846E+00
         -4   -1    0    0    0  501 -0.00000000000E+00  0.00000000000E+00  0.44126123825E+03  0.44126306584E+03  0.12700000000E+01 0.  1.
         21   -1    0    0  501  502  0.00000000000E+00 -0.00000000000E+00 -0.32186685032E+02  0.32186685032E+02  0.00000000000E+00 0. -1.
         25    2    1    2    0    0  0.20587620802E+02  0.30967169734E+02  0.41568264904E+03  0.43565959922E+03  0.12499762379E+03 0.  0.
    9000005    1    3    3    0    0  0.29213730215E+02  0.50466362700E+02  0.40922332355E+03  0.41335822761E+03  0.10000000000E+01 0.  0.
    9000005    1    3    3    0    0 -0.86261094126E+01 -0.19499192966E+02  0.64593254870E+01  0.22301371610E+02  0.10000000000E+01 0.  0.
         -4    1    1    2    0  502 -0.20587620802E+02 -0.30967169734E+02 -0.66080958241E+01  0.37790151654E+02  0.12700000000E+01 0. -1.
<mgrwt>
<rscale>  1 0.13041174E+03</rscale>
<asrwt>0</asrwt>
<pdfrwt beam="2">  1       21 0.49517980E-02 0.13041174E+03</pdfrwt>
<pdfrwt beam="1">  1       -4 0.67888408E-01 0.13041174E+03</pdfrwt>
<totfact> 0.22538592E+04</totfact>
</mgrwt>
</event>
<event>
 6    3  0.7601760E-003  0.1331635E+03  0.7818608E-02  0.1222836E+00
         21   -1    0    0  501  502  0.00000000000E+00  0.00000000000E+00  0.85226343133E+02  0.85226343133E+02  0.00000000000E+00 0. -1.
         -4   -1    0    0    0  501 -0.00000000000E+00 -0.00000000000E+00 -0.10360958507E+03  0.10361736832E+03  0.12700000000E+01 0. -1.
         25    2    1    2    0    0 -0.26649290725E+02  0.37355954479E+02 -0.38657166710E+02  0.13866107544E+03  0.12500746087E+03 0.  0.
    9000005    1    3    3    0    0 -0.52152304046E+02  0.44705615205E+02  0.22252621083E+02  0.72212422707E+02  0.10000000000E+01 0.  0.
    9000005    1    3    3    0    0  0.25503013321E+02 -0.73496607260E+01 -0.60909787793E+02  0.66448652734E+02  0.10000000000E+01 0.  0.
         -4    1    1    2    0  502  0.26649290725E+02 -0.37355954479E+02  0.20273924776E+02  0.50182636011E+02  0.12700000000E+01 0.  1.
<mgrwt>
<rscale>  1 0.13316350E+03</rscale>
<asrwt>0</asrwt>
<pdfrwt beam="1">  1       21 0.13111745E-01 0.13316350E+03</pdfrwt>
<pdfrwt beam="2">  1       -4 0.15941263E-01 0.13316350E+03</pdfrwt>
<totfact> 0.68313901E+04</totfact>
</mgrwt>
</event>
<event>
 6    3  0.7601760E-003  0.1361042E+03  0.7818608E-02  0.1218669E+00
          4   -1    0    0  502    0 -0.00000000000E+00  0.00000000000E+00  0.68440932893E+02  0.68452715032E+02  0.12700000000E+01 0. -1.
         21   -1    0    0  501  502  0.00000000000E+00 -0.00000000000E+00 -0.21703991581E+03  0.21703991581E+03  0.00000000000E+00 0.  1.
         25    2    1    2    0    0 -0.53625934459E+02  0.49065812456E+01 -0.96239639599E+01  0.13644403414E+03  0.12499815352E+03 0.  0.
    9000005    1    3    3    0    0  0.36070168676E+02  0.17003591836E+02 -0.21233329618E+02  0.45188864672E+02  0.10000000000E+01 0.  0.
    9000005    1    3    3    0    0 -0.89696103135E+02 -0.12097010590E+02  0.11609365658E+02  0.91255169464E+02  0.10000000000E+01 0.  0.
          4    1    1    2  501    0  0.53625934459E+02 -0.49065812456E+01 -0.13897501896E+03  0.14904859670E+03  0.12700000000E+01 0.  1.
<mgrwt>
<rscale>  1 0.13610420E+03</rscale>
<asrwt>0</asrwt>
<pdfrwt beam="2">  1       21 0.33390757E-01 0.13610420E+03</pdfrwt>
<pdfrwt beam="1">  1        4 0.10530566E-01 0.13610420E+03</pdfrwt>
<totfact> 0.24522203E+04</totfact>
</mgrwt>
</event>
<event>
 6    3  0.7601760E-003  0.1782295E+03  0.7818608E-02  0.1169528E+00
         21   -1    0    0  501  502  0.00000000000E+00  0.00000000000E+00  0.38474219687E+03  0.38474219687E+03  0.00000000000E+00 0.  1.
         -4   -1    0    0    0  501 -0.00000000000E+00 -0.00000000000E+00 -0.61266735426E+02  0.61279896946E+02  0.12700000000E+01 0. -1.
         25    2    1    2    0    0 -0.12193314617E+03  0.35669640713E+02  0.16474335364E+03  0.24270581224E+03  0.12500289327E+03 0.  0.
    9000005    1    3    3    0    0 -0.49299495750E+02  0.50586192158E+02  0.15179448453E+03  0.16742750267E+03  0.10000000000E+01 0.  0.
    9000005    1    3    3    0    0 -0.72633650421E+02 -0.14916551445E+02  0.12948869110E+02  0.75278309570E+02  0.10000000000E+01 0.  0.
         -4    1    1    2    0  502  0.12193314617E+03 -0.35669640713E+02  0.15873210781E+03  0.20331628157E+03  0.12700000000E+01 0.  1.
<mgrwt>
<rscale>  1 0.17822946E+03</rscale>
<asrwt>0</asrwt>
<pdfrwt beam="1">  1       21 0.59191106E-01 0.17822946E+03</pdfrwt>
<pdfrwt beam="2">  1       -4 0.94268255E-02 0.17822946E+03</pdfrwt>
<totfact> 0.93751504E+03</totfact>
</mgrwt>
</event>
<event>
 6    3  0.7601760E-003  0.1274748E+03  0.7818608E-02  0.1231252E+00
         21   -1    0    0  501  502  0.00000000000E+00  0.00000000000E+00  0.13583352746E+02  0.13583352746E+02  0.00000000000E+00 0. -1.
         -4   -1    0    0    0  501 -0.00000000000E+00 -0.00000000000E+00 -0.23737964846E+04  0.23737968244E+04  0.12700000000E+01 0.  1.
         25    2    1    2    0    0  0.24430848474E+02  0.53479702196E+01 -0.23588601775E+04  0.23623020885E+04  0.12499741315E+03 0.  0.
    9000005    1    3    3    0    0 -0.11122577473E+02  0.45687242387E+02 -0.18519304340E+04  0.18525275621E+04  0.10000000000E+01 0.  0.
    9000005    1    3    3    0    0  0.35553425948E+02 -0.40339272168E+02 -0.50692974348E+03  0.50977452643E+03  0.10000000000E+01 0.  0.
         -4    1    1    2    0  502 -0.24430848474E+02 -0.53479702196E+01 -0.13529544080E+01  0.25078088609E+02  0.12700000000E+01 0. -1.
<mgrwt>
<rscale>  1 0.12747478E+03</rscale>
<asrwt>0</asrwt>
<pdfrwt beam="1">  1       21 0.20897464E-02 0.12747478E+03</pdfrwt>
<pdfrwt beam="2">  1       -4 0.36520408E+00 0.12747478E+03</pdfrwt>
<totfact> 0.72907346E+02</totfact>
</mgrwt>
</event>
<event>
 6    3  0.7601760E-003  0.1371448E+03  0.7818608E-02  0.1217223E+00
         21   -1    0    0  501  502  0.00000000000E+00  0.00000000000E+00  0.37554028728E+02  0.37554028728E+02  0.00000000000E+00 0. -1.
          4   -1    0    0  502    0 -0.00000000000E+00 -0.00000000000E+00 -0.26944351951E+03  0.26944651251E+03  0.12700000000E+01 0.  1.
         25    2    1    2    0    0  0.11303305806E+02 -0.55291549958E+02 -0.19896150342E+03  0.24164929434E+03  0.12499512549E+03 0.  0.
    9000005    1    3    3    0    0  0.60456484978E+02 -0.62960057730E+02 -0.13100493701E+03  0.15742378780E+03  0.10000000000E+01 0.  0.
    9000005    1    3    3    0    0 -0.49153179172E+02  0.76685077719E+01 -0.67956566411E+02  0.84225506543E+02  0.10000000000E+01 0.  0.
          4    1    1    2  501    0 -0.11303305806E+02  0.55291549958E+02 -0.32927987360E+02  0.65351246893E+02  0.12700000000E+01 0. -1.
<mgrwt>
<rscale>  1 0.13714482E+03</rscale>
<asrwt>0</asrwt>
<pdfrwt beam="1">  1       21 0.57775426E-02 0.13714482E+03</pdfrwt>
<pdfrwt beam="2">  1        4 0.41454733E-01 0.13714482E+03</pdfrwt>
<totfact> 0.48233826E+04</totfact>
</mgrwt>
</event>
<event>
 6    3  0.7601760E-003  0.1283592E+03  0.7818608E-02  0.1229911E+00
          4   -1    0    0  502    0 -0.00000000000E+00  0.00000000000E+00  0.12709721215E+03  0.12710355713E+03  0.12700000000E+01 0.  1.
         21   -1    0    0  501  502  0.00000000000E+00 -0.00000000000E+00 -0.12273258690E+03  0.12273258690E+03  0.00000000000E+00 0. -1.
         25    2    1    2    0    0 -0.58307943350E+01  0.28584819349E+02  0.91699068730E+02  0.15774918524E+03  0.12499998472E+03 0.  0.
    9000005    1    3    3    0    0 -0.39817316093E+02  0.55884430935E+02  0.16120043050E+02  0.70493574670E+02  0.10000000000E+01 0.  0.
    9000005    1    3    3    0    0  0.33986521758E+02 -0.27299611586E+02  0.75579025680E+02  0.87255610574E+02  0.10000000000E+01 0.  0.
          4    1    1    2  501    0  0.58307943350E+01 -0.28584819349E+02 -0.87334443482E+02  0.92086958784E+02  0.12700000000E+01 0. -1.
<mgrwt>
<rscale>  1 0.12835921E+03</rscale>
<asrwt>0</asrwt>
<pdfrwt beam="2">  1       21 0.18881936E-01 0.12835921E+03</pdfrwt>
<pdfrwt beam="1">  1        4 0.19554411E-01 0.12835921E+03</pdfrwt>
<totfact> 0.24459633E+04</totfact>
</mgrwt>
</event>
<event>
 6    3  0.7601760E-003  0.1280992E+03  0.7818608E-02  0.1230304E+00
          4   -1    0    0  502    0 -0.00000000000E+00  0.00000000000E+00  0.20513439347E+02  0.20552715000E+02  0.12700000000E+01 0. -1.
         21   -1    0    0  501  502  0.00000000000E+00 -0.00000000000E+00 -0.33023911879E+03  0.33023911879E+03  0.00000000000E+00 0. -1.
         25    2    1    2    0    0 -0.31087384476E+01 -0.27858134146E+02 -0.19977549458E+03  0.23731762551E+03  0.12499466889E+03 0.  0.
    9000005    1    3    3    0    0  0.39981066939E+02 -0.60309496917E+02 -0.94527635837E+02  0.11904702881E+03  0.10000000000E+01 0.  0.
    9000005    1    3    3    0    0 -0.43089805387E+02  0.32451362771E+02 -0.10524785874E+03  0.11827059670E+03  0.10000000000E+01 0.  0.
          4    1    1    2  501    0  0.31087384476E+01  0.27858134146E+02 -0.10995018486E+03  0.11347420827E+03  0.12700000000E+01 0.  1.
<mgrwt>
<rscale>  1 0.12809921E+03</rscale>
<asrwt>0</asrwt>
<pdfrwt beam="2">  1       21 0.50806016E-01 0.12809921E+03</pdfrwt>
<pdfrwt beam="1">  1        4 0.31591229E-02 0.12809921E+03</pdfrwt>
<totfact> 0.74028337E+04</totfact>
</mgrwt>
</event>
<event>
 6    3  0.7601760E-003  0.1270442E+03  0.7818608E-02  0.1231909E+00
         -4   -1    0    0    0  501 -0.00000000000E+00  0.00000000000E+00  0.37209624351E+02  0.37231291199E+02  0.12700000000E+01 0.  1.
         21   -1    0    0  501  502  0.00000000000E+00 -0.00000000000E+00 -0.19447533444E+03  0.19447533444E+03  0.00000000000E+00 0.  1.
         25    2    1    2    0    0  0.78681695744E+01 -0.21279983511E+02 -0.77612655976E+02  0.14887566693E+03  0.12500197617E+03 0.  0.
    9000005    1    3    3    0    0 -0.40698489069E+00 -0.49113698225E+02 -0.10051633081E+03  0.11187874575E+03  0.10000000000E+01 0.  0.
    9000005    1    3    3    0    0  0.82751544651E+01  0.27833714714E+02  0.22903674837E+02  0.36996921186E+02  0.10000000000E+01 0.  0.
         -4    1    1    2    0  502 -0.78681695744E+01  0.21279983511E+02 -0.79653054112E+02  0.82830958705E+02  0.12700000000E+01 0. -1.
<mgrwt>
<rscale>  1 0.12704424E+03</rscale>
<asrwt>0</asrwt>
<pdfrwt beam="2">  1       21 0.29919283E-01 0.12704424E+03</pdfrwt>
<pdfrwt beam="1">  1       -4 0.57265432E-02 0.12704424E+03</pdfrwt>
<totfact> 0.82438209E+04</totfact>
</mgrwt>
</event>
<event>
 6    3  0.7601760E-003  0.1293563E+03  0.7818608E-02  0.1228414E+00
         21   -1    0    0  501  502  0.00000000000E+00  0.00000000000E+00  0.34134127748E+03  0.34134127748E+03  0.00000000000E+00 0.  1.
          4   -1    0    0  502    0 -0.00000000000E+00 -0.00000000000E+00 -0.31050461326E+02  0.31076422712E+02  0.12700000000E+01 0. -1.
         25    2    1    2    0    0 -0.28232741652E+02 -0.17590144219E+02  0.11125890068E+03  0.17062122562E+03  0.12500623495E+03 0.  0.
    9000005    1    3    3    0    0  0.57444789413E+01  0.42762209143E+02  0.87199396390E+02  0.97295119610E+02  0.10000000000E+01 0.  0.
    9000005    1    3    3    0    0 -0.33977220594E+02 -0.60352353362E+02  0.24059504295E+02  0.73326106009E+02  0.10000000000E+01 0.  0.
          4    1    1    2  501    0  0.28232741652E+02  0.17590144219E+02  0.19903191547E+03  0.20179647457E+03  0.12700000000E+01 0.  1.
<mgrwt>
<rscale>  1 0.12935633E+03</rscale>
<asrwt>0</asrwt>
<pdfrwt beam="1">  1       21 0.52514040E-01 0.12935633E+03</pdfrwt>
<pdfrwt beam="2">  1        4 0.47791731E-02 0.12935633E+03</pdfrwt>
<totfact> 0.35910867E+04</totfact>
</mgrwt>
</event>
<event>
 6    3  0.7601760E-003  0.1306469E+03  0.7818608E-02  0.1226499E+00
         21   -1    0    0  501  502  0.00000000000E+00  0.00000000000E+00  0.13300989078E+02  0.13300989078E+02  0.00000000000E+00 0.  1.
          4   -1    0    0  502    0 -0.00000000000E+00 -0.00000000000E+00 -0.97643527725E+03  0.97643610316E+03  0.12700000000E+01 0. -1.
         25    2    1    2    0    0 -0.22902616054E+01 -0.37918023166E+02 -0.93054097136E+03  0.93966755080E+03  0.12500233946E+03 0.  0.
    9000005    1    3    3    0    0 -0.19103144242E+02 -0.58523365853E+02 -0.21527800110E+03  0.22390965194E+03  0.10000000000E+01 0.  0.
    9000005    1    3    3    0    0  0.16812882637E+02  0.20605342688E+02 -0.71526297025E+03  0.71575789886E+03  0.10000000000E+01 0.  0.
          4    1    1    2  501    0  0.22902616054E+01  0.37918023166E+02 -0.32593316814E+02  0.50069541440E+02  0.12700000000E+01 0.  1.
<mgrwt>
<rscale>  1 0.13064688E+03</rscale>
<asrwt>0</asrwt>
<pdfrwt beam="1">  1       21 0.20463058E-02 0.13064688E+03</pdfrwt>
<pdfrwt beam="2">  1        4 0.15022555E+00 0.13064688E+03</pdfrwt>
<totfact> 0.15257261E+04</totfact>
</mgrwt>
</event>
<event>
 6    3  0.7601760E-003  0.1323493E+03  0.7818608E-02  0.1224011E+00
         21   -1    0    0  501  502  0.00000000000E+00  0.00000000000E+00  0.38743991328E+03  0.38743991328E+03  0.00000000000E+00 0. -1.
         -4   -1    0    0    0  501 -0.00000000000E+00 -0.00000000000E+00 -0.20314330387E+02  0.20353990250E+02  0.12700000000E+01 0. -1.
         25    2    1    2    0    0  0.16355130733E+02 -0.40298868404E+02  0.29868089001E+03  0.32669040188E+03  0.12499942211E+03 0.  0.
    9000005    1    3    3    0    0 -0.44958849826E+01 -0.80963049959E+02  0.14250770019E+03  0.16396546299E+03  0.10000000000E+01 0.  0.
    9000005    1    3    3    0    0  0.20851015716E+02  0.40664181555E+02  0.15617318982E+03  0.16272493889E+03  0.10000000000E+01 0.  0.
         -4    1    1    2    0  502 -0.16355130733E+02  0.40298868404E+02  0.68444692883E+02  0.81103501649E+02  0.12700000000E+01 0.  1.
<mgrwt>
<rscale>  1 0.13234933E+03</rscale>
<asrwt>0</asrwt>
<pdfrwt beam="1">  1       21 0.59606135E-01 0.13234933E+03</pdfrwt>
<pdfrwt beam="2">  1       -4 0.31284928E-02 0.13234933E+03</pdfrwt>
<totfact> 0.53994638E+04</totfact>
</mgrwt>
</event>
<event>
 6    3  0.7601760E-003  0.1275905E+03  0.7818608E-02  0.1231075E+00
         21   -1    0    0  501  502  0.00000000000E+00  0.00000000000E+00  0.21854854745E+02  0.21854854745E+02  0.00000000000E+00 0.  1.
         -4   -1    0    0    0  501 -0.00000000000E+00 -0.00000000000E+00 -0.49128148940E+03  0.49128313092E+03  0.12700000000E+01 0. -1.
         25    2    1    2    0    0  0.25565730913E+02 -0.89808570022E+00 -0.47050925910E+03  0.48750210981E+03  0.12499972407E+03 0.  0.
    9000005    1    3    3    0    0  0.25171928189E+02 -0.52133786817E+02 -0.11969015181E+03  0.13295973126E+03  0.10000000000E+01 0.  0.
    9000005    1    3    3    0    0  0.39380272403E+00  0.51235701117E+02 -0.35081910729E+03  0.35454237855E+03  0.10000000000E+01 0.  0.
         -4    1    1    2    0  502 -0.25565730913E+02  0.89808570022E+00  0.10826244443E+01  0.25635875853E+02  0.12700000000E+01 0.  1.
<mgrwt>
<rscale>  1 0.12759053E+03</rscale>
<asrwt>0</asrwt>
<pdfrwt beam="1">  1       21 0.33622856E-02 0.12759053E+03</pdfrwt>
<pdfrwt beam="2">  1       -4 0.75584728E-01 0.12759053E+03</pdfrwt>
<totfact> 0.33918722E+04</totfact>
</mgrwt>
</event>
<event>
 6    3  0.7601760E-003  0.1399688E+03  0.7818608E-02  0.1213371E+00
         21   -1    0    0  501  502  0.00000000000E+00  0.00000000000E+00  0.60480189090E+02  0.60480189090E+02  0.00000000000E+00 0.  1.
          4   -1    0    0  502    0 -0.00000000000E+00 -0.00000000000E+00 -0.38496141430E+03  0.38496350918E+03  0.12700000000E+01 0. -1.
         25    2    1    2    0    0 -0.11548396530E+02  0.61910251551E+02 -0.35040566160E+03  0.37732663718E+03  0.12500007493E+03 0.  0.
    9000005    1    3    3    0    0 -0.49674195800E+02  0.24510137044E+02 -0.29578241331E+03  0.30092608490E+03  0.10000000000E+01 0.  0.
    9000005    1    3    3    0    0  0.38125799270E+02  0.37400114507E+02 -0.54623248289E+02  0.76400552280E+02  0.10000000000E+01 0.  0.
          4    1    1    2  501    0  0.11548396530E+02 -0.61910251551E+02  0.25924436392E+02  0.68117061091E+02  0.12700000000E+01 0.  1.
<mgrwt>
<rscale>  1 0.13996879E+03</rscale>
<asrwt>0</asrwt>
<pdfrwt beam="1">  1       21 0.93046443E-02 0.13996879E+03</pdfrwt>
<pdfrwt beam="2">  1        4 0.59226021E-01 0.13996879E+03</pdfrwt>
<totfact> 0.10307375E+04</totfact>
</mgrwt>
</event>
<event>
 6    3  0.7601760E-003  0.1525539E+03  0.7818608E-02  0.1197369E+00
         21   -1    0    0  501  502  0.00000000000E+00  0.00000000000E+00  0.98593468288E+01  0.98593468288E+01  0.00000000000E+00 0. -1.
         -4   -1    0    0    0  501 -0.00000000000E+00 -0.00000000000E+00 -0.16420873351E+04  0.16420878262E+04  0.12700000000E+01 0.  1.
         25    2    1    2    0    0 -0.38085239987E+02  0.78726446268E+02 -0.12783590283E+04  0.12874294196E+04  0.12499746539E+03 0.  0.
    9000005    1    3    3    0    0 -0.66119818843E+02 -0.10237950503E+01 -0.46304414589E+03  0.46774326253E+03  0.10000000000E+01 0.  0.
    9000005    1    3    3    0    0  0.28034578857E+02  0.79750241318E+02 -0.81531488244E+03  0.81968615709E+03  0.10000000000E+01 0.  0.
         -4    1    1    2    0  502  0.38085239987E+02 -0.78726446268E+02 -0.35386895995E+03  0.36451775343E+03  0.12700000000E+01 0. -1.
<mgrwt>
<rscale>  1 0.15255394E+03</rscale>
<asrwt>0</asrwt>
<pdfrwt beam="1">  1       21 0.15168225E-02 0.15255394E+03</pdfrwt>
<pdfrwt beam="2">  1       -4 0.25263516E+00 0.15255394E+03</pdfrwt>
<totfact> 0.56254698E+03</totfact>
</mgrwt>
</event>
<event>
 6    3  0.7601760E-003  0.1284217E+03  0.7818608E-02  0.1229817E+00
         21   -1    0    0  501  502  0.00000000000E+00  0.00000000000E+00  0.67790167392E+02  0.67790167392E+02  0.00000000000E+00 0. -1.
         -4   -1    0    0    0  501 -0.00000000000E+00 -0.00000000000E+00 -0.96904460508E+02  0.96912782265E+02  0.12700000000E+01 0.  1.
         25    2    1    2    0    0  0.21214280107E+02 -0.20418110039E+02 -0.37992015078E+02  0.13392354509E+03  0.12500071129E+03 0.  0.
    9000005    1    3    3    0    0  0.47756306229E+00 -0.58173565389E+02  0.20134170277E+02  0.61569282839E+02  0.10000000000E+01 0.  0.
    9000005    1    3    3    0    0  0.20736717045E+02  0.37755455350E+02 -0.58126185355E+02  0.72354262255E+02  0.10000000000E+01 0.  0.
         -4    1    1    2    0  502 -0.21214280107E+02  0.20418110039E+02  0.88777219620E+01  0.30779404563E+02  0.12700000000E+01 0. -1.
<mgrwt>
<rscale>  1 0.12842166E+03</rscale>
<asrwt>0</asrwt>
<pdfrwt beam="1">  1       21 0.10429257E-01 0.12842166E+03</pdfrwt>
<pdfrwt beam="2">  1       -4 0.14909934E-01 0.12842166E+03</pdfrwt>
<totfact> 0.11455279E+05</totfact>
</mgrwt>
</event>
<event>
 6    3  0.7601760E-003  0.1750396E+03  0.7818608E-02  0.1172692E+00
          4   -1    0    0  502    0 -0.00000000000E+00  0.00000000000E+00  0.12366841946E+04  0.12366848467E+04  0.12700000000E+01 0.  1.
         21   -1    0    0  501  502  0.00000000000E+00 -0.00000000000E+00 -0.23701856877E+02  0.23701856877E+02  0.00000000000E+00 0. -1.
         25    2    1    2    0    0 -0.64821976560E+02 -0.10396805666E+03  0.99543487219E+03  0.10107073930E+04  0.12501041607E+03 0.  0.
    9000005    1    3    3    0    0  0.69623876488E+01 -0.71620999857E+02  0.22428774498E+03  0.23555049355E+03  0.10000000000E+01 0.  0.
    9000005    1    3    3    0    0 -0.71784364209E+02 -0.32347056807E+02  0.77114712722E+03  0.77515689950E+03  0.10000000000E+01 0.  0.
          4    1    1    2  501    0  0.64821976560E+02  0.10396805666E+03  0.21754746551E+03  0.24967931052E+03  0.12700000000E+01 0. -1.
<mgrwt>
<rscale>  1 0.17503957E+03</rscale>
<asrwt>0</asrwt>
<pdfrwt beam="2">  1       21 0.36464405E-02 0.17503957E+03</pdfrwt>
<pdfrwt beam="1">  1        4 0.19026172E+00 0.17503957E+03</pdfrwt>
<totfact> 0.32115767E+03</totfact>
</mgrwt>
</event>
<event>
 6    3  0.7601760E-003  0.1664390E+03  0.7818608E-02  0.1181613E+00
         21   -1    0    0  501  502  0.00000000000E+00  0.00000000000E+00  0.64653139771E+02  0.64653139771E+02  0.00000000000E+00 0.  1.
         -4   -1    0    0    0  501 -0.00000000000E+00 -0.00000000000E+00 -0.46297769123E+03  0.46297943310E+03  0.12700000000E+01 0. -1.
         25    2    1    2    0    0 -0.12089821667E+02  0.10925754315E+03 -0.38175401674E+03  0.41645896970E+03  0.12497427583E+03 0.  0.
    9000005    1    3    3    0    0 -0.29735543643E+02  0.12516969130E+03 -0.36594389842E+03  0.38790152226E+03  0.10000000000E+01 0.  0.
    9000005    1    3    3    0    0  0.17645721976E+02 -0.15912148156E+02 -0.15810118317E+02  0.28557447438E+02  0.10000000000E+01 0.  0.
         -4    1    1    2    0  502  0.12089821667E+02 -0.10925754315E+03 -0.16570534716E+02  0.11117360318E+03  0.12700000000E+01 0.  1.
<mgrwt>
<rscale>  1 0.16643901E+03</rscale>
<asrwt>0</asrwt>
<pdfrwt beam="1">  1       21 0.99466372E-02 0.16643901E+03</pdfrwt>
<pdfrwt beam="2">  1       -4 0.71228428E-01 0.16643901E+03</pdfrwt>
<totfact> 0.62672883E+03</totfact>
</mgrwt>
</event>
<event>
 6    3  0.7601760E-003  0.1307023E+03  0.7818608E-02  0.1226417E+00
         21   -1    0    0  501  502  0.00000000000E+00  0.00000000000E+00  0.13753045167E+02  0.13753045167E+02  0.00000000000E+00 0. -1.
          4   -1    0    0  502    0 -0.00000000000E+00 -0.00000000000E+00 -0.11343512853E+04  0.11343519962E+04  0.12700000000E+01 0.  1.
         25    2    1    2    0    0 -0.32337689128E+02  0.20309906946E+02 -0.10934512947E+04  0.11012351363E+04  0.12499949204E+03 0.  0.
    9000005    1    3    3    0    0 -0.64729380706E+02 -0.24676624180E+02 -0.76564839897E+03  0.76877649505E+03  0.10000000000E+01 0.  0.
    9000005    1    3    3    0    0  0.32391691578E+02  0.44986531125E+02 -0.32780289577E+03  0.33245864125E+03  0.10000000000E+01 0.  0.
          4    1    1    2  501    0  0.32337689128E+02 -0.20309906946E+02 -0.27146945362E+02  0.46869905064E+02  0.12700000000E+01 0. -1.
<mgrwt>
<rscale>  1 0.13070230E+03</rscale>
<asrwt>0</asrwt>
<pdfrwt beam="1">  1       21 0.21158530E-02 0.13070230E+03</pdfrwt>
<pdfrwt beam="2">  1        4 0.17452015E+00 0.13070230E+03</pdfrwt>
<totfact> 0.97724774E+03</totfact>
</mgrwt>
</event>
<event>
 6    3  0.7601760E-003  0.1273443E+03  0.7818608E-02  0.1231450E+00
         21   -1    0    0  501  502  0.00000000000E+00  0.00000000000E+00  0.10152476431E+03  0.10152476431E+03  0.00000000000E+00 0.  1.
         -4   -1    0    0    0  501 -0.00000000000E+00 -0.00000000000E+00 -0.60272262248E+02  0.60285640882E+02  0.12700000000E+01 0.  1.
         25    2    1    2    0    0  0.23288850615E+02  0.71699903554E+01  0.18937858757E+02  0.12874478059E+03  0.12499118653E+03 0.  0.
    9000005    1    3    3    0    0  0.23556643932E+02  0.38421721482E+02 -0.41131576798E+02  0.61024181805E+02  0.10000000000E+01 0.  0.
    9000005    1    3    3    0    0 -0.26779331707E+00 -0.31251731127E+02  0.60069435555E+02  0.67720598784E+02  0.10000000000E+01 0.  0.
         -4    1    1    2    0  502 -0.23288850615E+02 -0.71699903554E+01  0.22314643307E+02  0.33065624606E+02  0.12700000000E+01 0. -1.
<mgrwt>
<rscale>  1 0.12734432E+03</rscale>
<asrwt>0</asrwt>
<pdfrwt beam="1">  1       21 0.15619195E-01 0.12734432E+03</pdfrwt>
<pdfrwt beam="2">  1       -4 0.92742959E-02 0.12734432E+03</pdfrwt>
<totfact> 0.12533361E+05</totfact>
</mgrwt>
</event>
<event>
 6    3  0.7601760E-003  0.1274576E+03  0.7818608E-02  0.1231278E+00
          4   -1    0    0  502    0 -0.00000000000E+00  0.00000000000E+00  0.22685027506E+02  0.22720549574E+02  0.12700000000E+01 0. -1.
         21   -1    0    0  501  502  0.00000000000E+00 -0.00000000000E+00 -0.26554341002E+03  0.26554341002E+03  0.00000000000E+00 0. -1.
         25    2    1    2    0    0  0.24831616271E+02 -0.18882707667E+01 -0.17927491926E+03  0.21996575732E+03  0.12500105195E+03 0.  0.
    9000005    1    3    3    0    0  0.63019611114E+02  0.33380453955E+02 -0.75294069791E+02  0.10371076625E+03  0.10000000000E+01 0.  0.
    9000005    1    3    3    0    0 -0.38187994843E+02 -0.35268724721E+02 -0.10398084946E+03  0.11625499107E+03  0.10000000000E+01 0.  0.
          4    1    1    2  501    0 -0.24831616271E+02  0.18882707667E+01 -0.63583463254E+02  0.68298202264E+02  0.12700000000E+01 0.  1.
<mgrwt>
<rscale>  1 0.12745759E+03</rscale>
<asrwt>0</asrwt>
<pdfrwt beam="2">  1       21 0.40852833E-01 0.12745759E+03</pdfrwt>
<pdfrwt beam="1">  1        4 0.34929703E-02 0.12745759E+03</pdfrwt>
<totfact> 0.98463691E+04</totfact>
</mgrwt>
</event>
<event>
 6    3  0.7601760E-003  0.1308858E+03  0.7818608E-02  0.1226147E+00
         -4   -1    0    0    0  501 -0.00000000000E+00  0.00000000000E+00  0.47916565880E+03  0.47916734182E+03  0.12700000000E+01 0. -1.
         21   -1    0    0  501  502  0.00000000000E+00 -0.00000000000E+00 -0.19831042088E+02  0.19831042088E+02  0.00000000000E+00 0.  1.
         25    2    1    2    0    0  0.92927848535E+01 -0.37683068331E+02  0.43230610557E+03  0.45168535396E+03  0.12499888230E+03 0.  0.
    9000005    1    3    3    0    0  0.20958747108E+02 -0.46873342011E+02  0.59564772260E+02  0.78646941237E+02  0.10000000000E+01 0.  0.
    9000005    1    3    3    0    0 -0.11665962255E+02  0.91902736804E+01  0.37274133331E+03  0.37303841272E+03  0.10000000000E+01 0.  0.
         -4    1    1    2    0  502 -0.92927848535E+01  0.37683068331E+02  0.27028511137E+02  0.47313029954E+02  0.12700000000E+01 0.  1.
<mgrwt>
<rscale>  1 0.13088579E+03</rscale>
<asrwt>0</asrwt>
<pdfrwt beam="2">  1       21 0.30509299E-02 0.13088579E+03</pdfrwt>
<pdfrwt beam="1">  1       -4 0.73721042E-01 0.13088579E+03</pdfrwt>
<totfact> 0.42162131E+04</totfact>
</mgrwt>
</event>
<event>
 6    3  0.7601760E-003  0.1375508E+03  0.7818608E-02  0.1216663E+00
         21   -1    0    0  501  502  0.00000000000E+00  0.00000000000E+00  0.16537347358E+04  0.16537347358E+04  0.00000000000E+00 0.  1.
          4   -1    0    0  502    0 -0.00000000000E+00 -0.00000000000E+00 -0.59456442982E+01  0.60797685911E+01  0.12700000000E+01 0. -1.
         25    2    1    2    0    0 -0.49396112099E+02 -0.29245022871E+02  0.13074823864E+04  0.13146978376E+04  0.12499986486E+03 0.  0.
    9000005    1    3    3    0    0 -0.66780595651E+02  0.20736848789E+02  0.43262650078E+03  0.43824234623E+03  0.10000000000E+01 0.  0.
    9000005    1    3    3    0    0  0.17384483552E+02 -0.49981871660E+02  0.87485588566E+03  0.87645549142E+03  0.10000000000E+01 0.  0.
          4    1    1    2  501    0  0.49396112099E+02  0.29245022871E+02  0.34030670510E+03  0.34511666678E+03  0.12700000000E+01 0.  1.
<mgrwt>
<rscale>  1 0.13755077E+03</rscale>
<asrwt>0</asrwt>
<pdfrwt beam="1">  1       21 0.25442037E+00 0.13755077E+03</pdfrwt>
<pdfrwt beam="2">  1        4 0.92507059E-03 0.13755077E+03</pdfrwt>
<totfact> 0.87966667E+03</totfact>
</mgrwt>
</event>
<event>
 6    3  0.7601760E-003  0.1387591E+03  0.7818608E-02  0.1215008E+00
          4   -1    0    0  502    0 -0.00000000000E+00  0.00000000000E+00  0.81763699733E+02  0.81773562317E+02  0.12700000000E+01 0.  1.
         21   -1    0    0  501  502  0.00000000000E+00 -0.00000000000E+00 -0.12720338819E+03  0.12720338819E+03  0.00000000000E+00 0. -1.
         25    2    1    2    0    0  0.38667380233E+02 -0.46195190607E+02 -0.52393310048E+02  0.14832113724E+03  0.12499975554E+03 0.  0.
    9000005    1    3    3    0    0  0.79379388281E+02 -0.42579885427E+02 -0.12055666301E+02  0.90887144398E+02  0.10000000000E+01 0.  0.
    9000005    1    3    3    0    0 -0.40712008048E+02 -0.36153051795E+01 -0.40337643747E+02  0.57433992843E+02  0.10000000000E+01 0.  0.
          4    1    1    2  501    0 -0.38667380233E+02  0.46195190607E+02  0.69536215952E+01  0.60655813263E+02  0.12700000000E+01 0. -1.
<mgrwt>
<rscale>  1 0.13875915E+03</rscale>
<asrwt>0</asrwt>
<pdfrwt beam="2">  1       21 0.19569752E-01 0.13875915E+03</pdfrwt>
<pdfrwt beam="1">  1        4 0.12580277E-01 0.13875915E+03</pdfrwt>
<totfact> 0.50057062E+04</totfact>
</mgrwt>
</event>
<event>
 6    3  0.7601760E-003  0.1288349E+03  0.7818608E-02  0.1229195E+00
         -4   -1    0    0    0  501 -0.00000000000E+00  0.00000000000E+00  0.72949692534E+01  0.74046928639E+01  0.12700000000E+01 0. -1.
         21   -1    0    0  501  502  0.00000000000E+00 -0.00000000000E+00 -0.17775399467E+04  0.17775399467E+04  0.00000000000E+00 0.  1.
         25    2    1    2    0    0 -0.30431926574E+02 -0.75471206839E+01 -0.57369739894E+03  0.58798566712E+03  0.12496150608E+03 0.  0.
    9000005    1    3    3    0    0  0.55976543368E+01  0.32301681563E+02 -0.47046641183E+03  0.47160828770E+03  0.10000000000E+01 0.  0.
    9000005    1    3    3    0    0 -0.36029580911E+02 -0.39848802247E+02 -0.10323098711E+03  0.11637737942E+03  0.10000000000E+01 0.  0.
         -4    1    1    2    0  502  0.30431926574E+02  0.75471206839E+01 -0.11965475785E+04  0.11969589724E+04  0.12700000000E+01 0.  1.
<mgrwt>
<rscale>  1 0.12883493E+03</rscale>
<asrwt>0</asrwt>
<pdfrwt beam="2">  1       21 0.27346813E+00 0.12883493E+03</pdfrwt>
<pdfrwt beam="1">  1       -4 0.11307763E-02 0.12883493E+03</pdfrwt>
<totfact> 0.50726037E+03</totfact>
</mgrwt>
</event>
<event>
 6    3  0.7601760E-003  0.1282486E+03  0.7818608E-02  0.1230078E+00
         21   -1    0    0  501  502  0.00000000000E+00  0.00000000000E+00  0.51732280196E+02  0.51732280196E+02  0.00000000000E+00 0.  1.
         -4   -1    0    0    0  501 -0.00000000000E+00 -0.00000000000E+00 -0.40844574627E+03  0.40844772070E+03  0.12700000000E+01 0.  1.
         25    2    1    2    0    0  0.15188337407E+02 -0.24298558584E+02 -0.39330492055E+03  0.41368642088E+03  0.12500635483E+03 0.  0.
    9000005    1    3    3    0    0 -0.83109438376E+01  0.44792142991E+02 -0.80716395018E+02  0.92690583588E+02  0.10000000000E+01 0.  0.
    9000005    1    3    3    0    0  0.23499281244E+02 -0.69090701575E+02 -0.31258852553E+03  0.32099583729E+03  0.10000000000E+01 0.  0.
         -4    1    1    2    0  502 -0.15188337407E+02  0.24298558584E+02  0.36591454476E+02  0.46493580020E+02  0.12700000000E+01 0. -1.
<mgrwt>
<rscale>  1 0.12824856E+03</rscale>
<asrwt>0</asrwt>
<pdfrwt beam="1">  1       21 0.79588126E-02 0.12824856E+03</pdfrwt>
<pdfrwt beam="2">  1       -4 0.62839156E-01 0.12824856E+03</pdfrwt>
<totfact> 0.11834785E+04</totfact>
</mgrwt>
</event>
<event>
 6    3  0.7601760E-003  0.1436526E+03  0.7818608E-02  0.1208497E+00
         21   -1    0    0  501  502  0.00000000000E+00  0.00000000000E+00  0.25461434105E+02  0.25461434105E+02  0.00000000000E+00 0. -1.
          4   -1    0    0  502    0 -0.00000000000E+00 -0.00000000000E+00 -0.45420744944E+03  0.45420922495E+03  0.12700000000E+01 0.  1.
         25    2    1    2    0    0 -0.29748149061E+02  0.64236618391E+02 -0.30401247805E+03  0.33624345195E+03  0.12499910660E+03 0.  0.
    9000005    1    3    3    0    0 -0.17642043381E+02 -0.28151226792E+02 -0.16874003972E+03  0.17198236616E+03  0.10000000000E+01 0.  0.
    9000005    1    3    3    0    0 -0.12106105680E+02  0.92387845183E+02 -0.13527243833E+03  0.16426108579E+03  0.10000000000E+01 0.  0.
          4    1    1    2  501    0  0.29748149061E+02 -0.64236618391E+02 -0.12473353728E+03  0.14342720711E+03  0.12700000000E+01 0. -1.
<mgrwt>
<rscale>  1 0.14365261E+03</rscale>
<asrwt>0</asrwt>
<pdfrwt beam="1">  1       21 0.39171440E-02 0.14365261E+03</pdfrwt>
<pdfrwt beam="2">  1        4 0.69880637E-01 0.14365261E+03</pdfrwt>
<totfact> 0.31676061E+04</totfact>
</mgrwt>
</event>
<event>
 6    3  0.7601760E-003  0.1272584E+03  0.7818608E-02  0.1231581E+00
          4   -1    0    0  502    0 -0.00000000000E+00  0.00000000000E+00  0.10458819873E+03  0.10459590916E+03  0.12700000000E+01 0. -1.
         21   -1    0    0  501  502  0.00000000000E+00 -0.00000000000E+00 -0.73248861091E+02  0.73248861091E+02  0.00000000000E+00 0. -1.
         25    2    1    2    0    0 -0.23854106852E+02 -0.55902079584E+00  0.59863038696E+02  0.14063529108E+03  0.12500148310E+03 0.  0.
    9000005    1    3    3    0    0 -0.18498640227E+02 -0.35923248755E+02  0.86865400347E+02  0.95808544863E+02  0.10000000000E+01 0.  0.
    9000005    1    3    3    0    0 -0.53554666249E+01  0.35364227959E+02 -0.27002361651E+02  0.44826746220E+02  0.10000000000E+01 0.  0.
          4    1    1    2  501    0  0.23854106852E+02  0.55902079584E+00 -0.28523701059E+02  0.37209479169E+02  0.12700000000E+01 0.  1.
<mgrwt>
<rscale>  1 0.12725841E+03</rscale>
<asrwt>0</asrwt>
<pdfrwt beam="2">  1       21 0.11269056E-01 0.12725841E+03</pdfrwt>
<pdfrwt beam="1">  1        4 0.16091932E-01 0.12725841E+03</pdfrwt>
<totfact> 0.87365121E+04</totfact>
</mgrwt>
</event>
<event>
 6    3  0.7601760E-003  0.1313804E+03  0.7818608E-02  0.1225422E+00
         -4   -1    0    0    0  501 -0.00000000000E+00  0.00000000000E+00  0.30197692105E+03  0.30197959160E+03  0.12700000000E+01 0.  1.
         21   -1    0    0  501  502  0.00000000000E+00 -0.00000000000E+00 -0.27412840243E+02  0.27412840243E+02  0.00000000000E+00 0. -1.
         25    2    1    2    0    0 -0.13724937302E+02 -0.38055174908E+02  0.24895980405E+03  0.28149919506E+03  0.12499697016E+03 0.  0.
    9000005    1    3    3    0    0  0.45848037254E+02 -0.10105914616E+00  0.39764794741E+02  0.60698365990E+02  0.10000000000E+01 0.  0.
    9000005    1    3    3    0    0 -0.59572974556E+02 -0.37954115762E+02  0.20919500931E+03  0.22080082907E+03  0.10000000000E+01 0.  0.
         -4    1    1    2    0  502  0.13724937302E+02  0.38055174908E+02  0.25604276756E+02  0.47893236782E+02  0.12700000000E+01 0. -1.
<mgrwt>
<rscale>  1 0.13138041E+03</rscale>
<asrwt>0</asrwt>
<pdfrwt beam="2">  1       21 0.42173603E-02 0.13138041E+03</pdfrwt>
<pdfrwt beam="1">  1       -4 0.46460454E-01 0.13138041E+03</pdfrwt>
<totfact> 0.64845707E+04</totfact>
</mgrwt>
</event>
<event>
 6    3  0.7601760E-003  0.1323799E+03  0.7818608E-02  0.1223967E+00
          4   -1    0    0  502    0 -0.00000000000E+00  0.00000000000E+00  0.13030706906E+03  0.13031325775E+03  0.12700000000E+01 0.  1.
         21   -1    0    0  501  502  0.00000000000E+00 -0.00000000000E+00 -0.63776378573E+02  0.63776378573E+02  0.00000000000E+00 0.  1.
         25    2    1    2    0    0  0.20210308792E+02 -0.38616903942E+02  0.26728859104E+02  0.13505133916E+03  0.12499884178E+03 0.  0.
    9000005    1    3    3    0    0 -0.50746328854E+02  0.15565466544E+01  0.83868852916E+01  0.51467976205E+02  0.10000000000E+01 0.  0.
    9000005    1    3    3    0    0  0.70956637647E+02 -0.40173450596E+02  0.18341973812E+02  0.83583362951E+02  0.10000000000E+01 0.  0.
          4    1    1    2  501    0 -0.20210308792E+02  0.38616903942E+02  0.39801831382E+02  0.59038297172E+02  0.12700000000E+01 0. -1.
<mgrwt>
<rscale>  1 0.13237988E+03</rscale>
<asrwt>0</asrwt>
<pdfrwt beam="2">  1       21 0.98117506E-02 0.13237988E+03</pdfrwt>
<pdfrwt beam="1">  1        4 0.20048690E-01 0.13237988E+03</pdfrwt>
<totfact> 0.75800292E+04</totfact>
</mgrwt>
</event>
<event>
 6    3  0.7601760E-003  0.1458472E+03  0.7818608E-02  0.1205671E+00
         21   -1    0    0  501  502  0.00000000000E+00  0.00000000000E+00  0.13993334292E+03  0.13993334292E+03  0.00000000000E+00 0.  1.
         -4   -1    0    0    0  501 -0.00000000000E+00 -0.00000000000E+00 -0.11601358777E+03  0.11602053890E+03  0.12700000000E+01 0. -1.
         25    2    1    2    0    0 -0.20928647730E+02 -0.72175250972E+02 -0.46377347070E+02  0.15304338367E+03  0.12499657522E+03 0.  0.
    9000005    1    3    3    0    0 -0.53798200864E+02 -0.68560223767E+01  0.16396120099E+02  0.56666429332E+02  0.10000000000E+01 0.  0.
    9000005    1    3    3    0    0  0.32869553133E+02 -0.65319228595E+02 -0.62773467169E+02  0.96376954340E+02  0.10000000000E+01 0.  0.
         -4    1    1    2    0  502  0.20928647730E+02  0.72175250972E+02  0.70297102226E+02  0.10291049815E+03  0.12700000000E+01 0.  1.
<mgrwt>
<rscale>  1 0.14584725E+03</rscale>
<asrwt>0</asrwt>
<pdfrwt beam="1">  1       21 0.21528207E-01 0.14584725E+03</pdfrwt>
<pdfrwt beam="2">  1       -4 0.17849222E-01 0.14584725E+03</pdfrwt>
<totfact> 0.22865303E+04</totfact>
</mgrwt>
</event>
<event>
 6    3  0.7601760E-003  0.1367085E+03  0.7818608E-02  0.1217828E+00
         -4   -1    0    0    0  501 -0.00000000000E+00  0.00000000000E+00  0.10196785932E+03  0.10197576788E+03  0.12700000000E+01 0.  1.
         21   -1    0    0  501  502  0.00000000000E+00 -0.00000000000E+00 -0.13967228293E+03  0.13967228293E+03  0.00000000000E+00 0. -1.
         25    2    1    2    0    0  0.53815488929E+02  0.12979293889E+02  0.43410232855E+02  0.14343517328E+03  0.12499852679E+03 0.  0.
    9000005    1    3    3    0    0  0.87320264224E+02 -0.19202768608E+02  0.20998467521E+02  0.91845035275E+02  0.10000000000E+01 0.  0.
    9000005    1    3    3    0    0 -0.33504775295E+02  0.32182062498E+02  0.22411765334E+02  0.51590138006E+02  0.10000000000E+01 0.  0.
         -4    1    1    2    0  502 -0.53815488929E+02 -0.12979293889E+02 -0.81114656469E+02  0.98212877529E+02  0.12700000000E+01 0. -1.
<mgrwt>
<rscale>  1 0.13670845E+03</rscale>
<asrwt>0</asrwt>
<pdfrwt beam="2">  1       21 0.21488043E-01 0.13670845E+03</pdfrwt>
<pdfrwt beam="1">  1       -4 0.15688416E-01 0.13670845E+03</pdfrwt>
<totfact> 0.28636279E+04</totfact>
</mgrwt>
</event>
<event>
 6    3  0.7601760E-003  0.1316931E+03  0.7818608E-02  0.1224965E+00
         -4   -1    0    0    0  501 -0.00000000000E+00  0.00000000000E+00  0.56146997647E+03  0.56147141279E+03  0.12700000000E+01 0. -1.
         21   -1    0    0  501  502  0.00000000000E+00 -0.00000000000E+00 -0.13531501680E+02  0.13531501680E+02  0.00000000000E+00 0. -1.
         25    2    1    2    0    0  0.40542248710E+02  0.86307012856E+01  0.44324873904E+03  0.46239866674E+03  0.12499967762E+03 0.  0.
    9000005    1    3    3    0    0  0.28161871106E+02  0.41548513057E+02  0.41288186023E+03  0.41592282990E+03  0.10000000000E+01 0.  0.
    9000005    1    3    3    0    0  0.12380377604E+02 -0.32917811772E+02  0.30366878807E+02  0.46475836839E+02  0.10000000000E+01 0.  0.
         -4    1    1    2    0  502 -0.40542248710E+02 -0.86307012856E+01  0.10468973575E+03  0.11260424773E+03  0.12700000000E+01 0.  1.
<mgrwt>
<rscale>  1 0.13169314E+03</rscale>
<asrwt>0</asrwt>
<pdfrwt beam="2">  1       21 0.20817699E-02 0.13169314E+03</pdfrwt>
<pdfrwt beam="1">  1       -4 0.86384673E-01 0.13169314E+03</pdfrwt>
<totfact> 0.55420408E+04</totfact>
</mgrwt>
</event>
<event>
 6    3  0.7601760E-003  0.1281626E+03  0.7818608E-02  0.1230208E+00
          4   -1    0    0  502    0 -0.00000000000E+00  0.00000000000E+00  0.11607543698E+04  0.11607550646E+04  0.12700000000E+01 0. -1.
         21   -1    0    0  501  502  0.00000000000E+00 -0.00000000000E+00 -0.60198392655E+01  0.60198392655E+01  0.00000000000E+00 0. -1.
         25    2    1    2    0    0 -0.63056744147E+01 -0.27589973518E+02  0.10647635409E+04  0.10724490853E+04  0.12499869730E+03 0.  0.
    9000005    1    3    3    0    0  0.29093334432E+02  0.38851881552E+02  0.28996344453E+03  0.29399947274E+03  0.10000000000E+01 0.  0.
    9000005    1    3    3    0    0 -0.35399008847E+02 -0.66441855070E+02  0.77480009637E+03  0.77844961255E+03  0.10000000000E+01 0.  0.
          4    1    1    2  501    0  0.63056744147E+01  0.27589973518E+02  0.89970989645E+02  0.94325818556E+02  0.12700000000E+01 0.  1.
<mgrwt>
<rscale>  1 0.12816256E+03</rscale>
<asrwt>0</asrwt>
<pdfrwt beam="2">  1       21 0.92613004E-03 0.12816256E+03</pdfrwt>
<pdfrwt beam="1">  1        4 0.17858778E+00 0.12816256E+03</pdfrwt>
<totfact> 0.34195645E+04</totfact>
</mgrwt>
</event>
<event>
 6    3  0.7601760E-003  0.1299612E+03  0.7818608E-02  0.1227513E+00
         21   -1    0    0  501  502  0.00000000000E+00  0.00000000000E+00  0.23710580182E+04  0.23710580182E+04  0.00000000000E+00 0.  1.
          4   -1    0    0  502    0 -0.00000000000E+00 -0.00000000000E+00 -0.31771455412E+01  0.34215718303E+01  0.12700000000E+01 0.  1.
         25    2    1    2    0    0  0.16215965185E+02  0.31656053006E+02  0.14211473631E+04  0.14270773449E+04  0.12499942887E+03 0.  0.
    9000005    1    3    3    0    0 -0.15068060884E+02 -0.18897034689E+02  0.11120561856E+04  0.11123192457E+04  0.10000000000E+01 0.  0.
    9000005    1    3    3    0    0  0.31284026069E+02  0.50553087695E+02  0.30909117753E+03  0.31475809916E+03  0.10000000000E+01 0.  0.
          4    1    1    2  501    0 -0.16215965185E+02 -0.31656053006E+02  0.94673350953E+03  0.94740224518E+03  0.12700000000E+01 0. -1.
<mgrwt>
<rscale>  1 0.12996123E+03</rscale>
<asrwt>0</asrwt>
<pdfrwt beam="1">  1       21 0.36477680E+00 0.12996123E+03</pdfrwt>
<pdfrwt beam="2">  1        4 0.50762170E-03 0.12996123E+03</pdfrwt>
<totfact> 0.50754020E+03</totfact>
</mgrwt>
</event>
<event>
 6    3  0.7601760E-003  0.1290611E+03  0.7818608E-02  0.1228856E+00
         -4   -1    0    0    0  501 -0.00000000000E+00  0.00000000000E+00  0.15719277404E+03  0.15719790428E+03  0.12700000000E+01 0.  1.
         21   -1    0    0  501  502  0.00000000000E+00 -0.00000000000E+00 -0.63427793326E+02  0.63427793326E+02  0.00000000000E+00 0. -1.
         25    2    1    2    0    0 -0.93160266579E+01  0.30740021482E+02  0.12218049097E+03  0.17772125266E+03  0.12500013600E+03 0.  0.
    9000005    1    3    3    0    0 -0.18756668585E+02  0.72884220322E+02  0.40867965351E+02  0.85645272960E+02  0.10000000000E+01 0.  0.
    9000005    1    3    3    0    0  0.94406419273E+01 -0.42144198840E+02  0.81312525617E+02  0.92075979702E+02  0.10000000000E+01 0.  0.
         -4    1    1    2    0  502  0.93160266579E+01 -0.30740021482E+02 -0.28415510251E+02  0.42904444948E+02  0.12700000000E+01 0. -1.
<mgrwt>
<rscale>  1 0.12906111E+03</rscale>
<asrwt>0</asrwt>
<pdfrwt beam="2">  1       21 0.97581222E-02 0.12906111E+03</pdfrwt>
<pdfrwt beam="1">  1       -4 0.24184876E-01 0.12906111E+03</pdfrwt>
<totfact> 0.54239930E+04</totfact>
</mgrwt>
</event>
<event>
 6    3  0.7601760E-003  0.1291933E+03  0.7818608E-02  0.1228658E+00
         21   -1    0    0  501  502  0.00000000000E+00  0.00000000000E+00  0.91509643134E+01  0.91509643134E+01  0.00000000000E+00 0. -1.
         -4   -1    0    0    0  501 -0.00000000000E+00 -0.00000000000E+00 -0.84978459822E+03  0.84978554723E+03  0.12700000000E+01 0. -1.
         25    2    1    2    0    0 -0.28110386517E+02  0.16625631634E+02 -0.48869958090E+03  0.50548807680E+03  0.12499723978E+03 0.  0.
    9000005    1    3    3    0    0 -0.65621734062E+02  0.34275099867E+01 -0.14149331228E+03  0.15601063177E+03  0.10000000000E+01 0.  0.
    9000005    1    3    3    0    0  0.37511347546E+02  0.13198121647E+02 -0.34720626863E+03  0.34947744503E+03  0.10000000000E+01 0.  0.
         -4    1    1    2    0  502  0.28110386517E+02 -0.16625631634E+02 -0.35193405300E+03  0.35344843474E+03  0.12700000000E+01 0.  1.
<mgrwt>
<rscale>  1 0.12919333E+03</rscale>
<asrwt>0</asrwt>
<pdfrwt beam="1">  1       21 0.14078408E-02 0.12919333E+03</pdfrwt>
<pdfrwt beam="2">  1       -4 0.13074293E+00 0.12919333E+03</pdfrwt>
<totfact> 0.39265394E+04</totfact>
</mgrwt>
</event>
<event>
 6    3  0.7601760E-003  0.1315757E+03  0.7818608E-02  0.1225136E+00
          4   -1    0    0  502    0 -0.00000000000E+00  0.00000000000E+00  0.62320719500E+02  0.62333658476E+02  0.12700000000E+01 0. -1.
         21   -1    0    0  501  502  0.00000000000E+00 -0.00000000000E+00 -0.16345454034E+03  0.16345454034E+03  0.00000000000E+00 0. -1.
         25    2    1    2    0    0  0.37890285395E+02  0.15853435951E+02 -0.17669979912E+02  0.13275685570E+03  0.12500059755E+03 0.  0.
    9000005    1    3    3    0    0 -0.27271835879E+02 -0.13823093937E+02  0.33027597429E+02  0.45018364588E+02  0.10000000000E+01 0.  0.
    9000005    1    3    3    0    0  0.65162121274E+02  0.29676529889E+02 -0.50697577342E+02  0.87738491117E+02  0.10000000000E+01 0.  0.
          4    1    1    2  501    0 -0.37890285395E+02 -0.15853435951E+02 -0.83463840923E+02  0.93031343108E+02  0.12700000000E+01 0.  1.
<mgrwt>
<rscale>  1 0.13157566E+03</rscale>
<asrwt>0</asrwt>
<pdfrwt beam="2">  1       21 0.25146852E-01 0.13157566E+03</pdfrwt>
<pdfrwt beam="1">  1        4 0.95891778E-02 0.13157566E+03</pdfrwt>
<totfact> 0.49362923E+04</totfact>
</mgrwt>
</event>
<event>
 6    3  0.7601760E-003  0.1281299E+03  0.7818608E-02  0.1230257E+00
         21   -1    0    0  501  502  0.00000000000E+00  0.00000000000E+00  0.39151838803E+02  0.39151838803E+02  0.00000000000E+00 0. -1.
          4   -1    0    0  502    0 -0.00000000000E+00 -0.00000000000E+00 -0.17159629147E+03  0.17160099110E+03  0.12700000000E+01 0. -1.
         25    2    1    2    0    0 -0.20482502740E+02 -0.19341012025E+02 -0.79564572510E+02  0.15082368599E+03  0.12499462145E+03 0.  0.
    9000005    1    3    3    0    0  0.21757411612E+02 -0.57458951075E+02 -0.69958667394E+02  0.93113539092E+02  0.10000000000E+01 0.  0.
    9000005    1    3    3    0    0 -0.42239914351E+02  0.38117939050E+02 -0.96059051153E+01  0.57710146897E+02  0.10000000000E+01 0.  0.
          4    1    1    2  501    0  0.20482502740E+02  0.19341012025E+02 -0.52879880153E+02  0.59929143909E+02  0.12700000000E+01 0.  1.
<mgrwt>
<rscale>  1 0.12812987E+03</rscale>
<asrwt>0</asrwt>
<pdfrwt beam="1">  1       21 0.60233599E-02 0.12812987E+03</pdfrwt>
<pdfrwt beam="2">  1        4 0.26401375E-01 0.12812987E+03</pdfrwt>
<totfact> 0.10567752E+05</totfact>
</mgrwt>
</event>
<event>
 6    3  0.7601760E-003  0.1272903E+03  0.7818608E-02  0.1231533E+00
          4   -1    0    0  502    0 -0.00000000000E+00  0.00000000000E+00  0.22919937835E+03  0.22920289688E+03  0.12700000000E+01 0. -1.
         21   -1    0    0  501  502  0.00000000000E+00 -0.00000000000E+00 -0.27090737298E+02  0.27090737298E+02  0.00000000000E+00 0. -1.
         25    2    1    2    0    0  0.23105189745E+02  0.65740809777E+01  0.13760931228E+03  0.18745436743E+03  0.12500299480E+03 0.  0.
    9000005    1    3    3    0    0  0.51637003125E+02  0.41774541051E+02  0.12307751229E+03  0.13985909482E+03  0.10000000000E+01 0.  0.
    9000005    1    3    3    0    0 -0.28531813380E+02 -0.35200460073E+02  0.14531799993E+02  0.47595272614E+02  0.10000000000E+01 0.  0.
          4    1    1    2  501    0 -0.23105189745E+02 -0.65740809777E+01  0.64499328773E+02  0.68839266745E+02  0.12700000000E+01 0.  1.
<mgrwt>
<rscale>  1 0.12729029E+03</rscale>
<asrwt>0</asrwt>
<pdfrwt beam="2">  1       21 0.41678059E-02 0.12729029E+03</pdfrwt>
<pdfrwt beam="1">  1        4 0.35264002E-01 0.12729029E+03</pdfrwt>
<totfact> 0.11331944E+05</totfact>
</mgrwt>
</event>
<event>
 6    3  0.7601760E-003  0.1337331E+03  0.7818608E-02  0.1222019E+00
         -4   -1    0    0    0  501 -0.00000000000E+00  0.00000000000E+00  0.15090056389E+03  0.15090590805E+03  0.12700000000E+01 0.  1.
         21   -1    0    0  501  502  0.00000000000E+00 -0.00000000000E+00 -0.15847457763E+03  0.15847457763E+03  0.00000000000E+00 0. -1.
         25    2    1    2    0    0 -0.43671908157E+02  0.18773106553E+02  0.11596228479E+03  0.17700792415E+03  0.12499955450E+03 0.  0.
    9000005    1    3    3    0    0  0.31926443675E+02 -0.26919630289E+02  0.57512228988E+02  0.71081789396E+02  0.10000000000E+01 0.  0.
    9000005    1    3    3    0    0 -0.75598351832E+02  0.45692736842E+02  0.58450055806E+02  0.10592613475E+03  0.10000000000E+01 0.  0.
         -4    1    1    2    0  502  0.43671908157E+02 -0.18773106553E+02 -0.12353629853E+03  0.13237256153E+03  0.12700000000E+01 0. -1.
<mgrwt>
<rscale>  1 0.13373314E+03</rscale>
<asrwt>0</asrwt>
<pdfrwt beam="2">  1       21 0.24380704E-01 0.13373314E+03</pdfrwt>
<pdfrwt beam="1">  1       -4 0.23216274E-01 0.13373314E+03</pdfrwt>
<totfact> 0.11180652E+04</totfact>
</mgrwt>
</event>
<event>
 6    3  0.7601760E-003  0.1269575E+03  0.7818608E-02  0.1232041E+00
          4   -1    0    0  502    0 -0.00000000000E+00  0.00000000000E+00  0.39317012480E+02  0.39337518609E+02  0.12700000000E+01 0. -1.
         21   -1    0    0  501  502  0.00000000000E+00 -0.00000000000E+00 -0.14793316202E+03  0.14793316202E+03  0.00000000000E+00 0. -1.
         25    2    1    2    0    0  0.14690477605E+02 -0.16620910799E+02 -0.76521383771E+02  0.14823541839E+03  0.12500460905E+03 0.  0.
    9000005    1    3    3    0    0 -0.12313231749E+02  0.50445047005E+02 -0.47306380568E+02  0.70251064660E+02  0.10000000000E+01 0.  0.
    9000005    1    3    3    0    0  0.27003709354E+02 -0.67065957804E+02 -0.29215003203E+02  0.77984353733E+02  0.10000000000E+01 0.  0.
          4    1    1    2  501    0 -0.14690477605E+02  0.16620910799E+02 -0.32094765767E+02  0.39035262234E+02  0.12700000000E+01 0.  1.
<mgrwt>
<rscale>  1 0.12695754E+03</rscale>
<asrwt>0</asrwt>
<pdfrwt beam="2">  1       21 0.22758948E-01 0.12695754E+03</pdfrwt>
<pdfrwt beam="1">  1        4 0.60507679E-02 0.12695754E+03</pdfrwt>
<totfact> 0.12671694E+05</totfact>
</mgrwt>
</event>
<event>
 6    3  0.7601760E-003  0.1517576E+03  0.7818608E-02  0.1198330E+00
          4   -1    0    0  502    0 -0.00000000000E+00  0.00000000000E+00  0.19989420270E+03  0.19989823705E+03  0.12700000000E+01 0.  1.
         21   -1    0    0  501  502  0.00000000000E+00 -0.00000000000E+00 -0.83732537635E+02  0.83732537635E+02  0.00000000000E+00 0. -1.
         25    2    1    2    0    0 -0.85832025570E+02 -0.61769653999E+01  0.12567995006E+03  0.19704265677E+03  0.12500026890E+03 0.  0.
    9000005    1    3    3    0    0  0.26733859143E+02 -0.18870385046E+01  0.62201363539E+02  0.67736768192E+02  0.10000000000E+01 0.  0.
    9000005    1    3    3    0    0 -0.11256588471E+03 -0.42899268952E+01  0.63478586519E+02  0.12930588858E+03  0.10000000000E+01 0.  0.
          4    1    1    2  501    0  0.85832025570E+02  0.61769653999E+01 -0.95182849872E+01  0.86588117915E+02  0.12700000000E+01 0. -1.
<mgrwt>
<rscale>  1 0.15175757E+03</rscale>
<asrwt>0</asrwt>
<pdfrwt beam="2">  1       21 0.12881929E-01 0.15175757E+03</pdfrwt>
<pdfrwt beam="1">  1        4 0.30754005E-01 0.15175757E+03</pdfrwt>
<totfact> 0.21582865E+04</totfact>
</mgrwt>
</event>
<event>
 6    3  0.7601760E-003  0.1334098E+03  0.7818608E-02  0.1222482E+00
         21   -1    0    0  501  502  0.00000000000E+00  0.00000000000E+00  0.12636530230E+04  0.12636530230E+04  0.00000000000E+00 0. -1.
         -4   -1    0    0    0  501 -0.00000000000E+00 -0.00000000000E+00 -0.19153759919E+02  0.19195817749E+02  0.12700000000E+01 0.  1.
         25    2    1    2    0    0  0.25853276457E+01 -0.46533387788E+02  0.22000522365E+03  0.25729450780E+03  0.12500450077E+03 0.  0.
    9000005    1    3    3    0    0  0.16626500875E+02  0.21163776658E+02  0.26650906333E+00  0.26933566433E+02  0.10000000000E+01 0.  0.
    9000005    1    3    3    0    0 -0.14041173229E+02 -0.67697164446E+02  0.21973871459E+03  0.23036094137E+03  0.10000000000E+01 0.  0.
         -4    1    1    2    0  502 -0.25853276457E+01  0.46533387788E+02  0.10244940394E+04  0.10255543329E+04  0.12700000000E+01 0. -1.
<mgrwt>
<rscale>  1 0.13340976E+03</rscale>
<asrwt>0</asrwt>
<pdfrwt beam="1">  1       21 0.19440809E+00 0.13340976E+03</pdfrwt>
<pdfrwt beam="2">  1       -4 0.29500176E-02 0.13340976E+03</pdfrwt>
<totfact> 0.34147090E+03</totfact>
</mgrwt>
</event>
<event>
 6    3  0.7601760E-003  0.1321245E+03  0.7818608E-02  0.1224337E+00
          4   -1    0    0  502    0 -0.00000000000E+00  0.00000000000E+00  0.30389797469E+02  0.30416322760E+02  0.12700000000E+01 0.  1.
         21   -1    0    0  501  502  0.00000000000E+00 -0.00000000000E+00 -0.25195948924E+03  0.25195948924E+03  0.00000000000E+00 0. -1.
         25    2    1    2    0    0  0.31640550014E+02  0.28833682658E+02 -0.16315723426E+03  0.20994561282E+03  0.12499748633E+03 0.  0.
    9000005    1    3    3    0    0 -0.40472938415E+01  0.79890967913E+01  0.20129368727E+02  0.22054426774E+02  0.10000000000E+01 0.  0.
    9000005    1    3    3    0    0  0.35687843856E+02  0.20844585867E+02 -0.18328660299E+03  0.18789118605E+03  0.10000000000E+01 0.  0.
          4    1    1    2  501    0 -0.31640550014E+02 -0.28833682658E+02 -0.58412457508E+02  0.72430199178E+02  0.12700000000E+01 0. -1.
<mgrwt>
<rscale>  1 0.13212448E+03</rscale>
<asrwt>0</asrwt>
<pdfrwt beam="2">  1       21 0.38762998E-01 0.13212448E+03</pdfrwt>
<pdfrwt beam="1">  1        4 0.46776402E-02 0.13212448E+03</pdfrwt>
<totfact> 0.69087287E+04</totfact>
</mgrwt>
</event>
<event>
 6    3  0.7601760E-003  0.1399520E+03  0.7818608E-02  0.1213394E+00
          4   -1    0    0  502    0 -0.00000000000E+00  0.00000000000E+00  0.11317566659E+03  0.11318279202E+03  0.12700000000E+01 0.  1.
         21   -1    0    0  501  502  0.00000000000E+00 -0.00000000000E+00 -0.10127392990E+03  0.10127392990E+03  0.00000000000E+00 0. -1.
         25    2    1    2    0    0  0.17138306424E+02  0.60570621389E+02  0.39932464050E+02  0.14553752068E+03  0.12499618602E+03 0.  0.
    9000005    1    3    3    0    0 -0.40753206522E+02 -0.15000817462E+02  0.21885871842E+02  0.48639898773E+02  0.10000000000E+01 0.  0.
    9000005    1    3    3    0    0  0.57891512947E+02  0.75571438851E+02  0.18046592208E+02  0.96897621909E+02  0.10000000000E+01 0.  0.
          4    1    1    2  501    0 -0.17138306424E+02 -0.60570621389E+02 -0.28030727352E+02  0.68919201232E+02  0.12700000000E+01 0. -1.
<mgrwt>
<rscale>  1 0.13995202E+03</rscale>
<asrwt>0</asrwt>
<pdfrwt beam="2">  1       21 0.15580605E-01 0.13995202E+03</pdfrwt>
<pdfrwt beam="1">  1        4 0.17412802E-01 0.13995202E+03</pdfrwt>
<totfact> 0.43116658E+04</totfact>
</mgrwt>
</event>
<event>
 6    3  0.7601760E-003  0.1427258E+03  0.7818608E-02  0.1209708E+00
         21   -1    0    0  501  502  0.00000000000E+00  0.00000000000E+00  0.33046860416E+03  0.33046860416E+03  0.00000000000E+00 0.  1.
          4   -1    0    0  502    0 -0.00000000000E+00 -0.00000000000E+00 -0.37385965384E+02  0.37407530094E+02  0.12700000000E+01 0.  1.
         25    2    1    2    0    0  0.50511491536E+02 -0.46837802098E+02  0.13963620623E+03  0.19967205867E+03  0.12500188175E+03 0.  0.
    9000005    1    3    3    0    0  0.36754215825E+02 -0.54525731980E+02  0.70412230858E+01  0.66140053306E+02  0.10000000000E+01 0.  0.
    9000005    1    3    3    0    0  0.13757275711E+02  0.76879298815E+01  0.13259498315E+03  0.13353200536E+03  0.10000000000E+01 0.  0.
          4    1    1    2  501    0 -0.50511491536E+02  0.46837802098E+02  0.15344643255E+03  0.16820407559E+03  0.12700000000E+01 0. -1.
<mgrwt>
<rscale>  1 0.14272582E+03</rscale>
<asrwt>0</asrwt>
<pdfrwt beam="1">  1       21 0.50841322E-01 0.14272582E+03</pdfrwt>
<pdfrwt beam="2">  1        4 0.57535337E-02 0.14272582E+03</pdfrwt>
<totfact> 0.28748361E+04</totfact>
</mgrwt>
</event>
<event>
 6    3  0.7601760E-003  0.1312336E+03  0.7818608E-02  0.1225637E+00
         21   -1    0    0  501  502  0.00000000000E+00  0.00000000000E+00  0.44832565959E+03  0.44832565959E+03  0.00000000000E+00 0.  1.
         -4   -1    0    0    0  501 -0.00000000000E+00 -0.00000000000E+00 -0.20188567751E+02  0.20228474185E+02  0.12700000000E+01 0.  1.
         25    2    1    2    0    0  0.39899000850E+02 -0.20532543984E+01  0.21644968395E+03  0.25312591445E+03  0.12500446697E+03 0.  0.
    9000005    1    3    3    0    0  0.79331623118E+02  0.23591409212E+02  0.15519470997E+03  0.17588763180E+03  0.10000000000E+01 0.  0.
    9000005    1    3    3    0    0 -0.39432622268E+02 -0.25644663610E+02  0.61254973978E+02  0.77238282656E+02  0.10000000000E+01 0.  0.
         -4    1    1    2    0  502 -0.39899000850E+02  0.20532543984E+01  0.21168740789E+03  0.21542821932E+03  0.12700000000E+01 0. -1.
<mgrwt>
<rscale>  1 0.13123362E+03</rscale>
<asrwt>0</asrwt>
<pdfrwt beam="1">  1       21 0.68973171E-01 0.13123362E+03</pdfrwt>
<pdfrwt beam="2">  1       -4 0.31091419E-02 0.13123362E+03</pdfrwt>
<totfact> 0.39807441E+04</totfact>
</mgrwt>
</event>
<event>
 6    3  0.7601760E-003  0.1397571E+03  0.7818608E-02  0.1213656E+00
         21   -1    0    0  501  502  0.00000000000E+00  0.00000000000E+00  0.26835312083E+04  0.26835312083E+04  0.00000000000E+00 0. -1.
          4   -1    0    0  502    0 -0.00000000000E+00 -0.00000000000E+00 -0.37295515748E+01  0.39398546863E+01  0.12700000000E+01 0. -1.
         25    2    1    2    0    0 -0.58616888384E+02  0.21694742979E+02  0.19452023038E+04  0.19502164097E+04  0.12500176293E+03 0.  0.
    9000005    1    3    3    0    0  0.20247529673E+01  0.49945571475E+02  0.14046005795E+04  0.14054901094E+04  0.10000000000E+01 0.  0.
    9000005    1    3    3    0    0 -0.60641641352E+02 -0.28250828497E+02  0.54060172423E+03  0.54472630028E+03  0.10000000000E+01 0.  0.
          4    1    1    2  501    0  0.58616888384E+02 -0.21694742979E+02  0.73459935298E+03  0.73725465327E+03  0.12700000000E+01 0.  1.
<mgrwt>
<rscale>  1 0.13975708E+03</rscale>
<asrwt>0</asrwt>
<pdfrwt beam="1">  1       21 0.41284945E+00 0.13975708E+03</pdfrwt>
<pdfrwt beam="2">  1        4 0.58997959E-03 0.13975708E+03</pdfrwt>
<totfact> 0.20667229E+03</totfact>
</mgrwt>
</event>
<event>
 6    3  0.7601760E-003  0.1300831E+03  0.7818608E-02  0.1227332E+00
          4   -1    0    0  502    0 -0.00000000000E+00  0.00000000000E+00  0.13209419176E+03  0.13210029674E+03  0.12700000000E+01 0.  1.
         21   -1    0    0  501  502  0.00000000000E+00 -0.00000000000E+00 -0.95536247128E+02  0.95536247128E+02  0.00000000000E+00 0.  1.
         25    2    1    2    0    0  0.31695514866E+02  0.17068057418E+02  0.93540630971E+02  0.16022316471E+03  0.12500275446E+03 0.  0.
    9000005    1    3    3    0    0 -0.19197182174E+01 -0.42745753850E+02 -0.17034963659E+01  0.42834410118E+02  0.10000000000E+01 0.  0.
    9000005    1    3    3    0    0  0.33615233084E+02  0.59813811268E+02  0.95244127337E+02  0.11738875460E+03  0.10000000000E+01 0.  0.
          4    1    1    2  501    0 -0.31695514866E+02 -0.17068057418E+02 -0.56982686334E+02  0.67413379150E+02  0.12700000000E+01 0. -1.
<mgrwt>
<rscale>  1 0.13008310E+03</rscale>
<asrwt>0</asrwt>
<pdfrwt beam="2">  1       21 0.14697884E-01 0.13008310E+03</pdfrwt>
<pdfrwt beam="1">  1        4 0.20323302E-01 0.13008310E+03</pdfrwt>
<totfact> 0.36046617E+04</totfact>
</mgrwt>
</event>
<event>
 6    3  0.7601760E-003  0.1339445E+03  0.7818608E-02  0.1221717E+00
         21   -1    0    0  501  502  0.00000000000E+00  0.00000000000E+00  0.37711199284E+03  0.37711199284E+03  0.00000000000E+00 0.  1.
         -4   -1    0    0    0  501 -0.00000000000E+00 -0.00000000000E+00 -0.45057460121E+02  0.45075354825E+02  0.12700000000E+01 0. -1.
         25    2    1    2    0    0  0.44687349726E+02 -0.17866568216E+02  0.61510142414E+02  0.14739278165E+03  0.12499984391E+03 0.  0.
    9000005    1    3    3    0    0  0.63081039446E+02 -0.45884690894E+02  0.77746935694E+02  0.11013722534E+03  0.10000000000E+01 0.  0.
    9000005    1    3    3    0    0 -0.18393689720E+02  0.28018122678E+02 -0.16236793280E+02  0.37255556310E+02  0.10000000000E+01 0.  0.
         -4    1    1    2    0  502 -0.44687349726E+02  0.17866568216E+02  0.27054439030E+03  0.27479456601E+03  0.12700000000E+01 0.  1.
<mgrwt>
<rscale>  1 0.13394452E+03</rscale>
<asrwt>0</asrwt>
<pdfrwt beam="1">  1       21 0.58017228E-01 0.13394452E+03</pdfrwt>
<pdfrwt beam="2">  1       -4 0.69334582E-02 0.13394452E+03</pdfrwt>
<totfact> 0.15998185E+04</totfact>
</mgrwt>
</event>
<event>
 6    3  0.7601760E-003  0.1285510E+03  0.7818608E-02  0.1229622E+00
         -4   -1    0    0    0  501 -0.00000000000E+00  0.00000000000E+00  0.79582041901E+02  0.79592174824E+02  0.12700000000E+01 0. -1.
         21   -1    0    0  501  502  0.00000000000E+00 -0.00000000000E+00 -0.18442386291E+03  0.18442386291E+03  0.00000000000E+00 0.  1.
         25    2    1    2    0    0  0.28097428959E+02  0.10568879492E+02  0.24814249956E+02  0.13092405313E+03  0.12499677579E+03 0.  0.
    9000005    1    3    3    0    0  0.71628830469E+02 -0.13702734265E+02 -0.45348324393E+01  0.73075433532E+02  0.10000000000E+01 0.  0.
    9000005    1    3    3    0    0 -0.43531401510E+02  0.24271613757E+02  0.29349082396E+02  0.57848619597E+02  0.10000000000E+01 0.  0.
         -4    1    1    2    0  502 -0.28097428959E+02 -0.10568879492E+02 -0.12965607096E+03  0.13309198460E+03  0.12700000000E+01 0.  1.
<mgrwt>
<rscale>  1 0.12855100E+03</rscale>
<asrwt>0</asrwt>
<pdfrwt beam="2">  1       21 0.28372902E-01 0.12855100E+03</pdfrwt>
<pdfrwt beam="1">  1       -4 0.12244507E-01 0.12855100E+03</pdfrwt>
<totfact> 0.25857271E+04</totfact>
</mgrwt>
</event>
<event>
 6    3  0.7601760E-003  0.1527379E+03  0.7818608E-02  0.1197148E+00
         21   -1    0    0  501  502  0.00000000000E+00  0.00000000000E+00  0.27796849392E+02  0.27796849392E+02  0.00000000000E+00 0. -1.
          4   -1    0    0  502    0 -0.00000000000E+00 -0.00000000000E+00 -0.16985072638E+04  0.16985077386E+04  0.12700000000E+01 0.  1.
         25    2    1    2    0    0 -0.21318867643E+02 -0.85141609098E+02 -0.16152875755E+04  0.16224927790E+04  0.12500111406E+03 0.  0.
    9000005    1    3    3    0    0 -0.41440026408E+02 -0.11178705215E+03 -0.12358192076E+04  0.12415569800E+04  0.10000000000E+01 0.  0.
    9000005    1    3    3    0    0  0.20121158765E+02  0.26645443055E+02 -0.37946836790E+03  0.38093579893E+03  0.10000000000E+01 0.  0.
          4    1    1    2  501    0  0.21318867643E+02  0.85141609098E+02 -0.55422838877E+02  0.10381180899E+03  0.12700000000E+01 0. -1.
<mgrwt>
<rscale>  1 0.15273790E+03</rscale>
<asrwt>0</asrwt>
<pdfrwt beam="1">  1       21 0.42764363E-02 0.15273790E+03</pdfrwt>
<pdfrwt beam="2">  1        4 0.26131121E+00 0.15273790E+03</pdfrwt>
<totfact> 0.91932627E+02</totfact>
</mgrwt>
</event>
<event>
 6    3  0.7601760E-003  0.1847794E+03  0.7818608E-02  0.1163256E+00
         21   -1    0    0  501  502  0.00000000000E+00  0.00000000000E+00  0.33570353898E+03  0.33570353898E+03  0.00000000000E+00 0. -1.
         -4   -1    0    0    0  501 -0.00000000000E+00 -0.00000000000E+00 -0.76722279241E+02  0.76732789809E+02  0.12700000000E+01 0.  1.
         25    2    1    2    0    0  0.11080884836E+03 -0.78991546722E+02  0.14356575605E+03  0.23399693650E+03  0.12500069861E+03 0.  0.
    9000005    1    3    3    0    0  0.83330503902E+02 -0.10972535591E+03  0.83415317696E+02  0.16106750708E+03  0.10000000000E+01 0.  0.
    9000005    1    3    3    0    0  0.27478344455E+02  0.30733809192E+02  0.60150438350E+02  0.72929429417E+02  0.10000000000E+01 0.  0.
         -4    1    1    2    0  502 -0.11080884836E+03  0.78991546722E+02  0.11541550369E+03  0.17843939229E+03  0.12700000000E+01 0. -1.
<mgrwt>
<rscale>  1 0.18477944E+03</rscale>
<asrwt>0</asrwt>
<pdfrwt beam="1">  1       21 0.51646698E-01 0.18477944E+03</pdfrwt>
<pdfrwt beam="2">  1       -4 0.11804421E-01 0.18477944E+03</pdfrwt>
<totfact> 0.85447769E+03</totfact>
</mgrwt>
</event>
<event>
 6    3  0.7601760E-003  0.1278157E+03  0.7818608E-02  0.1230733E+00
         21   -1    0    0  501  502  0.00000000000E+00  0.00000000000E+00  0.11496490542E+03  0.11496490542E+03  0.00000000000E+00 0. -1.
         -4   -1    0    0    0  501 -0.00000000000E+00 -0.00000000000E+00 -0.16583598172E+03  0.16584084459E+03  0.12700000000E+01 0. -1.
         25    2    1    2    0    0  0.17220110714E+02  0.20379810864E+02 -0.13893204923E+03  0.18878283571E+03  0.12499990340E+03 0.  0.
    9000005    1    3    3    0    0  0.75118569450E+01 -0.39920213643E+02 -0.41992968754E+01  0.40849547688E+02  0.10000000000E+01 0.  0.
    9000005    1    3    3    0    0  0.97082537689E+01  0.60300024507E+02 -0.13473275236E+03  0.14793328802E+03  0.10000000000E+01 0.  0.
         -4    1    1    2    0  502 -0.17220110714E+02 -0.20379810864E+02  0.88060972927E+02  0.92022914302E+02  0.12700000000E+01 0.  1.
<mgrwt>
<rscale>  1 0.12781567E+03</rscale>
<asrwt>0</asrwt>
<pdfrwt beam="1">  1       21 0.17686909E-01 0.12781567E+03</pdfrwt>
<pdfrwt beam="2">  1       -4 0.25514141E-01 0.12781567E+03</pdfrwt>
<totfact> 0.16984354E+04</totfact>
</mgrwt>
</event>
<event>
 6    3  0.7601760E-003  0.1796853E+03  0.7818608E-02  0.1168108E+00
         -4   -1    0    0    0  501 -0.00000000000E+00  0.00000000000E+00  0.92686054707E+02  0.92694755176E+02  0.12700000000E+01 0. -1.
         21   -1    0    0  501  502  0.00000000000E+00 -0.00000000000E+00 -0.30463894176E+03  0.30463894176E+03  0.00000000000E+00 0.  1.
         25    2    1    2    0    0  0.20056428360E+02  0.12751054785E+03 -0.43082852522E+02  0.18477805341E+03  0.12500238682E+03 0.  0.
    9000005    1    3    3    0    0 -0.44210654464E+02  0.96634845035E+02 -0.11848612172E+02  0.10693112201E+03  0.10000000000E+01 0.  0.
    9000005    1    3    3    0    0  0.64267082824E+02  0.30875702814E+02 -0.31234240350E+02  0.77846931406E+02  0.10000000000E+01 0.  0.
         -4    1    1    2    0  502 -0.20056428360E+02 -0.12751054785E+03 -0.16887003453E+03  0.21255564352E+03  0.12700000000E+01 0.  1.
<mgrwt>
<rscale>  1 0.17968527E+03</rscale>
<asrwt>0</asrwt>
<pdfrwt beam="2">  1       21 0.46867530E-01 0.17968527E+03</pdfrwt>
<pdfrwt beam="1">  1       -4 0.14260266E-01 0.17968527E+03</pdfrwt>
<totfact> 0.75237964E+03</totfact>
</mgrwt>
</event>
<event>
 6    3  0.7601760E-003  0.1296236E+03  0.7818608E-02  0.1228015E+00
          4   -1    0    0  502    0 -0.00000000000E+00  0.00000000000E+00  0.57830137001E+03  0.57830276453E+03  0.12700000000E+01 0. -1.
         21   -1    0    0  501  502  0.00000000000E+00 -0.00000000000E+00 -0.13969581275E+02  0.13969581275E+02  0.00000000000E+00 0. -1.
         25    2    1    2    0    0  0.16795170932E+02 -0.29929173656E+02  0.52152212805E+03  0.53738962401E+03  0.12499777899E+03 0.  0.
    9000005    1    3    3    0    0  0.30047992370E+01  0.19845520420E+02  0.85780799508E+01  0.21850788426E+02  0.10000000000E+01 0.  0.
    9000005    1    3    3    0    0  0.13790371695E+02 -0.49774694076E+02  0.51294404810E+03  0.51553883559E+03  0.10000000000E+01 0.  0.
          4    1    1    2  501    0 -0.16795170932E+02  0.29929173656E+02  0.42809660690E+02  0.54882721787E+02  0.12700000000E+01 0.  1.
<mgrwt>
<rscale>  1 0.12962360E+03</rscale>
<asrwt>0</asrwt>
<pdfrwt beam="2">  1       21 0.21491668E-02 0.12962360E+03</pdfrwt>
<pdfrwt beam="1">  1        4 0.88973971E-01 0.12962360E+03</pdfrwt>
<totfact> 0.49151569E+04</totfact>
</mgrwt>
</event>
<event>
 6    3  0.7601760E-003  0.1271191E+03  0.7818608E-02  0.1231794E+00
         21   -1    0    0  501  502  0.00000000000E+00  0.00000000000E+00  0.47213674163E+03  0.47213674163E+03  0.00000000000E+00 0.  1.
         -4   -1    0    0    0  501 -0.00000000000E+00 -0.00000000000E+00 -0.23824922541E+02  0.23858747538E+02  0.12700000000E+01 0. -1.
         25    2    1    2    0    0 -0.12782303273E+02 -0.19257361445E+02  0.14928763953E+03  0.19607665663E+03  0.12500009086E+03 0.  0.
    9000005    1    3    3    0    0  0.15724971790E+02  0.13344540074E+02  0.15130803063E+03  0.15271041753E+03  0.10000000000E+01 0.  0.
    9000005    1    3    3    0    0 -0.28507275063E+02 -0.32601901519E+02 -0.20203911012E+01  0.43366239108E+02  0.10000000000E+01 0.  0.
         -4    1    1    2    0  502  0.12782303273E+02  0.19257361445E+02  0.29902417956E+03  0.29991883254E+03  0.12700000000E+01 0.  1.
<mgrwt>
<rscale>  1 0.12711906E+03</rscale>
<asrwt>0</asrwt>
<pdfrwt beam="1">  1       21 0.72636415E-01 0.12711906E+03</pdfrwt>
<pdfrwt beam="2">  1       -4 0.36681064E-02 0.12711906E+03</pdfrwt>
<totfact> 0.27324357E+04</totfact>
</mgrwt>
</event>
<event>
 6    3  0.7601760E-003  0.1288915E+03  0.7818608E-02  0.1229110E+00
         21   -1    0    0  501  502  0.00000000000E+00  0.00000000000E+00  0.38500956977E+02  0.38500956977E+02  0.00000000000E+00 0. -1.
         -4   -1    0    0    0  501 -0.00000000000E+00 -0.00000000000E+00 -0.24064894020E+03  0.24065229132E+03  0.12700000000E+01 0.  1.
         25    2    1    2    0    0 -0.30839608003E+02  0.58216593997E+01 -0.21034237096E+03  0.24669197860E+03  0.12501218397E+03 0.  0.
    9000005    1    3    3    0    0  0.27265212574E+02  0.33258538132E+02 -0.23310982832E+02  0.48927743623E+02  0.10000000000E+01 0.  0.
    9000005    1    3    3    0    0 -0.58104820578E+02 -0.27436878732E+02 -0.18703138813E+03  0.19776423497E+03  0.10000000000E+01 0.  0.
         -4    1    1    2    0  502  0.30839608003E+02 -0.58216593997E+01  0.81943877444E+01  0.32461269699E+02  0.12700000000E+01 0. -1.
<mgrwt>
<rscale>  1 0.12889150E+03</rscale>
<asrwt>0</asrwt>
<pdfrwt beam="1">  1       21 0.59232242E-02 0.12889150E+03</pdfrwt>
<pdfrwt beam="2">  1       -4 0.37024783E-01 0.12889150E+03</pdfrwt>
<totfact> 0.57256683E+04</totfact>
</mgrwt>
</event>
<event>
 6    3  0.7601760E-003  0.1272935E+03  0.7818608E-02  0.1231528E+00
          4   -1    0    0  502    0 -0.00000000000E+00  0.00000000000E+00  0.18277707948E+03  0.18278149163E+03  0.12700000000E+01 0.  1.
         21   -1    0    0  501  502  0.00000000000E+00 -0.00000000000E+00 -0.31952863002E+02  0.31952863002E+02  0.00000000000E+00 0.  1.
         25    2    1    2    0    0  0.20280335555E+02  0.12931970383E+02  0.13679820323E+03  0.18686197017E+03  0.12500047847E+03 0.  0.
    9000005    1    3    3    0    0 -0.38470194626E+02 -0.74229709460E+01  0.11413408581E+03  0.12067578844E+03  0.10000000000E+01 0.  0.
    9000005    1    3    3    0    0  0.58750530181E+02  0.20354941329E+02  0.22664117425E+02  0.66186181728E+02  0.10000000000E+01 0.  0.
          4    1    1    2  501    0 -0.20280335555E+02 -0.12931970383E+02  0.14026013243E+02  0.27872384464E+02  0.12700000000E+01 0. -1.
<mgrwt>
<rscale>  1 0.12729355E+03</rscale>
<asrwt>0</asrwt>
<pdfrwt beam="2">  1       21 0.49158252E-02 0.12729355E+03</pdfrwt>
<pdfrwt beam="1">  1        4 0.28121831E-01 0.12729355E+03</pdfrwt>
<totfact> 0.13220985E+05</totfact>
</mgrwt>
</event>
<event>
 6    3  0.7601760E-003  0.1311975E+03  0.7818608E-02  0.1225690E+00
         -4   -1    0    0    0  501 -0.00000000000E+00  0.00000000000E+00  0.10111257792E+03  0.10112055337E+03  0.12700000000E+01 0. -1.
         21   -1    0    0  501  502  0.00000000000E+00 -0.00000000000E+00 -0.10649089005E+03  0.10649089005E+03  0.00000000000E+00 0. -1.
         25    2    1    2    0    0 -0.19145448666E+02  0.34968606013E+02  0.49106900527E+02  0.14008661162E+03  0.12499367770E+03 0.  0.
    9000005    1    3    3    0    0 -0.45931051366E+02  0.71860263847E+02  0.27412261184E+02  0.89587895739E+02  0.10000000000E+01 0.  0.
    9000005    1    3    3    0    0  0.26785602701E+02 -0.36891657834E+02  0.21694639343E+02  0.50498715885E+02  0.10000000000E+01 0.  0.
         -4    1    1    2    0  502  0.19145448666E+02 -0.34968606013E+02 -0.54485212659E+02  0.67524831799E+02  0.12700000000E+01 0.  1.
<mgrwt>
<rscale>  1 0.13119745E+03</rscale>
<asrwt>0</asrwt>
<pdfrwt beam="2">  1       21 0.16383214E-01 0.13119745E+03</pdfrwt>
<pdfrwt beam="1">  1       -4 0.15556977E-01 0.13119745E+03</pdfrwt>
<totfact> 0.47652084E+04</totfact>
</mgrwt>
</event>
<event>
 6    3  0.7601760E-003  0.1334898E+03  0.7818608E-02  0.1222367E+00
         21   -1    0    0  501  502  0.00000000000E+00  0.00000000000E+00  0.11051743558E+03  0.11051743558E+03  0.00000000000E+00 0. -1.
         -4   -1    0    0    0  501 -0.00000000000E+00 -0.00000000000E+00 -0.78355723051E+02  0.78366014540E+02  0.12700000000E+01 0. -1.
         25    2    1    2    0    0 -0.46214275932E+02  0.76183648659E+01  0.26643437020E+01  0.13351643421E+03  0.12500296274E+03 0.  0.
    9000005    1    3    3    0    0 -0.10074764976E+02  0.58207292644E+02  0.29209792111E+02  0.65907524316E+02  0.10000000000E+01 0.  0.
    9000005    1    3    3    0    0 -0.36139510956E+02 -0.50588927778E+02 -0.26545448409E+02  0.67608909895E+02  0.10000000000E+01 0.  0.
         -4    1    1    2    0  502  0.46214275932E+02 -0.76183648659E+01  0.29497368832E+02  0.55367015914E+02  0.12700000000E+01 0.  1.
<mgrwt>
<rscale>  1 0.13348985E+03</rscale>
<asrwt>0</asrwt>
<pdfrwt beam="1">  1       21 0.17002683E-01 0.13348985E+03</pdfrwt>
<pdfrwt beam="2">  1       -4 0.12056080E-01 0.13348985E+03</pdfrwt>
<totfact> 0.69384263E+04</totfact>
</mgrwt>
</event>
<event>
 6    3  0.7601760E-003  0.1302308E+03  0.7818608E-02  0.1227114E+00
         21   -1    0    0  501  502  0.00000000000E+00  0.00000000000E+00  0.44991894719E+02  0.44991894719E+02  0.00000000000E+00 0.  1.
          4   -1    0    0  502    0 -0.00000000000E+00 -0.00000000000E+00 -0.18326459894E+03  0.18326899936E+03  0.12700000000E+01 0.  1.
         25    2    1    2    0    0 -0.24138871112E+02 -0.27428095360E+02 -0.14057582881E+03  0.19162890264E+03  0.12500034868E+03 0.  0.
    9000005    1    3    3    0    0 -0.14185230856E+02  0.48302857338E+02 -0.78198519081E+02  0.93007500708E+02  0.10000000000E+01 0.  0.
    9000005    1    3    3    0    0 -0.99536402554E+01 -0.75730952698E+02 -0.62377309726E+02  0.98621401935E+02  0.10000000000E+01 0.  0.
          4    1    1    2  501    0  0.24138871112E+02  0.27428095360E+02  0.23031245820E+01  0.36631991435E+02  0.12700000000E+01 0. -1.
<mgrwt>
<rscale>  1 0.13023084E+03</rscale>
<asrwt>0</asrwt>
<pdfrwt beam="1">  1       21 0.69218301E-02 0.13023084E+03</pdfrwt>
<pdfrwt beam="2">  1        4 0.28196270E-01 0.13023084E+03</pdfrwt>
<totfact> 0.73944627E+04</totfact>
</mgrwt>
</event>
<event>
 6    3  0.7601760E-003  0.1754538E+03  0.7818608E-02  0.1172277E+00
         21   -1    0    0  501  502  0.00000000000E+00  0.00000000000E+00  0.23700807786E+02  0.23700807786E+02  0.00000000000E+00 0. -1.
          4   -1    0    0  502    0 -0.00000000000E+00 -0.00000000000E+00 -0.99722831583E+03  0.99722912452E+03  0.12700000000E+01 0.  1.
         25    2    1    2    0    0  0.10079392270E+02  0.12270847233E+03 -0.68731950568E+03  0.70936036247E+03  0.12500023050E+03 0.  0.
    9000005    1    3    3    0    0  0.48236483645E+02  0.22327117936E+02 -0.38247757445E+03  0.38615457204E+03  0.10000000000E+01 0.  0.
    9000005    1    3    3    0    0 -0.38157091375E+02  0.10038135440E+03 -0.30484193123E+03  0.32320579043E+03  0.10000000000E+01 0.  0.
          4    1    1    2  501    0 -0.10079392270E+02 -0.12270847233E+03 -0.28620800237E+03  0.31156956984E+03  0.12700000000E+01 0. -1.
<mgrwt>
<rscale>  1 0.17545376E+03</rscale>
<asrwt>0</asrwt>
<pdfrwt beam="1">  1       21 0.36462780E-02 0.17545376E+03</pdfrwt>
<pdfrwt beam="2">  1        4 0.15342243E+00 0.17545376E+03</pdfrwt>
<totfact> 0.57350203E+03</totfact>
</mgrwt>
</event>
<event>
 6    3  0.7601760E-003  0.1273641E+03  0.7818608E-02  0.1231420E+00
         21   -1    0    0  501  502  0.00000000000E+00  0.00000000000E+00  0.88785834628E+02  0.88785834628E+02  0.00000000000E+00 0. -1.
         -4   -1    0    0    0  501 -0.00000000000E+00 -0.00000000000E+00 -0.83168505950E+02  0.83178201964E+02  0.12700000000E+01 0. -1.
         25    2    1    2    0    0 -0.21281926602E+02  0.12108197476E+02 -0.27951054678E+02  0.13039508054E+03  0.12498834636E+03 0.  0.
    9000005    1    3    3    0    0  0.26328569968E+02 -0.12981159991E+02  0.36223892167E+02  0.46635549477E+02  0.10000000000E+01 0.  0.
    9000005    1    3    3    0    0 -0.47610496569E+02  0.25089357467E+02 -0.64174946845E+02  0.83759531065E+02  0.10000000000E+01 0.  0.
         -4    1    1    2    0  502  0.21281926602E+02 -0.12108197476E+02  0.33568383356E+02  0.41568956050E+02  0.12700000000E+01 0.  1.
<mgrwt>
<rscale>  1 0.12736411E+03</rscale>
<asrwt>0</asrwt>
<pdfrwt beam="1">  1       21 0.13659359E-01 0.12736411E+03</pdfrwt>
<pdfrwt beam="2">  1       -4 0.12796599E-01 0.12736411E+03</pdfrwt>
<totfact> 0.92440516E+04</totfact>
</mgrwt>
</event>
<event>
 6    3  0.7601760E-003  0.1277851E+03  0.7818608E-02  0.1230780E+00
          4   -1    0    0  502    0 -0.00000000000E+00  0.00000000000E+00  0.28510515109E+03  0.28510797968E+03  0.12700000000E+01 0. -1.
         21   -1    0    0  501  502  0.00000000000E+00 -0.00000000000E+00 -0.44041075596E+02  0.44041075596E+02  0.00000000000E+00 0.  1.
         25    2    1    2    0    0  0.26502558798E+02  0.12741843640E+01  0.26448374603E+03  0.29373573806E+03  0.12500009094E+03 0.  0.
    9000005    1    3    3    0    0  0.62452038666E+02 -0.30220283307E+02  0.95015147661E+02  0.11765373322E+03  0.10000000000E+01 0.  0.
    9000005    1    3    3    0    0 -0.35949479868E+02  0.31494467671E+02  0.16946859836E+03  0.17608200484E+03  0.10000000000E+01 0.  0.
          4    1    1    2  501    0 -0.26502558798E+02 -0.12741843640E+01 -0.23419670528E+02  0.35413317217E+02  0.12700000000E+01 0.  1.
<mgrwt>
<rscale>  1 0.12778510E+03</rscale>
<asrwt>0</asrwt>
<pdfrwt beam="2">  1       21 0.67755503E-02 0.12778510E+03</pdfrwt>
<pdfrwt beam="1">  1        4 0.43863956E-01 0.12778510E+03</pdfrwt>
<totfact> 0.32597568E+04</totfact>
</mgrwt>
</event>
<event>
 6    3  0.7601760E-003  0.1287379E+03  0.7818608E-02  0.1229341E+00
         -4   -1    0    0    0  501 -0.00000000000E+00  0.00000000000E+00  0.10119428733E+03  0.10120225634E+03  0.12700000000E+01 0.  1.
         21   -1    0    0  501  502  0.00000000000E+00 -0.00000000000E+00 -0.64284553891E+02  0.64284553891E+02  0.00000000000E+00 0.  1.
         25    2    1    2    0    0 -0.16106080810E+02 -0.26239758113E+02  0.19832855976E+02  0.13025666137E+03  0.12500209962E+03 0.  0.
    9000005    1    3    3    0    0 -0.62226292660E+02  0.12618228055E+02 -0.76775373502E+01  0.63963081205E+02  0.10000000000E+01 0.  0.
    9000005    1    3    3    0    0  0.46120211850E+02 -0.38857986168E+02  0.27510393326E+02  0.66293580165E+02  0.10000000000E+01 0.  0.
         -4    1    1    2    0  502  0.16106080810E+02  0.26239758113E+02  0.17076877462E+02  0.35230148860E+02  0.12700000000E+01 0. -1.
<mgrwt>
<rscale>  1 0.12873793E+03</rscale>
<asrwt>0</asrwt>
<pdfrwt beam="2">  1       21 0.98899314E-02 0.12873793E+03</pdfrwt>
<pdfrwt beam="1">  1       -4 0.15569930E-01 0.12873793E+03</pdfrwt>
<totfact> 0.11659619E+05</totfact>
</mgrwt>
</event>
<event>
 6    3  0.7601760E-003  0.3558136E+03  0.7818608E-02  0.1060254E+00
         21   -1    0    0  501  502  0.00000000000E+00  0.00000000000E+00  0.84217621812E+03  0.84217621812E+03  0.00000000000E+00 0. -1.
          4   -1    0    0  502    0 -0.00000000000E+00 -0.00000000000E+00 -0.49628536423E+03  0.49628698920E+03  0.12700000000E+01 0.  1.
         25    2    1    2    0    0  0.13393044023E+03 -0.30502688504E+03 -0.39166914209E+03  0.52915787311E+03  0.12499829752E+03 0.  0.
    9000005    1    3    3    0    0  0.25621435278E+02 -0.18504809907E+03 -0.15600531110E+03  0.24338840155E+03  0.10000000000E+01 0.  0.
    9000005    1    3    3    0    0  0.10830900495E+03 -0.11997878597E+03 -0.23566383099E+03  0.28576947156E+03  0.10000000000E+01 0.  0.
          4    1    1    2  501    0 -0.13393044023E+03  0.30502688504E+03  0.73755999598E+03  0.80930533422E+03  0.12700000000E+01 0. -1.
<mgrwt>
<rscale>  1 0.35581363E+03</rscale>
<asrwt>0</asrwt>
<pdfrwt beam="1">  1       21 0.12956557E+00 0.35581363E+03</pdfrwt>
<pdfrwt beam="2">  1        4 0.76351793E-01 0.35581363E+03</pdfrwt>
<totfact> 0.27279622E+01</totfact>
</mgrwt>
</event>
<event>
 6    3  0.7601760E-003  0.1272144E+03  0.7818608E-02  0.1231649E+00
         21   -1    0    0  501  502  0.00000000000E+00  0.00000000000E+00  0.34447439702E+02  0.34447439702E+02  0.00000000000E+00 0.  1.
          4   -1    0    0  502    0 -0.00000000000E+00 -0.00000000000E+00 -0.21516785097E+03  0.21517159894E+03  0.12700000000E+01 0.  1.
         25    2    1    2    0    0  0.23622520454E+02 -0.62131521899E+00 -0.18602813271E+03  0.22536632102E+03  0.12500041194E+03 0.  0.
    9000005    1    3    3    0    0  0.43257909989E+02  0.67990034193E+01 -0.61092911199E+01  0.44224389901E+02  0.10000000000E+01 0.  0.
    9000005    1    3    3    0    0 -0.19635389535E+02 -0.74203186383E+01 -0.17991884159E+03  0.18114193112E+03  0.10000000000E+01 0.  0.
          4    1    1    2  501    0 -0.23622520454E+02  0.62131521899E+00  0.53077214414E+01  0.24252717623E+02  0.12700000000E+01 0. -1.
<mgrwt>
<rscale>  1 0.12721444E+03</rscale>
<asrwt>0</asrwt>
<pdfrwt beam="1">  1       21 0.52996061E-02 0.12721444E+03</pdfrwt>
<pdfrwt beam="2">  1        4 0.33104836E-01 0.12721444E+03</pdfrwt>
<totfact> 0.85571432E+04</totfact>
</mgrwt>
</event>
<event>
 6    3  0.7601760E-003  0.1274538E+03  0.7818608E-02  0.1231283E+00
         -4   -1    0    0    0  501 -0.00000000000E+00  0.00000000000E+00  0.15756864691E+03  0.15757376491E+03  0.12700000000E+01 0. -1.
         21   -1    0    0  501  502  0.00000000000E+00 -0.00000000000E+00 -0.56996259566E+02  0.56996259566E+02  0.00000000000E+00 0.  1.
         25    2    1    2    0    0  0.13572070605E+02 -0.20880283057E+02  0.12581212168E+03  0.17908982704E+03  0.12499715543E+03 0.  0.
    9000005    1    3    3    0    0  0.27967995042E+01 -0.13392288775E+02 -0.24566255955E+02  0.28136744974E+02  0.10000000000E+01 0.  0.
    9000005    1    3    3    0    0  0.10775271101E+02 -0.74879942819E+01  0.15037837763E+03  0.15095308206E+03  0.10000000000E+01 0.  0.
         -4    1    1    2    0  502 -0.13572070605E+02  0.20880283057E+02 -0.25239734335E+02  0.35480197440E+02  0.12700000000E+01 0.  1.
<mgrwt>
<rscale>  1 0.12745382E+03</rscale>
<asrwt>0</asrwt>
<pdfrwt beam="2">  1       21 0.87686554E-02 0.12745382E+03</pdfrwt>
<pdfrwt beam="1">  1       -4 0.24242812E-01 0.12745382E+03</pdfrwt>
<totfact> 0.64936439E+04</totfact>
</mgrwt>
</event>
<event>
 6    3  0.7601760E-003  0.1274277E+03  0.7818608E-02  0.1231323E+00
          4   -1    0    0  502    0 -0.00000000000E+00  0.00000000000E+00  0.37929241995E+03  0.37929454614E+03  0.12700000000E+01 0. -1.
         21   -1    0    0  501  502  0.00000000000E+00 -0.00000000000E+00 -0.36903482111E+02  0.36903482111E+02  0.00000000000E+00 0.  1.
         25    2    1    2    0    0  0.24133081784E+02 -0.50394642041E+01  0.36257101389E+03  0.38431180976E+03  0.12502009907E+03 0.  0.
    9000005    1    3    3    0    0 -0.46154481925E+02 -0.24983160698E+02  0.12009933823E+03  0.13106962105E+03  0.10000000000E+01 0.  0.
    9000005    1    3    3    0    0  0.70287563708E+02  0.19943696494E+02  0.24247167566E+03  0.25324218870E+03  0.10000000000E+01 0.  0.
          4    1    1    2  501    0 -0.24133081784E+02  0.50394642041E+01 -0.20182076053E+02  0.31886218491E+02  0.12700000000E+01 0.  1.
<mgrwt>
<rscale>  1 0.12742773E+03</rscale>
<asrwt>0</asrwt>
<pdfrwt beam="2">  1       21 0.56774591E-02 0.12742773E+03</pdfrwt>
<pdfrwt beam="1">  1        4 0.58354522E-01 0.12742773E+03</pdfrwt>
<totfact> 0.24587900E+04</totfact>
</mgrwt>
</event>
<event>
 6    3  0.7601760E-003  0.1382659E+03  0.7818608E-02  0.1215682E+00
         -4   -1    0    0    0  501 -0.00000000000E+00  0.00000000000E+00  0.24484719869E+03  0.24485049235E+03  0.12700000000E+01 0.  1.
         21   -1    0    0  501  502  0.00000000000E+00 -0.00000000000E+00 -0.60862473857E+02  0.60862473857E+02  0.00000000000E+00 0. -1.
         25    2    1    2    0    0 -0.29810166137E+02 -0.51034747111E+02  0.20121055267E+03  0.24413753716E+03  0.12499703646E+03 0.  0.
    9000005    1    3    3    0    0  0.58397332590E+01 -0.86651050014E+02  0.11272903446E+03  0.14230721051E+03  0.10000000000E+01 0.  0.
    9000005    1    3    3    0    0 -0.35649899396E+02  0.35616302903E+02  0.88481518217E+02  0.10183032665E+03  0.10000000000E+01 0.  0.
         -4    1    1    2    0  502  0.29810166137E+02  0.51034747111E+02 -0.17225827845E+02  0.61575429050E+02  0.12700000000E+01 0. -1.
<mgrwt>
<rscale>  1 0.13826587E+03</rscale>
<asrwt>0</asrwt>
<pdfrwt beam="2">  1       21 0.93634576E-02 0.13826587E+03</pdfrwt>
<pdfrwt beam="1">  1       -4 0.37670072E-01 0.13826587E+03</pdfrwt>
<totfact> 0.25411768E+04</totfact>
</mgrwt>
</event>
<event>
 6    3  0.7601760E-003  0.1343889E+03  0.7818608E-02  0.1221085E+00
          4   -1    0    0  502    0 -0.00000000000E+00  0.00000000000E+00  0.34532559730E+03  0.34532793262E+03  0.12700000000E+01 0.  1.
         21   -1    0    0  501  502  0.00000000000E+00 -0.00000000000E+00 -0.32738137771E+02  0.32738137771E+02  0.00000000000E+00 0. -1.
         25    2    1    2    0    0  0.17878249517E+02 -0.46036789002E+02  0.29744411579E+03  0.32639449690E+03  0.12498539051E+03 0.  0.
    9000005    1    3    3    0    0 -0.43315890158E+02 -0.19989739304E+02  0.45915853098E+02  0.66220250554E+02  0.10000000000E+01 0.  0.
    9000005    1    3    3    0    0  0.61194139675E+02 -0.26047049698E+02  0.25152826270E+03  0.26017424635E+03  0.10000000000E+01 0.  0.
          4    1    1    2  501    0 -0.17878249517E+02  0.46036789002E+02  0.15143343731E+02  0.51671573488E+02  0.12700000000E+01 0. -1.
<mgrwt>
<rscale>  1 0.13438886E+03</rscale>
<asrwt>0</asrwt>
<pdfrwt beam="2">  1       21 0.50366368E-02 0.13438886E+03</pdfrwt>
<pdfrwt beam="1">  1        4 0.53129087E-01 0.13438886E+03</pdfrwt>
<totfact> 0.36776670E+04</totfact>
</mgrwt>
</event>
<event>
 6    3  0.7601760E-003  0.1290912E+03  0.7818608E-02  0.1228811E+00
          4   -1    0    0  502    0 -0.00000000000E+00  0.00000000000E+00  0.55727274593E+02  0.55741744085E+02  0.12700000000E+01 0.  1.
         21   -1    0    0  501  502  0.00000000000E+00 -0.00000000000E+00 -0.19139859591E+03  0.19139859591E+03  0.00000000000E+00 0. -1.
         25    2    1    2    0    0  0.31110290333E+02 -0.84643300951E+01 -0.24518437442E+02  0.13139894056E+03  0.12500013103E+03 0.  0.
    9000005    1    3    3    0    0 -0.36029202225E+02 -0.10832929178E+02  0.27345611579E+02  0.46521374014E+02  0.10000000000E+01 0.  0.
    9000005    1    3    3    0    0  0.67139492558E+02  0.23685990830E+01 -0.51864049021E+02  0.84877566550E+02  0.10000000000E+01 0.  0.
          4    1    1    2  501    0 -0.31110290333E+02  0.84643300951E+01 -0.11115288387E+03  0.11574139943E+03  0.12700000000E+01 0. -1.
<mgrwt>
<rscale>  1 0.12909116E+03</rscale>
<asrwt>0</asrwt>
<pdfrwt beam="2">  1       21 0.29445938E-01 0.12909116E+03</pdfrwt>
<pdfrwt beam="1">  1        4 0.85748640E-02 0.12909116E+03</pdfrwt>
<totfact> 0.43930771E+04</totfact>
</mgrwt>
</event>
<event>
 6    3  0.7601760E-003  0.1268093E+03  0.7818608E-02  0.1232268E+00
         21   -1    0    0  501  502  0.00000000000E+00  0.00000000000E+00  0.53833892802E+02  0.53833892802E+02  0.00000000000E+00 0.  1.
         -4   -1    0    0    0  501 -0.00000000000E+00 -0.00000000000E+00 -0.14566460331E+03  0.14567013956E+03  0.12700000000E+01 0.  1.
         25    2    1    2    0    0  0.20465336839E+02  0.61033961167E+01 -0.11267425977E+03  0.16963518735E+03  0.12499810606E+03 0.  0.
    9000005    1    3    3    0    0 -0.19101339534E+02 -0.43272372170E+02 -0.89787258833E+01  0.48155756496E+02  0.10000000000E+01 0.  0.
    9000005    1    3    3    0    0  0.39566676373E+02  0.49375768287E+02 -0.10369553389E+03  0.12147943086E+03  0.10000000000E+01 0.  0.
         -4    1    1    2    0  502 -0.20465336839E+02 -0.61033961167E+01  0.20843549260E+02  0.29868845004E+02  0.12700000000E+01 0. -1.
<mgrwt>
<rscale>  1 0.12680934E+03</rscale>
<asrwt>0</asrwt>
<pdfrwt beam="1">  1       21 0.82821374E-02 0.12680934E+03</pdfrwt>
<pdfrwt beam="2">  1       -4 0.22411517E-01 0.12680934E+03</pdfrwt>
<totfact> 0.82687044E+04</totfact>
</mgrwt>
</event>
<event>
 6    3  0.7601760E-003  0.1272772E+03  0.7818608E-02  0.1231553E+00
         -4   -1    0    0    0  501 -0.00000000000E+00  0.00000000000E+00  0.10715955405E+03  0.10716707948E+03  0.12700000000E+01 0.  1.
         21   -1    0    0  501  502  0.00000000000E+00 -0.00000000000E+00 -0.61144423192E+02  0.61144423192E+02  0.00000000000E+00 0.  1.
         25    2    1    2    0    0  0.85846151169E+01 -0.22358978374E+02  0.59824696325E+02  0.14063594434E+03  0.12500342003E+03 0.  0.
    9000005    1    3    3    0    0 -0.10112642820E+02 -0.57145123304E+01  0.95960020212E+02  0.96665643716E+02  0.10000000000E+01 0.  0.
    9000005    1    3    3    0    0  0.18697257936E+02 -0.16644466043E+02 -0.36135323887E+02  0.43970300620E+02  0.10000000000E+01 0.  0.
         -4    1    1    2    0  502 -0.85846151169E+01  0.22358978374E+02 -0.13809565469E+02  0.27675558333E+02  0.12700000000E+01 0. -1.
<mgrwt>
<rscale>  1 0.12727716E+03</rscale>
<asrwt>0</asrwt>
<pdfrwt beam="2">  1       21 0.94068344E-02 0.12727716E+03</pdfrwt>
<pdfrwt beam="1">  1       -4 0.16487679E-01 0.12727716E+03</pdfrwt>
<totfact> 0.11488248E+05</totfact>
</mgrwt>
</event>
<event>
 6    3  0.7601760E-003  0.1266243E+03  0.7818608E-02  0.1232552E+00
         21   -1    0    0  501  502  0.00000000000E+00  0.00000000000E+00  0.13444736367E+02  0.13444736367E+02  0.00000000000E+00 0.  1.
          4   -1    0    0  502    0 -0.00000000000E+00 -0.00000000000E+00 -0.42100161088E+03  0.42100352643E+03  0.12700000000E+01 0.  1.
         25    2    1    2    0    0 -0.11669028952E+02 -0.16481668848E+02 -0.37786892774E+03  0.39852057530E+03  0.12500364293E+03 0.  0.
    9000005    1    3    3    0    0  0.40535588749E+02  0.22434987463E+02 -0.70765629749E+02  0.84588633820E+02  0.10000000000E+01 0.  0.
    9000005    1    3    3    0    0 -0.52204617701E+02 -0.38916656311E+02 -0.30710329799E+03  0.31393194148E+03  0.10000000000E+01 0.  0.
          4    1    1    2  501    0  0.11669028952E+02  0.16481668848E+02 -0.29687946773E+02  0.35927687489E+02  0.12700000000E+01 0. -1.
<mgrwt>
<rscale>  1 0.12662434E+03</rscale>
<asrwt>0</asrwt>
<pdfrwt beam="1">  1       21 0.20684211E-02 0.12662434E+03</pdfrwt>
<pdfrwt beam="2">  1        4 0.64774236E-01 0.12662434E+03</pdfrwt>
<totfact> 0.10435223E+05</totfact>
</mgrwt>
</event>
<event>
 6    3  0.7601760E-003  0.1276307E+03  0.7818608E-02  0.1231014E+00
         21   -1    0    0  501  502  0.00000000000E+00  0.00000000000E+00  0.13149168970E+03  0.13149168970E+03  0.00000000000E+00 0.  1.
         -4   -1    0    0    0  501 -0.00000000000E+00 -0.00000000000E+00 -0.47497672878E+02  0.47514648571E+02  0.12700000000E+01 0.  1.
         25    2    1    2    0    0 -0.18534033034E+02  0.17907532277E+02  0.84725698917E+02  0.15319280787E+03  0.12500160893E+03 0.  0.
    9000005    1    3    3    0    0 -0.33239816953E+02  0.41510649873E+02 -0.10299774620E+02  0.54176607878E+02  0.10000000000E+01 0.  0.
    9000005    1    3    3    0    0  0.14705783918E+02 -0.23603117596E+02  0.95025473537E+02  0.99016199997E+02  0.10000000000E+01 0.  0.
         -4    1    1    2    0  502  0.18534033034E+02 -0.17907532277E+02 -0.73168209551E+00  0.25813530395E+02  0.12700000000E+01 0. -1.
<mgrwt>
<rscale>  1 0.12763069E+03</rscale>
<asrwt>0</asrwt>
<pdfrwt beam="1">  1       21 0.20229491E-01 0.12763069E+03</pdfrwt>
<pdfrwt beam="2">  1       -4 0.73091119E-02 0.12763069E+03</pdfrwt>
<totfact> 0.11595654E+05</totfact>
</mgrwt>
</event>
<event>
 6    3  0.7601760E-003  0.1281634E+03  0.7818608E-02  0.1230207E+00
          4   -1    0    0  502    0 -0.00000000000E+00  0.00000000000E+00  0.26130981000E+02  0.26161824631E+02  0.12700000000E+01 0.  1.
         21   -1    0    0  501  502  0.00000000000E+00 -0.00000000000E+00 -0.26502253222E+03  0.26502253222E+03  0.00000000000E+00 0.  1.
         25    2    1    2    0    0 -0.21639003601E+02 -0.18228913026E+02 -0.14699074373E+03  0.19501829701E+03  0.12500127072E+03 0.  0.
    9000005    1    3    3    0    0 -0.44821676113E+02 -0.40933810668E+02 -0.15057865221E+03  0.16235605935E+03  0.10000000000E+01 0.  0.
    9000005    1    3    3    0    0  0.23182672512E+02  0.22704897642E+02  0.35879084870E+01  0.32662237661E+02  0.10000000000E+01 0.  0.
          4    1    1    2  501    0  0.21639003601E+02  0.18228913026E+02 -0.91900807497E+02  0.96166059842E+02  0.12700000000E+01 0. -1.
<mgrwt>
<rscale>  1 0.12816340E+03</rscale>
<asrwt>0</asrwt>
<pdfrwt beam="2">  1       21 0.40772698E-01 0.12816340E+03</pdfrwt>
<pdfrwt beam="1">  1        4 0.40227575E-02 0.12816340E+03</pdfrwt>
<totfact> 0.79126418E+04</totfact>
</mgrwt>
</event>
<event>
 6    3  0.7601760E-003  0.1318087E+03  0.7818608E-02  0.1224796E+00
         -4   -1    0    0    0  501 -0.00000000000E+00  0.00000000000E+00  0.12980860011E+03  0.12981481257E+03  0.12700000000E+01 0. -1.
         21   -1    0    0  501  502  0.00000000000E+00 -0.00000000000E+00 -0.14108633432E+03  0.14108633432E+03  0.00000000000E+00 0.  1.
         25    2    1    2    0    0  0.11171163479E+02  0.40295332313E+02  0.91152657248E+02  0.16025709285E+03  0.12500008074E+03 0.  0.
    9000005    1    3    3    0    0  0.41426433825E+02  0.31431994345E+02 -0.11158227810E+02  0.53194226527E+02  0.10000000000E+01 0.  0.
    9000005    1    3    3    0    0 -0.30255270346E+02  0.88633379684E+01  0.10231088506E+03  0.10706286632E+03  0.10000000000E+01 0.  0.
         -4    1    1    2    0  502 -0.11171163479E+02 -0.40295332313E+02 -0.10243039146E+03  0.11064405404E+03  0.12700000000E+01 0.  1.
<mgrwt>
<rscale>  1 0.13180868E+03</rscale>
<asrwt>0</asrwt>
<pdfrwt beam="2">  1       21 0.21705590E-01 0.13180868E+03</pdfrwt>
<pdfrwt beam="1">  1       -4 0.19971472E-01 0.13180868E+03</pdfrwt>
<totfact> 0.18244099E+04</totfact>
</mgrwt>
</event>
<event>
 6    3  0.7601760E-003  0.1457517E+03  0.7818608E-02  0.1205793E+00
         21   -1    0    0  501  502  0.00000000000E+00  0.00000000000E+00  0.17861196288E+03  0.17861196288E+03  0.00000000000E+00 0.  1.
         -4   -1    0    0    0  501 -0.00000000000E+00 -0.00000000000E+00 -0.76006292610E+02  0.76016902176E+02  0.12700000000E+01 0.  1.
         25    2    1    2    0    0 -0.74898946911E+02 -0.30009012506E+01  0.10497783478E+03  0.17962154727E+03  0.12499878715E+03 0.  0.
    9000005    1    3    3    0    0 -0.69320206499E+02 -0.51965129455E+02  0.33708332426E+02  0.92967292008E+02  0.10000000000E+01 0.  0.
    9000005    1    3    3    0    0 -0.55787404115E+01  0.48964228204E+02  0.71269502358E+02  0.86654255260E+02  0.10000000000E+01 0.  0.
         -4    1    1    2    0  502  0.74898946911E+02  0.30009012506E+01 -0.23721645186E+01  0.75007317784E+02  0.12700000000E+01 0. -1.
<mgrwt>
<rscale>  1 0.14575169E+03</rscale>
<asrwt>0</asrwt>
<pdfrwt beam="1">  1       21 0.27478763E-01 0.14575169E+03</pdfrwt>
<pdfrwt beam="2">  1       -4 0.11694439E-01 0.14575169E+03</pdfrwt>
<totfact> 0.30118278E+04</totfact>
</mgrwt>
</event>
<event>
 6    3  0.7601760E-003  0.1478549E+03  0.7818608E-02  0.1203134E+00
          4   -1    0    0  502    0 -0.00000000000E+00  0.00000000000E+00  0.87572316290E+02  0.87581524766E+02  0.12700000000E+01 0. -1.
         21   -1    0    0  501  502  0.00000000000E+00 -0.00000000000E+00 -0.15569710422E+03  0.15569710422E+03  0.00000000000E+00 0.  1.
         25    2    1    2    0    0  0.39010947862E+02 -0.68661235515E+02 -0.16156883888E+02  0.14873501330E+03  0.12499935988E+03 0.  0.
    9000005    1    3    3    0    0  0.21719054914E+02  0.35831262353E+02 -0.33550449383E+01  0.42045844440E+02  0.10000000000E+01 0.  0.
    9000005    1    3    3    0    0  0.17291892948E+02 -0.10449249787E+03 -0.12801838950E+02  0.10668916886E+03  0.10000000000E+01 0.  0.
          4    1    1    2  501    0 -0.39010947862E+02  0.68661235515E+02 -0.51967904040E+02  0.94543615680E+02  0.12700000000E+01 0.  1.
<mgrwt>
<rscale>  1 0.14785486E+03</rscale>
<asrwt>0</asrwt>
<pdfrwt beam="2">  1       21 0.23953400E-01 0.14785486E+03</pdfrwt>
<pdfrwt beam="1">  1        4 0.13473771E-01 0.14785486E+03</pdfrwt>
<totfact> 0.30691963E+04</totfact>
</mgrwt>
</event>
<event>
 6    3  0.7601760E-003  0.1784828E+03  0.7818608E-02  0.1169280E+00
          4   -1    0    0  502    0 -0.00000000000E+00  0.00000000000E+00  0.22334942130E+03  0.22335303198E+03  0.12700000000E+01 0. -1.
         21   -1    0    0  501  502  0.00000000000E+00 -0.00000000000E+00 -0.15667111128E+03  0.15667111128E+03  0.00000000000E+00 0.  1.
         25    2    1    2    0    0  0.24062623679E+02  0.12511046748E+03  0.14543899771E+03  0.23023596697E+03  0.12499783798E+03 0.  0.
    9000005    1    3    3    0    0  0.39774843918E+02  0.83291277155E+01 -0.29417098214E+01  0.40756180315E+02  0.10000000000E+01 0.  0.
    9000005    1    3    3    0    0 -0.15712220240E+02  0.11678133977E+03  0.14838070753E+03  0.18947978665E+03  0.10000000000E+01 0.  0.
          4    1    1    2  501    0 -0.24062623679E+02 -0.12511046748E+03 -0.78760687695E+02  0.14978817630E+03  0.12700000000E+01 0.  1.
<mgrwt>
<rscale>  1 0.17848277E+03</rscale>
<asrwt>0</asrwt>
<pdfrwt beam="2">  1       21 0.24103248E-01 0.17848277E+03</pdfrwt>
<pdfrwt beam="1">  1        4 0.34362123E-01 0.17848277E+03</pdfrwt>
<totfact> 0.55720479E+03</totfact>
</mgrwt>
</event>
<event>
 6    3  0.7601760E-003  0.1334812E+03  0.7818608E-02  0.1222380E+00
          4   -1    0    0  502    0 -0.00000000000E+00  0.00000000000E+00  0.79124444143E+03  0.79124546065E+03  0.12700000000E+01 0.  1.
         21   -1    0    0  501  502  0.00000000000E+00 -0.00000000000E+00 -0.11505728856E+02  0.11505728856E+02  0.00000000000E+00 0. -1.
         25    2    1    2    0    0  0.84715901894E+01  0.46071136402E+02  0.67405261493E+03  0.68714201347E+03  0.12499160580E+03 0.  0.
    9000005    1    3    3    0    0 -0.38254719036E+02  0.70618467393E+02  0.43133358730E+03  0.43874828204E+03  0.10000000000E+01 0.  0.
    9000005    1    3    3    0    0  0.46726309225E+02 -0.24547330991E+02  0.24271902764E+03  0.24839373142E+03  0.10000000000E+01 0.  0.
          4    1    1    2  501    0 -0.84715901894E+01 -0.46071136402E+02  0.10568609764E+03  0.11560917604E+03  0.12700000000E+01 0. -1.
<mgrwt>
<rscale>  1 0.13348116E+03</rscale>
<asrwt>0</asrwt>
<pdfrwt beam="2">  1       21 0.17701128E-02 0.13348116E+03</pdfrwt>
<pdfrwt beam="1">  1        4 0.12173534E+00 0.13348116E+03</pdfrwt>
<totfact> 0.32505640E+04</totfact>
</mgrwt>
</event>
<event>
 6    3  0.7601760E-003  0.1275801E+03  0.7818608E-02  0.1231091E+00
         -4   -1    0    0    0  501 -0.00000000000E+00  0.00000000000E+00  0.11220990435E+03  0.11221709110E+03  0.12700000000E+01 0. -1.
         21   -1    0    0  501  502  0.00000000000E+00 -0.00000000000E+00 -0.10497303911E+03  0.10497303911E+03  0.00000000000E+00 0.  1.
         25    2    1    2    0    0 -0.15655486780E+02  0.20174442365E+02  0.72749913823E+02  0.14686463820E+03  0.12499827840E+03 0.  0.
    9000005    1    3    3    0    0 -0.15220016147E+02 -0.43564393626E+02  0.68988584222E+02  0.83005602440E+02  0.10000000000E+01 0.  0.
    9000005    1    3    3    0    0 -0.43547063355E+00  0.63738835991E+02  0.37613296010E+01  0.63859035763E+02  0.10000000000E+01 0.  0.
         -4    1    1    2    0  502  0.15655486780E+02 -0.20174442365E+02 -0.65513048584E+02  0.70325492005E+02  0.12700000000E+01 0.  1.
<mgrwt>
<rscale>  1 0.12758006E+03</rscale>
<asrwt>0</asrwt>
<pdfrwt beam="2">  1       21 0.16149698E-01 0.12758006E+03</pdfrwt>
<pdfrwt beam="1">  1       -4 0.17264206E-01 0.12758006E+03</pdfrwt>
<totfact> 0.40584173E+04</totfact>
</mgrwt>
</event>
<event>
 6    3  0.7601760E-003  0.2024335E+03  0.7818608E-02  0.1147702E+00
         21   -1    0    0  501  502  0.00000000000E+00  0.00000000000E+00  0.10619862006E+04  0.10619862006E+04  0.00000000000E+00 0.  1.
          4   -1    0    0  502    0 -0.00000000000E+00 -0.00000000000E+00 -0.36754548195E+02  0.36776483152E+02  0.12700000000E+01 0. -1.
         25    2    1    2    0    0 -0.85987431072E+02 -0.13401992068E+03  0.34378272143E+03  0.39895597053E+03  0.12499651766E+03 0.  0.
    9000005    1    3    3    0    0 -0.79692515290E+02 -0.15503303193E+03  0.26518684545E+03  0.31735028121E+03  0.10000000000E+01 0.  0.
    9000005    1    3    3    0    0 -0.62949157817E+01  0.21013111249E+02  0.78595875979E+02  0.81605689323E+02  0.10000000000E+01 0.  0.
          4    1    1    2  501    0  0.85987431072E+02  0.13401992068E+03  0.68144893094E+03  0.69980671319E+03  0.12700000000E+01 0.  1.
<mgrwt>
<rscale>  1 0.20243346E+03</rscale>
<asrwt>0</asrwt>
<pdfrwt beam="1">  1       21 0.16338247E+00 0.20243346E+03</pdfrwt>
<pdfrwt beam="2">  1        4 0.56562924E-02 0.20243346E+03</pdfrwt>
<totfact> 0.19560574E+03</totfact>
</mgrwt>
</event>
<event>
 6    3  0.7601760E-003  0.1282925E+03  0.7818608E-02  0.1230012E+00
         -4   -1    0    0    0  501 -0.00000000000E+00  0.00000000000E+00  0.62381657803E+02  0.62394584142E+02  0.12700000000E+01 0. -1.
         21   -1    0    0  501  502  0.00000000000E+00 -0.00000000000E+00 -0.11419485460E+03  0.11419485460E+03  0.00000000000E+00 0. -1.
         25    2    1    2    0    0  0.21490559184E+02 -0.19327382722E+02 -0.14111006336E+02  0.12906618209E+03  0.12499426788E+03 0.  0.
    9000005    1    3    3    0    0  0.23613868370E+02  0.17710650911E+02  0.48206702803E+02  0.56534663086E+02  0.10000000000E+01 0.  0.
    9000005    1    3    3    0    0 -0.21233091866E+01 -0.37038033633E+02 -0.62317709139E+02  0.72531519008E+02  0.10000000000E+01 0.  0.
         -4    1    1    2    0  502 -0.21490559184E+02  0.19327382722E+02 -0.37702190466E+02  0.47523256653E+02  0.12700000000E+01 0.  1.
<mgrwt>
<rscale>  1 0.12829247E+03</rscale>
<asrwt>0</asrwt>
<pdfrwt beam="2">  1       21 0.17568439E-01 0.12829247E+03</pdfrwt>
<pdfrwt beam="1">  1       -4 0.95987158E-02 0.12829247E+03</pdfrwt>
<totfact> 0.95653933E+04</totfact>
</mgrwt>
</event>
<event>
 6    3  0.7601760E-003  0.1277334E+03  0.7818608E-02  0.1230858E+00
         21   -1    0    0  501  502  0.00000000000E+00  0.00000000000E+00  0.50993931086E+03  0.50993931086E+03  0.00000000000E+00 0.  1.
         -4   -1    0    0    0  501 -0.00000000000E+00 -0.00000000000E+00 -0.13708981282E+02  0.13767682005E+02  0.12700000000E+01 0.  1.
         25    2    1    2    0    0 -0.19705623094E+02  0.17356082165E+02  0.30484278773E+03  0.33052223870E+03  0.12500511938E+03 0.  0.
    9000005    1    3    3    0    0 -0.56693019420E+02 -0.16669574125E+02  0.76277752595E+02  0.96494915376E+02  0.10000000000E+01 0.  0.
    9000005    1    3    3    0    0  0.36987396326E+02  0.34025656290E+02  0.22856503514E+03  0.23402732332E+03  0.10000000000E+01 0.  0.
         -4    1    1    2    0  502  0.19705623094E+02 -0.17356082165E+02  0.19138754185E+03  0.19318475417E+03  0.12700000000E+01 0. -1.
<mgrwt>
<rscale>  1 0.12773341E+03</rscale>
<asrwt>0</asrwt>
<pdfrwt beam="1">  1       21 0.78452187E-01 0.12773341E+03</pdfrwt>
<pdfrwt beam="2">  1       -4 0.21137115E-02 0.12773341E+03</pdfrwt>
<totfact> 0.54479329E+04</totfact>
</mgrwt>
</event>
<event>
 6    3  0.7601760E-003  0.1278572E+03  0.7818608E-02  0.1230670E+00
          4   -1    0    0  502    0 -0.00000000000E+00  0.00000000000E+00  0.27148808989E+03  0.27149106035E+03  0.12700000000E+01 0. -1.
         21   -1    0    0  501  502  0.00000000000E+00 -0.00000000000E+00 -0.51858978415E+02  0.51858978415E+02  0.00000000000E+00 0.  1.
         25    2    1    2    0    0 -0.68135035773E+01 -0.25998955575E+02  0.25120112827E+03  0.28186781768E+03  0.12500036110E+03 0.  0.
    9000005    1    3    3    0    0  0.12339818725E+02  0.43162061507E+02  0.45158958953E+02  0.63683327908E+02  0.10000000000E+01 0.  0.
    9000005    1    3    3    0    0 -0.19153322302E+02 -0.69161017082E+02  0.20604216932E+03  0.21818448977E+03  0.10000000000E+01 0.  0.
          4    1    1    2  501    0  0.68135035773E+01  0.25998955575E+02 -0.31572016797E+02  0.41482221091E+02  0.12700000000E+01 0.  1.
<mgrwt>
<rscale>  1 0.12785719E+03</rscale>
<asrwt>0</asrwt>
<pdfrwt beam="2">  1       21 0.79783045E-02 0.12785719E+03</pdfrwt>
<pdfrwt beam="1">  1        4 0.41768822E-01 0.12785719E+03</pdfrwt>
<totfact> 0.27145582E+04</totfact>
</mgrwt>
</event>
<event>
 6    3  0.7601760E-003  0.1324187E+03  0.7818608E-02  0.1223910E+00
         -4   -1    0    0    0  501 -0.00000000000E+00  0.00000000000E+00  0.67573908363E+03  0.67574027706E+03  0.12700000000E+01 0.  1.
         21   -1    0    0  501  502  0.00000000000E+00 -0.00000000000E+00 -0.23086428305E+02  0.23086428305E+02  0.00000000000E+00 0. -1.
         25    2    1    2    0    0 -0.37876358698E+02 -0.21783501639E+02  0.63966287961E+03  0.65322531652E+03  0.12500230037E+03 0.  0.
    9000005    1    3    3    0    0 -0.80180742651E+02 -0.95626160621E+01  0.29849157920E+03  0.30922260262E+03  0.10000000000E+01 0.  0.
    9000005    1    3    3    0    0  0.42304383953E+02 -0.12220885577E+02  0.34117130041E+03  0.34400271390E+03  0.10000000000E+01 0.  0.
         -4    1    1    2    0  502  0.37876358698E+02  0.21783501639E+02  0.12989775715E+02  0.45601388849E+02  0.12700000000E+01 0. -1.
<mgrwt>
<rscale>  1 0.13241871E+03</rscale>
<asrwt>0</asrwt>
<pdfrwt beam="2">  1       21 0.35517587E-02 0.13241871E+03</pdfrwt>
<pdfrwt beam="1">  1       -4 0.10396262E+00 0.13241871E+03</pdfrwt>
<totfact> 0.15171001E+04</totfact>
</mgrwt>
</event>
<event>
 6    3  0.7601760E-003  0.1282983E+03  0.7818608E-02  0.1230003E+00
         21   -1    0    0  501  502  0.00000000000E+00  0.00000000000E+00  0.72751635404E+02  0.72751635404E+02  0.00000000000E+00 0. -1.
          4   -1    0    0  502    0 -0.00000000000E+00 -0.00000000000E+00 -0.10590807850E+03  0.10591569285E+03  0.12700000000E+01 0. -1.
         25    2    1    2    0    0 -0.12498860453E+01 -0.28860844599E+02 -0.57760108911E+02  0.14070071347E+03  0.12500380004E+03 0.  0.
    9000005    1    3    3    0    0  0.26730891917E+02 -0.38294138805E+02 -0.87243253680E+02  0.98961441795E+02  0.10000000000E+01 0.  0.
    9000005    1    3    3    0    0 -0.27980777962E+02  0.94332942054E+01  0.29483144769E+02  0.41739271680E+02  0.10000000000E+01 0.  0.
          4    1    1    2  501    0  0.12498860453E+01  0.28860844599E+02  0.24603665815E+02  0.37966614778E+02  0.12700000000E+01 0.  1.
<mgrwt>
<rscale>  1 0.12829833E+03</rscale>
<asrwt>0</asrwt>
<pdfrwt beam="1">  1       21 0.11192559E-01 0.12829833E+03</pdfrwt>
<pdfrwt beam="2">  1        4 0.16294989E-01 0.12829833E+03</pdfrwt>
<totfact> 0.86591929E+04</totfact>
</mgrwt>
</event>
<event>
 6    3  0.7601760E-003  0.1266797E+03  0.7818608E-02  0.1232467E+00
         -4   -1    0    0    0  501 -0.00000000000E+00  0.00000000000E+00  0.68540113901E+03  0.68540231562E+03  0.12700000000E+01 0.  1.
         21   -1    0    0  501  502  0.00000000000E+00 -0.00000000000E+00 -0.81636699894E+01  0.81636699894E+01  0.00000000000E+00 0.  1.
         25    2    1    2    0    0 -0.12755238375E+02 -0.16123299184E+02  0.61798736429E+03  0.63083764517E+03  0.12500038108E+03 0.  0.
    9000005    1    3    3    0    0  0.21933655742E+02 -0.63173567091E+02  0.37488116358E+03  0.38080030415E+03  0.10000000000E+01 0.  0.
    9000005    1    3    3    0    0 -0.34688894117E+02  0.47050267907E+02  0.24310620070E+03  0.25003734102E+03  0.10000000000E+01 0.  0.
         -4    1    1    2    0  502  0.12755238375E+02  0.16123299184E+02  0.59250104740E+02  0.62728340439E+02  0.12700000000E+01 0. -1.
<mgrwt>
<rscale>  1 0.12667972E+03</rscale>
<asrwt>0</asrwt>
<pdfrwt beam="2">  1       21 0.12559498E-02 0.12667972E+03</pdfrwt>
<pdfrwt beam="1">  1       -4 0.10545397E+00 0.12667972E+03</pdfrwt>
<totfact> 0.78456122E+04</totfact>
</mgrwt>
</event>
<event>
 6    3  0.7601760E-003  0.1282391E+03  0.7818608E-02  0.1230092E+00
         21   -1    0    0  501  502  0.00000000000E+00  0.00000000000E+00  0.79700554506E+03  0.79700554506E+03  0.00000000000E+00 0.  1.
          4   -1    0    0  502    0 -0.00000000000E+00 -0.00000000000E+00 -0.14650918223E+02  0.14705859539E+02  0.12700000000E+01 0.  1.
         25    2    1    2    0    0 -0.35698369570E+01  0.28413364104E+02  0.27373674620E+03  0.30228641071E+03  0.12500081953E+03 0.  0.
    9000005    1    3    3    0    0 -0.38900219952E+02 -0.32234721810E+02  0.66738019181E+02  0.83709423643E+02  0.10000000000E+01 0.  0.
    9000005    1    3    3    0    0  0.35330382995E+02  0.60648085914E+02  0.20699872702E+03  0.21857698707E+03  0.10000000000E+01 0.  0.
          4    1    1    2  501    0  0.35698369570E+01 -0.28413364104E+02  0.50861788064E+03  0.50942499389E+03  0.12700000000E+01 0. -1.
<mgrwt>
<rscale>  1 0.12823910E+03</rscale>
<asrwt>0</asrwt>
<pdfrwt beam="1">  1       21 0.12261620E+00 0.12823910E+03</pdfrwt>
<pdfrwt beam="2">  1        4 0.22582921E-02 0.12823910E+03</pdfrwt>
<totfact> 0.17368515E+04</totfact>
</mgrwt>
</event>
<event>
 6    3  0.7601760E-003  0.1287867E+03  0.7818608E-02  0.1229267E+00
         -4   -1    0    0    0  501 -0.00000000000E+00  0.00000000000E+00  0.59776530004E+03  0.59776664915E+03  0.12700000000E+01 0.  1.
         21   -1    0    0  501  502  0.00000000000E+00 -0.00000000000E+00 -0.50033222894E+02  0.50033222894E+02  0.00000000000E+00 0. -1.
         25    2    1    2    0    0  0.84108715431E+01  0.29833737441E+02  0.58517254787E+03  0.59917686928E+03  0.12500086103E+03 0.  0.
    9000005    1    3    3    0    0  0.64134642105E+02  0.17098642287E+02  0.22833407097E+03  0.23778785472E+03  0.10000000000E+01 0.  0.
    9000005    1    3    3    0    0 -0.55723770562E+02  0.12735095154E+02  0.35683847690E+03  0.36138901457E+03  0.10000000000E+01 0.  0.
         -4    1    1    2    0  502 -0.84108715431E+01 -0.29833737441E+02 -0.37440470718E+02  0.48623002760E+02  0.12700000000E+01 0. -1.
<mgrwt>
<rscale>  1 0.12878668E+03</rscale>
<asrwt>0</asrwt>
<pdfrwt beam="2">  1       21 0.76974194E-02 0.12878668E+03</pdfrwt>
<pdfrwt beam="1">  1       -4 0.91965231E-01 0.12878668E+03</pdfrwt>
<totfact> 0.54496527E+03</totfact>
</mgrwt>
</event>
<event>
 6    3  0.7601760E-003  0.1472671E+03  0.7818608E-02  0.1203872E+00
         21   -1    0    0  501  502  0.00000000000E+00  0.00000000000E+00  0.18926744086E+04  0.18926744086E+04  0.00000000000E+00 0.  1.
         -4   -1    0    0    0  501 -0.00000000000E+00 -0.00000000000E+00 -0.73964364286E+01  0.75046766647E+01  0.12700000000E+01 0. -1.
         25    2    1    2    0    0 -0.59720980103E+02  0.49959951011E+02  0.91439267629E+03  0.92617576759E+03  0.12499997544E+03 0.  0.
    9000005    1    3    3    0    0 -0.52501636301E+02  0.26425189865E+02  0.14602935529E+03  0.15741755010E+03  0.10000000000E+01 0.  0.
    9000005    1    3    3    0    0 -0.72193438015E+01  0.23534761147E+02  0.76836332100E+03  0.76875821749E+03  0.10000000000E+01 0.  0.
         -4    1    1    2    0  502  0.59720980103E+02 -0.49959951011E+02  0.97088529586E+03  0.97400331764E+03  0.12700000000E+01 0.  1.
<mgrwt>
<rscale>  1 0.14726706E+03</rscale>
<asrwt>0</asrwt>
<pdfrwt beam="1">  1       21 0.29118029E+00 0.14726706E+03</pdfrwt>
<pdfrwt beam="2">  1       -4 0.11462738E-02 0.14726706E+03</pdfrwt>
<totfact> 0.39271272E+03</totfact>
</mgrwt>
</event>
<event>
 6    3  0.7601760E-003  0.1288033E+03  0.7818608E-02  0.1229242E+00
         21   -1    0    0  501  502  0.00000000000E+00  0.00000000000E+00  0.25110524418E+03  0.25110524418E+03  0.00000000000E+00 0. -1.
          4   -1    0    0  502    0 -0.00000000000E+00 -0.00000000000E+00 -0.29828226987E+02  0.29855251217E+02  0.12700000000E+01 0.  1.
         25    2    1    2    0    0  0.27909465853E+02 -0.13663065741E+02  0.12383923689E+03  0.17867974657E+03  0.12499871036E+03 0.  0.
    9000005    1    3    3    0    0  0.23162253466E+01 -0.68064786355E+02  0.57417542001E+02  0.89083972581E+02  0.10000000000E+01 0.  0.
    9000005    1    3    3    0    0  0.25593240506E+02  0.54401720614E+02  0.66421694890E+02  0.89595773993E+02  0.10000000000E+01 0.  0.
          4    1    1    2  501    0 -0.27909465853E+02  0.13663065741E+02  0.97437780304E+02  0.10228074882E+03  0.12700000000E+01 0. -1.
<mgrwt>
<rscale>  1 0.12880332E+03</rscale>
<asrwt>0</asrwt>
<pdfrwt beam="1">  1       21 0.38631575E-01 0.12880332E+03</pdfrwt>
<pdfrwt beam="2">  1        4 0.45912840E-02 0.12880332E+03</pdfrwt>
<totfact> 0.71439074E+04</totfact>
</mgrwt>
</event>
<event>
 6    3  0.7601760E-003  0.1283500E+03  0.7818608E-02  0.1229925E+00
         21   -1    0    0  501  502  0.00000000000E+00  0.00000000000E+00  0.19208020609E+03  0.19208020609E+03  0.00000000000E+00 0. -1.
         -4   -1    0    0    0  501 -0.00000000000E+00 -0.00000000000E+00 -0.66870014161E+02  0.66882073038E+02  0.12700000000E+01 0.  1.
         25    2    1    2    0    0  0.24187900200E+02  0.16262900155E+02 -0.20847473790E+01  0.12836690819E+03  0.12499672199E+03 0.  0.
    9000005    1    3    3    0    0  0.12516790424E+02  0.56542982109E+02  0.38859486726E+02  0.69748394798E+02  0.10000000000E+01 0.  0.
    9000005    1    3    3    0    0  0.11671109776E+02 -0.40280081954E+02 -0.40944234106E+02  0.58618513390E+02  0.10000000000E+01 0.  0.
         -4    1    1    2    0  502 -0.24187900200E+02 -0.16262900155E+02  0.12729493931E+03  0.13059537094E+03  0.12700000000E+01 0. -1.
<mgrwt>
<rscale>  1 0.12834998E+03</rscale>
<asrwt>0</asrwt>
<pdfrwt beam="1">  1       21 0.29550801E-01 0.12834998E+03</pdfrwt>
<pdfrwt beam="2">  1       -4 0.10288945E-01 0.12834998E+03</pdfrwt>
<totfact> 0.32133680E+04</totfact>
</mgrwt>
</event>
<event>
 6    3  0.7601760E-003  0.1280405E+03  0.7818608E-02  0.1230393E+00
         21   -1    0    0  501  502  0.00000000000E+00  0.00000000000E+00  0.22706899008E+03  0.22706899008E+03  0.00000000000E+00 0.  1.
         -4   -1    0    0    0  501 -0.00000000000E+00 -0.00000000000E+00 -0.16254250527E+03  0.16254746667E+03  0.12700000000E+01 0. -1.
         25    2    1    2    0    0 -0.24321046032E+02 -0.13296904399E+02 -0.13622668405E+03  0.18695474687E+03  0.12500418786E+03 0.  0.
    9000005    1    3    3    0    0  0.38403591089E+02  0.29957808497E+02 -0.73896241500E+02  0.88509663914E+02  0.10000000000E+01 0.  0.
    9000005    1    3    3    0    0 -0.62724637121E+02 -0.43254712895E+02 -0.62330442546E+02  0.98445082953E+02  0.10000000000E+01 0.  0.
         -4    1    1    2    0  502  0.24321046032E+02  0.13296904399E+02  0.20075316885E+03  0.20266170988E+03  0.12700000000E+01 0.  1.
<mgrwt>
<rscale>  1 0.12804049E+03</rscale>
<asrwt>0</asrwt>
<pdfrwt beam="1">  1       21 0.34933691E-01 0.12804049E+03</pdfrwt>
<pdfrwt beam="2">  1       -4 0.25007194E-01 0.12804049E+03</pdfrwt>
<totfact> 0.48668982E+03</totfact>
</mgrwt>
</event>
<event>
 6    3  0.7601760E-003  0.1592139E+03  0.7818608E-02  0.1189587E+00
         21   -1    0    0  501  502  0.00000000000E+00  0.00000000000E+00  0.23304696645E+03  0.23304696645E+03  0.00000000000E+00 0. -1.
         -4   -1    0    0    0  501 -0.00000000000E+00 -0.00000000000E+00 -0.71427911296E+02  0.71439200808E+02  0.12700000000E+01 0.  1.
         25    2    1    2    0    0  0.53600167216E+02  0.82837111021E+02  0.94471957281E+02  0.18513244699E+03  0.12495642172E+03 0.  0.
    9000005    1    3    3    0    0  0.81207836370E+02  0.86672633790E+02  0.10164775165E+03  0.15633337312E+03  0.10000000000E+01 0.  0.
    9000005    1    3    3    0    0 -0.27607669153E+02 -0.38355227693E+01 -0.71757943710E+01  0.28799073871E+02  0.10000000000E+01 0.  0.
         -4    1    1    2    0  502 -0.53600167216E+02 -0.82837111021E+02  0.67147097871E+02  0.11935372026E+03  0.12700000000E+01 0. -1.
<mgrwt>
<rscale>  1 0.15921392E+03</rscale>
<asrwt>0</asrwt>
<pdfrwt beam="1">  1       21 0.35853379E-01 0.15921392E+03</pdfrwt>
<pdfrwt beam="2">  1       -4 0.10990044E-01 0.15921392E+03</pdfrwt>
<totfact> 0.20108323E+04</totfact>
</mgrwt>
</event>
<event>
 6    3  0.7601760E-003  0.1288811E+03  0.7818608E-02  0.1229125E+00
         21   -1    0    0  501  502  0.00000000000E+00  0.00000000000E+00  0.91937830165E+02  0.91937830165E+02  0.00000000000E+00 0. -1.
          4   -1    0    0  502    0 -0.00000000000E+00 -0.00000000000E+00 -0.13429756628E+03  0.13430357110E+03  0.12700000000E+01 0. -1.
         25    2    1    2    0    0 -0.17581165067E+02 -0.25883927166E+02 -0.98328320999E+02  0.16210739746E+03  0.12502509568E+03 0.  0.
    9000005    1    3    3    0    0 -0.41626113737E+02  0.20883316372E+02  0.43069805591E+01  0.46780298514E+02  0.10000000000E+01 0.  0.
    9000005    1    3    3    0    0  0.24044948671E+02 -0.46767243538E+02 -0.10263530156E+03  0.11532709894E+03  0.10000000000E+01 0.  0.
          4    1    1    2  501    0  0.17581165067E+02  0.25883927166E+02  0.55968584880E+02  0.64134003806E+02  0.12700000000E+01 0.  1.
<mgrwt>
<rscale>  1 0.12888115E+03</rscale>
<asrwt>0</asrwt>
<pdfrwt beam="1">  1       21 0.14144282E-01 0.12888115E+03</pdfrwt>
<pdfrwt beam="2">  1        4 0.20662301E-01 0.12888115E+03</pdfrwt>
<totfact> 0.37446147E+04</totfact>
</mgrwt>
</event>
<event>
 6    3  0.7601760E-003  0.1422522E+03  0.7818608E-02  0.1210330E+00
         21   -1    0    0  501  502  0.00000000000E+00  0.00000000000E+00  0.58437150523E+02  0.58437150523E+02  0.00000000000E+00 0. -1.
          4   -1    0    0  502    0 -0.00000000000E+00 -0.00000000000E+00 -0.25177624410E+03  0.25177944712E+03  0.12700000000E+01 0.  1.
         25    2    1    2    0    0  0.43297118508E+02 -0.52306004571E+02 -0.19608291132E+03  0.24224822249E+03  0.12500053841E+03 0.  0.
    9000005    1    3    3    0    0  0.44251123473E+01  0.20408825155E+01 -0.17068777615E+03  0.17076025225E+03  0.10000000000E+01 0.  0.
    9000005    1    3    3    0    0  0.38872006161E+02 -0.54346887087E+02 -0.25395135165E+02  0.71487970240E+02  0.10000000000E+01 0.  0.
          4    1    1    2  501    0 -0.43297118508E+02  0.52306004571E+02  0.27438177400E+01  0.67968375154E+02  0.12700000000E+01 0. -1.
<mgrwt>
<rscale>  1 0.14225222E+03</rscale>
<asrwt>0</asrwt>
<pdfrwt beam="1">  1       21 0.89903308E-02 0.14225222E+03</pdfrwt>
<pdfrwt beam="2">  1        4 0.38736115E-01 0.14225222E+03</pdfrwt>
<totfact> 0.25907140E+04</totfact>
</mgrwt>
</event>
<event>
 6    3  0.7601760E-003  0.1323406E+03  0.7818608E-02  0.1224023E+00
         21   -1    0    0  501  502  0.00000000000E+00  0.00000000000E+00  0.10541654165E+03  0.10541654165E+03  0.00000000000E+00 0. -1.
          4   -1    0    0  502    0 -0.00000000000E+00 -0.00000000000E+00 -0.73321532899E+02  0.73332530890E+02  0.12700000000E+01 0. -1.
         25    2    1    2    0    0  0.42677877349E+02 -0.82159473138E+01  0.25415090806E+02  0.13475887807E+03  0.12500050149E+03 0.  0.
    9000005    1    3    3    0    0  0.22373603629E+02  0.22751220974E+02 -0.45011828119E+02  0.55183882300E+02  0.10000000000E+01 0.  0.
    9000005    1    3    3    0    0  0.20304273720E+02 -0.30967168288E+02  0.70426918925E+02  0.79574995773E+02  0.10000000000E+01 0.  0.
          4    1    1    2  501    0 -0.42677877349E+02  0.82159473138E+01  0.66799179432E+01  0.43990194464E+02  0.12700000000E+01 0.  1.
<mgrwt>
<rscale>  1 0.13234058E+03</rscale>
<asrwt>0</asrwt>
<pdfrwt beam="1">  1       21 0.16217930E-01 0.13234058E+03</pdfrwt>
<pdfrwt beam="2">  1        4 0.11281670E-01 0.13234058E+03</pdfrwt>
<totfact> 0.84585417E+04</totfact>
</mgrwt>
</event>
<event>
 6    3  0.7601760E-003  0.1271163E+03  0.7818608E-02  0.1231798E+00
         21   -1    0    0  501  502  0.00000000000E+00  0.00000000000E+00  0.24943136494E+02  0.24943136494E+02  0.00000000000E+00 0. -1.
          4   -1    0    0  502    0 -0.00000000000E+00 -0.00000000000E+00 -0.23146683315E+03  0.23147031721E+03  0.12700000000E+01 0. -1.
         25    2    1    2    0    0 -0.21697024111E+02  0.78945277019E+01 -0.18719605386E+03  0.22627618278E+03  0.12500185554E+03 0.  0.
    9000005    1    3    3    0    0 -0.16593237741E+01  0.26329772548E+01  0.18879030230E+02  0.19159950601E+02  0.10000000000E+01 0.  0.
    9000005    1    3    3    0    0 -0.20037700337E+02  0.52615504470E+01 -0.20607508409E+03  0.20711623217E+03  0.10000000000E+01 0.  0.
          4    1    1    2  501    0  0.21697024111E+02 -0.78945277019E+01 -0.19327642800E+02  0.30137270930E+02  0.12700000000E+01 0.  1.
<mgrwt>
<rscale>  1 0.12711628E+03</rscale>
<asrwt>0</asrwt>
<pdfrwt beam="1">  1       21 0.38374058E-02 0.12711628E+03</pdfrwt>
<pdfrwt beam="2">  1        4 0.35613035E-01 0.12711628E+03</pdfrwt>
<totfact> 0.12750129E+05</totfact>
</mgrwt>
</event>
<event>
 6    3  0.7601760E-003  0.1348100E+03  0.7818608E-02  0.1220488E+00
         -4   -1    0    0    0  501 -0.00000000000E+00  0.00000000000E+00  0.34755883711E+03  0.34756115743E+03  0.12700000000E+01 0. -1.
         21   -1    0    0  501  502  0.00000000000E+00 -0.00000000000E+00 -0.37537118813E+02  0.37537118813E+02  0.00000000000E+00 0.  1.
         25    2    1    2    0    0 -0.25075921172E+02 -0.43797576368E+02  0.30608921550E+03  0.33446126412E+03  0.12500679914E+03 0.  0.
    9000005    1    3    3    0    0  0.10389651544E+02  0.37669740732E+02  0.14837688161E+03  0.15343941222E+03  0.10000000000E+01 0.  0.
    9000005    1    3    3    0    0 -0.35465572716E+02 -0.81467317101E+02  0.15771233389E+03  0.18102185190E+03  0.10000000000E+01 0.  0.
         -4    1    1    2    0  502  0.25075921172E+02  0.43797576368E+02  0.39325027951E+01  0.50637012122E+02  0.12700000000E+01 0.  1.
<mgrwt>
<rscale>  1 0.13480997E+03</rscale>
<asrwt>0</asrwt>
<pdfrwt beam="2">  1       21 0.57749416E-02 0.13480997E+03</pdfrwt>
<pdfrwt beam="1">  1       -4 0.53472419E-01 0.13480997E+03</pdfrwt>
<totfact> 0.28820690E+04</totfact>
</mgrwt>
</event>
<event>
 6    3  0.7601760E-003  0.1305613E+03  0.7818608E-02  0.1226625E+00
         21   -1    0    0  501  502  0.00000000000E+00  0.00000000000E+00  0.19101027874E+03  0.19101027874E+03  0.00000000000E+00 0.  1.
          4   -1    0    0  502    0 -0.00000000000E+00 -0.00000000000E+00 -0.59981126836E+02  0.59994570392E+02  0.12700000000E+01 0.  1.
         25    2    1    2    0    0 -0.10149965705E+01  0.37687182215E+02  0.17937305167E+02  0.13178768334E+03  0.12499957057E+03 0.  0.
    9000005    1    3    3    0    0  0.24824453888E+02  0.22720881500E+02  0.66633724822E+02  0.74656180257E+02  0.10000000000E+01 0.  0.
    9000005    1    3    3    0    0 -0.25839450458E+02  0.14966300716E+02 -0.48696419655E+02  0.57131503081E+02  0.10000000000E+01 0.  0.
          4    1    1    2  501    0  0.10149965705E+01 -0.37687182215E+02  0.11309184674E+03  0.11921716579E+03  0.12700000000E+01 0. -1.
<mgrwt>
<rscale>  1 0.13056128E+03</rscale>
<asrwt>0</asrwt>
<pdfrwt beam="1">  1       21 0.29386196E-01 0.13056128E+03</pdfrwt>
<pdfrwt beam="2">  1        4 0.92292246E-02 0.13056128E+03</pdfrwt>
<totfact> 0.39061674E+04</totfact>
</mgrwt>
</event>
<event>
 6    3  0.7601760E-003  0.1284788E+03  0.7818608E-02  0.1229731E+00
          4   -1    0    0  502    0 -0.00000000000E+00  0.00000000000E+00  0.31909679532E+02  0.31934942427E+02  0.12700000000E+01 0.  1.
         21   -1    0    0  501  502  0.00000000000E+00 -0.00000000000E+00 -0.23907269970E+03  0.23907269970E+03  0.00000000000E+00 0.  1.
         25    2    1    2    0    0  0.98791803410E+01  0.28016625879E+02 -0.10915105568E+03  0.16858456068E+03  0.12499708642E+03 0.  0.
    9000005    1    3    3    0    0 -0.47324844388E+02  0.23240284217E+01 -0.92120526246E+02  0.10359649299E+03  0.10000000000E+01 0.  0.
    9000005    1    3    3    0    0  0.57204024729E+02  0.25692597457E+02 -0.17030529433E+02  0.64988067690E+02  0.10000000000E+01 0.  0.
          4    1    1    2  501    0 -0.98791803410E+01 -0.28016625879E+02 -0.98011964491E+02  0.10242308145E+03  0.12700000000E+01 0. -1.
<mgrwt>
<rscale>  1 0.12847880E+03</rscale>
<asrwt>0</asrwt>
<pdfrwt beam="2">  1       21 0.36780413E-01 0.12847880E+03</pdfrwt>
<pdfrwt beam="1">  1        4 0.49113845E-02 0.12847880E+03</pdfrwt>
<totfact> 0.70666146E+04</totfact>
</mgrwt>
</event>
<event>
 6    3  0.7601760E-003  0.1269908E+03  0.7818608E-02  0.1231990E+00
         21   -1    0    0  501  502  0.00000000000E+00  0.00000000000E+00  0.28792567711E+03  0.28792567711E+03  0.00000000000E+00 0. -1.
          4   -1    0    0  502    0 -0.00000000000E+00 -0.00000000000E+00 -0.21076590064E+02  0.21114818226E+02  0.12700000000E+01 0. -1.
         25    2    1    2    0    0 -0.28558436361E+01  0.22221927700E+02  0.18659920986E+03  0.22571207521E+03  0.12499882343E+03 0.  0.
    9000005    1    3    3    0    0 -0.38381581705E+02  0.32871619715E+01  0.40193205343E+01  0.38744111625E+02  0.10000000000E+01 0.  0.
    9000005    1    3    3    0    0  0.35525738069E+02  0.18934765728E+02  0.18257988933E+03  0.18696796358E+03  0.10000000000E+01 0.  0.
          4    1    1    2  501    0  0.28558436361E+01 -0.22221927700E+02  0.80249877185E+02  0.83328420132E+02  0.12700000000E+01 0.  1.
<mgrwt>
<rscale>  1 0.12699085E+03</rscale>
<asrwt>0</asrwt>
<pdfrwt beam="1">  1       21 0.44296255E-01 0.12699085E+03</pdfrwt>
<pdfrwt beam="2">  1        4 0.32457086E-02 0.12699085E+03</pdfrwt>
<totfact> 0.93840075E+04</totfact>
</mgrwt>
</event>
<event>
 6    3  0.7601760E-003  0.1289813E+03  0.7818608E-02  0.1228975E+00
          4   -1    0    0  502    0 -0.00000000000E+00  0.00000000000E+00  0.15134113885E+03  0.15134646745E+03  0.12700000000E+01 0. -1.
         21   -1    0    0  501  502  0.00000000000E+00 -0.00000000000E+00 -0.73966385265E+02  0.73966385265E+02  0.00000000000E+00 0.  1.
         25    2    1    2    0    0  0.24759841759E+02 -0.19966663741E+02  0.11723649682E+03  0.17430021801E+03  0.12499780953E+03 0.  0.
    9000005    1    3    3    0    0 -0.92819647559E+01  0.49397062300E+02  0.59166166074E+02  0.77639293154E+02  0.10000000000E+01 0.  0.
    9000005    1    3    3    0    0  0.34041806515E+02 -0.69363726040E+02  0.58070330748E+02  0.96660924857E+02  0.10000000000E+01 0.  0.
          4    1    1    2  501    0 -0.24759841759E+02  0.19966663741E+02 -0.39861743239E+02  0.51012634699E+02  0.12700000000E+01 0.  1.
<mgrwt>
<rscale>  1 0.12898128E+03</rscale>
<asrwt>0</asrwt>
<pdfrwt beam="2">  1       21 0.11379444E-01 0.12898128E+03</pdfrwt>
<pdfrwt beam="1">  1        4 0.23284501E-01 0.12898128E+03</pdfrwt>
<totfact> 0.44390197E+04</totfact>
</mgrwt>
</event>
<event>
 6    3  0.7601760E-003  0.1276397E+03  0.7818608E-02  0.1231001E+00
          4   -1    0    0  502    0 -0.00000000000E+00  0.00000000000E+00  0.28534067899E+02  0.28562316623E+02  0.12700000000E+01 0.  1.
         21   -1    0    0  501  502  0.00000000000E+00 -0.00000000000E+00 -0.26498432750E+03  0.26498432750E+03  0.00000000000E+00 0.  1.
         25    2    1    2    0    0 -0.10795709342E+02  0.23426529114E+02 -0.12323281439E+03  0.17742105518E+03  0.12500621854E+03 0.  0.
    9000005    1    3    3    0    0 -0.71453603060E+01 -0.35410427910E+02  0.48095761758E+01  0.36456640022E+02  0.10000000000E+01 0.  0.
    9000005    1    3    3    0    0 -0.36503490363E+01  0.58836957024E+02 -0.12804239057E+03  0.14096441516E+03  0.10000000000E+01 0.  0.
          4    1    1    2  501    0  0.10795709342E+02 -0.23426529114E+02 -0.11321744522E+03  0.11612558894E+03  0.12700000000E+01 0. -1.
<mgrwt>
<rscale>  1 0.12763974E+03</rscale>
<asrwt>0</asrwt>
<pdfrwt beam="2">  1       21 0.40766820E-01 0.12763974E+03</pdfrwt>
<pdfrwt beam="1">  1        4 0.43922636E-02 0.12763974E+03</pdfrwt>
<totfact> 0.68790882E+04</totfact>
</mgrwt>
</event>
<event>
 6    3  0.7601760E-003  0.1437148E+03  0.7818608E-02  0.1208416E+00
         21   -1    0    0  501  502  0.00000000000E+00  0.00000000000E+00  0.22331128770E+03  0.22331128770E+03  0.00000000000E+00 0.  1.
         -4   -1    0    0    0  501 -0.00000000000E+00 -0.00000000000E+00 -0.11476182138E+03  0.11476884833E+03  0.12700000000E+01 0. -1.
         25    2    1    2    0    0 -0.55711745132E+02 -0.43859278431E+02 -0.59603931461E+02  0.15558462119E+03  0.12500604327E+03 0.  0.
    9000005    1    3    3    0    0 -0.56464826363E+02 -0.33396062779E+02  0.25086010424E+02  0.70241594118E+02  0.10000000000E+01 0.  0.
    9000005    1    3    3    0    0  0.75308123089E+00 -0.10463215653E+02 -0.84689941885E+02  0.85343027071E+02  0.10000000000E+01 0.  0.
         -4    1    1    2    0  502  0.55711745132E+02  0.43859278431E+02  0.16815339778E+03  0.18249551484E+03  0.12700000000E+01 0.  1.
<mgrwt>
<rscale>  1 0.14371481E+03</rscale>
<asrwt>0</asrwt>
<pdfrwt beam="1">  1       21 0.34355583E-01 0.14371481E+03</pdfrwt>
<pdfrwt beam="2">  1       -4 0.17656483E-01 0.14371481E+03</pdfrwt>
<totfact> 0.95155709E+03</totfact>
</mgrwt>
</event>
<event>
 6    3  0.7601760E-003  0.1311893E+03  0.7818608E-02  0.1225702E+00
         21   -1    0    0  501  502  0.00000000000E+00  0.00000000000E+00  0.50459003728E+02  0.50459003728E+02  0.00000000000E+00 0. -1.
          4   -1    0    0  502    0 -0.00000000000E+00 -0.00000000000E+00 -0.24164638502E+03  0.24164972231E+03  0.12700000000E+01 0.  1.
         25    2    1    2    0    0  0.10883774606E+02  0.38314775755E+02 -0.21033690937E+03  0.24789565199E+03  0.12499664092E+03 0.  0.
    9000005    1    3    3    0    0  0.13903524842E+02  0.76473614137E+01  0.14160417429E+02  0.21291020675E+02  0.10000000000E+01 0.  0.
    9000005    1    3    3    0    0 -0.30197502358E+01  0.30667414342E+02 -0.22449732680E+03  0.22660463132E+03  0.10000000000E+01 0.  0.
          4    1    1    2  501    0 -0.10883774606E+02 -0.38314775755E+02  0.19149528081E+02  0.44213074046E+02  0.12700000000E+01 0. -1.
<mgrwt>
<rscale>  1 0.13118932E+03</rscale>
<asrwt>0</asrwt>
<pdfrwt beam="1">  1       21 0.77629237E-02 0.13118932E+03</pdfrwt>
<pdfrwt beam="2">  1        4 0.37177853E-01 0.13118932E+03</pdfrwt>
<totfact> 0.35867590E+04</totfact>
</mgrwt>
</event>
<event>
 6    3  0.7601760E-003  0.1267057E+03  0.7818608E-02  0.1232427E+00
         21   -1    0    0  501  502  0.00000000000E+00  0.00000000000E+00  0.77256836352E+03  0.77256836352E+03  0.00000000000E+00 0.  1.
          4   -1    0    0  502    0 -0.00000000000E+00 -0.00000000000E+00 -0.69846386605E+01  0.70991603178E+01  0.12700000000E+01 0.  1.
         25    2    1    2    0    0  0.19028047122E+02  0.82316247034E+01  0.66436855541E+03  0.67634303667E+03  0.12499799841E+03 0.  0.
    9000005    1    3    3    0    0  0.71188196985E+02  0.17978754318E+02  0.36658496828E+03  0.37386700037E+03  0.10000000000E+01 0.  0.
    9000005    1    3    3    0    0 -0.52160149863E+02 -0.97471296143E+01  0.29778358714E+03  0.30247603630E+03  0.10000000000E+01 0.  0.
          4    1    1    2  501    0 -0.19028047122E+02 -0.82316247034E+01  0.10121516944E+03  0.10332448717E+03  0.12700000000E+01 0. -1.
<mgrwt>
<rscale>  1 0.12670567E+03</rscale>
<asrwt>0</asrwt>
<pdfrwt beam="1">  1       21 0.11885660E+00 0.12670567E+03</pdfrwt>
<pdfrwt beam="2">  1        4 0.10834501E-02 0.12670567E+03</pdfrwt>
<totfact> 0.57415165E+04</totfact>
</mgrwt>
</event>
<event>
 6    3  0.7601760E-003  0.1270282E+03  0.7818608E-02  0.1231933E+00
         21   -1    0    0  501  502  0.00000000000E+00  0.00000000000E+00  0.25149764161E+02  0.25149764161E+02  0.00000000000E+00 0.  1.
         -4   -1    0    0    0  501 -0.00000000000E+00 -0.00000000000E+00 -0.23089190275E+03  0.23089539549E+03  0.12700000000E+01 0.  1.
         25    2    1    2    0    0 -0.23010778496E+01 -0.22477382583E+02 -0.15441435163E+03  0.19994986304E+03  0.12500251219E+03 0.  0.
    9000005    1    3    3    0    0  0.11143304652E+02  0.47200258484E+02 -0.30948093024E+02  0.57539743668E+02  0.10000000000E+01 0.  0.
    9000005    1    3    3    0    0 -0.13444382501E+02 -0.69677641067E+02 -0.12346625860E+03  0.14241011937E+03  0.10000000000E+01 0.  0.
         -4    1    1    2    0  502  0.23010778496E+01  0.22477382583E+02 -0.51327786965E+02  0.56095296611E+02  0.12700000000E+01 0. -1.
<mgrwt>
<rscale>  1 0.12702817E+03</rscale>
<asrwt>0</asrwt>
<pdfrwt beam="1">  1       21 0.38691947E-02 0.12702817E+03</pdfrwt>
<pdfrwt beam="2">  1       -4 0.35524564E-01 0.12702817E+03</pdfrwt>
<totfact> 0.12636183E+05</totfact>
</mgrwt>
</event>
<event>
 6    3  0.7601760E-003  0.1281715E+03  0.7818608E-02  0.1230194E+00
         21   -1    0    0  501  502  0.00000000000E+00  0.00000000000E+00  0.15141020696E+03  0.15141020696E+03  0.00000000000E+00 0.  1.
         -4   -1    0    0    0  501 -0.00000000000E+00 -0.00000000000E+00 -0.73020638122E+02  0.73031681425E+02  0.12700000000E+01 0.  1.
         25    2    1    2    0    0 -0.14527679344E+02 -0.24344450931E+02 -0.12922910220E+02  0.12882134933E+03  0.12499693066E+03 0.  0.
    9000005    1    3    3    0    0 -0.46375702349E+02 -0.15159197614E+02  0.42184278987E+02  0.64505972082E+02  0.10000000000E+01 0.  0.
    9000005    1    3    3    0    0  0.31848023004E+02 -0.91852533167E+01 -0.55107189207E+02  0.64315377244E+02  0.10000000000E+01 0.  0.
         -4    1    1    2    0  502  0.14527679344E+02  0.24344450931E+02  0.91312479063E+02  0.95620539064E+02  0.12700000000E+01 0. -1.
<mgrwt>
<rscale>  1 0.12817152E+03</rscale>
<asrwt>0</asrwt>
<pdfrwt beam="1">  1       21 0.23293878E-01 0.12817152E+03</pdfrwt>
<pdfrwt beam="2">  1       -4 0.11235204E-01 0.12817152E+03</pdfrwt>
<totfact> 0.43502200E+04</totfact>
</mgrwt>
</event>
<event>
 6    3  0.7601760E-003  0.1280341E+03  0.7818608E-02  0.1230402E+00
         21   -1    0    0  501  502  0.00000000000E+00  0.00000000000E+00  0.26813052422E+03  0.26813052422E+03  0.00000000000E+00 0. -1.
          4   -1    0    0  502    0 -0.00000000000E+00 -0.00000000000E+00 -0.71426703494E+02  0.71437993197E+02  0.12700000000E+01 0.  1.
         25    2    1    2    0    0  0.37229660906E+01 -0.27421048357E+02 -0.12404178603E+02  0.12863359226E+03  0.12500785191E+03 0.  0.
    9000005    1    3    3    0    0  0.42057575162E+02 -0.52842414001E+02  0.22162376366E+02  0.71086786903E+02  0.10000000000E+01 0.  0.
    9000005    1    3    3    0    0 -0.38334609071E+02  0.25421365645E+02 -0.34566554969E+02  0.57546805352E+02  0.10000000000E+01 0.  0.
          4    1    1    2  501    0 -0.37229660906E+01  0.27421048357E+02  0.20910799933E+03  0.21093492516E+03  0.12700000000E+01 0. -1.
<mgrwt>
<rscale>  1 0.12803413E+03</rscale>
<asrwt>0</asrwt>
<pdfrwt beam="1">  1       21 0.41250849E-01 0.12803413E+03</pdfrwt>
<pdfrwt beam="2">  1        4 0.10989824E-01 0.12803413E+03</pdfrwt>
<totfact> 0.14924163E+04</totfact>
</mgrwt>
</event>
<event>
 6    3  0.7601760E-003  0.1273663E+03  0.7818608E-02  0.1231417E+00
         21   -1    0    0  501  502  0.00000000000E+00  0.00000000000E+00  0.50738538792E+01  0.50738538792E+01  0.00000000000E+00 0. -1.
          4   -1    0    0  502    0 -0.00000000000E+00 -0.00000000000E+00 -0.17015327054E+04  0.17015331793E+04  0.12700000000E+01 0. -1.
         25    2    1    2    0    0  0.23699312629E+02 -0.59307444684E+01 -0.16416879925E+04  0.16466212762E+04  0.12500132540E+03 0.  0.
    9000005    1    3    3    0    0 -0.30063851896E+02 -0.30735694454E+02 -0.24986083919E+03  0.25353492277E+03  0.10000000000E+01 0.  0.
    9000005    1    3    3    0    0  0.53763164525E+02  0.24804949985E+02 -0.13918271533E+04  0.13930863534E+04  0.10000000000E+01 0.  0.
          4    1    1    2  501    0 -0.23699312629E+02  0.59307444684E+01 -0.54770858967E+02  0.59985756984E+02  0.12700000000E+01 0.  1.
<mgrwt>
<rscale>  1 0.12736625E+03</rscale>
<asrwt>0</asrwt>
<pdfrwt beam="1">  1       21 0.78059274E-03 0.12736625E+03</pdfrwt>
<pdfrwt beam="2">  1        4 0.26178658E+00 0.12736625E+03</pdfrwt>
<totfact> 0.14109697E+04</totfact>
</mgrwt>
</event>
<event>
 6    3  0.7601760E-003  0.1286585E+03  0.7818608E-02  0.1229460E+00
          4   -1    0    0  502    0 -0.00000000000E+00  0.00000000000E+00  0.11804488573E+03  0.11805171726E+03  0.12700000000E+01 0.  1.
         21   -1    0    0  501  502  0.00000000000E+00 -0.00000000000E+00 -0.65030146172E+02  0.65030146172E+02  0.00000000000E+00 0.  1.
         25    2    1    2    0    0 -0.30019596972E+02 -0.51698817254E+01  0.71734741186E+02  0.14730540133E+03  0.12500041716E+03 0.  0.
    9000005    1    3    3    0    0 -0.69796756097E+02  0.29087922920E+02  0.35709158654E+02  0.83629172143E+02  0.10000000000E+01 0.  0.
    9000005    1    3    3    0    0  0.39777159125E+02 -0.34257804646E+02  0.36025582532E+02  0.63676229191E+02  0.10000000000E+01 0.  0.
          4    1    1    2  501    0  0.30019596972E+02  0.51698817254E+01 -0.18720001623E+02  0.35776462098E+02  0.12700000000E+01 0. -1.
<mgrwt>
<rscale>  1 0.12865849E+03</rscale>
<asrwt>0</asrwt>
<pdfrwt beam="2">  1       21 0.10004638E-01 0.12865849E+03</pdfrwt>
<pdfrwt beam="1">  1        4 0.18162231E-01 0.12865849E+03</pdfrwt>
<totfact> 0.87079055E+04</totfact>
</mgrwt>
</event>
<event>
 6    3  0.7601760E-003  0.1269329E+03  0.7818608E-02  0.1232079E+00
          4   -1    0    0  502    0 -0.00000000000E+00  0.00000000000E+00  0.10053509356E+02  0.10133407638E+02  0.12700000000E+01 0.  1.
         21   -1    0    0  501  502  0.00000000000E+00 -0.00000000000E+00 -0.55013664413E+03  0.55013664413E+03  0.00000000000E+00 0.  1.
         25    2    1    2    0    0 -0.21490918844E+02  0.49778442085E+01 -0.45765919931E+03  0.47493567087E+03  0.12500124090E+03 0.  0.
    9000005    1    3    3    0    0  0.49634754769E+02  0.33040581371E+01 -0.12082290865E+03  0.13066637262E+03  0.10000000000E+01 0.  0.
    9000005    1    3    3    0    0 -0.71125673613E+02  0.16737860715E+01 -0.33683629066E+03  0.34426929824E+03  0.10000000000E+01 0.  0.
          4    1    1    2  501    0  0.21490918844E+02 -0.49778442085E+01 -0.82423935467E+02  0.85334380900E+02  0.12700000000E+01 0. -1.
<mgrwt>
<rscale>  1 0.12693285E+03</rscale>
<asrwt>0</asrwt>
<pdfrwt beam="2">  1       21 0.84636398E-01 0.12693285E+03</pdfrwt>
<pdfrwt beam="1">  1        4 0.15529527E-02 0.12693285E+03</pdfrwt>
<totfact> 0.73675037E+04</totfact>
</mgrwt>
</event>
<event>
 6    3  0.7601760E-003  0.1405426E+03  0.7818608E-02  0.1212601E+00
         21   -1    0    0  501  502  0.00000000000E+00  0.00000000000E+00  0.58946821828E+03  0.58946821828E+03  0.00000000000E+00 0.  1.
         -4   -1    0    0    0  501 -0.00000000000E+00 -0.00000000000E+00 -0.21072547513E+02  0.21110782995E+02  0.12700000000E+01 0. -1.
         25    2    1    2    0    0 -0.50018161786E+02 -0.40307529694E+02  0.25992512403E+03  0.29548821347E+03  0.12500280291E+03 0.  0.
    9000005    1    3    3    0    0 -0.68139655380E+02 -0.69754572833E+02  0.13958483468E+03  0.17027518650E+03  0.10000000000E+01 0.  0.
    9000005    1    3    3    0    0  0.18121493594E+02  0.29447043140E+02  0.12034028935E+03  0.12521302696E+03  0.10000000000E+01 0.  0.
         -4    1    1    2    0  502  0.50018161786E+02  0.40307529694E+02  0.30847054674E+03  0.31509078781E+03  0.12700000000E+01 0.  1.
<mgrwt>
<rscale>  1 0.14054257E+03</rscale>
<asrwt>0</asrwt>
<pdfrwt beam="1">  1       21 0.90687406E-01 0.14054257E+03</pdfrwt>
<pdfrwt beam="2">  1       -4 0.32449773E-02 0.14054257E+03</pdfrwt>
<totfact> 0.20316627E+04</totfact>
</mgrwt>
</event>
<event>
 6    3  0.7601760E-003  0.1330324E+03  0.7818608E-02  0.1223024E+00
         -4   -1    0    0    0  501 -0.00000000000E+00  0.00000000000E+00  0.40544207097E+03  0.40544406003E+03  0.12700000000E+01 0. -1.
         21   -1    0    0  501  502  0.00000000000E+00 -0.00000000000E+00 -0.26808023830E+02  0.26808023830E+02  0.00000000000E+00 0.  1.
         25    2    1    2    0    0 -0.26987143540E+02  0.36665636207E+02  0.35862869344E+03  0.38250771864E+03  0.12499976104E+03 0.  0.
    9000005    1    3    3    0    0 -0.31198806630E+02  0.78715168160E+02  0.28804681312E+03  0.30023559046E+03  0.10000000000E+01 0.  0.
    9000005    1    3    3    0    0  0.42116630898E+01 -0.42049531953E+02  0.70581880325E+02  0.82272128171E+02  0.10000000000E+01 0.  0.
         -4    1    1    2    0  502  0.26987143540E+02 -0.36665636207E+02  0.20005353694E+02  0.49744365222E+02  0.12700000000E+01 0.  1.
<mgrwt>
<rscale>  1 0.13303238E+03</rscale>
<asrwt>0</asrwt>
<pdfrwt beam="2">  1       21 0.41243117E-02 0.13303238E+03</pdfrwt>
<pdfrwt beam="1">  1       -4 0.62378166E-01 0.13303238E+03</pdfrwt>
<totfact> 0.36727154E+04</totfact>
</mgrwt>
</event>
<event>
 6    3  0.7601760E-003  0.1284979E+03  0.7818608E-02  0.1229702E+00
          4   -1    0    0  502    0 -0.00000000000E+00  0.00000000000E+00  0.51030903719E+03  0.51031061751E+03  0.12700000000E+01 0. -1.
         21   -1    0    0  501  502  0.00000000000E+00 -0.00000000000E+00 -0.15913038542E+03  0.15913038542E+03  0.00000000000E+00 0.  1.
         25    2    1    2    0    0  0.25929649114E+02  0.14634484723E+02  0.50072716717E+03  0.51695203216E+03  0.12500077109E+03 0.  0.
    9000005    1    3    3    0    0  0.43364962439E+02 -0.21616072998E+02  0.44805734877E+03  0.45067079156E+03  0.10000000000E+01 0.  0.
    9000005    1    3    3    0    0 -0.17435313325E+02  0.36250557721E+02  0.52669818397E+02  0.66281240602E+02  0.10000000000E+01 0.  0.
          4    1    1    2  501    0 -0.25929649114E+02 -0.14634484723E+02 -0.14954851540E+03  0.15248897076E+03  0.12700000000E+01 0.  1.
<mgrwt>
<rscale>  1 0.12849789E+03</rscale>
<asrwt>0</asrwt>
<pdfrwt beam="2">  1       21 0.24481598E-01 0.12849789E+03</pdfrwt>
<pdfrwt beam="1">  1        4 0.78509593E-01 0.12849789E+03</pdfrwt>
<totfact> 0.97310431E+02</totfact>
</mgrwt>
</event>
<event>
 6    3  0.7601760E-003  0.1275913E+03  0.7818608E-02  0.1231074E+00
         21   -1    0    0  501  502  0.00000000000E+00  0.00000000000E+00  0.42509308448E+03  0.42509308448E+03  0.00000000000E+00 0. -1.
         -4   -1    0    0    0  501 -0.00000000000E+00 -0.00000000000E+00 -0.16041068831E+02  0.16091264376E+02  0.12700000000E+01 0. -1.
         25    2    1    2    0    0  0.17069028975E+02 -0.19079671422E+02  0.25636561961E+03  0.28636143697E+03  0.12499662415E+03 0.  0.
    9000005    1    3    3    0    0  0.32495341432E+02  0.38952918350E+00  0.25929856474E+03  0.26132899691E+03  0.10000000000E+01 0.  0.
    9000005    1    3    3    0    0 -0.15426312457E+02 -0.19469200606E+02 -0.29329451262E+01  0.25032440060E+02  0.10000000000E+01 0.  0.
         -4    1    1    2    0  502 -0.17069028975E+02  0.19079671422E+02  0.15268639603E+03  0.15482291189E+03  0.12700000000E+01 0.  1.
<mgrwt>
<rscale>  1 0.12759131E+03</rscale>
<asrwt>0</asrwt>
<pdfrwt beam="1">  1       21 0.65398928E-01 0.12759131E+03</pdfrwt>
<pdfrwt beam="2">  1       -4 0.24718642E-02 0.12759131E+03</pdfrwt>
<totfact> 0.63686003E+04</totfact>
</mgrwt>
</event>
<event>
 6    3  0.7601760E-003  0.1279844E+03  0.7818608E-02  0.1230478E+00
         -4   -1    0    0    0  501 -0.00000000000E+00  0.00000000000E+00  0.43606332925E+02  0.43624822879E+02  0.12700000000E+01 0. -1.
         21   -1    0    0  501  502  0.00000000000E+00 -0.00000000000E+00 -0.27177755605E+03  0.27177755605E+03  0.00000000000E+00 0.  1.
         25    2    1    2    0    0  0.10554889678E+02 -0.25367527547E+02 -0.53728786875E+02  0.13880483190E+03  0.12500032668E+03 0.  0.
    9000005    1    3    3    0    0  0.62115841380E+02 -0.39583007702E+02 -0.23288892878E+02  0.77256486980E+02  0.10000000000E+01 0.  0.
    9000005    1    3    3    0    0 -0.51560951702E+02  0.14215480156E+02 -0.30439893996E+02  0.61548344925E+02  0.10000000000E+01 0.  0.
         -4    1    1    2    0  502 -0.10554889678E+02  0.25367527547E+02 -0.17444243625E+03  0.17659754703E+03  0.12700000000E+01 0.  1.
<mgrwt>
<rscale>  1 0.12798437E+03</rscale>
<asrwt>0</asrwt>
<pdfrwt beam="2">  1       21 0.41811931E-01 0.12798437E+03</pdfrwt>
<pdfrwt beam="1">  1       -4 0.67103172E-02 0.12798437E+03</pdfrwt>
<totfact> 0.33004763E+04</totfact>
</mgrwt>
</event>
<event>
 6    3  0.7601760E-003  0.1275231E+03  0.7818608E-02  0.1231178E+00
          4   -1    0    0  502    0 -0.00000000000E+00  0.00000000000E+00  0.13118137476E+04  0.13118143624E+04  0.12700000000E+01 0.  1.
         21   -1    0    0  501  502  0.00000000000E+00 -0.00000000000E+00 -0.44617729870E+01  0.44617729870E+01  0.00000000000E+00 0.  1.
         25    2    1    2    0    0  0.24884849945E+02  0.41404620190E+01  0.11169003200E+04  0.11241567849E+04  0.12500301185E+03 0.  0.
    9000005    1    3    3    0    0 -0.45876008983E+02 -0.17612571061E+02  0.59571846347E+03  0.59774266920E+03  0.10000000000E+01 0.  0.
    9000005    1    3    3    0    0  0.70760858928E+02  0.21753033080E+02  0.52118185652E+03  0.52641411567E+03  0.10000000000E+01 0.  0.
          4    1    1    2  501    0 -0.24884849945E+02 -0.41404620190E+01  0.19045165464E+03  0.19211935050E+03  0.12700000000E+01 0. -1.
<mgrwt>
<rscale>  1 0.12752314E+03</rscale>
<asrwt>0</asrwt>
<pdfrwt beam="2">  1       21 0.68642766E-03 0.12752314E+03</pdfrwt>
<pdfrwt beam="1">  1        4 0.20183114E+00 0.12752314E+03</pdfrwt>
<totfact> 0.38847011E+04</totfact>
</mgrwt>
</event>
<event>
 6    3  0.7601760E-003  0.1285831E+03  0.7818608E-02  0.1229573E+00
         21   -1    0    0  501  502  0.00000000000E+00  0.00000000000E+00  0.25581407971E+02  0.25581407971E+02  0.00000000000E+00 0.  1.
          4   -1    0    0  502    0 -0.00000000000E+00 -0.00000000000E+00 -0.25359641182E+03  0.25359959186E+03  0.12700000000E+01 0.  1.
         25    2    1    2    0    0  0.30212628157E+02  0.20081993628E+01 -0.20084338897E+03  0.23847786333E+03  0.12496715026E+03 0.  0.
    9000005    1    3    3    0    0  0.16550951433E+02  0.51699187428E+02 -0.34489780030E+02  0.64321729615E+02  0.10000000000E+01 0.  0.
    9000005    1    3    3    0    0  0.13661676724E+02 -0.49690988066E+02 -0.16635360894E+03  0.17415613372E+03  0.10000000000E+01 0.  0.
          4    1    1    2  501    0 -0.30212628157E+02 -0.20081993628E+01 -0.27171614886E+02  0.40703136493E+02  0.12700000000E+01 0. -1.
<mgrwt>
<rscale>  1 0.12858314E+03</rscale>
<asrwt>0</asrwt>
<pdfrwt beam="1">  1       21 0.39356014E-02 0.12858314E+03</pdfrwt>
<pdfrwt beam="2">  1        4 0.39017501E-01 0.12858314E+03</pdfrwt>
<totfact> 0.10255434E+05</totfact>
</mgrwt>
</event>
<event>
 6    3  0.7601760E-003  0.1496747E+03  0.7818608E-02  0.1200873E+00
         -4   -1    0    0    0  501 -0.00000000000E+00  0.00000000000E+00  0.48756174188E+02  0.48772711852E+02  0.12700000000E+01 0.  1.
         21   -1    0    0  501  502  0.00000000000E+00 -0.00000000000E+00 -0.31858998013E+03  0.31858998013E+03  0.00000000000E+00 0. -1.
         25    2    1    2    0    0 -0.79146927011E+02  0.22642325170E+02 -0.10413441399E+03  0.18233617405E+03  0.12500237296E+03 0.  0.
    9000005    1    3    3    0    0 -0.80033725040E+02 -0.19274917024E+02 -0.14800626114E+02  0.83647941418E+02  0.10000000000E+01 0.  0.
    9000005    1    3    3    0    0  0.88679802864E+00  0.41917242195E+02 -0.89333787876E+02  0.98688232633E+02  0.10000000000E+01 0.  0.
         -4    1    1    2    0  502  0.79146927011E+02 -0.22642325170E+02 -0.16569939195E+03  0.18502651793E+03  0.12700000000E+01 0. -1.
<mgrwt>
<rscale>  1 0.14967466E+03</rscale>
<asrwt>0</asrwt>
<pdfrwt beam="2">  1       21 0.49013844E-01 0.14967466E+03</pdfrwt>
<pdfrwt beam="1">  1       -4 0.75024167E-02 0.14967466E+03</pdfrwt>
<totfact> 0.20164484E+04</totfact>
</mgrwt>
</event>
<event>
 6    3  0.7601760E-003  0.1288399E+03  0.7818608E-02  0.1229187E+00
         21   -1    0    0  501  502  0.00000000000E+00  0.00000000000E+00  0.14241569730E+02  0.14241569730E+02  0.00000000000E+00 0.  1.
          4   -1    0    0  502    0 -0.00000000000E+00 -0.00000000000E+00 -0.44974317750E+03  0.44974497063E+03  0.12700000000E+01 0.  1.
         25    2    1    2    0    0  0.31157623068E+02  0.27195432942E+00 -0.34626685308E+03  0.36945968820E+03  0.12501542397E+03 0.  0.
    9000005    1    3    3    0    0  0.54092412458E+02 -0.16767835678E+02 -0.33328007091E+03  0.33805880416E+03  0.10000000000E+01 0.  0.
    9000005    1    3    3    0    0 -0.22934789390E+02  0.17039790008E+02 -0.12986782166E+02  0.31400884046E+02  0.10000000000E+01 0.  0.
          4    1    1    2  501    0 -0.31157623068E+02 -0.27195432942E+00 -0.89234754692E+02  0.94526852160E+02  0.12700000000E+01 0. -1.
<mgrwt>
<rscale>  1 0.12883993E+03</rscale>
<asrwt>0</asrwt>
<pdfrwt beam="1">  1       21 0.21910108E-02 0.12883993E+03</pdfrwt>
<pdfrwt beam="2">  1        4 0.69195750E-01 0.12883993E+03</pdfrwt>
<totfact> 0.82773038E+04</totfact>
</mgrwt>
</event>
<event>
 6    3  0.7601760E-003  0.1309289E+03  0.7818608E-02  0.1226084E+00
         21   -1    0    0  501  502  0.00000000000E+00  0.00000000000E+00  0.43541922211E+03  0.43541922211E+03  0.00000000000E+00 0.  1.
          4   -1    0    0  502    0 -0.00000000000E+00 -0.00000000000E+00 -0.10233470539E+03  0.10234258560E+03  0.12700000000E+01 0. -1.
         25    2    1    2    0    0 -0.38951222822E+02  0.95720236426E+00 -0.59096453248E+02  0.14364806765E+03  0.12499705020E+03 0.  0.
    9000005    1    3    3    0    0 -0.71779943818E+02 -0.33158542086E+02 -0.54568585669E+02  0.96075906396E+02  0.10000000000E+01 0.  0.
    9000005    1    3    3    0    0  0.32828720996E+02  0.34115744451E+02 -0.45278675789E+01  0.47572161255E+02  0.10000000000E+01 0.  0.
          4    1    1    2  501    0  0.38951222822E+02 -0.95720236426E+00  0.39218096997E+03  0.39411374006E+03  0.12700000000E+01 0.  1.
<mgrwt>
<rscale>  1 0.13092890E+03</rscale>
<asrwt>0</asrwt>
<pdfrwt beam="1">  1       21 0.66987572E-01 0.13092890E+03</pdfrwt>
<pdfrwt beam="2">  1        4 0.15744550E-01 0.13092890E+03</pdfrwt>
<totfact> 0.29321729E+03</totfact>
</mgrwt>
</event>
<event>
 6    3  0.7601760E-003  0.1313094E+03  0.7818608E-02  0.1225526E+00
         21   -1    0    0  501  502  0.00000000000E+00  0.00000000000E+00  0.64408994875E+03  0.64408994875E+03  0.00000000000E+00 0. -1.
          4   -1    0    0  502    0 -0.00000000000E+00 -0.00000000000E+00 -0.11505578377E+02  0.11575458254E+02  0.12700000000E+01 0. -1.
         25    2    1    2    0    0 -0.22965277479E+02  0.33012484304E+02  0.51075571508E+03  0.52736473576E+03  0.12499974381E+03 0.  0.
    9000005    1    3    3    0    0 -0.51195792464E+01 -0.46671286044E+02  0.24041968678E+03  0.24496335404E+03  0.10000000000E+01 0.  0.
    9000005    1    3    3    0    0 -0.17845698233E+02  0.79683770348E+02  0.27033602830E+03  0.28240138172E+03  0.10000000000E+01 0.  0.
          4    1    1    2  501    0  0.22965277479E+02 -0.33012484304E+02  0.12182865529E+03  0.12830067124E+03  0.12700000000E+01 0.  1.
<mgrwt>
<rscale>  1 0.13130942E+03</rscale>
<asrwt>0</asrwt>
<pdfrwt beam="1">  1       21 0.99090734E-01 0.13130942E+03</pdfrwt>
<pdfrwt beam="2">  1        4 0.17755612E-02 0.13130942E+03</pdfrwt>
<totfact> 0.41948730E+04</totfact>
</mgrwt>
</event>
<event>
 6    3  0.7601760E-003  0.1279730E+03  0.7818608E-02  0.1230495E+00
          4   -1    0    0  502    0 -0.00000000000E+00  0.00000000000E+00  0.18407369354E+03  0.18407807461E+03  0.12700000000E+01 0. -1.
         21   -1    0    0  501  502  0.00000000000E+00 -0.00000000000E+00 -0.92831304816E+02  0.92831304816E+02  0.00000000000E+00 0.  1.
         25    2    1    2    0    0  0.18486123431E+02  0.20263735205E+02  0.15882193404E+03  0.20396444424E+03  0.12499892823E+03 0.  0.
    9000005    1    3    3    0    0 -0.38914350048E+02 -0.18861495453E+02  0.17832883450E+02  0.46787758896E+02  0.10000000000E+01 0.  0.
    9000005    1    3    3    0    0  0.57400473479E+02  0.39125230658E+02  0.14098905059E+03  0.15717668535E+03  0.10000000000E+01 0.  0.
          4    1    1    2  501    0 -0.18486123431E+02 -0.20263735205E+02 -0.67579545319E+02  0.72944935187E+02  0.12700000000E+01 0.  1.
<mgrwt>
<rscale>  1 0.12797300E+03</rscale>
<asrwt>0</asrwt>
<pdfrwt beam="2">  1       21 0.14281739E-01 0.12797300E+03</pdfrwt>
<pdfrwt beam="1">  1        4 0.28320035E-01 0.12797300E+03</pdfrwt>
<totfact> 0.20605120E+04</totfact>
</mgrwt>
</event>
<event>
 6    3  0.7601760E-003  0.1345394E+03  0.7818608E-02  0.1220871E+00
         21   -1    0    0  501  502  0.00000000000E+00  0.00000000000E+00  0.43765818210E+02  0.43765818210E+02  0.00000000000E+00 0. -1.
         -4   -1    0    0    0  501 -0.00000000000E+00 -0.00000000000E+00 -0.36087721125E+03  0.36087944593E+03  0.12700000000E+01 0.  1.
         25    2    1    2    0    0  0.42985266872E+02 -0.25055879917E+02 -0.32727258997E+03  0.35384769423E+03  0.12500124909E+03 0.  0.
    9000005    1    3    3    0    0 -0.38605608231E+02  0.11487194769E+02 -0.62255821365E+02  0.74156159045E+02  0.10000000000E+01 0.  0.
    9000005    1    3    3    0    0  0.81590875104E+02 -0.36543074686E+02 -0.26501676861E+03  0.27969153518E+03  0.10000000000E+01 0.  0.
         -4    1    1    2    0  502 -0.42985266872E+02  0.25055879917E+02  0.10161196936E+02  0.50797569919E+02  0.12700000000E+01 0. -1.
<mgrwt>
<rscale>  1 0.13453937E+03</rscale>
<asrwt>0</asrwt>
<pdfrwt beam="1">  1       21 0.67332028E-02 0.13453937E+03</pdfrwt>
<pdfrwt beam="2">  1       -4 0.55521161E-01 0.13453937E+03</pdfrwt>
<totfact> 0.20533101E+04</totfact>
</mgrwt>
</event>
<event>
 6    3  0.7601760E-003  0.1318437E+03  0.7818608E-02  0.1224745E+00
          4   -1    0    0  502    0 -0.00000000000E+00  0.00000000000E+00  0.27491328998E+03  0.27491622344E+03  0.12700000000E+01 0.  1.
         21   -1    0    0  501  502  0.00000000000E+00 -0.00000000000E+00 -0.61404907216E+02  0.61404907216E+02  0.00000000000E+00 0. -1.
         25    2    1    2    0    0 -0.26925728784E+02  0.32140859234E+02  0.24875248571E+03  0.28153254247E+03  0.12499897448E+03 0.  0.
    9000005    1    3    3    0    0 -0.61982288436E+02 -0.17070806951E+02  0.82226879285E+02  0.10438139780E+03  0.10000000000E+01 0.  0.
    9000005    1    3    3    0    0  0.35056559652E+02  0.49211666184E+02  0.16652560642E+03  0.17715114467E+03  0.10000000000E+01 0.  0.
          4    1    1    2  501    0  0.26925728784E+02 -0.32140859234E+02 -0.35244102942E+02  0.54788588182E+02  0.12700000000E+01 0. -1.
<mgrwt>
<rscale>  1 0.13184375E+03</rscale>
<asrwt>0</asrwt>
<pdfrwt beam="2">  1       21 0.94469089E-02 0.13184375E+03</pdfrwt>
<pdfrwt beam="1">  1        4 0.42295588E-01 0.13184375E+03</pdfrwt>
<totfact> 0.19825998E+04</totfact>
</mgrwt>
</event>
<event>
 6    3  0.7601760E-003  0.1425773E+03  0.7818608E-02  0.1209902E+00
          4   -1    0    0  502    0 -0.00000000000E+00  0.00000000000E+00  0.46299201040E+03  0.46299375222E+03  0.12700000000E+01 0. -1.
         21   -1    0    0  501  502  0.00000000000E+00 -0.00000000000E+00 -0.27373019833E+02  0.27373019833E+02  0.00000000000E+00 0.  1.
         25    2    1    2    0    0  0.11723260114E+02 -0.67557270479E+02  0.36532491761E+03  0.39216142997E+03  0.12500748818E+03 0.  0.
    9000005    1    3    3    0    0 -0.10609002179E+02  0.24322382460E+02  0.19958649794E+03  0.20134522437E+03  0.10000000000E+01 0.  0.
    9000005    1    3    3    0    0  0.22332262293E+02 -0.91879652939E+02  0.16573841968E+03  0.19081620560E+03  0.10000000000E+01 0.  0.
          4    1    1    2  501    0 -0.11723260114E+02  0.67557270479E+02  0.70294072959E+02  0.98205342092E+02  0.12700000000E+01 0.  1.
<mgrwt>
<rscale>  1 0.14257732E+03</rscale>
<asrwt>0</asrwt>
<pdfrwt beam="2">  1       21 0.42112342E-02 0.14257732E+03</pdfrwt>
<pdfrwt beam="1">  1        4 0.71231934E-01 0.14257732E+03</pdfrwt>
<totfact> 0.26914366E+04</totfact>
</mgrwt>
</event>
<event>
 6    3  0.7601760E-003  0.1364500E+03  0.7818608E-02  0.1218187E+00
         21   -1    0    0  501  502  0.00000000000E+00  0.00000000000E+00  0.13178338497E+03  0.13178338497E+03  0.00000000000E+00 0.  1.
         -4   -1    0    0    0  501 -0.00000000000E+00 -0.00000000000E+00 -0.84242130995E+02  0.84251703452E+02  0.12700000000E+01 0. -1.
         25    2    1    2    0    0 -0.20165004441E+02  0.50887930389E+02 -0.97374142022E+01  0.13679704458E+03  0.12498962080E+03 0.  0.
    9000005    1    3    3    0    0 -0.47474683627E+02  0.39138821833E+02 -0.55067686107E+02  0.82578102503E+02  0.10000000000E+01 0.  0.
    9000005    1    3    3    0    0  0.27309679187E+02  0.11749108556E+02  0.45330271904E+02  0.54218942078E+02  0.10000000000E+01 0.  0.
         -4    1    1    2    0  502  0.20165004441E+02 -0.50887930389E+02  0.57278668175E+02  0.79238043838E+02  0.12700000000E+01 0.  1.
<mgrwt>
<rscale>  1 0.13645004E+03</rscale>
<asrwt>0</asrwt>
<pdfrwt beam="1">  1       21 0.20274367E-01 0.13645004E+03</pdfrwt>
<pdfrwt beam="2">  1       -4 0.12961535E-01 0.13645004E+03</pdfrwt>
<totfact> 0.44452747E+04</totfact>
</mgrwt>
</event>
<event>
 6    3  0.7601760E-003  0.1270461E+03  0.7818608E-02  0.1231906E+00
          4   -1    0    0  502    0 -0.00000000000E+00  0.00000000000E+00  0.26055744828E+03  0.26056054335E+03  0.12700000000E+01 0.  1.
         21   -1    0    0  501  502  0.00000000000E+00 -0.00000000000E+00 -0.25312568132E+02  0.25312568132E+02  0.00000000000E+00 0.  1.
         25    2    1    2    0    0 -0.17923829629E+02 -0.13983271522E+02  0.22961466143E+03  0.26241873420E+03  0.12499561499E+03 0.  0.
    9000005    1    3    3    0    0 -0.64349011144E+02 -0.13581835872E+02  0.19105125736E+03  0.20205653773E+03  0.10000000000E+01 0.  0.
    9000005    1    3    3    0    0  0.46425181514E+02 -0.40143565025E+00  0.38563404062E+02  0.60362196465E+02  0.10000000000E+01 0.  0.
          4    1    1    2  501    0  0.17923829629E+02  0.13983271522E+02  0.56302187184E+01  0.23454377286E+02  0.12700000000E+01 0. -1.
<mgrwt>
<rscale>  1 0.12704605E+03</rscale>
<asrwt>0</asrwt>
<pdfrwt beam="2">  1       21 0.38942414E-02 0.12704605E+03</pdfrwt>
<pdfrwt beam="1">  1        4 0.40088448E-01 0.12704605E+03</pdfrwt>
<totfact> 0.98790285E+04</totfact>
</mgrwt>
</event>
<event>
 6    3  0.7601760E-003  0.1273867E+03  0.7818608E-02  0.1231386E+00
         21   -1    0    0  501  502  0.00000000000E+00  0.00000000000E+00  0.26077308644E+02  0.26077308644E+02  0.00000000000E+00 0.  1.
         -4   -1    0    0    0  501 -0.00000000000E+00 -0.00000000000E+00 -0.32267538607E+03  0.32267788532E+03  0.12700000000E+01 0.  1.
         25    2    1    2    0    0  0.24539868968E+02 -0.14168524966E+00 -0.29805798925E+03  0.32413874649E+03  0.12500054711E+03 0.  0.
    9000005    1    3    3    0    0 -0.31565283804E+02  0.42243057695E+02 -0.17061358196E+03  0.17858005884E+03  0.10000000000E+01 0.  0.
    9000005    1    3    3    0    0  0.56105152772E+02 -0.42384742944E+02 -0.12744440730E+03  0.14555868766E+03  0.10000000000E+01 0.  0.
         -4    1    1    2    0  502 -0.24539868968E+02  0.14168524966E+00  0.14599118259E+01  0.24616447474E+02  0.12700000000E+01 0. -1.
<mgrwt>
<rscale>  1 0.12738666E+03</rscale>
<asrwt>0</asrwt>
<pdfrwt beam="1">  1       21 0.40118936E-02 0.12738666E+03</pdfrwt>
<pdfrwt beam="2">  1       -4 0.49644938E-01 0.12738666E+03</pdfrwt>
<totfact> 0.61359889E+04</totfact>
</mgrwt>
</event>
<event>
 6    3  0.7601760E-003  0.1359830E+03  0.7818608E-02  0.1218839E+00
          4   -1    0    0  502    0 -0.00000000000E+00  0.00000000000E+00  0.31934842785E+03  0.31935095313E+03  0.12700000000E+01 0. -1.
         21   -1    0    0  501  502  0.00000000000E+00 -0.00000000000E+00 -0.59017352277E+02  0.59017352277E+02  0.00000000000E+00 0.  1.
         25    2    1    2    0    0 -0.33692740543E+02 -0.41604768321E+02  0.28770755414E+03  0.31822479378E+03  0.12500090062E+03 0.  0.
    9000005    1    3    3    0    0 -0.50189677259E+02 -0.32296799441E+02  0.29260759317E+03  0.29863404116E+03  0.10000000000E+01 0.  0.
    9000005    1    3    3    0    0  0.16496936716E+02 -0.93079688806E+01 -0.49000390346E+01  0.19590752620E+02  0.10000000000E+01 0.  0.
          4    1    1    2  501    0  0.33692740543E+02  0.41604768321E+02 -0.27376478570E+02  0.60143511631E+02  0.12700000000E+01 0.  1.
<mgrwt>
<rscale>  1 0.13598302E+03</rscale>
<asrwt>0</asrwt>
<pdfrwt beam="2">  1       21 0.90795929E-02 0.13598302E+03</pdfrwt>
<pdfrwt beam="1">  1        4 0.49131772E-01 0.13598302E+03</pdfrwt>
<totfact> 0.15775719E+04</totfact>
</mgrwt>
</event>
<event>
 6    3  0.7601760E-003  0.1336764E+03  0.7818608E-02  0.1222100E+00
         21   -1    0    0  501  502  0.00000000000E+00  0.00000000000E+00  0.72918172357E+02  0.72918172357E+02  0.00000000000E+00 0. -1.
          4   -1    0    0  502    0 -0.00000000000E+00 -0.00000000000E+00 -0.16185893718E+03  0.16186391952E+03  0.12700000000E+01 0.  1.
         25    2    1    2    0    0 -0.42009192342E+02 -0.21890459937E+02 -0.11874521431E+03  0.17880100055E+03  0.12500162958E+03 0.  0.
    9000005    1    3    3    0    0 -0.11512730143E+02 -0.81837336602E+01 -0.13898482293E+03  0.13970432154E+03  0.10000000000E+01 0.  0.
    9000005    1    3    3    0    0 -0.30496462199E+02 -0.13706726277E+02  0.20239608622E+02  0.39096679003E+02  0.10000000000E+01 0.  0.
          4    1    1    2  501    0  0.42009192342E+02  0.21890459937E+02  0.29804449492E+02  0.55981091335E+02  0.12700000000E+01 0. -1.
<mgrwt>
<rscale>  1 0.13367637E+03</rscale>
<asrwt>0</asrwt>
<pdfrwt beam="1">  1       21 0.11218181E-01 0.13367637E+03</pdfrwt>
<pdfrwt beam="2">  1        4 0.24902609E-01 0.13367637E+03</pdfrwt>
<totfact> 0.40413665E+04</totfact>
</mgrwt>
</event>
<event>
 6    3  0.7601760E-003  0.1405862E+03  0.7818608E-02  0.1212542E+00
          4   -1    0    0  502    0 -0.00000000000E+00  0.00000000000E+00  0.20876037875E+02  0.20914632614E+02  0.12700000000E+01 0.  1.
         21   -1    0    0  501  502  0.00000000000E+00 -0.00000000000E+00 -0.98726050784E+03  0.98726050784E+03  0.00000000000E+00 0.  1.
         25    2    1    2    0    0 -0.61266265728E+02  0.19729739402E+02 -0.23412752433E+03  0.27309374002E+03  0.12498670032E+03 0.  0.
    9000005    1    3    3    0    0 -0.90581102649E+02  0.42940711401E+02 -0.14348301394E+03  0.17503489978E+03  0.10000000000E+01 0.  0.
    9000005    1    3    3    0    0  0.29314836920E+02 -0.23210971999E+02 -0.90644510387E+02  0.98058840234E+02  0.10000000000E+01 0.  0.
          4    1    1    2  501    0  0.61266265728E+02 -0.19729739402E+02 -0.73225694564E+03  0.73508140043E+03  0.12700000000E+01 0. -1.
<mgrwt>
<rscale>  1 0.14058625E+03</rscale>
<asrwt>0</asrwt>
<pdfrwt beam="2">  1       21 0.15188624E+00 0.14058625E+03</pdfrwt>
<pdfrwt beam="1">  1        4 0.32147297E-02 0.14058625E+03</pdfrwt>
<totfact> 0.58575087E+03</totfact>
</mgrwt>
</event>
<event>
 6    3  0.7601760E-003  0.1323383E+03  0.7818608E-02  0.1224027E+00
         -4   -1    0    0    0  501 -0.00000000000E+00  0.00000000000E+00  0.16852392524E+03  0.16852871054E+03  0.12700000000E+01 0.  1.
         21   -1    0    0  501  502  0.00000000000E+00 -0.00000000000E+00 -0.12015637153E+03  0.12015637153E+03  0.00000000000E+00 0. -1.
         25    2    1    2    0    0  0.25445503831E+02  0.35224216612E+02  0.13668206730E+03  0.19025091467E+03  0.12500081563E+03 0.  0.
    9000005    1    3    3    0    0  0.26110756858E+02 -0.42990358448E+02  0.76479734010E+02  0.91542843835E+02  0.10000000000E+01 0.  0.
    9000005    1    3    3    0    0 -0.66525302735E+00  0.78214575061E+02  0.60202333294E+02  0.98708070833E+02  0.10000000000E+01 0.  0.
         -4    1    1    2    0  502 -0.25445503831E+02 -0.35224216612E+02 -0.88314513595E+02  0.98434167405E+02  0.12700000000E+01 0. -1.
<mgrwt>
<rscale>  1 0.13233829E+03</rscale>
<asrwt>0</asrwt>
<pdfrwt beam="2">  1       21 0.18485596E-01 0.13233829E+03</pdfrwt>
<pdfrwt beam="1">  1       -4 0.25927642E-01 0.13233829E+03</pdfrwt>
<totfact> 0.15257668E+04</totfact>
</mgrwt>
</event>
<event>
 6    3  0.7601760E-003  0.1266353E+03  0.7818608E-02  0.1232535E+00
         -4   -1    0    0    0  501 -0.00000000000E+00  0.00000000000E+00  0.12572635153E+03  0.12573276570E+03  0.12700000000E+01 0. -1.
         21   -1    0    0  501  502  0.00000000000E+00 -0.00000000000E+00 -0.80488516481E+02  0.80488516481E+02  0.00000000000E+00 0.  1.
         25    2    1    2    0    0 -0.20148185391E+02 -0.25169933570E+01  0.91133474693E+02  0.15601862022E+03  0.12499686002E+03 0.  0.
    9000005    1    3    3    0    0 -0.47699470173E+02  0.19166507243E+00 -0.12027407663E+02  0.49202995085E+02  0.10000000000E+01 0.  0.
    9000005    1    3    3    0    0  0.27551284782E+02 -0.27086584295E+01  0.10316088236E+03  0.10681562513E+03  0.10000000000E+01 0.  0.
         -4    1    1    2    0  502  0.20148185391E+02  0.25169933570E+01 -0.45895639640E+02  0.50202661962E+02  0.12700000000E+01 0.  1.
<mgrwt>
<rscale>  1 0.12663530E+03</rscale>
<asrwt>0</asrwt>
<pdfrwt beam="2">  1       21 0.12382849E-01 0.12663530E+03</pdfrwt>
<pdfrwt beam="1">  1       -4 0.19343780E-01 0.12663530E+03</pdfrwt>
<totfact> 0.53332396E+04</totfact>
</mgrwt>
</event>
<event>
 6    3  0.7601760E-003  0.1315621E+03  0.7818608E-02  0.1225156E+00
          4   -1    0    0  502    0 -0.00000000000E+00  0.00000000000E+00  0.67362759146E+03  0.67362878863E+03  0.12700000000E+01 0. -1.
         21   -1    0    0  501  502  0.00000000000E+00 -0.00000000000E+00 -0.11860037546E+02  0.11860037546E+02  0.00000000000E+00 0. -1.
         25    2    1    2    0    0  0.14167257491E+02 -0.38518643725E+02  0.56947356511E+03  0.58447303351E+03  0.12499675373E+03 0.  0.
    9000005    1    3    3    0    0  0.28599049479E+02  0.39907849915E+02  0.27711736432E+03  0.28143485165E+03  0.10000000000E+01 0.  0.
    9000005    1    3    3    0    0 -0.14431791988E+02 -0.78426493641E+02  0.29235620078E+03  0.30303818185E+03  0.10000000000E+01 0.  0.
          4    1    1    2  501    0 -0.14167257491E+02  0.38518643725E+02  0.92293988805E+02  0.10101579267E+03  0.12700000000E+01 0.  1.
<mgrwt>
<rscale>  1 0.13156210E+03</rscale>
<asrwt>0</asrwt>
<pdfrwt beam="2">  1       21 0.18246217E-02 0.13156210E+03</pdfrwt>
<pdfrwt beam="1">  1        4 0.10364031E+00 0.13156210E+03</pdfrwt>
<totfact> 0.45224465E+04</totfact>
</mgrwt>
</event>
<event>
 6    3  0.7601760E-003  0.1296706E+03  0.7818608E-02  0.1227945E+00
          4   -1    0    0  502    0 -0.00000000000E+00  0.00000000000E+00  0.53868194179E+03  0.53868343887E+03  0.12700000000E+01 0.  1.
         21   -1    0    0  501  502  0.00000000000E+00 -0.00000000000E+00 -0.38610807972E+02  0.38610807972E+02  0.00000000000E+00 0. -1.
         25    2    1    2    0    0  0.39220053544E+00  0.34485204331E+02  0.52102614225E+03  0.53691964570E+03  0.12500032756E+03 0.  0.
    9000005    1    3    3    0    0 -0.20519608719E+02  0.80255410408E+01  0.90621530636E+01  0.23845047056E+02  0.10000000000E+01 0.  0.
    9000005    1    3    3    0    0  0.20911809254E+02  0.26459663290E+02  0.51196398919E+03  0.51307459865E+03  0.10000000000E+01 0.  0.
          4    1    1    2  501    0 -0.39220053544E+00 -0.34485204331E+02 -0.20955008432E+02  0.40374601143E+02  0.12700000000E+01 0. -1.
<mgrwt>
<rscale>  1 0.12967060E+03</rscale>
<asrwt>0</asrwt>
<pdfrwt beam="2">  1       21 0.59401247E-02 0.12967060E+03</pdfrwt>
<pdfrwt beam="1">  1        4 0.82875861E-01 0.12967060E+03</pdfrwt>
<totfact> 0.10720707E+04</totfact>
</mgrwt>
</event>
<event>
 6    3  0.7601760E-003  0.1416762E+03  0.7818608E-02  0.1211091E+00
          4   -1    0    0  502    0 -0.00000000000E+00  0.00000000000E+00  0.22426272714E+02  0.22462203984E+02  0.12700000000E+01 0.  1.
         21   -1    0    0  501  502  0.00000000000E+00 -0.00000000000E+00 -0.61129844274E+03  0.61129844274E+03  0.00000000000E+00 0.  1.
         25    2    1    2    0    0 -0.47322891242E+02  0.46981233984E+02 -0.24105220426E+03  0.27960385395E+03  0.12500183032E+03 0.  0.
    9000005    1    3    3    0    0 -0.88715569654E+02  0.37493928538E+02 -0.19133898470E+03  0.21421450474E+03  0.10000000000E+01 0.  0.
    9000005    1    3    3    0    0  0.41392678412E+02  0.94873054463E+01 -0.49713219559E+02  0.65389349206E+02  0.10000000000E+01 0.  0.
          4    1    1    2  501    0  0.47322891242E+02 -0.46981233984E+02 -0.34781996576E+03  0.35415679277E+03  0.12700000000E+01 0. -1.
<mgrwt>
<rscale>  1 0.14167622E+03</rscale>
<asrwt>0</asrwt>
<pdfrwt beam="2">  1       21 0.94045912E-01 0.14167622E+03</pdfrwt>
<pdfrwt beam="1">  1        4 0.34530613E-02 0.14167622E+03</pdfrwt>
<totfact> 0.16949901E+04</totfact>
</mgrwt>
</event>
<event>
 6    3  0.7601760E-003  0.1329780E+03  0.7818608E-02  0.1223103E+00
          4   -1    0    0  502    0 -0.00000000000E+00  0.00000000000E+00  0.13189892634E+03  0.13190504035E+03  0.12700000000E+01 0.  1.
         21   -1    0    0  501  502  0.00000000000E+00 -0.00000000000E+00 -0.76030060803E+02  0.76030060803E+02  0.00000000000E+00 0. -1.
         25    2    1    2    0    0  0.44087999737E+02  0.10806637705E+02  0.81326182283E+02  0.15587529885E+03  0.12499050255E+03 0.  0.
    9000005    1    3    3    0    0  0.47180693214E+02 -0.35527350055E+02 -0.34912922013E+01  0.59172624881E+02  0.10000000000E+01 0.  0.
    9000005    1    3    3    0    0 -0.30926934772E+01  0.46333987760E+02  0.84817474484E+02  0.96702673968E+02  0.10000000000E+01 0.  0.
          4    1    1    2  501    0 -0.44087999737E+02 -0.10806637705E+02 -0.25457316750E+02  0.52059802299E+02  0.12700000000E+01 0. -1.
<mgrwt>
<rscale>  1 0.13297805E+03</rscale>
<asrwt>0</asrwt>
<pdfrwt beam="2">  1       21 0.11696932E-01 0.13297805E+03</pdfrwt>
<pdfrwt beam="1">  1        4 0.20293429E-01 0.13297805E+03</pdfrwt>
<totfact> 0.54474127E+04</totfact>
</mgrwt>
</event>
<event>
 6    3  0.7601760E-003  0.1313751E+03  0.7818608E-02  0.1225429E+00
          4   -1    0    0  502    0 -0.00000000000E+00  0.00000000000E+00  0.11127284140E+04  0.11127291388E+04  0.12700000000E+01 0. -1.
         21   -1    0    0  501  502  0.00000000000E+00 -0.00000000000E+00 -0.12809906596E+02  0.12809906596E+02  0.00000000000E+00 0.  1.
         25    2    1    2    0    0 -0.40470511330E+02  0.15568450282E+01  0.10618340848E+04  0.10699303932E+04  0.12497654369E+03 0.  0.
    9000005    1    3    3    0    0  0.12779360702E+02  0.16984502395E+02  0.86957019332E+03  0.86983050447E+03  0.10000000000E+01 0.  0.
    9000005    1    3    3    0    0 -0.53249872032E+02 -0.15427657367E+02  0.19226389152E+03  0.20009988872E+03  0.10000000000E+01 0.  0.
          4    1    1    2  501    0  0.40470511330E+02 -0.15568450282E+01  0.38084422572E+02  0.55608652172E+02  0.12700000000E+01 0.  1.
<mgrwt>
<rscale>  1 0.13137512E+03</rscale>
<asrwt>0</asrwt>
<pdfrwt beam="2">  1       21 0.19707557E-02 0.13137512E+03</pdfrwt>
<pdfrwt beam="1">  1        4 0.17119381E+00 0.13137512E+03</pdfrwt>
<totfact> 0.11544869E+04</totfact>
</mgrwt>
</event>
<event>
 6    3  0.7601760E-003  0.1317328E+03  0.7818608E-02  0.1224907E+00
         -4   -1    0    0    0  501 -0.00000000000E+00  0.00000000000E+00  0.75199192756E+03  0.75199299997E+03  0.12700000000E+01 0.  1.
         21   -1    0    0  501  502  0.00000000000E+00 -0.00000000000E+00 -0.16298307466E+02  0.16298307466E+02  0.00000000000E+00 0. -1.
         25    2    1    2    0    0  0.35209199145E+02  0.22209381526E+02  0.70329382682E+03  0.71552480447E+03  0.12498237727E+03 0.  0.
    9000005    1    3    3    0    0 -0.18998180522E+02 -0.36592724078E+02  0.39031277018E+03  0.39248569004E+03  0.10000000000E+01 0.  0.
    9000005    1    3    3    0    0  0.54207379666E+02  0.58802105605E+02  0.31298105664E+03  0.32303911443E+03  0.10000000000E+01 0.  0.
         -4    1    1    2    0  502 -0.35209199145E+02 -0.22209381526E+02  0.32399793264E+02  0.52766502971E+02  0.12700000000E+01 0. -1.
<mgrwt>
<rscale>  1 0.13173283E+03</rscale>
<asrwt>0</asrwt>
<pdfrwt beam="2">  1       21 0.25074325E-02 0.13173283E+03</pdfrwt>
<pdfrwt beam="1">  1       -4 0.11569493E+00 0.13173283E+03</pdfrwt>
<totfact> 0.20872015E+04</totfact>
</mgrwt>
</event>
<event>
 6    3  0.7601760E-003  0.1275623E+03  0.7818608E-02  0.1231118E+00
          4   -1    0    0  502    0 -0.00000000000E+00  0.00000000000E+00  0.77961049899E+03  0.77961153341E+03  0.12700000000E+01 0. -1.
         21   -1    0    0  501  502  0.00000000000E+00 -0.00000000000E+00 -0.75132688212E+01  0.75132688212E+01  0.00000000000E+00 0.  1.
         25    2    1    2    0    0  0.44423399971E+01  0.25055704831E+02  0.63740733521E+03  0.65004634502E+03  0.12499846785E+03 0.  0.
    9000005    1    3    3    0    0 -0.56363266944E+02  0.28967400107E+02  0.39745913409E+03  0.40248067208E+03  0.10000000000E+01 0.  0.
    9000005    1    3    3    0    0  0.60805606941E+02 -0.39116952760E+01  0.23994820113E+03  0.24756567294E+03  0.10000000000E+01 0.  0.
          4    1    1    2  501    0 -0.44423399971E+01 -0.25055704831E+02  0.13468989495E+03  0.13707845721E+03  0.12700000000E+01 0.  1.
<mgrwt>
<rscale>  1 0.12756230E+03</rscale>
<asrwt>0</asrwt>
<pdfrwt beam="2">  1       21 0.11558881E-02 0.12756230E+03</pdfrwt>
<pdfrwt beam="1">  1        4 0.11994835E+00 0.12756230E+03</pdfrwt>
<totfact> 0.66077146E+04</totfact>
</mgrwt>
</event>
<event>
 6    3  0.7601760E-003  0.1319838E+03  0.7818608E-02  0.1224541E+00
         21   -1    0    0  501  502  0.00000000000E+00  0.00000000000E+00  0.43632368939E+02  0.43632368939E+02  0.00000000000E+00 0.  1.
         -4   -1    0    0    0  501 -0.00000000000E+00 -0.00000000000E+00 -0.18945911162E+03  0.18946336817E+03  0.12700000000E+01 0. -1.
         25    2    1    2    0    0  0.10117249333E+02  0.41249542873E+02 -0.13593625842E+03  0.18946870305E+03  0.12496335287E+03 0.  0.
    9000005    1    3    3    0    0 -0.18648698036E+02  0.75903309202E+02 -0.51023100170E+02  0.93345824958E+02  0.10000000000E+01 0.  0.
    9000005    1    3    3    0    0  0.28765947369E+02 -0.34653766329E+02 -0.84913158250E+02  0.96122878093E+02  0.10000000000E+01 0.  0.
         -4    1    1    2    0  502 -0.10117249333E+02 -0.41249542873E+02 -0.98904842641E+01  0.43627034053E+02  0.12700000000E+01 0.  1.
<mgrwt>
<rscale>  1 0.13198380E+03</rscale>
<asrwt>0</asrwt>
<pdfrwt beam="1">  1       21 0.67126721E-02 0.13198380E+03</pdfrwt>
<pdfrwt beam="2">  1       -4 0.29149305E-01 0.13198380E+03</pdfrwt>
<totfact> 0.73347030E+04</totfact>
</mgrwt>
</event>
<event>
 6    3  0.7601760E-003  0.1266660E+03  0.7818608E-02  0.1232488E+00
         21   -1    0    0  501  502  0.00000000000E+00  0.00000000000E+00  0.34758279900E+02  0.34758279900E+02  0.00000000000E+00 0. -1.
          4   -1    0    0  502    0 -0.00000000000E+00 -0.00000000000E+00 -0.15706066895E+03  0.15706580351E+03  0.12700000000E+01 0. -1.
         25    2    1    2    0    0 -0.18331968263E+02 -0.91809368786E+01 -0.99033249910E+02  0.16078513370E+03  0.12499569581E+03 0.  0.
    9000005    1    3    3    0    0  0.36991434329E+02  0.38530370989E+02 -0.46101659654E+02  0.70564287888E+02  0.10000000000E+01 0.  0.
    9000005    1    3    3    0    0 -0.55323402591E+02 -0.47711307867E+02 -0.52931590256E+02  0.90220845816E+02  0.10000000000E+01 0.  0.
          4    1    1    2  501    0  0.18331968263E+02  0.91809368786E+01 -0.23269139143E+02  0.31038949706E+02  0.12700000000E+01 0.  1.
<mgrwt>
<rscale>  1 0.12666600E+03</rscale>
<asrwt>0</asrwt>
<pdfrwt beam="1">  1       21 0.53474277E-02 0.12666600E+03</pdfrwt>
<pdfrwt beam="2">  1        4 0.24165360E-01 0.12666600E+03</pdfrwt>
<totfact> 0.15189047E+05</totfact>
</mgrwt>
</event>
<event>
 6    3  0.7601760E-003  0.1305046E+03  0.7818608E-02  0.1226709E+00
         21   -1    0    0  501  502  0.00000000000E+00  0.00000000000E+00  0.13153469819E+04  0.13153469819E+04  0.00000000000E+00 0. -1.
          4   -1    0    0  502    0 -0.00000000000E+00 -0.00000000000E+00 -0.54786572675E+01  0.56239297164E+01  0.12700000000E+01 0. -1.
         25    2    1    2    0    0  0.20587628708E+02 -0.31259063458E+02  0.90286202612E+03  0.91224518520E+03  0.12502183893E+03 0.  0.
    9000005    1    3    3    0    0 -0.44735332159E+02  0.18069831006E+02  0.30170158842E+03  0.30553660532E+03  0.10000000000E+01 0.  0.
    9000005    1    3    3    0    0  0.65322960867E+02 -0.49328894464E+02  0.60116043770E+03  0.60670857988E+03  0.10000000000E+01 0.  0.
          4    1    1    2  501    0 -0.20587628708E+02  0.31259063458E+02  0.40700629849E+03  0.40872572639E+03  0.12700000000E+01 0.  1.
<mgrwt>
<rscale>  1 0.13050456E+03</rscale>
<asrwt>0</asrwt>
<pdfrwt beam="1">  1       21 0.20236083E+00 0.13050456E+03</pdfrwt>
<pdfrwt beam="2">  1        4 0.85409336E-03 0.13050456E+03</pdfrwt>
<totfact> 0.20209586E+04</totfact>
</mgrwt>
</event>
<event>
 6    3  0.7601760E-003  0.1267089E+03  0.7818608E-02  0.1232423E+00
         -4   -1    0    0    0  501 -0.00000000000E+00  0.00000000000E+00  0.32337132740E+03  0.32337382127E+03  0.12700000000E+01 0.  1.
         21   -1    0    0  501  502  0.00000000000E+00 -0.00000000000E+00 -0.28079619031E+02  0.28079619031E+02  0.00000000000E+00 0. -1.
         25    2    1    2    0    0  0.13417667810E+02  0.15685686928E+02  0.30374320925E+03  0.32911255063E+03  0.12501623587E+03 0.  0.
    9000005    1    3    3    0    0  0.72449099702E+01  0.15070335016E+02 -0.71086734668E+01  0.18197168913E+02  0.10000000000E+01 0.  0.
    9000005    1    3    3    0    0  0.61727578395E+01  0.61535191143E+00  0.31085188272E+03  0.31091538172E+03  0.10000000000E+01 0.  0.
         -4    1    1    2    0  502 -0.13417667810E+02 -0.15685686928E+02 -0.84515008910E+01  0.22340889668E+02  0.12700000000E+01 0. -1.
<mgrwt>
<rscale>  1 0.12670885E+03</rscale>
<asrwt>0</asrwt>
<pdfrwt beam="2">  1       21 0.43199416E-02 0.12670885E+03</pdfrwt>
<pdfrwt beam="1">  1       -4 0.49751833E-01 0.12670885E+03</pdfrwt>
<totfact> 0.53978129E+04</totfact>
</mgrwt>
</event>
<event>
 6    3  0.7601760E-003  0.1270230E+03  0.7818608E-02  0.1231941E+00
          4   -1    0    0  502    0 -0.00000000000E+00  0.00000000000E+00  0.20165836313E+03  0.20166236218E+03  0.12700000000E+01 0. -1.
         21   -1    0    0  501  502  0.00000000000E+00 -0.00000000000E+00 -0.80622338621E+02  0.80622338621E+02  0.00000000000E+00 0. -1.
         25    2    1    2    0    0  0.17602717282E+02 -0.14159512468E+02  0.17932678730E+03  0.21975652015E+03  0.12499793621E+03 0.  0.
    9000005    1    3    3    0    0  0.53394831288E+02 -0.37820977508E+02  0.15965302369E+03  0.17254426192E+03  0.10000000000E+01 0.  0.
    9000005    1    3    3    0    0 -0.35792114005E+02  0.23661465040E+02  0.19673763608E+02  0.47212258232E+02  0.10000000000E+01 0.  0.
          4    1    1    2  501    0 -0.17602717282E+02  0.14159512468E+02 -0.58290762789E+02  0.62528180651E+02  0.12700000000E+01 0.  1.
<mgrwt>
<rscale>  1 0.12702296E+03</rscale>
<asrwt>0</asrwt>
<pdfrwt beam="2">  1       21 0.12403437E-01 0.12702296E+03</pdfrwt>
<pdfrwt beam="1">  1        4 0.31025441E-01 0.12702296E+03</pdfrwt>
<totfact> 0.22298874E+04</totfact>
</mgrwt>
</event>
<event>
 6    3  0.7601760E-003  0.1269091E+03  0.7818608E-02  0.1232116E+00
         21   -1    0    0  501  502  0.00000000000E+00  0.00000000000E+00  0.11364209909E+03  0.11364209909E+03  0.00000000000E+00 0. -1.
          4   -1    0    0  502    0 -0.00000000000E+00 -0.00000000000E+00 -0.62106287190E+02  0.62119270831E+02  0.12700000000E+01 0.  1.
         25    2    1    2    0    0  0.77424865037E+01  0.20521984182E+02  0.81992763399E+01  0.12717365392E+03  0.12499924874E+03 0.  0.
    9000005    1    3    3    0    0 -0.31866759521E+02  0.52243525660E+02  0.34237035350E+02  0.70128816654E+02  0.10000000000E+01 0.  0.
    9000005    1    3    3    0    0  0.39609246024E+02 -0.31721541478E+02 -0.26037759010E+02  0.57044837265E+02  0.10000000000E+01 0.  0.
          4    1    1    2  501    0 -0.77424865037E+01 -0.20521984182E+02  0.43336535563E+02  0.48587716006E+02  0.12700000000E+01 0. -1.
<mgrwt>
<rscale>  1 0.12690906E+03</rscale>
<asrwt>0</asrwt>
<pdfrwt beam="1">  1       21 0.17483400E-01 0.12690906E+03</pdfrwt>
<pdfrwt beam="2">  1        4 0.95563581E-02 0.12690906E+03</pdfrwt>
<totfact> 0.97078474E+04</totfact>
</mgrwt>
</event>
<event>
 6    3  0.7601760E-003  0.1305917E+03  0.7818608E-02  0.1226580E+00
         21   -1    0    0  501  502  0.00000000000E+00  0.00000000000E+00  0.12052556088E+03  0.12052556088E+03  0.00000000000E+00 0. -1.
         -4   -1    0    0    0  501 -0.00000000000E+00 -0.00000000000E+00 -0.82416220719E+02  0.82426005226E+02  0.12700000000E+01 0. -1.
         25    2    1    2    0    0  0.30740921851E+02  0.22021162034E+02 -0.21498620882E+02  0.13234945726E+03  0.12499700910E+03 0.  0.
    9000005    1    3    3    0    0  0.55567025573E+02 -0.13595847160E+02 -0.53557798139E+02  0.78370779839E+02  0.10000000000E+01 0.  0.
    9000005    1    3    3    0    0 -0.24826103722E+02  0.35617009193E+02  0.32059177256E+02  0.53978677422E+02  0.10000000000E+01 0.  0.
         -4    1    1    2    0  502 -0.30740921851E+02 -0.22021162034E+02  0.59607961041E+02  0.70602108843E+02  0.12700000000E+01 0.  1.
<mgrwt>
<rscale>  1 0.13059168E+03</rscale>
<asrwt>0</asrwt>
<pdfrwt beam="1">  1       21 0.18542394E-01 0.13059168E+03</pdfrwt>
<pdfrwt beam="2">  1       -4 0.12680686E-01 0.13059168E+03</pdfrwt>
<totfact> 0.54150523E+04</totfact>
</mgrwt>
</event>
<event>
 6    3  0.7601760E-003  0.1282924E+03  0.7818608E-02  0.1230012E+00
         -4   -1    0    0    0  501 -0.00000000000E+00  0.00000000000E+00  0.18315938369E+03  0.18316378663E+03  0.12700000000E+01 0. -1.
         21   -1    0    0  501  502  0.00000000000E+00 -0.00000000000E+00 -0.34844801492E+02  0.34844801492E+02  0.00000000000E+00 0. -1.
         25    2    1    2    0    0  0.41357842812E+01  0.28479440454E+02  0.13512345387E+03  0.18632575354E+03  0.12502301952E+03 0.  0.
    9000005    1    3    3    0    0  0.22076660916E+02 -0.41669957249E+02  0.88252342598E+02  0.10006617944E+03  0.10000000000E+01 0.  0.
    9000005    1    3    3    0    0 -0.17940876634E+02  0.70149397703E+02  0.46871111269E+02  0.86259574101E+02  0.10000000000E+01 0.  0.
         -4    1    1    2    0  502 -0.41357842812E+01 -0.28479440454E+02  0.13191128327E+02  0.31682834576E+02  0.12700000000E+01 0.  1.
<mgrwt>
<rscale>  1 0.12829240E+03</rscale>
<asrwt>0</asrwt>
<pdfrwt beam="2">  1       21 0.53607388E-02 0.12829240E+03</pdfrwt>
<pdfrwt beam="1">  1       -4 0.28180485E-01 0.12829240E+03</pdfrwt>
<totfact> 0.11397735E+05</totfact>
</mgrwt>
</event>
<event>
 6    3  0.7601760E-003  0.1270022E+03  0.7818608E-02  0.1231973E+00
         21   -1    0    0  501  502  0.00000000000E+00  0.00000000000E+00  0.27199862652E+03  0.27199862652E+03  0.00000000000E+00 0.  1.
          4   -1    0    0  502    0 -0.00000000000E+00 -0.00000000000E+00 -0.21157649634E+02  0.21195731600E+02  0.12700000000E+01 0.  1.
         25    2    1    2    0    0 -0.71676374062E+01  0.21260073771E+02  0.19194990137E+03  0.23016152986E+03  0.12500479763E+03 0.  0.
    9000005    1    3    3    0    0  0.39241262781E+02  0.18846146897E+02  0.13249727162E+02  0.45514934113E+02  0.10000000000E+01 0.  0.
    9000005    1    3    3    0    0 -0.46408900187E+02  0.24139268740E+01  0.17870017421E+03  0.18464659575E+03  0.10000000000E+01 0.  0.
          4    1    1    2  501    0  0.71676374062E+01 -0.21260073771E+02  0.58891075512E+02  0.63032828254E+02  0.12700000000E+01 0. -1.
<mgrwt>
<rscale>  1 0.12700223E+03</rscale>
<asrwt>0</asrwt>
<pdfrwt beam="1">  1       21 0.41845940E-01 0.12700223E+03</pdfrwt>
<pdfrwt beam="2">  1        4 0.32581807E-02 0.12700223E+03</pdfrwt>
<totfact> 0.10463257E+05</totfact>
</mgrwt>
</event>
<event>
 6    3  0.7601760E-003  0.1294802E+03  0.7818608E-02  0.1228229E+00
         -4   -1    0    0    0  501 -0.00000000000E+00  0.00000000000E+00  0.10039125408E+02  0.10119137263E+02  0.12700000000E+01 0.  1.
         21   -1    0    0  501  502  0.00000000000E+00 -0.00000000000E+00 -0.70176778945E+03  0.70176778945E+03  0.00000000000E+00 0.  1.
         25    2    1    2    0    0  0.33167323222E+02 -0.63111188282E+01 -0.46639949389E+03  0.48403884273E+03  0.12500084730E+03 0.  0.
    9000005    1    3    3    0    0 -0.38096217752E+02 -0.20722652886E+02 -0.29021935534E+03  0.29344339209E+03  0.10000000000E+01 0.  0.
    9000005    1    3    3    0    0  0.71263540974E+02  0.14411534058E+02 -0.17618013855E+03  0.19059545064E+03  0.10000000000E+01 0.  0.
         -4    1    1    2    0  502 -0.33167323222E+02  0.63111188282E+01 -0.22532917015E+03  0.22784808398E+03  0.12700000000E+01 0. -1.
<mgrwt>
<rscale>  1 0.12948017E+03</rscale>
<asrwt>0</asrwt>
<pdfrwt beam="2">  1       21 0.10796422E+00 0.12948017E+03</pdfrwt>
<pdfrwt beam="1">  1       -4 0.15507247E-02 0.12948017E+03</pdfrwt>
<totfact> 0.42076700E+04</totfact>
</mgrwt>
</event>
<event>
 6    3  0.7601760E-003  0.1286777E+03  0.7818608E-02  0.1229431E+00
          4   -1    0    0  502    0 -0.00000000000E+00  0.00000000000E+00  0.13772923802E+03  0.13773509323E+03  0.12700000000E+01 0.  1.
         21   -1    0    0  501  502  0.00000000000E+00 -0.00000000000E+00 -0.60242073801E+02  0.60242073801E+02  0.00000000000E+00 0. -1.
         25    2    1    2    0    0  0.20551198354E+02  0.22639967456E+02  0.97471681016E+02  0.16142701393E+03  0.12499212914E+03 0.  0.
    9000005    1    3    3    0    0  0.19706061448E+02 -0.33492075809E+01  0.12321083906E+03  0.12482570613E+03  0.10000000000E+01 0.  0.
    9000005    1    3    3    0    0  0.84513690647E+00  0.25989175037E+02 -0.25739158048E+02  0.36601307797E+02  0.10000000000E+01 0.  0.
          4    1    1    2  501    0 -0.20551198354E+02 -0.22639967456E+02 -0.19984516792E+02  0.36550153100E+02  0.12700000000E+01 0. -1.
<mgrwt>
<rscale>  1 0.12867771E+03</rscale>
<asrwt>0</asrwt>
<pdfrwt beam="2">  1       21 0.92680114E-02 0.12867771E+03</pdfrwt>
<pdfrwt beam="1">  1        4 0.21190594E-01 0.12867771E+03</pdfrwt>
<totfact> 0.75471385E+04</totfact>
</mgrwt>
</event>
<event>
 6    3  0.7601760E-003  0.1289694E+03  0.7818608E-02  0.1228993E+00
          4   -1    0    0  502    0 -0.00000000000E+00  0.00000000000E+00  0.15267722981E+02  0.15320452507E+02  0.12700000000E+01 0.  1.
         21   -1    0    0  501  502  0.00000000000E+00 -0.00000000000E+00 -0.89418383125E+03  0.89418383125E+03  0.00000000000E+00 0. -1.
         25    2    1    2    0    0  0.83763994383E+00 -0.31728732039E+02 -0.26449904025E+03  0.29426663825E+03  0.12500279203E+03 0.  0.
    9000005    1    3    3    0    0 -0.39738991218E+02 -0.25729630698E+01 -0.23027713562E+03  0.23369716890E+03  0.10000000000E+01 0.  0.
    9000005    1    3    3    0    0  0.40576631162E+02 -0.29155768969E+02 -0.34221904625E+02  0.60569469345E+02  0.10000000000E+01 0.  0.
          4    1    1    2  501    0 -0.83763994383E+00  0.31728732039E+02 -0.61441706802E+03  0.61523764551E+03  0.12700000000E+01 0. -1.
<mgrwt>
<rscale>  1 0.12896942E+03</rscale>
<asrwt>0</asrwt>
<pdfrwt beam="2">  1       21 0.13756674E+00 0.12896942E+03</pdfrwt>
<pdfrwt beam="1">  1        4 0.23530059E-02 0.12896942E+03</pdfrwt>
<totfact> 0.12247429E+04</totfact>
</mgrwt>
</event>
<event>
 6    3  0.7601760E-003  0.1489147E+03  0.7818608E-02  0.1201813E+00
         -4   -1    0    0    0  501 -0.00000000000E+00  0.00000000000E+00  0.73593259944E+02  0.73604217332E+02  0.12700000000E+01 0.  1.
         21   -1    0    0  501  502  0.00000000000E+00 -0.00000000000E+00 -0.24437915674E+03  0.24437915674E+03  0.00000000000E+00 0.  1.
         25    2    1    2    0    0 -0.79194202916E+02 -0.16733311612E+02 -0.24674902023E+02  0.15094517130E+03  0.12499547374E+03 0.  0.
    9000005    1    3    3    0    0 -0.90257703373E+02  0.34110405815E+02 -0.10880075243E+02  0.97104834279E+02  0.10000000000E+01 0.  0.
    9000005    1    3    3    0    0  0.11063500457E+02 -0.50843717428E+02 -0.13794826781E+02  0.53840337017E+02  0.10000000000E+01 0.  0.
         -4    1    1    2    0  502  0.79194202916E+02  0.16733311612E+02 -0.14611099477E+03  0.16703820278E+03  0.12700000000E+01 0.  1.
<mgrwt>
<rscale>  1 0.14891472E+03</rscale>
<asrwt>0</asrwt>
<pdfrwt beam="2">  1       21 0.37596793E-01 0.14891472E+03</pdfrwt>
<pdfrwt beam="1">  1       -4 0.11323137E-01 0.14891472E+03</pdfrwt>
<totfact> 0.17292749E+04</totfact>
</mgrwt>
</event>
<event>
 6    3  0.7601760E-003  0.1285370E+03  0.7818608E-02  0.1229643E+00
         21   -1    0    0  501  502  0.00000000000E+00  0.00000000000E+00  0.18856570417E+02  0.18856570417E+02  0.00000000000E+00 0.  1.
          4   -1    0    0  502    0 -0.00000000000E+00 -0.00000000000E+00 -0.34088929171E+03  0.34089165742E+03  0.12700000000E+01 0.  1.
         25    2    1    2    0    0 -0.27666958569E+02  0.11300519232E+02 -0.28066859802E+03  0.30870152447E+03  0.12501442702E+03 0.  0.
    9000005    1    3    3    0    0 -0.19461661771E+02 -0.41772176204E+02 -0.23096731681E+03  0.23552191494E+03  0.10000000000E+01 0.  0.
    9000005    1    3    3    0    0 -0.82052967980E+01  0.53072695436E+02 -0.49701281212E+02  0.73179609527E+02  0.10000000000E+01 0.  0.
          4    1    1    2  501    0  0.27666958569E+02 -0.11300519232E+02 -0.41364123272E+02  0.51046703375E+02  0.12700000000E+01 0. -1.
<mgrwt>
<rscale>  1 0.12853703E+03</rscale>
<asrwt>0</asrwt>
<pdfrwt beam="1">  1       21 0.29010107E-02 0.12853703E+03</pdfrwt>
<pdfrwt beam="2">  1        4 0.52447981E-01 0.12853703E+03</pdfrwt>
<totfact> 0.93742794E+04</totfact>
</mgrwt>
</event>
<event>
 6    3  0.7601760E-003  0.1266891E+03  0.7818608E-02  0.1232453E+00
         -4   -1    0    0    0  501 -0.00000000000E+00  0.00000000000E+00  0.12338927457E+03  0.12339581021E+03  0.12700000000E+01 0.  1.
         21   -1    0    0  501  502  0.00000000000E+00 -0.00000000000E+00 -0.65334967724E+02  0.65334967724E+02  0.00000000000E+00 0.  1.
         25    2    1    2    0    0  0.95612664832E+01 -0.18348261574E+02  0.86595328836E+02  0.15345643378E+03  0.12498819773E+03 0.  0.
    9000005    1    3    3    0    0  0.15468464049E+02  0.51958045699E+02  0.50949340571E+02  0.74402602088E+02  0.10000000000E+01 0.  0.
    9000005    1    3    3    0    0 -0.59071975657E+01 -0.70306307273E+02  0.35645988265E+02  0.79053831690E+02  0.10000000000E+01 0.  0.
         -4    1    1    2    0  502 -0.95612664832E+01  0.18348261574E+02 -0.28541021992E+02  0.35274344160E+02  0.12700000000E+01 0.  1.
<mgrwt>
<rscale>  1 0.12668909E+03</rscale>
<asrwt>0</asrwt>
<pdfrwt beam="2">  1       21 0.10051534E-01 0.12668909E+03</pdfrwt>
<pdfrwt beam="1">  1       -4 0.18984417E-01 0.12668909E+03</pdfrwt>
<totfact> 0.79646182E+04</totfact>
</mgrwt>
</event>
<event>
 6    3  0.7601760E-003  0.1320840E+03  0.7818608E-02  0.1224396E+00
         21   -1    0    0  501  502  0.00000000000E+00  0.00000000000E+00  0.37482565029E+02  0.37482565029E+02  0.00000000000E+00 0. -1.
          4   -1    0    0  502    0 -0.00000000000E+00 -0.00000000000E+00 -0.54028101846E+03  0.54028251111E+03  0.12700000000E+01 0.  1.
         25    2    1    2    0    0  0.41470701314E+02 -0.10111912518E+02 -0.51633882107E+03  0.53296525138E+03  0.12499644473E+03 0.  0.
    9000005    1    3    3    0    0 -0.13956276235E+02  0.93333352921E+01 -0.40251114941E+01  0.17294227839E+02  0.10000000000E+01 0.  0.
    9000005    1    3    3    0    0  0.55426977549E+02 -0.19445247810E+02 -0.51231370957E+03  0.51567102354E+03  0.10000000000E+01 0.  0.
          4    1    1    2  501    0 -0.41470701314E+02  0.10111912518E+02  0.13540367638E+02  0.44799824754E+02  0.12700000000E+01 0. -1.
<mgrwt>
<rscale>  1 0.13208399E+03</rscale>
<asrwt>0</asrwt>
<pdfrwt beam="1">  1       21 0.57665490E-02 0.13208399E+03</pdfrwt>
<pdfrwt beam="2">  1        4 0.83121918E-01 0.13208399E+03</pdfrwt>
<totfact> 0.11219314E+04</totfact>
</mgrwt>
</event>
<event>
 6    3  0.7601760E-003  0.1364021E+03  0.7818608E-02  0.1218254E+00
          4   -1    0    0  502    0 -0.00000000000E+00  0.00000000000E+00  0.13135711883E+03  0.13136325806E+03  0.12700000000E+01 0.  1.
         21   -1    0    0  501  502  0.00000000000E+00 -0.00000000000E+00 -0.13185612193E+03  0.13185612193E+03  0.00000000000E+00 0. -1.
         25    2    1    2    0    0  0.45954174288E+02 -0.29474260020E+02  0.85764004472E+02  0.16112414252E+03  0.12500002681E+03 0.  0.
    9000005    1    3    3    0    0 -0.11933602466E+01 -0.84149097180E+01  0.10549144957E+03  0.10583799292E+03  0.10000000000E+01 0.  0.
    9000005    1    3    3    0    0  0.47147534535E+02 -0.21059350302E+02 -0.19727445095E+02  0.55286149602E+02  0.10000000000E+01 0.  0.
          4    1    1    2  501    0 -0.45954174288E+02  0.29474260020E+02 -0.86263007568E+02  0.10209523746E+03  0.12700000000E+01 0. -1.
<mgrwt>
<rscale>  1 0.13640207E+03</rscale>
<asrwt>0</asrwt>
<pdfrwt beam="2">  1       21 0.20285557E-01 0.13640207E+03</pdfrwt>
<pdfrwt beam="1">  1        4 0.20209730E-01 0.13640207E+03</pdfrwt>
<totfact> 0.20318683E+04</totfact>
</mgrwt>
</event>
<event>
 6    3  0.7601760E-003  0.1291707E+03  0.7818608E-02  0.1228691E+00
         21   -1    0    0  501  502  0.00000000000E+00  0.00000000000E+00  0.24918514164E+02  0.24918514164E+02  0.00000000000E+00 0. -1.
         -4   -1    0    0    0  501 -0.00000000000E+00 -0.00000000000E+00 -0.28852654765E+03  0.28852934270E+03  0.12700000000E+01 0. -1.
         25    2    1    2    0    0  0.62895613224E+01  0.31952648511E+02 -0.24208821116E+03  0.27439345914E+03  0.12499815242E+03 0.  0.
    9000005    1    3    3    0    0 -0.58935232156E+02  0.83675894702E+01 -0.12070533744E+03  0.13458884288E+03  0.10000000000E+01 0.  0.
    9000005    1    3    3    0    0  0.65224793479E+02  0.23585059041E+02 -0.12138287372E+03  0.13980461626E+03  0.10000000000E+01 0.  0.
         -4    1    1    2    0  502 -0.62895613224E+01 -0.31952648511E+02 -0.21519822329E+02  0.39054397723E+02  0.12700000000E+01 0.  1.
<mgrwt>
<rscale>  1 0.12917069E+03</rscale>
<asrwt>0</asrwt>
<pdfrwt beam="1">  1       21 0.38336178E-02 0.12917069E+03</pdfrwt>
<pdfrwt beam="2">  1       -4 0.44391402E-01 0.12917069E+03</pdfrwt>
<totfact> 0.83050817E+04</totfact>
</mgrwt>
</event>
<event>
 6    3  0.7601760E-003  0.1285579E+03  0.7818608E-02  0.1229611E+00
         21   -1    0    0  501  502  0.00000000000E+00  0.00000000000E+00  0.17636760975E+03  0.17636760975E+03  0.00000000000E+00 0. -1.
         -4   -1    0    0    0  501 -0.00000000000E+00 -0.00000000000E+00 -0.12235750749E+03  0.12236409825E+03  0.12700000000E+01 0.  1.
         25    2    1    2    0    0 -0.21240648958E+02  0.21242095264E+02 -0.86559336240E+02  0.15498271942E+03  0.12499893139E+03 0.  0.
    9000005    1    3    3    0    0 -0.18789921772E+02 -0.51961242347E+02 -0.35232565494E+02  0.65539038273E+02  0.10000000000E+01 0.  0.
    9000005    1    3    3    0    0 -0.24507271863E+01  0.73203337611E+02 -0.51326770746E+02  0.89443681143E+02  0.10000000000E+01 0.  0.
         -4    1    1    2    0  502  0.21240648958E+02 -0.21242095264E+02  0.14056943849E+03  0.14374898858E+03  0.12700000000E+01 0. -1.
<mgrwt>
<rscale>  1 0.12855786E+03</rscale>
<asrwt>0</asrwt>
<pdfrwt beam="1">  1       21 0.27133479E-01 0.12855786E+03</pdfrwt>
<pdfrwt beam="2">  1       -4 0.18825090E-01 0.12855786E+03</pdfrwt>
<totfact> 0.13285895E+04</totfact>
</mgrwt>
</event>
<event>
 6    3  0.7601760E-003  0.1273305E+03  0.7818608E-02  0.1231471E+00
         21   -1    0    0  501  502  0.00000000000E+00  0.00000000000E+00  0.91154137457E+02  0.91154137457E+02  0.00000000000E+00 0. -1.
          4   -1    0    0  502    0 -0.00000000000E+00 -0.00000000000E+00 -0.30949504738E+03  0.30949765306E+03  0.12700000000E+01 0.  1.
         25    2    1    2    0    0  0.24244018060E+02  0.31530632775E+00 -0.29442968478E+03  0.32078323357E+03  0.12500068734E+03 0.  0.
    9000005    1    3    3    0    0 -0.29002668348E+02  0.47836382889E+02 -0.13069123278E+03  0.14216424524E+03  0.10000000000E+01 0.  0.
    9000005    1    3    3    0    0  0.53246686408E+02 -0.47521076562E+02 -0.16373845200E+03  0.17861898834E+03  0.10000000000E+01 0.  0.
          4    1    1    2  501    0 -0.24244018060E+02 -0.31530632775E+00  0.76088774855E+02  0.79868556947E+02  0.12700000000E+01 0. -1.
<mgrwt>
<rscale>  1 0.12733045E+03</rscale>
<asrwt>0</asrwt>
<pdfrwt beam="1">  1       21 0.14023714E-01 0.12733045E+03</pdfrwt>
<pdfrwt beam="2">  1        4 0.47615503E-01 0.12733045E+03</pdfrwt>
<totfact> 0.77560377E+03</totfact>
</mgrwt>
</event>
<event>
 6    3  0.7601760E-003  0.1311388E+03  0.7818608E-02  0.1225776E+00
         21   -1    0    0  501  502  0.00000000000E+00  0.00000000000E+00  0.29556600564E+02  0.29556600564E+02  0.00000000000E+00 0.  1.
          4   -1    0    0  502    0 -0.00000000000E+00 -0.00000000000E+00 -0.34042779416E+03  0.34043016309E+03  0.12700000000E+01 0. -1.
         25    2    1    2    0    0 -0.29912178441E+02  0.26002298462E+02 -0.30215487311E+03  0.32938571579E+03  0.12500609777E+03 0.  0.
    9000005    1    3    3    0    0 -0.28627258067E+01 -0.13760276031E+02 -0.27252896187E+03  0.27289297436E+03  0.10000000000E+01 0.  0.
    9000005    1    3    3    0    0 -0.27049452634E+02  0.39762574492E+02 -0.29625911237E+02  0.56492741434E+02  0.10000000000E+01 0.  0.
          4    1    1    2  501    0  0.29912178441E+02 -0.26002298462E+02 -0.87163204930E+01  0.40601047860E+02  0.12700000000E+01 0.  1.
<mgrwt>
<rscale>  1 0.13113879E+03</rscale>
<asrwt>0</asrwt>
<pdfrwt beam="1">  1       21 0.45471692E-02 0.13113879E+03</pdfrwt>
<pdfrwt beam="2">  1        4 0.52375789E-01 0.13113879E+03</pdfrwt>
<totfact> 0.44819012E+04</totfact>
</mgrwt>
</event>
<event>
 6    3  0.7601760E-003  0.1283757E+03  0.7818608E-02  0.1229886E+00
          4   -1    0    0  502    0 -0.00000000000E+00  0.00000000000E+00  0.97334615795E+02  0.97342900779E+02  0.12700000000E+01 0. -1.
         21   -1    0    0  501  502  0.00000000000E+00 -0.00000000000E+00 -0.17044540950E+03  0.17044540950E+03  0.00000000000E+00 0.  1.
         25    2    1    2    0    0  0.25629604962E+02  0.14074376730E+02  0.52586468147E+02  0.13872871448E+03  0.12500141942E+03 0.  0.
    9000005    1    3    3    0    0  0.50591430666E+02 -0.23986617966E+02  0.70299580660E+02  0.89877036774E+02  0.10000000000E+01 0.  0.
    9000005    1    3    3    0    0 -0.24961825704E+02  0.38060994696E+02 -0.17713112513E+02  0.48851677706E+02  0.10000000000E+01 0.  0.
          4    1    1    2  501    0 -0.25629604962E+02 -0.14074376730E+02 -0.12569726186E+03  0.12905959580E+03  0.12700000000E+01 0.  1.
<mgrwt>
<rscale>  1 0.12837570E+03</rscale>
<asrwt>0</asrwt>
<pdfrwt beam="2">  1       21 0.26222370E-01 0.12837570E+03</pdfrwt>
<pdfrwt beam="1">  1        4 0.14975558E-01 0.12837570E+03</pdfrwt>
<totfact> 0.21221817E+04</totfact>
</mgrwt>
</event>
<event>
 6    3  0.7601760E-003  0.1305960E+03  0.7818608E-02  0.1226574E+00
          4   -1    0    0  502    0 -0.00000000000E+00  0.00000000000E+00  0.32848279939E+02  0.32872821524E+02  0.12700000000E+01 0. -1.
         21   -1    0    0  501  502  0.00000000000E+00 -0.00000000000E+00 -0.21775427992E+03  0.21775427992E+03  0.00000000000E+00 0. -1.
         25    2    1    2    0    0  0.34100026360E+02 -0.16354433746E+02 -0.13306468392E+03  0.18644443827E+03  0.12500015662E+03 0.  0.
    9000005    1    3    3    0    0 -0.22276210001E+02  0.38212304179E+02 -0.19357941036E+02  0.48292231299E+02  0.10000000000E+01 0.  0.
    9000005    1    3    3    0    0  0.56376236362E+02 -0.54566737925E+02 -0.11370674289E+03  0.13815220697E+03  0.10000000000E+01 0.  0.
          4    1    1    2  501    0 -0.34100026360E+02  0.16354433746E+02 -0.51841316057E+02  0.64182663169E+02  0.12700000000E+01 0.  1.
<mgrwt>
<rscale>  1 0.13059601E+03</rscale>
<asrwt>0</asrwt>
<pdfrwt beam="2">  1       21 0.33500658E-01 0.13059601E+03</pdfrwt>
<pdfrwt beam="1">  1        4 0.50557543E-02 0.13059601E+03</pdfrwt>
<totfact> 0.81210326E+04</totfact>
</mgrwt>
</event>
<event>
 6    3  0.7601760E-003  0.1378416E+03  0.7818608E-02  0.1216263E+00
          4   -1    0    0  502    0 -0.00000000000E+00  0.00000000000E+00  0.19222980751E+03  0.19223400270E+03  0.12700000000E+01 0. -1.
         21   -1    0    0  501  502  0.00000000000E+00 -0.00000000000E+00 -0.14872222125E+03  0.14872222125E+03  0.00000000000E+00 0.  1.
         25    2    1    2    0    0  0.38595694374E+02  0.43427925286E+02  0.15974881438E+03  0.21099758309E+03  0.12499873622E+03 0.  0.
    9000005    1    3    3    0    0  0.79891570265E+02  0.16303799054E+02  0.12956901402E+03  0.15309345595E+03  0.10000000000E+01 0.  0.
    9000005    1    3    3    0    0 -0.41295875892E+02  0.27124126232E+02  0.30179800367E+02  0.57904127138E+02  0.10000000000E+01 0.  0.
          4    1    1    2  501    0 -0.38595694374E+02 -0.43427925286E+02 -0.11624122812E+03  0.12995864086E+03  0.12700000000E+01 0.  1.
<mgrwt>
<rscale>  1 0.13784156E+03</rscale>
<asrwt>0</asrwt>
<pdfrwt beam="2">  1       21 0.22880342E-01 0.13784156E+03</pdfrwt>
<pdfrwt beam="1">  1        4 0.29574556E-01 0.13784156E+03</pdfrwt>
<totfact> 0.80560297E+03</totfact>
</mgrwt>
</event>
<event>
 6    3  0.7601760E-003  0.1294473E+03  0.7818608E-02  0.1228278E+00
          4   -1    0    0  502    0 -0.00000000000E+00  0.00000000000E+00  0.73128458623E+03  0.73128568901E+03  0.12700000000E+01 0. -1.
         21   -1    0    0  501  502  0.00000000000E+00 -0.00000000000E+00 -0.10085044655E+02  0.10085044655E+02  0.00000000000E+00 0. -1.
         25    2    1    2    0    0  0.53008217878E+01 -0.33215154858E+02  0.45513169821E+03  0.47318226375E+03  0.12500098716E+03 0.  0.
    9000005    1    3    3    0    0 -0.58488826943E+02 -0.27236826507E+01  0.21854748948E+03  0.22625730150E+03  0.10000000000E+01 0.  0.
    9000005    1    3    3    0    0  0.63789648731E+02 -0.30491472208E+02  0.23658420873E+03  0.24692496225E+03  0.10000000000E+01 0.  0.
          4    1    1    2  501    0 -0.53008217878E+01  0.33215154858E+02  0.26606784337E+03  0.26818846992E+03  0.12700000000E+01 0.  1.
<mgrwt>
<rscale>  1 0.12944726E+03</rscale>
<asrwt>0</asrwt>
<pdfrwt beam="2">  1       21 0.15515459E-02 0.12944726E+03</pdfrwt>
<pdfrwt beam="1">  1        4 0.11251152E+00 0.12944726E+03</pdfrwt>
<totfact> 0.48265802E+04</totfact>
</mgrwt>
</event>
<event>
 6    3  0.7601760E-003  0.1276236E+03  0.7818608E-02  0.1231025E+00
         21   -1    0    0  501  502  0.00000000000E+00  0.00000000000E+00  0.16523155972E+03  0.16523155972E+03  0.00000000000E+00 0.  1.
         -4   -1    0    0    0  501 -0.00000000000E+00 -0.00000000000E+00 -0.35617355101E+02  0.35639989961E+02  0.12700000000E+01 0.  1.
         25    2    1    2    0    0  0.14790644851E+02 -0.21072524555E+02  0.10572717130E+03  0.16572873068E+03  0.12499985183E+03 0.  0.
    9000005    1    3    3    0    0 -0.68526946936E+01 -0.57523814324E+02  0.10874513759E+03  0.12321709942E+03  0.10000000000E+01 0.  0.
    9000005    1    3    3    0    0  0.21643339545E+02  0.36451289769E+02 -0.30179662933E+01  0.42511631268E+02  0.10000000000E+01 0.  0.
         -4    1    1    2    0  502 -0.14790644851E+02  0.21072524555E+02  0.23887033324E+02  0.35142819000E+02  0.12700000000E+01 0. -1.
<mgrwt>
<rscale>  1 0.12762358E+03</rscale>
<asrwt>0</asrwt>
<pdfrwt beam="1">  1       21 0.25420240E-01 0.12762358E+03</pdfrwt>
<pdfrwt beam="2">  1       -4 0.54817098E-02 0.12762358E+03</pdfrwt>
<totfact> 0.12084240E+05</totfact>
</mgrwt>
</event>
<event>
 6    3  0.7601760E-003  0.1270329E+03  0.7818608E-02  0.1231926E+00
         21   -1    0    0  501  502  0.00000000000E+00  0.00000000000E+00  0.21413225816E+03  0.21413225816E+03  0.00000000000E+00 0. -1.
          4   -1    0    0  502    0 -0.00000000000E+00 -0.00000000000E+00 -0.26562476214E+02  0.26592819381E+02  0.12700000000E+01 0. -1.
         25    2    1    2    0    0  0.38980400040E+01  0.22333940995E+02  0.16882843909E+03  0.21128275311E+03  0.12499344094E+03 0.  0.
    9000005    1    3    3    0    0  0.55231725169E+02 -0.79127515438E+00  0.13432328351E+03  0.14524088293E+03  0.10000000000E+01 0.  0.
    9000005    1    3    3    0    0 -0.51333685165E+02  0.23125216150E+02  0.34505155583E+02  0.66041870177E+02  0.10000000000E+01 0.  0.
          4    1    1    2  501    0 -0.38980400040E+01 -0.22333940995E+02  0.18741342858E+02  0.29442324439E+02  0.12700000000E+01 0.  1.
<mgrwt>
<rscale>  1 0.12703291E+03</rscale>
<asrwt>0</asrwt>
<pdfrwt beam="1">  1       21 0.32943423E-01 0.12703291E+03</pdfrwt>
<pdfrwt beam="2">  1        4 0.40891587E-02 0.12703291E+03</pdfrwt>
<totfact> 0.11734858E+05</totfact>
</mgrwt>
</event>
<event>
 6    3  0.7601760E-003  0.1297476E+03  0.7818608E-02  0.1227831E+00
          4   -1    0    0  502    0 -0.00000000000E+00  0.00000000000E+00  0.97643045876E+01  0.98465498567E+01  0.12700000000E+01 0. -1.
         21   -1    0    0  501  502  0.00000000000E+00 -0.00000000000E+00 -0.70230065747E+03  0.70230065747E+03  0.00000000000E+00 0. -1.
         25    2    1    2    0    0 -0.28707128079E+02  0.19618548057E+02 -0.50438376284E+03  0.52080459140E+03  0.12500182229E+03 0.  0.
    9000005    1    3    3    0    0  0.43079922468E+01 -0.24179407669E+02 -0.15954451439E+02  0.29304386585E+02  0.10000000000E+01 0.  0.
    9000005    1    3    3    0    0 -0.33015120326E+02  0.43797955726E+02 -0.48842931140E+03  0.49150020481E+03  0.10000000000E+01 0.  0.
          4    1    1    2  501    0  0.28707128079E+02 -0.19618548057E+02 -0.18815259004E+03  0.19134261593E+03  0.12700000000E+01 0.  1.
<mgrwt>
<rscale>  1 0.12974761E+03</rscale>
<asrwt>0</asrwt>
<pdfrwt beam="2">  1       21 0.10804625E+00 0.12974761E+03</pdfrwt>
<pdfrwt beam="1">  1        4 0.15086156E-02 0.12974761E+03</pdfrwt>
<totfact> 0.43808970E+04</totfact>
</mgrwt>
</event>
<event>
 6    3  0.7601760E-003  0.1311303E+03  0.7818608E-02  0.1225788E+00
         21   -1    0    0  501  502  0.00000000000E+00  0.00000000000E+00  0.24742353306E+02  0.24742353306E+02  0.00000000000E+00 0. -1.
          4   -1    0    0  502    0 -0.00000000000E+00 -0.00000000000E+00 -0.29627666782E+03  0.29627938975E+03  0.12700000000E+01 0. -1.
         25    2    1    2    0    0  0.38910256918E+02 -0.75502654274E+01 -0.19820101867E+03  0.23765268537E+03  0.12499656179E+03 0.  0.
    9000005    1    3    3    0    0  0.62616279308E+02  0.39826428475E+02 -0.14315129993E+03  0.16124589146E+03  0.10000000000E+01 0.  0.
    9000005    1    3    3    0    0 -0.23706022390E+02 -0.47376693903E+02 -0.55049718741E+02  0.76406793914E+02  0.10000000000E+01 0.  0.
          4    1    1    2  501    0 -0.38910256918E+02  0.75502654274E+01 -0.73333295837E+02  0.83369057688E+02  0.12700000000E+01 0.  1.
<mgrwt>
<rscale>  1 0.13113030E+03</rscale>
<asrwt>0</asrwt>
<pdfrwt beam="1">  1       21 0.38065161E-02 0.13113030E+03</pdfrwt>
<pdfrwt beam="2">  1        4 0.45583740E-01 0.13113030E+03</pdfrwt>
<totfact> 0.79865446E+04</totfact>
</mgrwt>
</event>
<event>
 6    3  0.7601760E-003  0.1449993E+03  0.7818608E-02  0.1206756E+00
         -4   -1    0    0    0  501 -0.00000000000E+00  0.00000000000E+00  0.21131435140E+04  0.21131438957E+04  0.12700000000E+01 0. -1.
         21   -1    0    0  501  502  0.00000000000E+00 -0.00000000000E+00 -0.56835003816E+01  0.56835003816E+01  0.00000000000E+00 0. -1.
         25    2    1    2    0    0 -0.73064044440E+02  0.77855179220E+01  0.14761994885E+04  0.14833036496E+04  0.12500327186E+03 0.  0.
    9000005    1    3    3    0    0 -0.84501149705E+02 -0.40628862263E+02  0.10604101891E+04  0.10645477528E+04  0.10000000000E+01 0.  0.
    9000005    1    3    3    0    0  0.11437105264E+02  0.48414380185E+02  0.41578929939E+03  0.41875589676E+03  0.10000000000E+01 0.  0.
         -4    1    1    2    0  502  0.73064044440E+02 -0.77855179220E+01  0.63126052512E+03  0.63552374650E+03  0.12700000000E+01 0.  1.
<mgrwt>
<rscale>  1 0.14499927E+03</rscale>
<asrwt>0</asrwt>
<pdfrwt beam="2">  1       21 0.87438636E-03 0.14499927E+03</pdfrwt>
<pdfrwt beam="1">  1       -4 0.32510932E+00 0.14499927E+03</pdfrwt>
<totfact> 0.51128322E+03</totfact>
</mgrwt>
</event>
<event>
 6    3  0.7601760E-003  0.1267806E+03  0.7818608E-02  0.1232313E+00
         21   -1    0    0  501  502  0.00000000000E+00  0.00000000000E+00  0.99376295448E+02  0.99376295448E+02  0.00000000000E+00 0. -1.
          4   -1    0    0  502    0 -0.00000000000E+00 -0.00000000000E+00 -0.57364590679E+02  0.57378647281E+02  0.12700000000E+01 0. -1.
         25    2    1    2    0    0  0.12243578964E+02 -0.17266748467E+02  0.24217234379E+02  0.12907278413E+03  0.12500105333E+03 0.  0.
    9000005    1    3    3    0    0  0.26536906397E+02 -0.64003437138E+02  0.36988856050E+02  0.78548219831E+02  0.10000000000E+01 0.  0.
    9000005    1    3    3    0    0 -0.14293327434E+02  0.46736688672E+02 -0.12771621671E+02  0.50524564295E+02  0.10000000000E+01 0.  0.
          4    1    1    2  501    0 -0.12243578964E+02  0.17266748467E+02  0.17794470389E+02  0.27682158602E+02  0.12700000000E+01 0.  1.
<mgrwt>
<rscale>  1 0.12678056E+03</rscale>
<asrwt>0</asrwt>
<pdfrwt beam="1">  1       21 0.15288661E-01 0.12678056E+03</pdfrwt>
<pdfrwt beam="2">  1        4 0.88270271E-02 0.12678056E+03</pdfrwt>
<totfact> 0.14138596E+05</totfact>
</mgrwt>
</event>
<event>
 6    3  0.7601760E-003  0.1280379E+03  0.7818608E-02  0.1230396E+00
         -4   -1    0    0    0  501 -0.00000000000E+00  0.00000000000E+00  0.39885091624E+02  0.39905305836E+02  0.12700000000E+01 0. -1.
         21   -1    0    0  501  502  0.00000000000E+00 -0.00000000000E+00 -0.15886264610E+03  0.15886264610E+03  0.00000000000E+00 0. -1.
         25    2    1    2    0    0 -0.21082591731E+01 -0.27654505903E+02 -0.80221208276E+02  0.15109318162E+03  0.12499796327E+03 0.  0.
    9000005    1    3    3    0    0 -0.38342813242E+02 -0.26093124071E+02 -0.99662950112E+02  0.10993055115E+03  0.10000000000E+01 0.  0.
    9000005    1    3    3    0    0  0.36234554069E+02 -0.15613818318E+01  0.19441741836E+02  0.41162630473E+02  0.10000000000E+01 0.  0.
         -4    1    1    2    0  502  0.21082591731E+01  0.27654505903E+02 -0.38756346196E+02  0.47674770309E+02  0.12700000000E+01 0.  1.
<mgrwt>
<rscale>  1 0.12803791E+03</rscale>
<asrwt>0</asrwt>
<pdfrwt beam="2">  1       21 0.24440407E-01 0.12803791E+03</pdfrwt>
<pdfrwt beam="1">  1       -4 0.61381133E-02 0.12803791E+03</pdfrwt>
<totfact> 0.10841724E+05</totfact>
</mgrwt>
</event>
<event>
 6    3  0.7601760E-003  0.1341881E+03  0.7818608E-02  0.1221370E+00
          4   -1    0    0  502    0 -0.00000000000E+00  0.00000000000E+00  0.75000248961E+02  0.75011000821E+02  0.12700000000E+01 0. -1.
         21   -1    0    0  501  502  0.00000000000E+00 -0.00000000000E+00 -0.15801947749E+03  0.15801947749E+03  0.00000000000E+00 0.  1.
         25    2    1    2    0    0 -0.36672874564E+02  0.32192126703E+02  0.28924013933E+01  0.13421927547E+03  0.12500086069E+03 0.  0.
    9000005    1    3    3    0    0 -0.52850787138E+02  0.66343058261E+02  0.27429850581E+02  0.89151577571E+02  0.10000000000E+01 0.  0.
    9000005    1    3    3    0    0  0.16177912574E+02 -0.34150931558E+02 -0.24537449188E+02  0.45067697902E+02  0.10000000000E+01 0.  0.
          4    1    1    2  501    0  0.36672874564E+02 -0.32192126703E+02 -0.85911629917E+02  0.98811202834E+02  0.12700000000E+01 0.  1.
<mgrwt>
<rscale>  1 0.13418811E+03</rscale>
<asrwt>0</asrwt>
<pdfrwt beam="2">  1       21 0.24310689E-01 0.13418811E+03</pdfrwt>
<pdfrwt beam="1">  1        4 0.11539719E-01 0.13418811E+03</pdfrwt>
<totfact> 0.38557880E+04</totfact>
</mgrwt>
</event>
<event>
 6    3  0.7601760E-003  0.1346347E+03  0.7818608E-02  0.1220736E+00
         21   -1    0    0  501  502  0.00000000000E+00  0.00000000000E+00  0.15483809011E+02  0.15483809011E+02  0.00000000000E+00 0. -1.
         -4   -1    0    0    0  501 -0.00000000000E+00 -0.00000000000E+00 -0.62960772883E+03  0.62960900971E+03  0.12700000000E+01 0. -1.
         25    2    1    2    0    0 -0.46378828108E+02 -0.18716409457E+02 -0.53334880059E+03  0.55007949088E+03  0.12500081407E+03 0.  0.
    9000005    1    3    3    0    0 -0.77360825346E+02  0.23328423861E+02 -0.28140886047E+03  0.29278124839E+03  0.10000000000E+01 0.  0.
    9000005    1    3    3    0    0  0.30981997238E+02 -0.42044833317E+02 -0.25193994012E+03  0.25729824249E+03  0.10000000000E+01 0.  0.
         -4    1    1    2    0  502  0.46378828108E+02  0.18716409457E+02 -0.80775119226E+02  0.95013327831E+02  0.12700000000E+01 0.  1.
<mgrwt>
<rscale>  1 0.13463470E+03</rscale>
<asrwt>0</asrwt>
<pdfrwt beam="1">  1       21 0.23821244E-02 0.13463470E+03</pdfrwt>
<pdfrwt beam="2">  1       -4 0.96866837E-01 0.13463470E+03</pdfrwt>
<totfact> 0.34453972E+04</totfact>
</mgrwt>
</event>
<event>
 6    3  0.7601760E-003  0.1270411E+03  0.7818608E-02  0.1231913E+00
         21   -1    0    0  501  502  0.00000000000E+00  0.00000000000E+00  0.32207540958E+03  0.32207540958E+03  0.00000000000E+00 0. -1.
         -4   -1    0    0    0  501 -0.00000000000E+00 -0.00000000000E+00 -0.18792225426E+02  0.18835090562E+02  0.12700000000E+01 0. -1.
         25    2    1    2    0    0 -0.96054043673E+01 -0.20567418196E+02  0.28392147179E+03  0.31104796023E+03  0.12499659570E+03 0.  0.
    9000005    1    3    3    0    0 -0.20041196047E+02 -0.42361975595E+02  0.28298928720E+03  0.28684512055E+03  0.10000000000E+01 0.  0.
    9000005    1    3    3    0    0  0.10435791680E+02  0.21794557399E+02  0.93218458708E+00  0.24202839674E+02  0.10000000000E+01 0.  0.
         -4    1    1    2    0  502  0.96054043673E+01  0.20567418196E+02  0.19361712364E+02  0.29862539912E+02  0.12700000000E+01 0.  1.
<mgrwt>
<rscale>  1 0.12704106E+03</rscale>
<asrwt>0</asrwt>
<pdfrwt beam="1">  1       21 0.49550059E-01 0.12704106E+03</pdfrwt>
<pdfrwt beam="2">  1       -4 0.28946018E-02 0.12704106E+03</pdfrwt>
<totfact> 0.89295875E+04</totfact>
</mgrwt>
</event>
<event>
 6    3  0.7601760E-003  0.1349405E+03  0.7818608E-02  0.1220304E+00
          4   -1    0    0  502    0 -0.00000000000E+00  0.00000000000E+00  0.95325547697E+02  0.95334007279E+02  0.12700000000E+01 0.  1.
         21   -1    0    0  501  502  0.00000000000E+00 -0.00000000000E+00 -0.95152099762E+02  0.95152099762E+02  0.00000000000E+00 0.  1.
         25    2    1    2    0    0  0.49548382069E+02 -0.11357628552E+02 -0.18735299649E+02  0.13623491786E+03  0.12499961400E+03 0.  0.
    9000005    1    3    3    0    0 -0.32976695737E+02 -0.59777706530E+01 -0.38648193111E+02  0.51165213128E+02  0.10000000000E+01 0.  0.
    9000005    1    3    3    0    0  0.82525077806E+02 -0.53798578986E+01  0.19912893461E+02  0.85069704736E+02  0.10000000000E+01 0.  0.
          4    1    1    2  501    0 -0.49548382069E+02  0.11357628552E+02  0.18908747584E+02  0.54251189178E+02  0.12700000000E+01 0. -1.
<mgrwt>
<rscale>  1 0.13494051E+03</rscale>
<asrwt>0</asrwt>
<pdfrwt beam="2">  1       21 0.14638785E-01 0.13494051E+03</pdfrwt>
<pdfrwt beam="1">  1        4 0.14666772E-01 0.13494051E+03</pdfrwt>
<totfact> 0.64968456E+04</totfact>
</mgrwt>
</event>
<event>
 6    3  0.7601760E-003  0.1287660E+03  0.7818608E-02  0.1229298E+00
          4   -1    0    0  502    0 -0.00000000000E+00  0.00000000000E+00  0.13659037292E+03  0.13659627694E+03  0.12700000000E+01 0.  1.
         21   -1    0    0  501  502  0.00000000000E+00 -0.00000000000E+00 -0.64572961110E+02  0.64572961110E+02  0.00000000000E+00 0. -1.
         25    2    1    2    0    0 -0.29507786101E+02  0.92226584095E+01  0.97152550066E+02  0.16130503176E+03  0.12499971367E+03 0.  0.
    9000005    1    3    3    0    0  0.28313293090E+02  0.60070524573E+01 -0.16797812121E+02  0.33479751147E+02  0.10000000000E+01 0.  0.
    9000005    1    3    3    0    0 -0.57821079191E+02  0.32156059522E+01  0.11395036219E+03  0.12782528061E+03  0.10000000000E+01 0.  0.
          4    1    1    2  501    0  0.29507786101E+02 -0.92226584095E+01 -0.25135138254E+02  0.39864206298E+02  0.12700000000E+01 0. -1.
<mgrwt>
<rscale>  1 0.12876605E+03</rscale>
<asrwt>0</asrwt>
<pdfrwt beam="2">  1       21 0.99343017E-02 0.12876605E+03</pdfrwt>
<pdfrwt beam="1">  1        4 0.21015318E-01 0.12876605E+03</pdfrwt>
<totfact> 0.67880452E+04</totfact>
</mgrwt>
</event>
<event>
 6    3  0.7601760E-003  0.1463650E+03  0.7818608E-02  0.1205012E+00
         21   -1    0    0  501  502  0.00000000000E+00  0.00000000000E+00  0.14269134952E+03  0.14269134952E+03  0.00000000000E+00 0.  1.
         -4   -1    0    0    0  501 -0.00000000000E+00 -0.00000000000E+00 -0.87176359752E+02  0.87185610049E+02  0.12700000000E+01 0. -1.
         25    2    1    2    0    0 -0.33928111968E+02  0.68164251814E+02  0.28774061483E+02  0.14916653798E+03  0.12500090973E+03 0.  0.
    9000005    1    3    3    0    0 -0.38860840118E+01  0.10367485637E+02 -0.47543152667E+02  0.48825585228E+02  0.10000000000E+01 0.  0.
    9000005    1    3    3    0    0 -0.30042027956E+02  0.57796766178E+02  0.76317214150E+02  0.10034095276E+03  0.10000000000E+01 0.  0.
         -4    1    1    2    0  502  0.33928111968E+02 -0.68164251814E+02  0.26740928287E+02  0.80710421587E+02  0.12700000000E+01 0.  1.
<mgrwt>
<rscale>  1 0.14636499E+03</rscale>
<asrwt>0</asrwt>
<pdfrwt beam="1">  1       21 0.21952515E-01 0.14636499E+03</pdfrwt>
<pdfrwt beam="2">  1       -4 0.13412894E-01 0.14636499E+03</pdfrwt>
<totfact> 0.36407361E+04</totfact>
</mgrwt>
</event>
<event>
 6    3  0.7601760E-003  0.1349574E+03  0.7818608E-02  0.1220280E+00
         21   -1    0    0  501  502  0.00000000000E+00  0.00000000000E+00  0.31209733513E+03  0.31209733513E+03  0.00000000000E+00 0. -1.
          4   -1    0    0  502    0 -0.00000000000E+00 -0.00000000000E+00 -0.38463563593E+02  0.38484524478E+02  0.12700000000E+01 0.  1.
         25    2    1    2    0    0 -0.49865975205E+02 -0.97934406095E+01  0.95480524502E+02  0.16531794167E+03  0.12502385499E+03 0.  0.
    9000005    1    3    3    0    0  0.28189020327E+02  0.34315389560E+02  0.22983731836E+02  0.50014185556E+02  0.10000000000E+01 0.  0.
    9000005    1    3    3    0    0 -0.78054995532E+02 -0.44108830170E+02  0.72496792666E+02  0.11530375611E+03  0.10000000000E+01 0.  0.
          4    1    1    2  501    0  0.49865975205E+02  0.97934406095E+01  0.17815324704E+03  0.18526391794E+03  0.12700000000E+01 0. -1.
<mgrwt>
<rscale>  1 0.13495737E+03</rscale>
<asrwt>0</asrwt>
<pdfrwt beam="1">  1       21 0.48014973E-01 0.13495737E+03</pdfrwt>
<pdfrwt beam="2">  1        4 0.59192827E-02 0.13495737E+03</pdfrwt>
<totfact> 0.30731320E+04</totfact>
</mgrwt>
</event>
<event>
 6    3  0.7601760E-003  0.1279327E+03  0.7818608E-02  0.1230556E+00
         21   -1    0    0  501  502  0.00000000000E+00  0.00000000000E+00  0.45899550615E+02  0.45899550615E+02  0.00000000000E+00 0.  1.
          4   -1    0    0  502    0 -0.00000000000E+00 -0.00000000000E+00 -0.17116493633E+03  0.17116964780E+03  0.12700000000E+01 0. -1.
         25    2    1    2    0    0  0.11447621911E+01  0.27209982785E+02 -0.13694850273E+03  0.18740774588E+03  0.12500030869E+03 0.  0.
    9000005    1    3    3    0    0 -0.63839453349E+01  0.54734796256E+02 -0.14711360284E+03  0.15709890139E+03  0.10000000000E+01 0.  0.
    9000005    1    3    3    0    0  0.75287075259E+01 -0.27524813471E+02  0.10165100111E+02  0.30308844483E+02  0.10000000000E+01 0.  0.
          4    1    1    2  501    0 -0.11447621911E+01 -0.27209982785E+02  0.11683117013E+02  0.29661452540E+02  0.12700000000E+01 0.  1.
<mgrwt>
<rscale>  1 0.12793268E+03</rscale>
<asrwt>0</asrwt>
<pdfrwt beam="1">  1       21 0.70614693E-02 0.12793268E+03</pdfrwt>
<pdfrwt beam="2">  1        4 0.26334781E-01 0.12793268E+03</pdfrwt>
<totfact> 0.80962477E+04</totfact>
</mgrwt>
</event>
<event>
 6    3  0.7601760E-003  0.1374634E+03  0.7818608E-02  0.1216783E+00
          4   -1    0    0  502    0 -0.00000000000E+00  0.00000000000E+00  0.37576553531E+03  0.37576768146E+03  0.12700000000E+01 0.  1.
         21   -1    0    0  501  502  0.00000000000E+00 -0.00000000000E+00 -0.47121099275E+02  0.47121099275E+02  0.00000000000E+00 0. -1.
         25    2    1    2    0    0  0.23719111536E+02 -0.52025440442E+02  0.33804908892E+03  0.36492928538E+03  0.12500781618E+03 0.  0.
    9000005    1    3    3    0    0  0.66745551064E+02 -0.54859544733E+02  0.16119455180E+03  0.18289128400E+03  0.10000000000E+01 0.  0.
    9000005    1    3    3    0    0 -0.43026439528E+02  0.28341042908E+01  0.17685453712E+03  0.18203800138E+03  0.10000000000E+01 0.  0.
          4    1    1    2  501    0 -0.23719111536E+02  0.52025440442E+02 -0.94046528839E+01  0.57959495349E+02  0.12700000000E+01 0. -1.
<mgrwt>
<rscale>  1 0.13746344E+03</rscale>
<asrwt>0</asrwt>
<pdfrwt beam="2">  1       21 0.72494001E-02 0.13746344E+03</pdfrwt>
<pdfrwt beam="1">  1        4 0.57811562E-01 0.13746344E+03</pdfrwt>
<totfact> 0.16670063E+04</totfact>
</mgrwt>
</event>
<event>
 6    3  0.7601760E-003  0.1290340E+03  0.7818608E-02  0.1228896E+00
         21   -1    0    0  501  502  0.00000000000E+00  0.00000000000E+00  0.22388820645E+03  0.22388820645E+03  0.00000000000E+00 0. -1.
         -4   -1    0    0    0  501 -0.00000000000E+00 -0.00000000000E+00 -0.28966972231E+02  0.28994799193E+02  0.12700000000E+01 0. -1.
         25    2    1    2    0    0 -0.31680324072E+02  0.46618495494E+01  0.15429207286E+03  0.20113633979E+03  0.12499763062E+03 0.  0.
    9000005    1    3    3    0    0 -0.64917028201E+02 -0.16654502636E+02  0.14618016210E+03  0.16081428046E+03  0.10000000000E+01 0.  0.
    9000005    1    3    3    0    0  0.33236704129E+02  0.21316352185E+02  0.81119107579E+01  0.40322059322E+02  0.10000000000E+01 0.  0.
         -4    1    1    2    0  502  0.31680324072E+02 -0.46618495494E+01  0.40629161354E+02  0.51746665852E+02  0.12700000000E+01 0.  1.
<mgrwt>
<rscale>  1 0.12903404E+03</rscale>
<asrwt>0</asrwt>
<pdfrwt beam="1">  1       21 0.34444338E-01 0.12903404E+03</pdfrwt>
<pdfrwt beam="2">  1       -4 0.44588750E-02 0.12903404E+03</pdfrwt>
<totfact> 0.93909752E+04</totfact>
</mgrwt>
</event>
<event>
 6    3  0.7601760E-003  0.1324996E+03  0.7818608E-02  0.1223793E+00
         21   -1    0    0  501  502  0.00000000000E+00  0.00000000000E+00  0.43643263394E+02  0.43643263394E+02  0.00000000000E+00 0.  1.
          4   -1    0    0  502    0 -0.00000000000E+00 -0.00000000000E+00 -0.28807460274E+03  0.28807740218E+03  0.12700000000E+01 0. -1.
         25    2    1    2    0    0  0.17142840709E+02 -0.40479068295E+02 -0.25421026594E+03  0.28666878145E+03  0.12499479585E+03 0.  0.
    9000005    1    3    3    0    0  0.42898823386E+02 -0.26604230404E+02 -0.25233476793E+03  0.25733621827E+03  0.10000000000E+01 0.  0.
    9000005    1    3    3    0    0 -0.25755982676E+02 -0.13874837891E+02 -0.18754980089E+01  0.29332563183E+02  0.10000000000E+01 0.  0.
          4    1    1    2  501    0 -0.17142840709E+02  0.40479068295E+02  0.97789265945E+01  0.45051884123E+02  0.12700000000E+01 0.  1.
<mgrwt>
<rscale>  1 0.13249955E+03</rscale>
<asrwt>0</asrwt>
<pdfrwt beam="1">  1       21 0.67143481E-02 0.13249955E+03</pdfrwt>
<pdfrwt beam="2">  1        4 0.44320807E-01 0.13249955E+03</pdfrwt>
<totfact> 0.32572721E+04</totfact>
</mgrwt>
</event>
<event>
 6    3  0.7601760E-003  0.1272059E+03  0.7818608E-02  0.1231662E+00
          4   -1    0    0  502    0 -0.00000000000E+00  0.00000000000E+00  0.52162230595E+02  0.52177688725E+02  0.12700000000E+01 0. -1.
         21   -1    0    0  501  502  0.00000000000E+00 -0.00000000000E+00 -0.14860601791E+03  0.14860601791E+03  0.00000000000E+00 0.  1.
         25    2    1    2    0    0  0.22879627329E+02 -0.58770482977E+01 -0.30621897080E+02  0.13083979212E+03  0.12499333414E+03 0.  0.
    9000005    1    3    3    0    0 -0.24279064574E+02  0.46884521848E+02  0.21429190365E+01  0.52850955219E+02  0.10000000000E+01 0.  0.
    9000005    1    3    3    0    0  0.47158691903E+02 -0.52761570146E+02 -0.32764816117E+02  0.77988836903E+02  0.10000000000E+01 0.  0.
          4    1    1    2  501    0 -0.22879627329E+02  0.58770482977E+01 -0.65821890230E+02  0.69943914509E+02  0.12700000000E+01 0.  1.
<mgrwt>
<rscale>  1 0.12720594E+03</rscale>
<asrwt>0</asrwt>
<pdfrwt beam="2">  1       21 0.22862464E-01 0.12720594E+03</pdfrwt>
<pdfrwt beam="1">  1        4 0.80265651E-02 0.12720594E+03</pdfrwt>
<totfact> 0.79091182E+04</totfact>
</mgrwt>
</event>
<event>
 6    3  0.7601760E-003  0.1269828E+03  0.7818608E-02  0.1232003E+00
         -4   -1    0    0    0  501 -0.00000000000E+00  0.00000000000E+00  0.54806629515E+03  0.54806776660E+03  0.12700000000E+01 0.  1.
         21   -1    0    0  501  502  0.00000000000E+00 -0.00000000000E+00 -0.26482110774E+02  0.26482110774E+02  0.00000000000E+00 0. -1.
         25    2    1    2    0    0  0.20928369896E+02 -0.78954634611E+01  0.53403090606E+03  0.54892042575E+03  0.12499716066E+03 0.  0.
    9000005    1    3    3    0    0  0.48304611194E+02 -0.54493648137E+02  0.29564687056E+03  0.30448475367E+03  0.10000000000E+01 0.  0.
    9000005    1    3    3    0    0 -0.27376241298E+02  0.46598184676E+02  0.23838403550E+03  0.24443567208E+03  0.10000000000E+01 0.  0.
         -4    1    1    2    0  502 -0.20928369896E+02  0.78954634611E+01 -0.12446721678E+02  0.25629451619E+02  0.12700000000E+01 0. -1.
<mgrwt>
<rscale>  1 0.12698278E+03</rscale>
<asrwt>0</asrwt>
<pdfrwt beam="2">  1       21 0.40741713E-02 0.12698278E+03</pdfrwt>
<pdfrwt beam="1">  1       -4 0.84320339E-01 0.12698278E+03</pdfrwt>
<totfact> 0.19380520E+04</totfact>
</mgrwt>
</event>
<event>
 6    3  0.7601760E-003  0.1403559E+03  0.7818608E-02  0.1212851E+00
         -4   -1    0    0    0  501 -0.00000000000E+00  0.00000000000E+00  0.19499813937E+03  0.19500227500E+03  0.12700000000E+01 0.  1.
         21   -1    0    0  501  502  0.00000000000E+00 -0.00000000000E+00 -0.70316765380E+02  0.70316765380E+02  0.00000000000E+00 0. -1.
         25    2    1    2    0    0 -0.19037255291E+02  0.60926907344E+02  0.14149232703E+03  0.19929839081E+03  0.12500105938E+03 0.  0.
    9000005    1    3    3    0    0  0.12794468498E+02 -0.74102502355E+01  0.11998531355E+03  0.12089700451E+03  0.10000000000E+01 0.  0.
    9000005    1    3    3    0    0 -0.31831723790E+02  0.68337157580E+02  0.21507013480E+02  0.78401386303E+02  0.10000000000E+01 0.  0.
         -4    1    1    2    0  502  0.19037255291E+02 -0.60926907344E+02 -0.16810953040E+02  0.66020649570E+02  0.12700000000E+01 0. -1.
<mgrwt>
<rscale>  1 0.14035587E+03</rscale>
<asrwt>0</asrwt>
<pdfrwt beam="2">  1       21 0.10817964E-01 0.14035587E+03</pdfrwt>
<pdfrwt beam="1">  1       -4 0.30000914E-01 0.14035587E+03</pdfrwt>
<totfact> 0.30593789E+04</totfact>
</mgrwt>
</event>
<event>
 6    3  0.7601760E-003  0.1324287E+03  0.7818608E-02  0.1223896E+00
         21   -1    0    0  501  502  0.00000000000E+00  0.00000000000E+00  0.16504222248E+03  0.16504222248E+03  0.00000000000E+00 0. -1.
         -4   -1    0    0    0  501 -0.00000000000E+00 -0.00000000000E+00 -0.59621065401E+02  0.59634590126E+02  0.12700000000E+01 0. -1.
         25    2    1    2    0    0 -0.39269689787E+02  0.19242861173E+02  0.27410166845E+02  0.13523563786E+03  0.12499985704E+03 0.  0.
    9000005    1    3    3    0    0  0.27266244246E+02 -0.57501592535E+01  0.52836396943E+02  0.59742758964E+02  0.10000000000E+01 0.  0.
    9000005    1    3    3    0    0 -0.66535934033E+02  0.24993020426E+02 -0.25426230097E+02  0.75492878900E+02  0.10000000000E+01 0.  0.
         -4    1    1    2    0  502  0.39269689787E+02 -0.19242861173E+02  0.78010990232E+02  0.89441174741E+02  0.12700000000E+01 0.  1.
<mgrwt>
<rscale>  1 0.13242870E+03</rscale>
<asrwt>0</asrwt>
<pdfrwt beam="1">  1       21 0.25391111E-01 0.13242870E+03</pdfrwt>
<pdfrwt beam="2">  1       -4 0.91738879E-02 0.13242870E+03</pdfrwt>
<totfact> 0.52240559E+04</totfact>
</mgrwt>
</event>
<event>
 6    3  0.7601760E-003  0.1487702E+03  0.7818608E-02  0.1201992E+00
         21   -1    0    0  501  502  0.00000000000E+00  0.00000000000E+00  0.17142727186E+03  0.17142727186E+03  0.00000000000E+00 0. -1.
          4   -1    0    0  502    0 -0.00000000000E+00 -0.00000000000E+00 -0.81342966701E+02  0.81352880292E+02  0.12700000000E+01 0.  1.
         25    2    1    2    0    0  0.43410830430E+02  0.67994138166E+02  0.28966322800E+02  0.15156392968E+03  0.12499949560E+03 0.  0.
    9000005    1    3    3    0    0  0.74220052634E+02  0.47564852982E+02 -0.19806305400E+02  0.90356633325E+02  0.10000000000E+01 0.  0.
    9000005    1    3    3    0    0 -0.30809222204E+02  0.20429285183E+02  0.48772628200E+02  0.61207296358E+02  0.10000000000E+01 0.  0.
          4    1    1    2  501    0 -0.43410830430E+02 -0.67994138166E+02  0.61117982363E+02  0.10121622247E+03  0.12700000000E+01 0. -1.
<mgrwt>
<rscale>  1 0.14877022E+03</rscale>
<asrwt>0</asrwt>
<pdfrwt beam="1">  1       21 0.26373426E-01 0.14877022E+03</pdfrwt>
<pdfrwt beam="2">  1        4 0.12515427E-01 0.14877022E+03</pdfrwt>
<totfact> 0.29058307E+04</totfact>
</mgrwt>
</event>
<event>
 6    3  0.7601760E-003  0.1268449E+03  0.7818608E-02  0.1232214E+00
         21   -1    0    0  501  502  0.00000000000E+00  0.00000000000E+00  0.12170630393E+03  0.12170630393E+03  0.00000000000E+00 0. -1.
         -4   -1    0    0    0  501 -0.00000000000E+00 -0.00000000000E+00 -0.54618268543E+02  0.54633031754E+02  0.12700000000E+01 0.  1.
         25    2    1    2    0    0 -0.57946521675E+01  0.20716908502E+02  0.25330728956E+02  0.12934940238E+03  0.12500741488E+03 0.  0.
    9000005    1    3    3    0    0  0.42241153444E+02 -0.32536424567E+02  0.21573325804E+02  0.57526883751E+02  0.10000000000E+01 0.  0.
    9000005    1    3    3    0    0 -0.48035805611E+02  0.53253333069E+02  0.37574031518E+01  0.71822518628E+02  0.10000000000E+01 0.  0.
         -4    1    1    2    0  502  0.57946521675E+01 -0.20716908502E+02  0.41757306429E+02  0.46989933303E+02  0.12700000000E+01 0. -1.
<mgrwt>
<rscale>  1 0.12684487E+03</rscale>
<asrwt>0</asrwt>
<pdfrwt beam="1">  1       21 0.18724047E-01 0.12684487E+03</pdfrwt>
<pdfrwt beam="2">  1       -4 0.84044559E-02 0.12684487E+03</pdfrwt>
<totfact> 0.10608508E+05</totfact>
</mgrwt>
</event>
<event>
 6    3  0.7601760E-003  0.1266270E+03  0.7818608E-02  0.1232548E+00
          4   -1    0    0  502    0 -0.00000000000E+00  0.00000000000E+00  0.18119806790E+04  0.18119811240E+04  0.12700000000E+01 0. -1.
         21   -1    0    0  501  502  0.00000000000E+00 -0.00000000000E+00 -0.32986155650E+01  0.32986155650E+01  0.00000000000E+00 0. -1.
         25    2    1    2    0    0 -0.80918106994E+01 -0.18582000924E+02  0.17005087630E+04  0.17052168304E+04  0.12499446995E+03 0.  0.
    9000005    1    3    3    0    0 -0.21914140463E+02 -0.50716734692E+02  0.15375546123E+04  0.15385472377E+04  0.10000000000E+01 0.  0.
    9000005    1    3    3    0    0  0.13822329763E+02  0.32134733768E+02  0.16295415065E+03  0.16666959270E+03  0.10000000000E+01 0.  0.
          4    1    1    2  501    0  0.80918106994E+01  0.18582000924E+02  0.10817330040E+03  0.11006290918E+03  0.12700000000E+01 0.  1.
<mgrwt>
<rscale>  1 0.12662695E+03</rscale>
<asrwt>0</asrwt>
<pdfrwt beam="2">  1       21 0.50748077E-03 0.12662695E+03</pdfrwt>
<pdfrwt beam="1">  1        4 0.27878430E+00 0.12662695E+03</pdfrwt>
<totfact> 0.22012092E+04</totfact>
</mgrwt>
</event>
<event>
 6    3  0.7601760E-003  0.1325687E+03  0.7818608E-02  0.1223693E+00
         21   -1    0    0  501  502  0.00000000000E+00  0.00000000000E+00  0.19329857250E+03  0.19329857250E+03  0.00000000000E+00 0.  1.
         -4   -1    0    0    0  501 -0.00000000000E+00 -0.00000000000E+00 -0.61735458771E+02  0.61748520385E+02  0.12700000000E+01 0.  1.
         25    2    1    2    0    0  0.32450573513E+02 -0.29962471038E+02  0.15586620651E+03  0.20461850366E+03  0.12499467316E+03 0.  0.
    9000005    1    3    3    0    0  0.48623921039E+02 -0.47219049293E+02  0.16566640400E+03  0.17899799364E+03  0.10000000000E+01 0.  0.
    9000005    1    3    3    0    0 -0.16173347526E+02  0.17256578255E+02 -0.98001974861E+01  0.25620510027E+02  0.10000000000E+01 0.  0.
         -4    1    1    2    0  502 -0.32450573513E+02  0.29962471038E+02 -0.24303092781E+02  0.50428589220E+02  0.12700000000E+01 0. -1.
<mgrwt>
<rscale>  1 0.13256869E+03</rscale>
<asrwt>0</asrwt>
<pdfrwt beam="1">  1       21 0.29738242E-01 0.13256869E+03</pdfrwt>
<pdfrwt beam="2">  1       -4 0.94990887E-02 0.13256869E+03</pdfrwt>
<totfact> 0.36438118E+04</totfact>
</mgrwt>
</event>
<event>
 6    3  0.7601760E-003  0.1357430E+03  0.7818608E-02  0.1219175E+00
         21   -1    0    0  501  502  0.00000000000E+00  0.00000000000E+00  0.24051069710E+02  0.24051069710E+02  0.00000000000E+00 0. -1.
         -4   -1    0    0    0  501 -0.00000000000E+00 -0.00000000000E+00 -0.67739638225E+03  0.67739757276E+03  0.12700000000E+01 0.  1.
         25    2    1    2    0    0  0.14574008170E+02 -0.50892147039E+02 -0.62843638835E+03  0.64292958789E+03  0.12499499366E+03 0.  0.
    9000005    1    3    3    0    0  0.62875614200E+02 -0.11109767693E+02 -0.43391295401E+03  0.43858661796E+03  0.10000000000E+01 0.  0.
    9000005    1    3    3    0    0 -0.48301606030E+02 -0.39782379346E+02 -0.19452343434E+03  0.20434296993E+03  0.10000000000E+01 0.  0.
         -4    1    1    2    0  502 -0.14574008170E+02  0.50892147039E+02 -0.24908924186E+02  0.58519054576E+02  0.12700000000E+01 0. -1.
<mgrwt>
<rscale>  1 0.13574300E+03</rscale>
<asrwt>0</asrwt>
<pdfrwt beam="1">  1       21 0.37001642E-02 0.13574300E+03</pdfrwt>
<pdfrwt beam="2">  1       -4 0.10421751E+00 0.13574300E+03</pdfrwt>
<totfact> 0.14130330E+04</totfact>
</mgrwt>
</event>
<event>
 6    3  0.7601760E-003  0.1282031E+03  0.7818608E-02  0.1230147E+00
         21   -1    0    0  501  502  0.00000000000E+00  0.00000000000E+00  0.18542351436E+03  0.18542351436E+03  0.00000000000E+00 0.  1.
         -4   -1    0    0    0  501 -0.00000000000E+00 -0.00000000000E+00 -0.10157687139E+03  0.10158481038E+03  0.12700000000E+01 0. -1.
         25    2    1    2    0    0 -0.22188603975E+02  0.17831031607E+02 -0.59157146473E+02  0.14119345400E+03  0.12500297452E+03 0.  0.
    9000005    1    3    3    0    0 -0.36852417761E+02 -0.31100497973E+02 -0.73693688011E+02  0.88074407870E+02  0.10000000000E+01 0.  0.
    9000005    1    3    3    0    0  0.14663813785E+02  0.48931529580E+02  0.14536541537E+02  0.53119046129E+02  0.10000000000E+01 0.  0.
         -4    1    1    2    0  502  0.22188603975E+02 -0.17831031607E+02  0.14300378945E+03  0.14581487075E+03  0.12700000000E+01 0.  1.
<mgrwt>
<rscale>  1 0.12820306E+03</rscale>
<asrwt>0</asrwt>
<pdfrwt beam="1">  1       21 0.28526694E-01 0.12820306E+03</pdfrwt>
<pdfrwt beam="2">  1       -4 0.15628156E-01 0.12820306E+03</pdfrwt>
<totfact> 0.16770774E+04</totfact>
</mgrwt>
</event>
<event>
 6    3  0.7601760E-003  0.1312781E+03  0.7818608E-02  0.1225571E+00
          4   -1    0    0  502    0 -0.00000000000E+00  0.00000000000E+00  0.44715668198E+03  0.44715848548E+03  0.12700000000E+01 0.  1.
         21   -1    0    0  501  502  0.00000000000E+00 -0.00000000000E+00 -0.40179692007E+02  0.40179692007E+02  0.00000000000E+00 0. -1.
         25    2    1    2    0    0 -0.37145503311E+01 -0.39942105730E+02  0.42391424619E+03  0.44377611553E+03  0.12499913159E+03 0.  0.
    9000005    1    3    3    0    0 -0.35749864795E+02 -0.66035704052E+02  0.35937410407E+03  0.36713691414E+03  0.10000000000E+01 0.  0.
    9000005    1    3    3    0    0  0.32035314463E+02  0.26093598322E+02  0.64540142115E+02  0.76639201394E+02  0.10000000000E+01 0.  0.
          4    1    1    2  501    0  0.37145503311E+01  0.39942105730E+02 -0.16937256213E+02  0.43562061962E+02  0.12700000000E+01 0. -1.
<mgrwt>
<rscale>  1 0.13127815E+03</rscale>
<asrwt>0</asrwt>
<pdfrwt beam="2">  1       21 0.61814914E-02 0.13127815E+03</pdfrwt>
<pdfrwt beam="1">  1        4 0.68795015E-01 0.13127815E+03</pdfrwt>
<totfact> 0.15072496E+04</totfact>
</mgrwt>
</event>
<event>
 6    3  0.7601760E-003  0.1286511E+03  0.7818608E-02  0.1229471E+00
         -4   -1    0    0    0  501 -0.00000000000E+00  0.00000000000E+00  0.13423703376E+04  0.13423709384E+04  0.12700000000E+01 0. -1.
         21   -1    0    0  501  502  0.00000000000E+00 -0.00000000000E+00 -0.11843914278E+02  0.11843914278E+02  0.00000000000E+00 0.  1.
         25    2    1    2    0    0  0.28963849837E+02  0.91891433068E+01  0.13126451645E+04  0.13189345852E+04  0.12501106879E+03 0.  0.
    9000005    1    3    3    0    0  0.72605642379E+01 -0.26215134282E+02  0.63368311573E+02  0.68967325380E+02  0.10000000000E+01 0.  0.
    9000005    1    3    3    0    0  0.21703285599E+02  0.35404277589E+02  0.12492768529E+04  0.12499672598E+04  0.10000000000E+01 0.  0.
         -4    1    1    2    0  502 -0.28963849837E+02 -0.91891433068E+01  0.17881258865E+02  0.35280267440E+02  0.12700000000E+01 0.  1.
<mgrwt>
<rscale>  1 0.12865113E+03</rscale>
<asrwt>0</asrwt>
<pdfrwt beam="2">  1       21 0.18221417E-02 0.12865113E+03</pdfrwt>
<pdfrwt beam="1">  1       -4 0.20652368E+00 0.12865113E+03</pdfrwt>
<totfact> 0.77682581E+03</totfact>
</mgrwt>
</event>
<event>
 6    3  0.7601760E-003  0.1334426E+03  0.7818608E-02  0.1222435E+00
         -4   -1    0    0    0  501 -0.00000000000E+00  0.00000000000E+00  0.32514643012E+02  0.32539436231E+02  0.12700000000E+01 0.  1.
         21   -1    0    0  501  502  0.00000000000E+00 -0.00000000000E+00 -0.34345937291E+03  0.34345937291E+03  0.00000000000E+00 0.  1.
         25    2    1    2    0    0 -0.46712375398E+02 -0.29594880991E+00 -0.12014530656E+03  0.17956010001E+03  0.12499920490E+03 0.  0.
    9000005    1    3    3    0    0 -0.42198616935E+02  0.36038064556E+02 -0.16427217703E+01  0.55526245173E+02  0.10000000000E+01 0.  0.
    9000005    1    3    3    0    0 -0.45137584635E+01 -0.36334013366E+02 -0.11850258479E+03  0.12403385484E+03  0.10000000000E+01 0.  0.
         -4    1    1    2    0  502  0.46712375398E+02  0.29594880991E+00 -0.19079942333E+03  0.19643870913E+03  0.12700000000E+01 0. -1.
<mgrwt>
<rscale>  1 0.13344263E+03</rscale>
<asrwt>0</asrwt>
<pdfrwt beam="2">  1       21 0.52839906E-01 0.13344263E+03</pdfrwt>
<pdfrwt beam="1">  1       -4 0.50043403E-02 0.13344263E+03</pdfrwt>
<totfact> 0.33030612E+04</totfact>
</mgrwt>
</event>
<event>
 6    3  0.7601760E-003  0.1314945E+03  0.7818608E-02  0.1225255E+00
         21   -1    0    0  501  502  0.00000000000E+00  0.00000000000E+00  0.12198569903E+02  0.12198569903E+02  0.00000000000E+00 0. -1.
         -4   -1    0    0    0  501 -0.00000000000E+00 -0.00000000000E+00 -0.61026330216E+03  0.61026462364E+03  0.12700000000E+01 0. -1.
         25    2    1    2    0    0 -0.14620540789E+02 -0.38121332269E+02 -0.46936094930E+03  0.48743255689E+03  0.12499520232E+03 0.  0.
    9000005    1    3    3    0    0 -0.12164449237E+02 -0.53395194285E+02 -0.75545341975E+02  0.93311946138E+02  0.10000000000E+01 0.  0.
    9000005    1    3    3    0    0 -0.24560915518E+01  0.15273862016E+02 -0.39381560733E+03  0.39412061075E+03  0.10000000000E+01 0.  0.
         -4    1    1    2    0  502  0.14620540789E+02  0.38121332269E+02 -0.12870378296E+03  0.13503063665E+03  0.12700000000E+01 0.  1.
<mgrwt>
<rscale>  1 0.13149447E+03</rscale>
<asrwt>0</asrwt>
<pdfrwt beam="1">  1       21 0.18767034E-02 0.13149447E+03</pdfrwt>
<pdfrwt beam="2">  1       -4 0.93891832E-01 0.13149447E+03</pdfrwt>
<totfact> 0.54263517E+04</totfact>
</mgrwt>
</event>
<event>
 6    3  0.7601760E-003  0.1290676E+03  0.7818608E-02  0.1228846E+00
         21   -1    0    0  501  502  0.00000000000E+00  0.00000000000E+00  0.11079407276E+03  0.11079407276E+03  0.00000000000E+00 0. -1.
          4   -1    0    0  502    0 -0.00000000000E+00 -0.00000000000E+00 -0.81248823782E+02  0.81258748858E+02  0.12700000000E+01 0. -1.
         25    2    1    2    0    0 -0.56468419005E+01  0.31649358482E+02 -0.22354510051E+02  0.13098919412E+03  0.12499950456E+03 0.  0.
    9000005    1    3    3    0    0  0.18070832465E+02 -0.38067041273E+02  0.19321384448E+02  0.46367774524E+02  0.10000000000E+01 0.  0.
    9000005    1    3    3    0    0 -0.23717674365E+02  0.69716399755E+02 -0.41675894500E+02  0.84621419596E+02  0.10000000000E+01 0.  0.
          4    1    1    2  501    0  0.56468419005E+01 -0.31649358482E+02  0.51899759026E+02  0.61063627494E+02  0.12700000000E+01 0.  1.
<mgrwt>
<rscale>  1 0.12906760E+03</rscale>
<asrwt>0</asrwt>
<pdfrwt beam="1">  1       21 0.17045242E-01 0.12906760E+03</pdfrwt>
<pdfrwt beam="2">  1        4 0.12501142E-01 0.12906760E+03</pdfrwt>
<totfact> 0.64631885E+04</totfact>
</mgrwt>
</event>
<event>
 6    3  0.7601760E-003  0.1369912E+03  0.7818608E-02  0.1217436E+00
         21   -1    0    0  501  502  0.00000000000E+00  0.00000000000E+00  0.13267592768E+03  0.13267592768E+03  0.00000000000E+00 0.  1.
         -4   -1    0    0    0  501 -0.00000000000E+00 -0.00000000000E+00 -0.13696682434E+03  0.13697271214E+03  0.12700000000E+01 0. -1.
         25    2    1    2    0    0 -0.16058643589E+01 -0.56053844130E+02 -0.92371568849E+02  0.16522436125E+03  0.12498788172E+03 0.  0.
    9000005    1    3    3    0    0 -0.61283170159E+02 -0.44116971799E+02 -0.58819036515E+02  0.95721539906E+02  0.10000000000E+01 0.  0.
    9000005    1    3    3    0    0  0.59677305800E+02 -0.11936872330E+02 -0.33552532334E+02  0.69502821342E+02  0.10000000000E+01 0.  0.
         -4    1    1    2    0  502  0.16058643589E+01  0.56053844130E+02  0.88080672188E+02  0.10442427857E+03  0.12700000000E+01 0.  1.
<mgrwt>
<rscale>  1 0.13699118E+03</rscale>
<asrwt>0</asrwt>
<pdfrwt beam="1">  1       21 0.20411681E-01 0.13699118E+03</pdfrwt>
<pdfrwt beam="2">  1       -4 0.21072740E-01 0.13699118E+03</pdfrwt>
<totfact> 0.18633192E+04</totfact>
</mgrwt>
</event>
<event>
 6    3  0.7601760E-003  0.1269907E+03  0.7818608E-02  0.1231991E+00
         21   -1    0    0  501  502  0.00000000000E+00  0.00000000000E+00  0.11850382261E+03  0.11850382261E+03  0.00000000000E+00 0. -1.
         -4   -1    0    0    0  501 -0.00000000000E+00 -0.00000000000E+00 -0.50212886879E+02  0.50228944929E+02  0.12700000000E+01 0. -1.
         25    2    1    2    0    0 -0.72394198918E+01  0.21189431169E+02  0.41079192903E+02  0.13346957084E+03  0.12500090023E+03 0.  0.
    9000005    1    3    3    0    0  0.61320789204E+01 -0.51837015399E+02  0.23018308309E+02  0.57057173736E+02  0.10000000000E+01 0.  0.
    9000005    1    3    3    0    0 -0.13371498812E+02  0.73026446568E+02  0.18060884594E+02  0.76412397104E+02  0.10000000000E+01 0.  0.
         -4    1    1    2    0  502  0.72394198918E+01 -0.21189431169E+02  0.27211742827E+02  0.35263196697E+02  0.12700000000E+01 0.  1.
<mgrwt>
<rscale>  1 0.12699065E+03</rscale>
<asrwt>0</asrwt>
<pdfrwt beam="1">  1       21 0.18231357E-01 0.12699065E+03</pdfrwt>
<pdfrwt beam="2">  1       -4 0.77268182E-02 0.12699065E+03</pdfrwt>
<totfact> 0.12805267E+05</totfact>
</mgrwt>
</event>
<event>
 6    3  0.7601760E-003  0.1300058E+03  0.7818608E-02  0.1227447E+00
          4   -1    0    0  502    0 -0.00000000000E+00  0.00000000000E+00  0.18070460525E+02  0.18115033634E+02  0.12700000000E+01 0.  1.
         21   -1    0    0  501  502  0.00000000000E+00 -0.00000000000E+00 -0.60039886919E+03  0.60039886919E+03  0.00000000000E+00 0. -1.
         25    2    1    2    0    0 -0.71016464908E+01  0.35017461121E+02 -0.22858913098E+03  0.26297242079E+03  0.12499938932E+03 0.  0.
    9000005    1    3    3    0    0  0.13074244023E+02 -0.40844047850E+02 -0.13030065020E+03  0.13718028846E+03  0.10000000000E+01 0.  0.
    9000005    1    3    3    0    0 -0.20175890514E+02  0.75861508971E+02 -0.98288480781E+02  0.12579213233E+03  0.10000000000E+01 0.  0.
          4    1    1    2  501    0  0.71016464908E+01 -0.35017461121E+02 -0.35373927768E+03  0.35554148203E+03  0.12700000000E+01 0. -1.
<mgrwt>
<rscale>  1 0.13000578E+03</rscale>
<asrwt>0</asrwt>
<pdfrwt beam="2">  1       21 0.92369049E-01 0.13000578E+03</pdfrwt>
<pdfrwt beam="1">  1        4 0.27836031E-02 0.13000578E+03</pdfrwt>
<totfact> 0.24613449E+04</totfact>
</mgrwt>
</event>
<event>
 6    3  0.7601760E-003  0.1328204E+03  0.7818608E-02  0.1223330E+00
          4   -1    0    0  502    0 -0.00000000000E+00  0.00000000000E+00  0.11306452164E+04  0.11306459297E+04  0.12700000000E+01 0.  1.
         21   -1    0    0  501  502  0.00000000000E+00 -0.00000000000E+00 -0.10738203229E+02  0.10738203229E+02  0.00000000000E+00 0. -1.
         25    2    1    2    0    0  0.25409593916E+02  0.36967018948E+02  0.10496381254E+04  0.10580082524E+04  0.12501623891E+03 0.  0.
    9000005    1    3    3    0    0  0.20920337312E+02 -0.31658050749E+02  0.12071841583E+03  0.12654575699E+03  0.10000000000E+01 0.  0.
    9000005    1    3    3    0    0  0.44892566037E+01  0.68625069697E+02  0.92891970955E+03  0.93146249543E+03  0.10000000000E+01 0.  0.
          4    1    1    2  501    0 -0.25409593916E+02 -0.36967018948E+02  0.70268887791E+02  0.83375880470E+02  0.12700000000E+01 0. -1.
<mgrwt>
<rscale>  1 0.13282043E+03</rscale>
<asrwt>0</asrwt>
<pdfrwt beam="2">  1       21 0.16520322E-02 0.13282043E+03</pdfrwt>
<pdfrwt beam="1">  1        4 0.17395116E+00 0.13282043E+03</pdfrwt>
<totfact> 0.14706565E+04</totfact>
</mgrwt>
</event>
<event>
 6    3  0.7601760E-003  0.1278586E+03  0.7818608E-02  0.1230668E+00
         -4   -1    0    0    0  501 -0.00000000000E+00  0.00000000000E+00  0.11239748711E+03  0.11240466187E+03  0.12700000000E+01 0. -1.
         21   -1    0    0  501  502  0.00000000000E+00 -0.00000000000E+00 -0.15478378408E+03  0.15478378408E+03  0.00000000000E+00 0.  1.
         25    2    1    2    0    0  0.27601103376E+01  0.26698147282E+02  0.74007911128E+02  0.14773287322E+03  0.12500968620E+03 0.  0.
    9000005    1    3    3    0    0 -0.32842379266E+01  0.48434267940E+02  0.10128390870E+03  0.11232139018E+03  0.10000000000E+01 0.  0.
    9000005    1    3    3    0    0  0.60443482641E+01 -0.21736120658E+02 -0.27275997577E+02  0.35411483039E+02  0.10000000000E+01 0.  0.
         -4    1    1    2    0  502 -0.27601103376E+01 -0.26698147282E+02 -0.11639420809E+03  0.11945557272E+03  0.12700000000E+01 0.  1.
<mgrwt>
<rscale>  1 0.12785864E+03</rscale>
<asrwt>0</asrwt>
<pdfrwt beam="2">  1       21 0.23812890E-01 0.12785864E+03</pdfrwt>
<pdfrwt beam="1">  1       -4 0.17292874E-01 0.12785864E+03</pdfrwt>
<totfact> 0.19768412E+04</totfact>
</mgrwt>
</event>
<event>
 6    3  0.7601760E-003  0.1276541E+03  0.7818608E-02  0.1230979E+00
         -4   -1    0    0    0  501 -0.00000000000E+00  0.00000000000E+00  0.90962824888E+03  0.90962913545E+03  0.12700000000E+01 0.  1.
         21   -1    0    0  501  502  0.00000000000E+00 -0.00000000000E+00 -0.77389118773E+01  0.77389118773E+01  0.00000000000E+00 0.  1.
         25    2    1    2    0    0  0.25410735454E+02  0.49962602286E+01  0.84812637360E+03  0.85767937816E+03  0.12499960816E+03 0.  0.
    9000005    1    3    3    0    0  0.70251493932E+02 -0.57576722081E+01  0.66924422768E+03  0.67294669884E+03  0.10000000000E+01 0.  0.
    9000005    1    3    3    0    0 -0.44840758478E+02  0.10753932437E+02  0.17888214591E+03  0.18473267932E+03  0.10000000000E+01 0.  0.
         -4    1    1    2    0  502 -0.25410735454E+02 -0.49962602286E+01  0.53762963404E+02  0.59688669164E+02  0.12700000000E+01 0. -1.
<mgrwt>
<rscale>  1 0.12765410E+03</rscale>
<asrwt>0</asrwt>
<pdfrwt beam="2">  1       21 0.11906025E-02 0.12765410E+03</pdfrwt>
<pdfrwt beam="1">  1       -4 0.13995081E+00 0.12765410E+03</pdfrwt>
<totfact> 0.43253456E+04</totfact>
</mgrwt>
</event>
<event>
 6    3  0.7601760E-003  0.1290192E+03  0.7818608E-02  0.1228918E+00
         21   -1    0    0  501  502  0.00000000000E+00  0.00000000000E+00  0.26491282059E+03  0.26491282059E+03  0.00000000000E+00 0.  1.
          4   -1    0    0  502    0 -0.00000000000E+00 -0.00000000000E+00 -0.41272338518E+02  0.41291873616E+02  0.12700000000E+01 0. -1.
         25    2    1    2    0    0 -0.80230580034E+01  0.30924104179E+02  0.65176569770E+02  0.14454735883E+03  0.12500113607E+03 0.  0.
    9000005    1    3    3    0    0 -0.28499273966E+02  0.73394115223E+02  0.55691169970E+02  0.96443823953E+02  0.10000000000E+01 0.  0.
    9000005    1    3    3    0    0  0.20476215963E+02 -0.42470011045E+02  0.94853997997E+01  0.48103534877E+02  0.10000000000E+01 0.  0.
          4    1    1    2  501    0  0.80230580034E+01 -0.30924104179E+02  0.15846391230E+03  0.16165733538E+03  0.12700000000E+01 0.  1.
<mgrwt>
<rscale>  1 0.12901920E+03</rscale>
<asrwt>0</asrwt>
<pdfrwt beam="1">  1       21 0.40755817E-01 0.12901920E+03</pdfrwt>
<pdfrwt beam="2">  1        4 0.63513276E-02 0.12901920E+03</pdfrwt>
<totfact> 0.38039287E+04</totfact>
</mgrwt>
</event>
<event>
 6    3  0.7601760E-003  0.1299435E+03  0.7818608E-02  0.1227540E+00
         21   -1    0    0  501  502  0.00000000000E+00  0.00000000000E+00  0.57924409239E+01  0.57924409239E+01  0.00000000000E+00 0.  1.
          4   -1    0    0  502    0 -0.00000000000E+00 -0.00000000000E+00 -0.14775499854E+04  0.14775505312E+04  0.12700000000E+01 0.  1.
         25    2    1    2    0    0  0.26854634957E+02 -0.23295219083E+02 -0.13567741907E+04  0.13629825833E+04  0.12498591602E+03 0.  0.
    9000005    1    3    3    0    0 -0.23385415880E+02  0.14493391292E+02 -0.78947970705E+02  0.83610514563E+02  0.10000000000E+01 0.  0.
    9000005    1    3    3    0    0  0.50240050837E+02 -0.37788610375E+02 -0.12778262200E+04  0.12793720687E+04  0.10000000000E+01 0.  0.
          4    1    1    2  501    0 -0.26854634957E+02  0.23295219083E+02 -0.11498335381E+03  0.12036038885E+03  0.12700000000E+01 0. -1.
<mgrwt>
<rscale>  1 0.12994352E+03</rscale>
<asrwt>0</asrwt>
<pdfrwt beam="1">  1       21 0.89114555E-03 0.12994352E+03</pdfrwt>
<pdfrwt beam="2">  1        4 0.22732593E+00 0.12994352E+03</pdfrwt>
<totfact> 0.18180878E+04</totfact>
</mgrwt>
</event>
<event>
 6    3  0.7601760E-003  0.1268192E+03  0.7818608E-02  0.1232253E+00
         21   -1    0    0  501  502  0.00000000000E+00  0.00000000000E+00  0.23112299991E+03  0.23112299991E+03  0.00000000000E+00 0. -1.
         -4   -1    0    0    0  501 -0.00000000000E+00 -0.00000000000E+00 -0.39543807325E+02  0.39564195907E+02  0.12700000000E+01 0.  1.
         25    2    1    2    0    0  0.31090614147E+01 -0.21197040840E+02  0.65387793776E+02  0.14268382541E+03  0.12499651857E+03 0.  0.
    9000005    1    3    3    0    0 -0.67521030223E+01 -0.73282537439E+02  0.41935712998E+02  0.84708471911E+02  0.10000000000E+01 0.  0.
    9000005    1    3    3    0    0  0.98611644370E+01  0.52085496599E+02  0.23452080777E+02  0.57975353494E+02  0.10000000000E+01 0.  0.
         -4    1    1    2    0  502 -0.31090614147E+01  0.21197040840E+02  0.12619139881E+03  0.12800337041E+03  0.12700000000E+01 0. -1.
<mgrwt>
<rscale>  1 0.12681920E+03</rscale>
<asrwt>0</asrwt>
<pdfrwt beam="1">  1       21 0.35557384E-01 0.12681920E+03</pdfrwt>
<pdfrwt beam="2">  1       -4 0.60854995E-02 0.12681920E+03</pdfrwt>
<totfact> 0.53363264E+04</totfact>
</mgrwt>
</event>
<event>
 6    3  0.7601760E-003  0.1295731E+03  0.7818608E-02  0.1228091E+00
         21   -1    0    0  501  502  0.00000000000E+00  0.00000000000E+00  0.49310569956E+02  0.49310569956E+02  0.00000000000E+00 0. -1.
          4   -1    0    0  502    0 -0.00000000000E+00 -0.00000000000E+00 -0.13869833480E+03  0.13870414909E+03  0.12700000000E+01 0. -1.
         25    2    1    2    0    0 -0.34063323564E+02  0.48091503557E+00 -0.81337009249E+02  0.15298660381E+03  0.12501460147E+03 0.  0.
    9000005    1    3    3    0    0 -0.15843401690E+02  0.35237152160E+02 -0.10167730071E+03  0.10877473856E+03  0.10000000000E+01 0.  0.
    9000005    1    3    3    0    0 -0.18219921873E+02 -0.34756237124E+02  0.20340291462E+02  0.44211865250E+02  0.10000000000E+01 0.  0.
          4    1    1    2  501    0  0.34063323564E+02 -0.48091503557E+00 -0.80507555929E+01  0.35028115237E+02  0.12700000000E+01 0.  1.
<mgrwt>
<rscale>  1 0.12957311E+03</rscale>
<asrwt>0</asrwt>
<pdfrwt beam="1">  1       21 0.75862416E-02 0.12957311E+03</pdfrwt>
<pdfrwt beam="2">  1        4 0.21339910E-01 0.12957311E+03</pdfrwt>
<totfact> 0.10545548E+05</totfact>
</mgrwt>
</event>
<event>
 6    3  0.7601760E-003  0.1312093E+03  0.7818608E-02  0.1225672E+00
         -4   -1    0    0    0  501 -0.00000000000E+00  0.00000000000E+00  0.24328053524E+03  0.24328385011E+03  0.12700000000E+01 0.  1.
         21   -1    0    0  501  502  0.00000000000E+00 -0.00000000000E+00 -0.51403070237E+02  0.51403070237E+02  0.00000000000E+00 0. -1.
         25    2    1    2    0    0  0.30979503009E+01 -0.39805846759E+02  0.21249022665E+03  0.24973581830E+03  0.12498711849E+03 0.  0.
    9000005    1    3    3    0    0  0.16802814640E+02 -0.83278183247E+02  0.14984892004E+03  0.17225936613E+03  0.10000000000E+01 0.  0.
    9000005    1    3    3    0    0 -0.13704864339E+02  0.43472336488E+02  0.62641306615E+02  0.77476452169E+02  0.10000000000E+01 0.  0.
         -4    1    1    2    0  502 -0.30979503009E+01  0.39805846759E+02 -0.20612761652E+02  0.44951102046E+02  0.12700000000E+01 0. -1.
<mgrwt>
<rscale>  1 0.13120931E+03</rscale>
<asrwt>0</asrwt>
<pdfrwt beam="2">  1       21 0.79081648E-02 0.13120931E+03</pdfrwt>
<pdfrwt beam="1">  1       -4 0.37429236E-01 0.13120931E+03</pdfrwt>
<totfact> 0.34288337E+04</totfact>
</mgrwt>
</event>
<event>
 6    3  0.7601760E-003  0.1291418E+03  0.7818608E-02  0.1228735E+00
         21   -1    0    0  501  502  0.00000000000E+00  0.00000000000E+00  0.15869102595E+02  0.15869102595E+02  0.00000000000E+00 0.  1.
         -4   -1    0    0    0  501 -0.00000000000E+00 -0.00000000000E+00 -0.60021532496E+03  0.60021666856E+03  0.12700000000E+01 0. -1.
         25    2    1    2    0    0  0.19518179621E+02 -0.25910056753E+02 -0.56206746457E+03  0.57671260357E+03  0.12500120805E+03 0.  0.
    9000005    1    3    3    0    0 -0.80391672659E+00  0.32412346808E+02 -0.42654869800E+03  0.42778031544E+03  0.10000000000E+01 0.  0.
    9000005    1    3    3    0    0  0.20322096348E+02 -0.58322403560E+02 -0.13551876656E+03  0.14893228813E+03  0.10000000000E+01 0.  0.
         -4    1    1    2    0  502 -0.19518179621E+02  0.25910056753E+02 -0.22278757797E+02  0.39373167585E+02  0.12700000000E+01 0.  1.
<mgrwt>
<rscale>  1 0.12914175E+03</rscale>
<asrwt>0</asrwt>
<pdfrwt beam="1">  1       21 0.24414002E-02 0.12914175E+03</pdfrwt>
<pdfrwt beam="2">  1       -4 0.92344839E-01 0.12914175E+03</pdfrwt>
<totfact> 0.36728212E+04</totfact>
</mgrwt>
</event>
<event>
 6    3  0.7601760E-003  0.1270057E+03  0.7818608E-02  0.1231968E+00
         21   -1    0    0  501  502  0.00000000000E+00  0.00000000000E+00  0.29330885429E+03  0.29330885429E+03  0.00000000000E+00 0.  1.
          4   -1    0    0  502    0 -0.00000000000E+00 -0.00000000000E+00 -0.29097708781E+02  0.29125410835E+02  0.12700000000E+01 0. -1.
         25    2    1    2    0    0  0.17160237498E+02 -0.14493898423E+02  0.11436542172E+03  0.17090901746E+03  0.12500358283E+03 0.  0.
    9000005    1    3    3    0    0  0.54373889662E+01  0.66003061412E+01 -0.26564165715E+02  0.27924615308E+02  0.10000000000E+01 0.  0.
    9000005    1    3    3    0    0  0.11722848532E+02 -0.21094204564E+02  0.14092958744E+03  0.14298440215E+03  0.10000000000E+01 0.  0.
          4    1    1    2  501    0 -0.17160237498E+02  0.14493898423E+02  0.14984572379E+03  0.15152524767E+03  0.12700000000E+01 0.  1.
<mgrwt>
<rscale>  1 0.12700568E+03</rscale>
<asrwt>0</asrwt>
<pdfrwt beam="1">  1       21 0.45124437E-01 0.12700568E+03</pdfrwt>
<pdfrwt beam="2">  1        4 0.44789132E-02 0.12700568E+03</pdfrwt>
<totfact> 0.54293527E+04</totfact>
</mgrwt>
</event>
<event>
 6    3  0.7601760E-003  0.1283259E+03  0.7818608E-02  0.1229961E+00
          4   -1    0    0  502    0 -0.00000000000E+00  0.00000000000E+00  0.52273476285E+02  0.52288901527E+02  0.12700000000E+01 0.  1.
         21   -1    0    0  501  502  0.00000000000E+00 -0.00000000000E+00 -0.11853105617E+03  0.11853105617E+03  0.00000000000E+00 0.  1.
         25    2    1    2    0    0 -0.12160116067E+02  0.26355949756E+02 -0.55940031089E+02  0.13998865504E+03  0.12500012780E+03 0.  0.
    9000005    1    3    3    0    0  0.96284616284E+00  0.61947295775E+02  0.11104666118E+02  0.62950044767E+02  0.10000000000E+01 0.  0.
    9000005    1    3    3    0    0 -0.13122962230E+02 -0.35591346019E+02 -0.67044697207E+02  0.77038610273E+02  0.10000000000E+01 0.  0.
          4    1    1    2  501    0  0.12160116067E+02 -0.26355949756E+02 -0.10317548794E+02  0.30831302655E+02  0.12700000000E+01 0. -1.
<mgrwt>
<rscale>  1 0.12832590E+03</rscale>
<asrwt>0</asrwt>
<pdfrwt beam="2">  1       21 0.18235547E-01 0.12832590E+03</pdfrwt>
<pdfrwt beam="1">  1        4 0.80437832E-02 0.12832590E+03</pdfrwt>
<totfact> 0.11994910E+05</totfact>
</mgrwt>
</event>
<event>
 6    3  0.7601760E-003  0.1427367E+03  0.7818608E-02  0.1209693E+00
         -4   -1    0    0    0  501 -0.00000000000E+00  0.00000000000E+00  0.18429193406E+04  0.18429197782E+04  0.12700000000E+01 0. -1.
         21   -1    0    0  501  502  0.00000000000E+00 -0.00000000000E+00 -0.98775477037E+02  0.98775477037E+02  0.00000000000E+00 0.  1.
         25    2    1    2    0    0 -0.29184795433E+02 -0.62450958021E+02  0.18277573328E+04  0.18333222900E+04  0.12498750839E+03 0.  0.
    9000005    1    3    3    0    0 -0.24465077307E+02 -0.83812174381E+02  0.70978443691E+03  0.71513492955E+03  0.10000000000E+01 0.  0.
    9000005    1    3    3    0    0 -0.47197181258E+01  0.21361216360E+02  0.11179728959E+04  0.11181873605E+04  0.10000000000E+01 0.  0.
         -4    1    1    2    0  502  0.29184795433E+02  0.62450958021E+02 -0.83613469226E+02  0.10837296516E+03  0.12700000000E+01 0.  1.
<mgrwt>
<rscale>  1 0.14273665E+03</rscale>
<asrwt>0</asrwt>
<pdfrwt beam="2">  1       21 0.15196229E-01 0.14273665E+03</pdfrwt>
<pdfrwt beam="1">  1       -4 0.28352669E+00 0.14273665E+03</pdfrwt>
<totfact> 0.76096621E+01</totfact>
</mgrwt>
</event>
<event>
 6    3  0.7601760E-003  0.1320511E+03  0.7818608E-02  0.1224444E+00
          4   -1    0    0  502    0 -0.00000000000E+00  0.00000000000E+00  0.42205017684E+03  0.42205208763E+03  0.12700000000E+01 0. -1.
         21   -1    0    0  501  502  0.00000000000E+00 -0.00000000000E+00 -0.95178542859E+02  0.95178542859E+02  0.00000000000E+00 0.  1.
         25    2    1    2    0    0 -0.20479313511E+02 -0.37331074785E+02  0.40623446417E+03  0.42715797570E+03  0.12499793959E+03 0.  0.
    9000005    1    3    3    0    0 -0.42489266332E+01  0.25766080540E+02  0.14193103744E+02  0.29738669739E+02  0.10000000000E+01 0.  0.
    9000005    1    3    3    0    0 -0.16230386878E+02 -0.63097155326E+02  0.39204136042E+03  0.39741930596E+03  0.10000000000E+01 0.  0.
          4    1    1    2  501    0  0.20479313511E+02  0.37331074785E+02 -0.79362830182E+02  0.90072654790E+02  0.12700000000E+01 0.  1.
<mgrwt>
<rscale>  1 0.13205111E+03</rscale>
<asrwt>0</asrwt>
<pdfrwt beam="2">  1       21 0.14642853E-01 0.13205111E+03</pdfrwt>
<pdfrwt beam="1">  1        4 0.64931594E-01 0.13205111E+03</pdfrwt>
<totfact> 0.37853215E+03</totfact>
</mgrwt>
</event>
<event>
 6    3  0.7601760E-003  0.1268783E+03  0.7818608E-02  0.1232163E+00
         -4   -1    0    0    0  501 -0.00000000000E+00  0.00000000000E+00  0.76923076084E+01  0.77964412614E+01  0.12700000000E+01 0.  1.
         21   -1    0    0  501  502  0.00000000000E+00 -0.00000000000E+00 -0.86002634359E+03  0.86002634359E+03  0.00000000000E+00 0.  1.
         25    2    1    2    0    0 -0.19629414037E+02  0.93540580610E+01 -0.53897399985E+03  0.55370666390E+03  0.12500113933E+03 0.  0.
    9000005    1    3    3    0    0 -0.14786401194E+02  0.14130601071E+02 -0.69295923773E+01  0.21617835169E+02  0.10000000000E+01 0.  0.
    9000005    1    3    3    0    0 -0.48430128430E+01 -0.47765430099E+01 -0.53204440747E+03  0.53208882873E+03  0.10000000000E+01 0.  0.
         -4    1    1    2    0  502  0.19629414037E+02 -0.93540580610E+01 -0.31336003614E+03  0.31411612096E+03  0.12700000000E+01 0. -1.
<mgrwt>
<rscale>  1 0.12687828E+03</rscale>
<asrwt>0</asrwt>
<pdfrwt beam="2">  1       21 0.13231167E+00 0.12687828E+03</pdfrwt>
<pdfrwt beam="1">  1       -4 0.11915151E-02 0.12687828E+03</pdfrwt>
<totfact> 0.38182915E+04</totfact>
</mgrwt>
</event>
<event>
 6    3  0.7601760E-003  0.1384838E+03  0.7818608E-02  0.1215384E+00
          4   -1    0    0  502    0 -0.00000000000E+00  0.00000000000E+00  0.92082431663E+01  0.92954097387E+01  0.12700000000E+01 0.  1.
         21   -1    0    0  501  502  0.00000000000E+00 -0.00000000000E+00 -0.14824030541E+04  0.14824030541E+04  0.00000000000E+00 0. -1.
         25    2    1    2    0    0 -0.54986171260E+02  0.22940877247E+02 -0.57160054835E+03  0.58813684994E+03  0.12501201746E+03 0.  0.
    9000005    1    3    3    0    0 -0.67526906555E+02 -0.10603079257E+02 -0.14801616984E+03  0.16304016355E+03  0.10000000000E+01 0.  0.
    9000005    1    3    3    0    0  0.12540735295E+02  0.33543956504E+02 -0.42358437851E+03  0.42509668639E+03  0.10000000000E+01 0.  0.
          4    1    1    2  501    0  0.54986171260E+02 -0.22940877247E+02 -0.90159426255E+03  0.90356161386E+03  0.12700000000E+01 0. -1.
<mgrwt>
<rscale>  1 0.13848382E+03</rscale>
<asrwt>0</asrwt>
<pdfrwt beam="2">  1       21 0.22806210E+00 0.13848382E+03</pdfrwt>
<pdfrwt beam="1">  1        4 0.14233992E-02 0.13848382E+03</pdfrwt>
<totfact> 0.65294449E+03</totfact>
</mgrwt>
</event>
<event>
 6    3  0.7601760E-003  0.1305039E+03  0.7818608E-02  0.1226710E+00
         21   -1    0    0  501  502  0.00000000000E+00  0.00000000000E+00  0.17303539770E+03  0.17303539770E+03  0.00000000000E+00 0.  1.
         -4   -1    0    0    0  501 -0.00000000000E+00 -0.00000000000E+00 -0.41877421242E+02  0.41896674210E+02  0.12700000000E+01 0.  1.
         25    2    1    2    0    0  0.37332199916E+02 -0.34868687912E+01  0.86317011486E+02  0.15646689899E+03  0.12500165041E+03 0.  0.
    9000005    1    3    3    0    0 -0.31700301382E+02 -0.36177834200E+02  0.57136142176E+02  0.74694601798E+02  0.10000000000E+01 0.  0.
    9000005    1    3    3    0    0  0.69032501298E+02  0.32690965409E+02  0.29180869310E+02  0.81772297194E+02  0.10000000000E+01 0.  0.
         -4    1    1    2    0  502 -0.37332199916E+02  0.34868687912E+01  0.44840964972E+02  0.58465172916E+02  0.12700000000E+01 0. -1.
<mgrwt>
<rscale>  1 0.13050389E+03</rscale>
<asrwt>0</asrwt>
<pdfrwt beam="1">  1       21 0.26620830E-01 0.13050389E+03</pdfrwt>
<pdfrwt beam="2">  1       -4 0.64445198E-02 0.13050389E+03</pdfrwt>
<totfact> 0.85401516E+04</totfact>
</mgrwt>
</event>
<event>
 6    3  0.7601760E-003  0.1784281E+03  0.7818608E-02  0.1169333E+00
         21   -1    0    0  501  502  0.00000000000E+00  0.00000000000E+00  0.83527742224E+03  0.83527742224E+03  0.00000000000E+00 0. -1.
          4   -1    0    0  502    0 -0.00000000000E+00 -0.00000000000E+00 -0.65037409393E+03  0.65037533391E+03  0.12700000000E+01 0.  1.
         25    2    1    2    0    0  0.14418557688E+01 -0.12731129001E+03 -0.63311861430E+03  0.65778093333E+03  0.12500533175E+03 0.  0.
    9000005    1    3    3    0    0 -0.45310368773E+02 -0.27810807590E+01 -0.16185002563E+03  0.16809876479E+03  0.10000000000E+01 0.  0.
    9000005    1    3    3    0    0  0.46752224542E+02 -0.12453020925E+03 -0.47126858868E+03  0.48968216854E+03  0.10000000000E+01 0.  0.
          4    1    1    2  501    0 -0.14418557688E+01  0.12731129001E+03  0.81802194261E+03  0.82787182281E+03  0.12700000000E+01 0. -1.
<mgrwt>
<rscale>  1 0.17842807E+03</rscale>
<asrwt>0</asrwt>
<pdfrwt beam="1">  1       21 0.12850422E+00 0.17842807E+03</pdfrwt>
<pdfrwt beam="2">  1        4 0.10005772E+00 0.17842807E+03</pdfrwt>
<totfact> 0.16098936E+01</totfact>
</mgrwt>
</event>
<event>
 6    3  0.7601760E-003  0.1376192E+03  0.7818608E-02  0.1216569E+00
         -4   -1    0    0    0  501 -0.00000000000E+00  0.00000000000E+00  0.16486163246E+03  0.16486652407E+03  0.12700000000E+01 0. -1.
         21   -1    0    0  501  502  0.00000000000E+00 -0.00000000000E+00 -0.15046943317E+03  0.15046943317E+03  0.00000000000E+00 0.  1.
         25    2    1    2    0    0 -0.54881698674E+02 -0.17356084410E+02  0.12801764380E+03  0.18795625299E+03  0.12500320555E+03 0.  0.
    9000005    1    3    3    0    0 -0.97210423890E+00 -0.55905551304E+01 -0.24809564754E+02  0.25469860553E+02  0.10000000000E+01 0.  0.
    9000005    1    3    3    0    0 -0.53909594435E+02 -0.11765529279E+02  0.15282720856E+03  0.16248639244E+03  0.10000000000E+01 0.  0.
         -4    1    1    2    0  502  0.54881698674E+02  0.17356084410E+02 -0.11362544451E+03  0.12737970425E+03  0.12700000000E+01 0.  1.
<mgrwt>
<rscale>  1 0.13761917E+03</rscale>
<asrwt>0</asrwt>
<pdfrwt beam="2">  1       21 0.23149144E-01 0.13761917E+03</pdfrwt>
<pdfrwt beam="1">  1       -4 0.25364116E-01 0.13761917E+03</pdfrwt>
<totfact> 0.10499074E+04</totfact>
</mgrwt>
</event>
<event>
 6    3  0.7601760E-003  0.1274883E+03  0.7818608E-02  0.1231231E+00
         21   -1    0    0  501  502  0.00000000000E+00  0.00000000000E+00  0.37957425250E+02  0.37957425250E+02  0.00000000000E+00 0.  1.
          4   -1    0    0  502    0 -0.00000000000E+00 -0.00000000000E+00 -0.27219267345E+03  0.27219563622E+03  0.12700000000E+01 0. -1.
         25    2    1    2    0    0  0.34408803034E+01  0.24818729072E+02 -0.24992455084E+03  0.28056292650E+03  0.12500186256E+03 0.  0.
    9000005    1    3    3    0    0 -0.31610294660E+02  0.20200686583E+02 -0.11100777594E+02  0.39134457070E+02  0.10000000000E+01 0.  0.
    9000005    1    3    3    0    0  0.35051174964E+02  0.46180424885E+01 -0.23882377325E+03  0.24142846943E+03  0.10000000000E+01 0.  0.
          4    1    1    2  501    0 -0.34408803034E+01 -0.24818729072E+02  0.15689302648E+02  0.29590134970E+02  0.12700000000E+01 0.  1.
<mgrwt>
<rscale>  1 0.12748833E+03</rscale>
<asrwt>0</asrwt>
<pdfrwt beam="1">  1       21 0.58396038E-02 0.12748833E+03</pdfrwt>
<pdfrwt beam="2">  1        4 0.41877658E-01 0.12748833E+03</pdfrwt>
<totfact> 0.46000809E+04</totfact>
</mgrwt>
</event>
<event>
 6    3  0.7601760E-003  0.1470699E+03  0.7818608E-02  0.1204120E+00
          4   -1    0    0  502    0 -0.00000000000E+00  0.00000000000E+00  0.93200267217E+03  0.93200353746E+03  0.12700000000E+01 0. -1.
         21   -1    0    0  501  502  0.00000000000E+00 -0.00000000000E+00 -0.97333336001E+03  0.97333336001E+03  0.00000000000E+00 0.  1.
         25    2    1    2    0    0 -0.77252790542E+02  0.60631219424E+01  0.92463953063E+03  0.93626268412E+03  0.12499918794E+03 0.  0.
    9000005    1    3    3    0    0 -0.68384091017E+02 -0.41027680771E+01  0.19839795652E+03  0.20989513039E+03  0.10000000000E+01 0.  0.
    9000005    1    3    3    0    0 -0.88686995243E+01  0.10165890019E+02  0.72624157411E+03  0.72636755374E+03  0.10000000000E+01 0.  0.
          4    1    1    2  501    0  0.77252790542E+02 -0.60631219424E+01 -0.96597021847E+03  0.96907421335E+03  0.12700000000E+01 0.  1.
<mgrwt>
<rscale>  1 0.14706989E+03</rscale>
<asrwt>0</asrwt>
<pdfrwt beam="2">  1       21 0.14974359E+00 0.14706989E+03</pdfrwt>
<pdfrwt beam="1">  1        4 0.14338516E+00 0.14706989E+03</pdfrwt>
<totfact> 0.46616674E+00</totfact>
</mgrwt>
</event>
<event>
 6    3  0.7601760E-003  0.1287071E+03  0.7818608E-02  0.1229387E+00
         -4   -1    0    0    0  501 -0.00000000000E+00  0.00000000000E+00  0.10790886012E+03  0.10791633329E+03  0.12700000000E+01 0. -1.
         21   -1    0    0  501  502  0.00000000000E+00 -0.00000000000E+00 -0.32971136361E+03  0.32971136361E+03  0.00000000000E+00 0.  1.
         25    2    1    2    0    0  0.29756678758E+02  0.74091601942E+01  0.68436371223E+02  0.14577058652E+03  0.12500068561E+03 0.  0.
    9000005    1    3    3    0    0  0.27327660903E+02 -0.57173032623E+02  0.41450237779E+02  0.75727662856E+02  0.10000000000E+01 0.  0.
    9000005    1    3    3    0    0  0.24290178553E+01  0.64582192817E+02  0.26986133444E+02  0.70042923662E+02  0.10000000000E+01 0.  0.
         -4    1    1    2    0  502 -0.29756678758E+02 -0.74091601942E+01 -0.29023887472E+03  0.29185711039E+03  0.12700000000E+01 0.  1.
<mgrwt>
<rscale>  1 0.12870714E+03</rscale>
<asrwt>0</asrwt>
<pdfrwt beam="2">  1       21 0.50724824E-01 0.12870714E+03</pdfrwt>
<pdfrwt beam="1">  1       -4 0.16602126E-01 0.12870714E+03</pdfrwt>
<totfact> 0.48049440E+03</totfact>
</mgrwt>
</event>
<event>
 6    3  0.7601760E-003  0.1268746E+03  0.7818608E-02  0.1232168E+00
         21   -1    0    0  501  502  0.00000000000E+00  0.00000000000E+00  0.12074025633E+03  0.12074025633E+03  0.00000000000E+00 0. -1.
          4   -1    0    0  502    0 -0.00000000000E+00 -0.00000000000E+00 -0.45806043443E+02  0.45823645816E+02  0.12700000000E+01 0. -1.
         25    2    1    2    0    0 -0.21160299472E+02  0.47983791333E+01  0.61304546086E+02  0.14090920602E+03  0.12500549690E+03 0.  0.
    9000005    1    3    3    0    0  0.28635834975E+02 -0.42484708335E+02  0.49459744911E+02  0.71219574933E+02  0.10000000000E+01 0.  0.
    9000005    1    3    3    0    0 -0.49796134447E+02  0.47283087468E+02  0.11844801175E+02  0.69689631089E+02  0.10000000000E+01 0.  0.
          4    1    1    2  501    0  0.21160299472E+02 -0.47983791333E+01  0.13629666800E+02  0.25654696122E+02  0.12700000000E+01 0.  1.
<mgrwt>
<rscale>  1 0.12687457E+03</rscale>
<asrwt>0</asrwt>
<pdfrwt beam="1">  1       21 0.18575424E-01 0.12687457E+03</pdfrwt>
<pdfrwt beam="2">  1        4 0.70489515E-02 0.12687457E+03</pdfrwt>
<totfact> 0.14389517E+05</totfact>
</mgrwt>
</event>
<event>
 6    3  0.7601760E-003  0.1269972E+03  0.7818608E-02  0.1231981E+00
         21   -1    0    0  501  502  0.00000000000E+00  0.00000000000E+00  0.25984976107E+03  0.25984976107E+03  0.00000000000E+00 0.  1.
          4   -1    0    0  502    0 -0.00000000000E+00 -0.00000000000E+00 -0.61563482359E+02  0.61576580452E+02  0.12700000000E+01 0. -1.
         25    2    1    2    0    0  0.18800236351E+02  0.12220215681E+02  0.52685704021E+01  0.12710642186E+03  0.12500200832E+03 0.  0.
    9000005    1    3    3    0    0 -0.34377494136E+01  0.10994070242E+02  0.63609013163E+02  0.64651328348E+02  0.10000000000E+01 0.  0.
    9000005    1    3    3    0    0  0.22237985765E+02  0.12261454394E+01 -0.58340442761E+02  0.62455093508E+02  0.10000000000E+01 0.  0.
          4    1    1    2  501    0 -0.18800236351E+02 -0.12220215681E+02  0.19301770831E+03  0.19431991967E+03  0.12700000000E+01 0.  1.
<mgrwt>
<rscale>  1 0.12699718E+03</rscale>
<asrwt>0</asrwt>
<pdfrwt beam="1">  1       21 0.39976886E-01 0.12699718E+03</pdfrwt>
<pdfrwt beam="2">  1        4 0.94725514E-02 0.12699718E+03</pdfrwt>
<totfact> 0.20398856E+04</totfact>
</mgrwt>
</event>
<event>
 6    3  0.7601760E-003  0.1286314E+03  0.7818608E-02  0.1229501E+00
         21   -1    0    0  501  502  0.00000000000E+00  0.00000000000E+00  0.59751321101E+01  0.59751321101E+01  0.00000000000E+00 0.  1.
          4   -1    0    0  502    0 -0.00000000000E+00 -0.00000000000E+00 -0.13104005013E+04  0.13104011167E+04  0.12700000000E+01 0.  1.
         25    2    1    2    0    0  0.29183777861E+02 -0.82933396755E+01 -0.12179615781E+04  0.12247352512E+04  0.12500222995E+03 0.  0.
    9000005    1    3    3    0    0 -0.21174767599E+02  0.43745714561E+02 -0.29915503911E+03  0.30307886061E+03  0.10000000000E+01 0.  0.
    9000005    1    3    3    0    0  0.50358545460E+02 -0.52039054236E+02 -0.91880653896E+03  0.92165639059E+03  0.10000000000E+01 0.  0.
          4    1    1    2  501    0 -0.29183777861E+02  0.82933396755E+01 -0.86463791131E+02  0.91640997648E+02  0.12700000000E+01 0. -1.
<mgrwt>
<rscale>  1 0.12863137E+03</rscale>
<asrwt>0</asrwt>
<pdfrwt beam="1">  1       21 0.91925012E-03 0.12863137E+03</pdfrwt>
<pdfrwt beam="2">  1        4 0.20161072E+00 0.12863137E+03</pdfrwt>
<totfact> 0.24698545E+04</totfact>
</mgrwt>
</event>
<event>
 6    3  0.7601760E-003  0.1304835E+03  0.7818608E-02  0.1226740E+00
         21   -1    0    0  501  502  0.00000000000E+00  0.00000000000E+00  0.17613892919E+02  0.17613892919E+02  0.00000000000E+00 0. -1.
         -4   -1    0    0    0  501 -0.00000000000E+00 -0.00000000000E+00 -0.64878164971E+03  0.64878289273E+03  0.12700000000E+01 0.  1.
         25    2    1    2    0    0  0.36569392477E+02 -0.79813209624E+01 -0.60911589431E+03  0.62293508424E+03  0.12499969812E+03 0.  0.
    9000005    1    3    3    0    0  0.46129904240E+02 -0.41950953012E+02 -0.55388966702E+03  0.55738910445E+03  0.10000000000E+01 0.  0.
    9000005    1    3    3    0    0 -0.95605117633E+01  0.33969632049E+02 -0.55226227286E+02  0.65545979792E+02  0.10000000000E+01 0.  0.
         -4    1    1    2    0  502 -0.36569392477E+02  0.79813209624E+01 -0.22051862482E+02  0.43461701409E+02  0.12700000000E+01 0. -1.
<mgrwt>
<rscale>  1 0.13048351E+03</rscale>
<asrwt>0</asrwt>
<pdfrwt beam="1">  1       21 0.27098297E-02 0.13048351E+03</pdfrwt>
<pdfrwt beam="2">  1       -4 0.99816178E-01 0.13048351E+03</pdfrwt>
<totfact> 0.25968859E+04</totfact>
</mgrwt>
</event>
<event>
 6    3  0.7601760E-003  0.1279569E+03  0.7818608E-02  0.1230519E+00
         21   -1    0    0  501  502  0.00000000000E+00  0.00000000000E+00  0.11165774986E+03  0.11165774986E+03  0.00000000000E+00 0.  1.
         -4   -1    0    0    0  501 -0.00000000000E+00 -0.00000000000E+00 -0.84471836543E+02  0.84481382972E+02  0.12700000000E+01 0.  1.
         25    2    1    2    0    0 -0.27353367922E+02 -0.53423873124E+00 -0.31150002739E+02  0.13169393014E+03  0.12499790565E+03 0.  0.
    9000005    1    3    3    0    0 -0.66445320367E+02 -0.12511094161E+02 -0.52454118897E+02  0.85580036604E+02  0.10000000000E+01 0.  0.
    9000005    1    3    3    0    0  0.39091952445E+02  0.11976855430E+02  0.21304116158E+02  0.46113893538E+02  0.10000000000E+01 0.  0.
         -4    1    1    2    0  502  0.27353367922E+02  0.53423873124E+00  0.58335916059E+02  0.64445202693E+02  0.12700000000E+01 0. -1.
<mgrwt>
<rscale>  1 0.12795690E+03</rscale>
<asrwt>0</asrwt>
<pdfrwt beam="1">  1       21 0.17178115E-01 0.12795690E+03</pdfrwt>
<pdfrwt beam="2">  1       -4 0.12996957E-01 0.12795690E+03</pdfrwt>
<totfact> 0.59539773E+04</totfact>
</mgrwt>
</event>
<event>
 6    3  0.7601760E-003  0.1270801E+03  0.7818608E-02  0.1231854E+00
          4   -1    0    0  502    0 -0.00000000000E+00  0.00000000000E+00  0.11287736020E+04  0.11287743164E+04  0.12700000000E+01 0.  1.
         21   -1    0    0  501  502  0.00000000000E+00 -0.00000000000E+00 -0.75957121082E+01  0.75957121082E+01  0.00000000000E+00 0.  1.
         25    2    1    2    0    0  0.33105147262E+01  0.22692632479E+02  0.10913500556E+04  0.10987239441E+04  0.12499378533E+03 0.  0.
    9000005    1    3    3    0    0  0.38948967213E+02  0.32504059995E+02  0.98162626716E+03  0.98293675500E+03  0.10000000000E+01 0.  0.
    9000005    1    3    3    0    0 -0.35638452487E+02 -0.98114275157E+01  0.10972378846E+03  0.11578718910E+03  0.10000000000E+01 0.  0.
          4    1    1    2  501    0 -0.33105147262E+01 -0.22692632479E+02  0.29827834237E+02  0.37646084416E+02  0.12700000000E+01 0. -1.
<mgrwt>
<rscale>  1 0.12708014E+03</rscale>
<asrwt>0</asrwt>
<pdfrwt beam="2">  1       21 0.11685720E-02 0.12708014E+03</pdfrwt>
<pdfrwt beam="1">  1        4 0.17366557E+00 0.12708014E+03</pdfrwt>
<totfact> 0.25525504E+04</totfact>
</mgrwt>
</event>
<event>
 6    3  0.7601760E-003  0.1270108E+03  0.7818608E-02  0.1231960E+00
          4   -1    0    0  502    0 -0.00000000000E+00  0.00000000000E+00  0.34843613958E+02  0.34866751119E+02  0.12700000000E+01 0.  1.
         21   -1    0    0  501  502  0.00000000000E+00 -0.00000000000E+00 -0.19306729421E+03  0.19306729421E+03  0.00000000000E+00 0.  1.
         25    2    1    2    0    0 -0.20935821258E+00 -0.22531644687E+02 -0.88907497964E+02  0.15503641251E+03  0.12499610861E+03 0.  0.
    9000005    1    3    3    0    0  0.34635600881E+02 -0.58323628512E+02 -0.21567481996E+02  0.71185860751E+02  0.10000000000E+01 0.  0.
    9000005    1    3    3    0    0 -0.34844959094E+02  0.35791983824E+02 -0.67340015968E+02  0.83850551762E+02  0.10000000000E+01 0.  0.
          4    1    1    2  501    0  0.20935821258E+00  0.22531644687E+02 -0.69316182284E+02  0.72897632812E+02  0.12700000000E+01 0. -1.
<mgrwt>
<rscale>  1 0.12701081E+03</rscale>
<asrwt>0</asrwt>
<pdfrwt beam="2">  1       21 0.29702661E-01 0.12701081E+03</pdfrwt>
<pdfrwt beam="1">  1        4 0.53626571E-02 0.12701081E+03</pdfrwt>
<totfact> 0.92948493E+04</totfact>
</mgrwt>
</event>
<event>
 6    3  0.7601760E-003  0.1334404E+03  0.7818608E-02  0.1222438E+00
         21   -1    0    0  501  502  0.00000000000E+00  0.00000000000E+00  0.21888353848E+03  0.21888353848E+03  0.00000000000E+00 0.  1.
          4   -1    0    0  502    0 -0.00000000000E+00 -0.00000000000E+00 -0.38736847943E+02  0.38757661031E+02  0.12700000000E+01 0.  1.
         25    2    1    2    0    0  0.25025778266E+02 -0.39394211631E+02  0.15529446896E+03  0.20475037511E+03  0.12501260149E+03 0.  0.
    9000005    1    3    3    0    0  0.43176511298E+02 -0.76918415301E+02  0.82071151623E+02  0.12048787354E+03  0.10000000000E+01 0.  0.
    9000005    1    3    3    0    0 -0.18150733032E+02  0.37524203670E+02  0.73223317335E+02  0.84262501579E+02  0.10000000000E+01 0.  0.
          4    1    1    2  501    0 -0.25025778266E+02  0.39394211631E+02  0.24852221576E+02  0.52890824394E+02  0.12700000000E+01 0. -1.
<mgrwt>
<rscale>  1 0.13344041E+03</rscale>
<asrwt>0</asrwt>
<pdfrwt beam="1">  1       21 0.33674390E-01 0.13344041E+03</pdfrwt>
<pdfrwt beam="2">  1        4 0.59613996E-02 0.13344041E+03</pdfrwt>
<totfact> 0.61765357E+04</totfact>
</mgrwt>
</event>
<event>
 6    3  0.7601760E-003  0.1376357E+03  0.7818608E-02  0.1216546E+00
         21   -1    0    0  501  502  0.00000000000E+00  0.00000000000E+00  0.78980177212E+02  0.78980177212E+02  0.00000000000E+00 0.  1.
         -4   -1    0    0    0  501 -0.00000000000E+00 -0.00000000000E+00 -0.27870852523E+03  0.27871141874E+03  0.12700000000E+01 0. -1.
         25    2    1    2    0    0  0.54516487394E+02  0.18679855129E+02 -0.24725587248E+03  0.28298240731E+03  0.12499036756E+03 0.  0.
    9000005    1    3    3    0    0 -0.20778236157E+02  0.19656710074E+02 -0.46984820738E+01  0.29003397776E+02  0.10000000000E+01 0.  0.
    9000005    1    3    3    0    0  0.75294723551E+02 -0.97685494479E+00 -0.24255739041E+03  0.25397900953E+03  0.10000000000E+01 0.  0.
         -4    1    1    2    0  502 -0.54516487394E+02 -0.18679855129E+02  0.47527524469E+02  0.74709188642E+02  0.12700000000E+01 0.  1.
<mgrwt>
<rscale>  1 0.13763567E+03</rscale>
<asrwt>0</asrwt>
<pdfrwt beam="1">  1       21 0.12150796E-01 0.13763567E+03</pdfrwt>
<pdfrwt beam="2">  1       -4 0.42879243E-01 0.13763567E+03</pdfrwt>
<totfact> 0.12440642E+04</totfact>
</mgrwt>
</event>
<event>
 6    3  0.7601760E-003  0.1354230E+03  0.7818608E-02  0.1219624E+00
          4   -1    0    0  502    0 -0.00000000000E+00  0.00000000000E+00  0.28538587855E+03  0.28538870436E+03  0.12700000000E+01 0.  1.
         21   -1    0    0  501  502  0.00000000000E+00 -0.00000000000E+00 -0.42562261188E+03  0.42562261188E+03  0.00000000000E+00 0. -1.
         25    2    1    2    0    0 -0.34693078191E+02  0.38910549926E+02  0.26756767659E+03  0.29988640794E+03  0.12498702150E+03 0.  0.
    9000005    1    3    3    0    0  0.10727343114E+01  0.80507174540E+02  0.15578580549E+03  0.17536468603E+03  0.10000000000E+01 0.  0.
    9000005    1    3    3    0    0 -0.35765812503E+02 -0.41596624614E+02  0.11178187110E+03  0.12452172192E+03  0.10000000000E+01 0.  0.
          4    1    1    2  501    0  0.34693078191E+02 -0.38910549926E+02 -0.40780440992E+03  0.41112490829E+03  0.12700000000E+01 0. -1.
<mgrwt>
<rscale>  1 0.13542303E+03</rscale>
<asrwt>0</asrwt>
<pdfrwt beam="2">  1       21 0.65480402E-01 0.13542303E+03</pdfrwt>
<pdfrwt beam="1">  1        4 0.43905883E-01 0.13542303E+03</pdfrwt>
<totfact> 0.45625486E+02</totfact>
</mgrwt>
</event>
<event>
 6    3  0.7601760E-003  0.1516816E+03  0.7818608E-02  0.1198422E+00
         21   -1    0    0  501  502  0.00000000000E+00  0.00000000000E+00  0.18304549741E+03  0.18304549741E+03  0.00000000000E+00 0.  1.
          4   -1    0    0  502    0 -0.00000000000E+00 -0.00000000000E+00 -0.27844665083E+03  0.27844954706E+03  0.12700000000E+01 0. -1.
         25    2    1    2    0    0  0.75876453396E+02  0.40317526820E+02 -0.24547662435E+03  0.28855864279E+03  0.12499831231E+03 0.  0.
    9000005    1    3    3    0    0  0.50169042218E+02 -0.40998379341E+02 -0.12700832738E+03  0.14258301136E+03  0.10000000000E+01 0.  0.
    9000005    1    3    3    0    0  0.25707411178E+02  0.81315906161E+02 -0.11846829697E+03  0.14597563143E+03  0.10000000000E+01 0.  0.
          4    1    1    2  501    0 -0.75876453396E+02 -0.40317526820E+02  0.15007547094E+03  0.17293640168E+03  0.12700000000E+01 0.  1.
<mgrwt>
<rscale>  1 0.15168163E+03</rscale>
<asrwt>0</asrwt>
<pdfrwt beam="1">  1       21 0.28160846E-01 0.15168163E+03</pdfrwt>
<pdfrwt beam="2">  1        4 0.42838508E-01 0.15168163E+03</pdfrwt>
<totfact> 0.26640830E+03</totfact>
</mgrwt>
</event>
<event>
 6    3  0.7601760E-003  0.1282940E+03  0.7818608E-02  0.1230009E+00
         21   -1    0    0  501  502  0.00000000000E+00  0.00000000000E+00  0.34598814265E+03  0.34598814265E+03  0.00000000000E+00 0.  1.
         -4   -1    0    0    0  501 -0.00000000000E+00 -0.00000000000E+00 -0.17955670318E+02  0.18000527674E+02  0.12700000000E+01 0.  1.
         25    2    1    2    0    0 -0.58426907489E+01 -0.28280434895E+02  0.25529622977E+03  0.28571930266E+03  0.12500173976E+03 0.  0.
    9000005    1    3    3    0    0 -0.50170960373E+02 -0.55383572610E+02  0.17209408841E+03  0.18762153566E+03  0.10000000000E+01 0.  0.
    9000005    1    3    3    0    0  0.44328269624E+02  0.27103137715E+02  0.83202141363E+02  0.98097766994E+02  0.10000000000E+01 0.  0.
         -4    1    1    2    0  502  0.58426907489E+01  0.28280434895E+02  0.72736242566E+02  0.78269367671E+02  0.12700000000E+01 0. -1.
<mgrwt>
<rscale>  1 0.12829402E+03</rscale>
<asrwt>0</asrwt>
<pdfrwt beam="1">  1       21 0.53228940E-01 0.12829402E+03</pdfrwt>
<pdfrwt beam="2">  1       -4 0.27660409E-02 0.12829402E+03</pdfrwt>
<totfact> 0.82742925E+04</totfact>
</mgrwt>
</event>
<event>
 6    3  0.7601760E-003  0.1302827E+03  0.7818608E-02  0.1227037E+00
         21   -1    0    0  501  502  0.00000000000E+00  0.00000000000E+00  0.95088567067E+02  0.95088567067E+02  0.00000000000E+00 0.  1.
         -4   -1    0    0    0  501 -0.00000000000E+00 -0.00000000000E+00 -0.85971535291E+02  0.85980915210E+02  0.12700000000E+01 0.  1.
         25    2    1    2    0    0 -0.20539472628E+02 -0.30443285280E+02 -0.22962314840E+02  0.13229078884E+03  0.12499968541E+03 0.  0.
    9000005    1    3    3    0    0 -0.19952626255E+02 -0.18840529091E+01  0.50028669963E+02  0.53902919847E+02  0.10000000000E+01 0.  0.
    9000005    1    3    3    0    0 -0.58684637278E+00 -0.28559232371E+02 -0.72990984802E+02  0.78387868989E+02  0.10000000000E+01 0.  0.
         -4    1    1    2    0  502  0.20539472628E+02  0.30443285280E+02  0.32079346616E+02  0.48778693440E+02  0.12700000000E+01 0. -1.
<mgrwt>
<rscale>  1 0.13028271E+03</rscale>
<asrwt>0</asrwt>
<pdfrwt beam="1">  1       21 0.14629010E-01 0.13028271E+03</pdfrwt>
<pdfrwt beam="2">  1       -4 0.13227764E-01 0.13028271E+03</pdfrwt>
<totfact> 0.77445494E+04</totfact>
</mgrwt>
</event>
<event>
 6    3  0.7601760E-003  0.1676356E+03  0.7818608E-02  0.1180336E+00
         21   -1    0    0  501  502  0.00000000000E+00  0.00000000000E+00  0.18941368077E+03  0.18941368077E+03  0.00000000000E+00 0. -1.
         -4   -1    0    0    0  501 -0.00000000000E+00 -0.00000000000E+00 -0.26410326941E+03  0.26410632294E+03  0.12700000000E+01 0.  1.
         25    2    1    2    0    0 -0.80076722258E+02  0.77872151226E+02 -0.21598226974E+03  0.27340451849E+03  0.12500134601E+03 0.  0.
    9000005    1    3    3    0    0 -0.38607646453E+02 -0.23148858776E+01 -0.16551196809E+03  0.16997388223E+03  0.10000000000E+01 0.  0.
    9000005    1    3    3    0    0 -0.41469075805E+02  0.80187037103E+02 -0.50470301651E+02  0.10343063626E+03  0.10000000000E+01 0.  0.
         -4    1    1    2    0  502  0.80076722258E+02 -0.77872151226E+02  0.14129268110E+03  0.18011548522E+03  0.12700000000E+01 0. -1.
<mgrwt>
<rscale>  1 0.16763559E+03</rscale>
<asrwt>0</asrwt>
<pdfrwt beam="1">  1       21 0.29140566E-01 0.16763559E+03</pdfrwt>
<pdfrwt beam="2">  1       -4 0.40631835E-01 0.16763559E+03</pdfrwt>
<totfact> 0.27820245E+03</totfact>
</mgrwt>
</event>
<event>
 6    3  0.7601760E-003  0.1272952E+03  0.7818608E-02  0.1231525E+00
         -4   -1    0    0    0  501 -0.00000000000E+00  0.00000000000E+00  0.11102226312E+03  0.11102952674E+03  0.12700000000E+01 0.  1.
         21   -1    0    0  501  502  0.00000000000E+00 -0.00000000000E+00 -0.21450881715E+03  0.21450881715E+03  0.00000000000E+00 0. -1.
         25    2    1    2    0    0 -0.20948723735E+02 -0.11843654349E+02  0.73451615685E+02  0.14696664966E+03  0.12499974037E+03 0.  0.
    9000005    1    3    3    0    0 -0.62213305954E+02  0.17189768324E+02  0.71691594735E+02  0.96471075087E+02  0.10000000000E+01 0.  0.
    9000005    1    3    3    0    0  0.41264582219E+02 -0.29033422673E+02  0.17600209501E+01  0.50495574574E+02  0.10000000000E+01 0.  0.
         -4    1    1    2    0  502  0.20948723735E+02  0.11843654349E+02 -0.17693816972E+03  0.17857169422E+03  0.12700000000E+01 0. -1.
<mgrwt>
<rscale>  1 0.12729515E+03</rscale>
<asrwt>0</asrwt>
<pdfrwt beam="2">  1       21 0.33001356E-01 0.12729515E+03</pdfrwt>
<pdfrwt beam="1">  1       -4 0.17081196E-01 0.12729515E+03</pdfrwt>
<totfact> 0.10815062E+04</totfact>
</mgrwt>
</event>
<event>
 6    3  0.7601760E-003  0.1288734E+03  0.7818608E-02  0.1229137E+00
         21   -1    0    0  501  502  0.00000000000E+00  0.00000000000E+00  0.10734271149E+02  0.10734271149E+02  0.00000000000E+00 0. -1.
          4   -1    0    0  502    0 -0.00000000000E+00 -0.00000000000E+00 -0.59818168856E+03  0.59818303673E+03  0.12700000000E+01 0. -1.
         25    2    1    2    0    0  0.10684869725E+02 -0.29486707004E+02 -0.47445480295E+03  0.49164592964E+03  0.12499891103E+03 0.  0.
    9000005    1    3    3    0    0 -0.46022139877E+01  0.31964971731E+02 -0.34931160793E+02  0.47582830787E+02  0.10000000000E+01 0.  0.
    9000005    1    3    3    0    0  0.15287083712E+02 -0.61451678735E+02 -0.43952364216E+03  0.44406309885E+03  0.10000000000E+01 0.  0.
          4    1    1    2  501    0 -0.10684869725E+02  0.29486707004E+02 -0.11299261446E+03  0.11727137824E+03  0.12700000000E+01 0.  1.
<mgrwt>
<rscale>  1 0.12887343E+03</rscale>
<asrwt>0</asrwt>
<pdfrwt beam="1">  1       21 0.16514267E-02 0.12887343E+03</pdfrwt>
<pdfrwt beam="2">  1        4 0.92033813E-01 0.12887343E+03</pdfrwt>
<totfact> 0.69536591E+04</totfact>
</mgrwt>
</event>
<event>
 6    3  0.7601760E-003  0.1320674E+03  0.7818608E-02  0.1224420E+00
         -4   -1    0    0    0  501 -0.00000000000E+00  0.00000000000E+00  0.81137384612E+03  0.81137484005E+03  0.12700000000E+01 0. -1.
         21   -1    0    0  501  502  0.00000000000E+00 -0.00000000000E+00 -0.95654323709E+01  0.95654323709E+01  0.00000000000E+00 0. -1.
         25    2    1    2    0    0 -0.30237264970E+02 -0.30039943663E+02  0.55674893044E+03  0.57219853152E+03  0.12500039007E+03 0.  0.
    9000005    1    3    3    0    0 -0.33615546087E+02  0.36354009726E+02  0.38255416920E+03  0.38574643399E+03  0.10000000000E+01 0.  0.
    9000005    1    3    3    0    0  0.33782811168E+01 -0.66393953389E+02  0.17419476124E+03  0.18645209753E+03  0.10000000000E+01 0.  0.
         -4    1    1    2    0  502  0.30237264970E+02  0.30039943663E+02  0.24505948330E+03  0.24874174090E+03  0.12700000000E+01 0.  1.
<mgrwt>
<rscale>  1 0.13206736E+03</rscale>
<asrwt>0</asrwt>
<pdfrwt beam="2">  1       21 0.14716056E-02 0.13206736E+03</pdfrwt>
<pdfrwt beam="1">  1       -4 0.12483325E+00 0.13206736E+03</pdfrwt>
<totfact> 0.41066246E+04</totfact>
</mgrwt>
</event>
<event>
 6    3  0.7601760E-003  0.1322771E+03  0.7818608E-02  0.1224116E+00
          4   -1    0    0  502    0 -0.00000000000E+00  0.00000000000E+00  0.19626224612E+03  0.19626635512E+03  0.12700000000E+01 0.  1.
         21   -1    0    0  501  502  0.00000000000E+00 -0.00000000000E+00 -0.62356081786E+02  0.62356081786E+02  0.00000000000E+00 0.  1.
         25    2    1    2    0    0  0.41869275752E+02  0.10930878539E+02  0.16036938267E+03  0.20788354470E+03  0.12499883559E+03 0.  0.
    9000005    1    3    3    0    0  0.34935528750E+02  0.29855853459E+02 -0.28493257085E+00  0.45966774320E+02  0.10000000000E+01 0.  0.
    9000005    1    3    3    0    0  0.69337470020E+01 -0.18924974920E+02  0.16065431524E+03  0.16191677038E+03  0.10000000000E+01 0.  0.
          4    1    1    2  501    0 -0.41869275752E+02 -0.10930878539E+02 -0.26463218340E+02  0.50738892208E+02  0.12700000000E+01 0. -1.
<mgrwt>
<rscale>  1 0.13227709E+03</rscale>
<asrwt>0</asrwt>
<pdfrwt beam="2">  1       21 0.95932435E-02 0.13227709E+03</pdfrwt>
<pdfrwt beam="1">  1        4 0.30195502E-01 0.13227709E+03</pdfrwt>
<totfact> 0.37067556E+04</totfact>
</mgrwt>
</event>
<event>
 6    3  0.7601760E-003  0.2157353E+03  0.7818608E-02  0.1137103E+00
         -4   -1    0    0    0  501 -0.00000000000E+00  0.00000000000E+00  0.34380757934E+03  0.34380992497E+03  0.12700000000E+01 0.  1.
         21   -1    0    0  501  502  0.00000000000E+00 -0.00000000000E+00 -0.14151227366E+03  0.14151227366E+03  0.00000000000E+00 0. -1.
         25    2    1    2    0    0  0.91322069684E+02 -0.15025337721E+03  0.22058008086E+03  0.30854057155E+03  0.12500365773E+03 0.  0.
    9000005    1    3    3    0    0  0.62168573164E+01  0.18263968090E+02  0.51869570009E+02  0.55350466468E+02  0.10000000000E+01 0.  0.
    9000005    1    3    3    0    0  0.85105212368E+02 -0.16851734530E+03  0.16871051085E+03  0.25319010508E+03  0.10000000000E+01 0.  0.
         -4    1    1    2    0  502 -0.91322069684E+02  0.15025337721E+03 -0.18284775181E+02  0.17678162709E+03  0.12700000000E+01 0. -1.
<mgrwt>
<rscale>  1 0.21573528E+03</rscale>
<asrwt>0</asrwt>
<pdfrwt beam="2">  1       21 0.21771119E-01 0.21573528E+03</pdfrwt>
<pdfrwt beam="1">  1       -4 0.52894093E-01 0.21573528E+03</pdfrwt>
<totfact> 0.28679412E+03</totfact>
</mgrwt>
</event>
<event>
 6    3  0.7601760E-003  0.1281864E+03  0.7818608E-02  0.1230172E+00
         21   -1    0    0  501  502  0.00000000000E+00  0.00000000000E+00  0.17468809793E+04  0.17468809793E+04  0.00000000000E+00 0.  1.
          4   -1    0    0  502    0 -0.00000000000E+00 -0.00000000000E+00 -0.75255654887E+01  0.76319745758E+01  0.12700000000E+01 0. -1.
         25    2    1    2    0    0  0.41754451398E+01  0.28089553577E+02  0.54701583501E+03  0.56183456410E+03  0.12500118521E+03 0.  0.
    9000005    1    3    3    0    0 -0.10533626552E+02  0.73708092160E+02  0.24593924297E+03  0.25696488354E+03  0.10000000000E+01 0.  0.
    9000005    1    3    3    0    0  0.14709071692E+02 -0.45618538583E+02  0.30107659204E+03  0.30486968056E+03  0.10000000000E+01 0.  0.
          4    1    1    2  501    0 -0.41754451398E+01 -0.28089553577E+02  0.11923395788E+04  0.11926783897E+04  0.12700000000E+01 0.  1.
<mgrwt>
<rscale>  1 0.12818640E+03</rscale>
<asrwt>0</asrwt>
<pdfrwt beam="1">  1       21 0.26875060E+00 0.12818640E+03</pdfrwt>
<pdfrwt beam="2">  1        4 0.11660015E-02 0.12818640E+03</pdfrwt>
<totfact> 0.51501734E+03</totfact>
</mgrwt>
</event>
<event>
 6    3  0.7601760E-003  0.1430299E+03  0.7818608E-02  0.1209309E+00
          4   -1    0    0  502    0 -0.00000000000E+00  0.00000000000E+00  0.23005586445E+03  0.23005936987E+03  0.12700000000E+01 0. -1.
         21   -1    0    0  501  502  0.00000000000E+00 -0.00000000000E+00 -0.11001822292E+03  0.11001822292E+03  0.00000000000E+00 0.  1.
         25    2    1    2    0    0 -0.31518859532E+01  0.69451998177E+02  0.19238747587E+03  0.23973006734E+03  0.12499619946E+03 0.  0.
    9000005    1    3    3    0    0 -0.37872135347E+02  0.91620238429E+02  0.15554441064E+03  0.18445495496E+03  0.10000000000E+01 0.  0.
    9000005    1    3    3    0    0  0.34720249393E+02 -0.22168240252E+02  0.36843065227E+02  0.55275112385E+02  0.10000000000E+01 0.  0.
          4    1    1    2  501    0  0.31518859532E+01 -0.69451998177E+02 -0.72349834345E+02  0.10034752546E+03  0.12700000000E+01 0.  1.
<mgrwt>
<rscale>  1 0.14302994E+03</rscale>
<asrwt>0</asrwt>
<pdfrwt beam="2">  1       21 0.16925881E-01 0.14302994E+03</pdfrwt>
<pdfrwt beam="1">  1        4 0.35394043E-01 0.14302994E+03</pdfrwt>
<totfact> 0.10012306E+04</totfact>
</mgrwt>
</event>
<event>
 6    3  0.7601760E-003  0.1272923E+03  0.7818608E-02  0.1231530E+00
         21   -1    0    0  501  502  0.00000000000E+00  0.00000000000E+00  0.12428288630E+04  0.12428288630E+04  0.00000000000E+00 0. -1.
         -4   -1    0    0    0  501 -0.00000000000E+00 -0.00000000000E+00 -0.46316538760E+01  0.48026157068E+01  0.12700000000E+01 0. -1.
         25    2    1    2    0    0 -0.23103581349E+02  0.66596802253E+01  0.96167041336E+03  0.97005840997E+03  0.12500083204E+03 0.  0.
    9000005    1    3    3    0    0 -0.69102337466E+01 -0.56253208836E+02  0.59334768231E+03  0.59604919842E+03  0.10000000000E+01 0.  0.
    9000005    1    3    3    0    0 -0.16193347602E+02  0.62912889061E+02  0.36832273105E+03  0.37400921155E+03  0.10000000000E+01 0.  0.
         -4    1    1    2    0  502  0.23103581349E+02 -0.66596802253E+01  0.27652679572E+03  0.27757306870E+03  0.12700000000E+01 0.  1.
<mgrwt>
<rscale>  1 0.12729232E+03</rscale>
<asrwt>0</asrwt>
<pdfrwt beam="1">  1       21 0.19120418E+00 0.12729232E+03</pdfrwt>
<pdfrwt beam="2">  1       -4 0.72576395E-03 0.12729232E+03</pdfrwt>
<totfact> 0.30305735E+04</totfact>
</mgrwt>
</event>
<event>
 6    3  0.7601760E-003  0.1268324E+03  0.7818608E-02  0.1232233E+00
          4   -1    0    0  502    0 -0.00000000000E+00  0.00000000000E+00  0.11624515466E+02  0.11693684613E+02  0.12700000000E+01 0. -1.
         21   -1    0    0  501  502  0.00000000000E+00 -0.00000000000E+00 -0.49226739297E+03  0.49226739297E+03  0.00000000000E+00 0. -1.
         25    2    1    2    0    0  0.15576984346E+02  0.14813509747E+02 -0.36705666556E+03  0.38835172261E+03  0.12499752883E+03 0.  0.
    9000005    1    3    3    0    0 -0.19916044229E+02  0.54789356655E+02 -0.97993165721E+02  0.11402711497E+03  0.10000000000E+01 0.  0.
    9000005    1    3    3    0    0  0.35493028575E+02 -0.39975846908E+02 -0.26906349983E+03  0.27432460764E+03  0.10000000000E+01 0.  0.
          4    1    1    2  501    0 -0.15576984346E+02 -0.14813509747E+02 -0.11358621195E+03  0.11560935497E+03  0.12700000000E+01 0.  1.
<mgrwt>
<rscale>  1 0.12683243E+03</rscale>
<asrwt>0</asrwt>
<pdfrwt beam="2">  1       21 0.75733425E-01 0.12683243E+03</pdfrwt>
<pdfrwt beam="1">  1        4 0.17938342E-02 0.12683243E+03</pdfrwt>
<totfact> 0.75751025E+04</totfact>
</mgrwt>
</event>
<event>
 6    3  0.7601760E-003  0.1302398E+03  0.7818608E-02  0.1227100E+00
         -4   -1    0    0    0  501 -0.00000000000E+00  0.00000000000E+00  0.33411390717E+03  0.33411632086E+03  0.12700000000E+01 0. -1.
         21   -1    0    0  501  502  0.00000000000E+00 -0.00000000000E+00 -0.65043727102E+02  0.65043727102E+02  0.00000000000E+00 0.  1.
         25    2    1    2    0    0 -0.10308420498E+02 -0.35088086548E+02  0.31474933565E+03  0.34063111917E+03  0.12499991080E+03 0.  0.
    9000005    1    3    3    0    0  0.43646993764E+02 -0.44505943803E+02  0.23995279543E+03  0.24791971106E+03  0.10000000000E+01 0.  0.
    9000005    1    3    3    0    0 -0.53955414262E+02  0.94178572555E+01  0.74796540223E+02  0.92711408105E+02  0.10000000000E+01 0.  0.
         -4    1    1    2    0  502  0.10308420498E+02  0.35088086548E+02 -0.45679155586E+02  0.58528928794E+02  0.12700000000E+01 0.  1.
<mgrwt>
<rscale>  1 0.13023984E+03</rscale>
<asrwt>0</asrwt>
<pdfrwt beam="2">  1       21 0.10006727E-01 0.13023984E+03</pdfrwt>
<pdfrwt beam="1">  1       -4 0.51403278E-01 0.13023984E+03</pdfrwt>
<totfact> 0.12091939E+04</totfact>
</mgrwt>
</event>
<event>
 6    3  0.7601760E-003  0.1279815E+03  0.7818608E-02  0.1230482E+00
         21   -1    0    0  501  502  0.00000000000E+00  0.00000000000E+00  0.90108310837E+02  0.90108310837E+02  0.00000000000E+00 0.  1.
         -4   -1    0    0    0  501 -0.00000000000E+00 -0.00000000000E+00 -0.95488594306E+02  0.95497039444E+02  0.12700000000E+01 0. -1.
         25    2    1    2    0    0 -0.27441667198E+02 -0.20702785604E+01 -0.46451313090E+02  0.13615058786E+03  0.12498770714E+03 0.  0.
    9000005    1    3    3    0    0  0.27865090875E+02 -0.18041021739E+02 -0.67193766193E+02  0.74952945039E+02  0.10000000000E+01 0.  0.
    9000005    1    3    3    0    0 -0.55306758073E+02  0.15970743178E+02  0.20742453103E+02  0.61197642821E+02  0.10000000000E+01 0.  0.
         -4    1    1    2    0  502  0.27441667198E+02  0.20702785604E+01  0.41071029622E+02  0.49454762421E+02  0.12700000000E+01 0.  1.
<mgrwt>
<rscale>  1 0.12798148E+03</rscale>
<asrwt>0</asrwt>
<pdfrwt beam="1">  1       21 0.13862817E-01 0.12798148E+03</pdfrwt>
<pdfrwt beam="2">  1       -4 0.14691891E-01 0.12798148E+03</pdfrwt>
<totfact> 0.70946911E+04</totfact>
</mgrwt>
</event>
<event>
 6    3  0.7601760E-003  0.1519159E+03  0.7818608E-02  0.1198138E+00
         21   -1    0    0  501  502  0.00000000000E+00  0.00000000000E+00  0.76977025644E+02  0.76977025644E+02  0.00000000000E+00 0.  1.
         -4   -1    0    0    0  501 -0.00000000000E+00 -0.00000000000E+00 -0.26880984170E+03  0.26881284176E+03  0.12700000000E+01 0. -1.
         25    2    1    2    0    0  0.59861358278E+02  0.62206395981E+02 -0.20838109386E+03  0.25787811441E+03  0.12500169477E+03 0.  0.
    9000005    1    3    3    0    0 -0.18064806221E+02 -0.46340519862E+01 -0.12281439754E+03  0.12422635752E+03  0.10000000000E+01 0.  0.
    9000005    1    3    3    0    0  0.77926164499E+02  0.66840447967E+02 -0.85566696324E+02  0.13365175688E+03  0.10000000000E+01 0.  0.
         -4    1    1    2    0  502 -0.59861358278E+02 -0.62206395981E+02  0.16548277808E+02  0.87911752992E+02  0.12700000000E+01 0.  1.
<mgrwt>
<rscale>  1 0.15191590E+03</rscale>
<asrwt>0</asrwt>
<pdfrwt beam="1">  1       21 0.11842619E-01 0.15191590E+03</pdfrwt>
<pdfrwt beam="2">  1       -4 0.41356397E-01 0.15191590E+03</pdfrwt>
<totfact> 0.14114949E+04</totfact>
</mgrwt>
</event>
