<event>
 5    1  0.1440092E-002  0.1249945E+03  0.7818608E-02  0.1235078E+00
          4   -1    0    0  501    0  0.00000000000E+00  0.00000000000E+00  0.93237467975E+01  0.94098434814E+01  0.12700000000E+01 0.  1.
         -4   -1    0    0    0  501 -0.00000000000E+00 -0.00000000000E+00 -0.41690779935E+03  0.41690973370E+03  0.12700000000E+01 0.  1.
         25    2    1    2    0    0  0.00000000000E+00  0.00000000000E+00 -0.40758405255E+03  0.42631957718E+03  0.12499448787E+03 0.  0.
    9000005    1    3    3    0    0 -0.28912635397E+02 -0.34604351506E+02 -0.56241833969E+02  0.72094004723E+02  0.10000000000E+01 0.  0.
    9000005    1    3    3    0    0  0.28912635397E+02  0.34604351506E+02 -0.35134221858E+03  0.35422557246E+03  0.10000000000E+01 0.  0.
<mgrwt>
<rscale>  0 0.12499449E+03</rscale>
<asrwt>0</asrwt>
<pdfrwt beam="1">  1        4 0.23419420E-02 0.12499449E+03</pdfrwt>
<pdfrwt beam="2">  1       -4 0.10423789E+00 0.12499449E+03</pdfrwt>
<totfact> 0.10044119E+03</totfact>
</mgrwt>
</event>
<event>
 5    1  0.1440092E-002  0.1250075E+03  0.7818608E-02  0.1235058E+00
         -4   -1    0    0    0  501 -0.00000000000E+00  0.00000000000E+00  0.43241842624E+02  0.43260488364E+02  0.12700000000E+01 0. -1.
          4   -1    0    0  501    0  0.00000000000E+00 -0.00000000000E+00 -0.90303255834E+02  0.90312185857E+02  0.12700000000E+01 0. -1.
         25    2    1    2    0    0  0.00000000000E+00  0.00000000000E+00 -0.47061413211E+02  0.13357267422E+03  0.12500753051E+03 0.  0.
    9000005    1    3    3    0    0  0.21946687932E+02 -0.58441176055E+02 -0.26681020503E+02  0.67896281379E+02  0.10000000000E+01 0.  0.
    9000005    1    3    3    0    0 -0.21946687932E+02  0.58441176055E+02 -0.20380392707E+02  0.65676392843E+02  0.10000000000E+01 0.  0.
<mgrwt>
<rscale>  0 0.12500753E+03</rscale>
<asrwt>0</asrwt>
<pdfrwt beam="2">  1        4 0.22579261E-01 0.12500753E+03</pdfrwt>
<pdfrwt beam="1">  1       -4 0.10813908E-01 0.12500753E+03</pdfrwt>
<totfact> 0.19370758E+03</totfact>
</mgrwt>
</event>
<event>
 5    1  0.1440092E-002  0.1249999E+03  0.7818608E-02  0.1235069E+00
         -4   -1    0    0    0  501 -0.00000000000E+00  0.00000000000E+00  0.28380940917E+02  0.28409341902E+02  0.12700000000E+01 0.  1.
          4   -1    0    0  501    0  0.00000000000E+00 -0.00000000000E+00 -0.13753597378E+03  0.13754183721E+03  0.12700000000E+01 0.  1.
         25    2    1    2    0    0  0.00000000000E+00  0.00000000000E+00 -0.10915503286E+03  0.16595117911E+03  0.12499989060E+03 0.  0.
    9000005    1    3    3    0    0  0.51562410308E+02 -0.11215178970E+02 -0.10131684027E+02  0.53741170599E+02  0.10000000000E+01 0.  0.
    9000005    1    3    3    0    0 -0.51562410308E+02  0.11215178970E+02 -0.99023348831E+02  0.11221000851E+03  0.10000000000E+01 0.  0.
<mgrwt>
<rscale>  0 0.12499989E+03</rscale>
<asrwt>0</asrwt>
<pdfrwt beam="2">  1        4 0.34388275E-01 0.12499989E+03</pdfrwt>
<pdfrwt beam="1">  1       -4 0.70995187E-02 0.12499989E+03</pdfrwt>
<totfact> 0.17781273E+03</totfact>
</mgrwt>
</event>
<event>
 5    1  0.1440092E-002  0.1250001E+03  0.7818608E-02  0.1235069E+00
         -4   -1    0    0    0  501 -0.00000000000E+00  0.00000000000E+00  0.13600157377E+02  0.13659325777E+02  0.12700000000E+01 0. -1.
          4   -1    0    0  501    0  0.00000000000E+00 -0.00000000000E+00 -0.28653740779E+03  0.28654022225E+03  0.12700000000E+01 0. -1.
         25    2    1    2    0    0  0.00000000000E+00  0.00000000000E+00 -0.27293725042E+03  0.30019954802E+03  0.12500010387E+03 0.  0.
    9000005    1    3    3    0    0 -0.36513344665E+02 -0.47190802211E+02 -0.18108016189E+03  0.19065996219E+03  0.10000000000E+01 0.  0.
    9000005    1    3    3    0    0  0.36513344665E+02  0.47190802211E+02 -0.91857088523E+02  0.10953958583E+03  0.10000000000E+01 0.  0.
<mgrwt>
<rscale>  0 0.12500010E+03</rscale>
<asrwt>0</asrwt>
<pdfrwt beam="2">  1        4 0.71642080E-01 0.12500010E+03</pdfrwt>
<pdfrwt beam="1">  1       -4 0.34077881E-02 0.12500010E+03</pdfrwt>
<totfact> 0.12965436E+03</totfact>
</mgrwt>
</event>
<event>
 5    1  0.1440092E-002  0.1249959E+03  0.7818608E-02  0.1235076E+00
          4   -1    0    0  501    0  0.00000000000E+00  0.00000000000E+00  0.92382452138E+01  0.93251313465E+01  0.12700000000E+01 0. -1.
         -4   -1    0    0    0  501 -0.00000000000E+00 -0.00000000000E+00 -0.42074017593E+03  0.42074209267E+03  0.12700000000E+01 0. -1.
         25    2    1    2    0    0  0.00000000000E+00  0.00000000000E+00 -0.41150193072E+03  0.43006722402E+03  0.12499591268E+03 0.  0.
    9000005    1    3    3    0    0 -0.53603052440E+02  0.31998318715E+02 -0.19613256887E+03  0.20583042584E+03  0.10000000000E+01 0.  0.
    9000005    1    3    3    0    0  0.53603052440E+02 -0.31998318715E+02 -0.21536936185E+03  0.22423679817E+03  0.10000000000E+01 0.  0.
<mgrwt>
<rscale>  0 0.12499591E+03</rscale>
<asrwt>0</asrwt>
<pdfrwt beam="1">  1        4 0.23206631E-02 0.12499591E+03</pdfrwt>
<pdfrwt beam="2">  1       -4 0.10519608E+00 0.12499591E+03</pdfrwt>
<totfact> 0.99717991E+02</totfact>
</mgrwt>
</event>
<event>
 5    1  0.1440092E-002  0.1250054E+03  0.7818608E-02  0.1235061E+00
          4   -1    0    0  501    0  0.00000000000E+00  0.00000000000E+00  0.55707144540E+03  0.55707289306E+03  0.12700000000E+01 0.  1.
         -4   -1    0    0    0  501 -0.00000000000E+00 -0.00000000000E+00 -0.69537581572E+01  0.70687801287E+01  0.12700000000E+01 0.  1.
         25    2    1    2    0    0  0.00000000000E+00  0.00000000000E+00  0.55011768725E+03  0.56414167319E+03  0.12500543032E+03 0.  0.
    9000005    1    3    3    0    0  0.16737657795E+02 -0.25029071130E+02  0.52220081603E+03  0.52306911193E+03  0.10000000000E+01 0.  0.
    9000005    1    3    3    0    0 -0.16737657795E+02  0.25029071130E+02  0.27916871214E+02  0.41072561261E+02  0.10000000000E+01 0.  0.
<mgrwt>
<rscale>  0 0.12500543E+03</rscale>
<asrwt>0</asrwt>
<pdfrwt beam="1">  1        4 0.13928243E+00 0.12500543E+03</pdfrwt>
<pdfrwt beam="2">  1       -4 0.17529981E-02 0.12500543E+03</pdfrwt>
<totfact> 0.78198500E+02</totfact>
</mgrwt>
</event>
<event>
 5    1  0.1440092E-002  0.1250023E+03  0.7818608E-02  0.1235066E+00
         -4   -1    0    0    0  501 -0.00000000000E+00  0.00000000000E+00  0.57902226678E+02  0.57916152793E+02  0.12700000000E+01 0. -1.
          4   -1    0    0  501    0  0.00000000000E+00 -0.00000000000E+00 -0.67437321749E+02  0.67449279201E+02  0.12700000000E+01 0. -1.
         25    2    1    2    0    0  0.00000000000E+00  0.00000000000E+00 -0.95350950711E+01  0.12536543199E+03  0.12500229398E+03 0.  0.
    9000005    1    3    3    0    0  0.16502193233E+02 -0.49242132258E+02  0.30093804286E+02  0.60031217106E+02  0.10000000000E+01 0.  0.
    9000005    1    3    3    0    0 -0.16502193233E+02  0.49242132258E+02 -0.39628899357E+02  0.65334214888E+02  0.10000000000E+01 0.  0.
<mgrwt>
<rscale>  0 0.12500229E+03</rscale>
<asrwt>0</asrwt>
<pdfrwt beam="2">  1        4 0.16862566E-01 0.12500229E+03</pdfrwt>
<pdfrwt beam="1">  1       -4 0.14478792E-01 0.12500229E+03</pdfrwt>
<totfact> 0.19814187E+03</totfact>
</mgrwt>
</event>
<event>
 5    1  0.1440092E-002  0.1249994E+03  0.7818608E-02  0.1235070E+00
         -4   -1    0    0    0  501 -0.00000000000E+00  0.00000000000E+00  0.41901399730E+02  0.41920641686E+02  0.12700000000E+01 0.  1.
          4   -1    0    0  501    0  0.00000000000E+00 -0.00000000000E+00 -0.93179000603E+02  0.93187655048E+02  0.12700000000E+01 0.  1.
         25    2    1    2    0    0  0.00000000000E+00  0.00000000000E+00 -0.51277600872E+02  0.13510829673E+03  0.12499943798E+03 0.  0.
    9000005    1    3    3    0    0  0.22110404859E+01 -0.19224530132E+02  0.38586633888E+02  0.43178693515E+02  0.10000000000E+01 0.  0.
    9000005    1    3    3    0    0 -0.22110404859E+01  0.19224530132E+02 -0.89864234761E+02  0.91929603219E+02  0.10000000000E+01 0.  0.
<mgrwt>
<rscale>  0 0.12499944E+03</rscale>
<asrwt>0</asrwt>
<pdfrwt beam="2">  1        4 0.23298237E-01 0.12499944E+03</pdfrwt>
<pdfrwt beam="1">  1       -4 0.10478837E-01 0.12499944E+03</pdfrwt>
<totfact> 0.19293719E+03</totfact>
</mgrwt>
</event>
<event>
 5    1  0.1440092E-002  0.1249987E+03  0.7818608E-02  0.1235071E+00
         -4   -1    0    0    0  501 -0.00000000000E+00  0.00000000000E+00  0.11486313872E+03  0.11487015947E+03  0.12700000000E+01 0.  1.
          4   -1    0    0  501    0  0.00000000000E+00 -0.00000000000E+00 -0.33987249726E+02  0.34010969465E+02  0.12700000000E+01 0.  1.
         25    2    1    2    0    0  0.00000000000E+00  0.00000000000E+00  0.80875888995E+02  0.14888112894E+03  0.12499872452E+03 0.  0.
    9000005    1    3    3    0    0  0.43907302123E+02  0.36588433161E+02  0.10339056270E+02  0.58090108499E+02  0.10000000000E+01 0.  0.
    9000005    1    3    3    0    0 -0.43907302123E+02 -0.36588433161E+02  0.70536832726E+02  0.90791020436E+02  0.10000000000E+01 0.  0.
<mgrwt>
<rscale>  0 0.12499872E+03</rscale>
<asrwt>0</asrwt>
<pdfrwt beam="2">  1        4 0.85006550E-02 0.12499872E+03</pdfrwt>
<pdfrwt beam="1">  1       -4 0.28719627E-01 0.12499872E+03</pdfrwt>
<totfact> 0.18594485E+03</totfact>
</mgrwt>
</event>
<event>
 5    1  0.1440092E-002  0.1249991E+03  0.7818608E-02  0.1235071E+00
          4   -1    0    0  501    0  0.00000000000E+00  0.00000000000E+00  0.12536671990E+03  0.12537315246E+03  0.12700000000E+01 0.  1.
         -4   -1    0    0    0  501 -0.00000000000E+00 -0.00000000000E+00 -0.31137983783E+02  0.31163872258E+02  0.12700000000E+01 0.  1.
         25    2    1    2    0    0  0.00000000000E+00  0.00000000000E+00  0.94228736113E+02  0.15653702472E+03  0.12499914159E+03 0.  0.
    9000005    1    3    3    0    0 -0.34371403139E+02  0.14420010519E+02 -0.15699251910E+02  0.40457342568E+02  0.10000000000E+01 0.  0.
    9000005    1    3    3    0    0  0.34371403139E+02 -0.14420010519E+02  0.10992798802E+03  0.11607968215E+03  0.10000000000E+01 0.  0.
<mgrwt>
<rscale>  0 0.12499914E+03</rscale>
<asrwt>0</asrwt>
<pdfrwt beam="1">  1        4 0.31345720E-01 0.12499914E+03</pdfrwt>
<pdfrwt beam="2">  1       -4 0.77885362E-02 0.12499914E+03</pdfrwt>
<totfact> 0.18222319E+03</totfact>
</mgrwt>
</event>
<event>
 5    1  0.1440092E-002  0.1249931E+03  0.7818608E-02  0.1235080E+00
         -4   -1    0    0    0  501 -0.00000000000E+00  0.00000000000E+00  0.68071232804E+02  0.68083078922E+02  0.12700000000E+01 0. -1.
          4   -1    0    0  501    0  0.00000000000E+00 -0.00000000000E+00 -0.57354507979E+02  0.57368567051E+02  0.12700000000E+01 0. -1.
         25    2    1    2    0    0  0.00000000000E+00  0.00000000000E+00  0.10716724825E+02  0.12545164597E+03  0.12499306895E+03 0.  0.
    9000005    1    3    3    0    0  0.49960524189E+02 -0.33151407307E+02  0.23022564042E+02  0.64234789941E+02  0.10000000000E+01 0.  0.
    9000005    1    3    3    0    0 -0.49960524189E+02  0.33151407307E+02 -0.12305839217E+02  0.61216856032E+02  0.10000000000E+01 0.  0.
<mgrwt>
<rscale>  0 0.12499307E+03</rscale>
<asrwt>0</asrwt>
<pdfrwt beam="2">  1        4 0.14341865E-01 0.12499307E+03</pdfrwt>
<pdfrwt beam="1">  1       -4 0.17021046E-01 0.12499307E+03</pdfrwt>
<totfact> 0.19813794E+03</totfact>
</mgrwt>
</event>
<event>
 5    1  0.1440092E-002  0.1249828E+03  0.7818608E-02  0.1235096E+00
          4   -1    0    0  501    0  0.00000000000E+00  0.00000000000E+00  0.11549204326E+03  0.11549902578E+03  0.12700000000E+01 0.  1.
         -4   -1    0    0    0  501 -0.00000000000E+00 -0.00000000000E+00 -0.33793436979E+02  0.33817292660E+02  0.12700000000E+01 0.  1.
         25    2    1    2    0    0  0.00000000000E+00  0.00000000000E+00  0.81698606281E+02  0.14931631844E+03  0.12498280155E+03 0.  0.
    9000005    1    3    3    0    0 -0.39546651818E+02  0.47245950369E+02  0.53268251667E+02  0.81453202098E+02  0.10000000000E+01 0.  0.
    9000005    1    3    3    0    0  0.39546651818E+02 -0.47245950369E+02  0.28430354614E+02  0.67863116343E+02  0.10000000000E+01 0.  0.
<mgrwt>
<rscale>  0 0.12498280E+03</rscale>
<asrwt>0</asrwt>
<pdfrwt beam="1">  1        4 0.28876865E-01 0.12498280E+03</pdfrwt>
<pdfrwt beam="2">  1       -4 0.84522141E-02 0.12498280E+03</pdfrwt>
<totfact> 0.18579884E+03</totfact>
</mgrwt>
</event>
<event>
 5    1  0.1440092E-002  0.1250114E+03  0.7818608E-02  0.1235051E+00
          4   -1    0    0  501    0  0.00000000000E+00  0.00000000000E+00  0.96385752012E+01  0.97218841748E+01  0.12700000000E+01 0.  1.
         -4   -1    0    0    0  501 -0.00000000000E+00 -0.00000000000E+00 -0.40351792710E+03  0.40351992564E+03  0.12700000000E+01 0.  1.
         25    2    1    2    0    0  0.00000000000E+00  0.00000000000E+00 -0.39387935190E+03  0.41324180982E+03  0.12501139760E+03 0.  0.
    9000005    1    3    3    0    0 -0.37761908504E+02 -0.15867142872E+02 -0.40899984017E+02  0.57892457621E+02  0.10000000000E+01 0.  0.
    9000005    1    3    3    0    0  0.37761908504E+02  0.15867142872E+02 -0.35297936788E+03  0.35534935220E+03  0.10000000000E+01 0.  0.
<mgrwt>
<rscale>  0 0.12501140E+03</rscale>
<asrwt>0</asrwt>
<pdfrwt beam="1">  1        4 0.24203086E-02 0.12501140E+03</pdfrwt>
<pdfrwt beam="2">  1       -4 0.10089009E+00 0.12501140E+03</pdfrwt>
<totfact> 0.10297899E+03</totfact>
</mgrwt>
</event>
<event>
 5    1  0.1440092E-002  0.1249960E+03  0.7818608E-02  0.1235076E+00
         -4   -1    0    0    0  501 -0.00000000000E+00  0.00000000000E+00  0.27264746009E+02  0.27294308471E+02  0.12700000000E+01 0.  1.
          4   -1    0    0  501    0  0.00000000000E+00 -0.00000000000E+00 -0.14315195918E+03  0.14315759260E+03  0.12700000000E+01 0.  1.
         25    2    1    2    0    0  0.00000000000E+00  0.00000000000E+00 -0.11588721317E+03  0.17045190107E+03  0.12499601754E+03 0.  0.
    9000005    1    3    3    0    0  0.60199919677E+01 -0.40938330061E+02 -0.12180032017E+03  0.12864099333E+03  0.10000000000E+01 0.  0.
    9000005    1    3    3    0    0 -0.60199919677E+01  0.40938330061E+02  0.59131069957E+01  0.41810907738E+02  0.10000000000E+01 0.  0.
<mgrwt>
<rscale>  0 0.12499602E+03</rscale>
<asrwt>0</asrwt>
<pdfrwt beam="2">  1        4 0.35792387E-01 0.12499602E+03</pdfrwt>
<pdfrwt beam="1">  1       -4 0.68205864E-02 0.12499602E+03</pdfrwt>
<totfact> 0.17578309E+03</totfact>
</mgrwt>
</event>
<event>
 5    1  0.1440092E-002  0.1250016E+03  0.7818608E-02  0.1235067E+00
          4   -1    0    0  501    0  0.00000000000E+00  0.00000000000E+00  0.55624091442E+02  0.55638587767E+02  0.12700000000E+01 0. -1.
         -4   -1    0    0    0  501 -0.00000000000E+00 -0.00000000000E+00 -0.70198246873E+02  0.70209734111E+02  0.12700000000E+01 0. -1.
         25    2    1    2    0    0  0.00000000000E+00  0.00000000000E+00 -0.14574155431E+02  0.12584832188E+03  0.12500157644E+03 0.  0.
    9000005    1    3    3    0    0  0.30823599677E+02  0.13083261145E+02  0.45834747636E+02  0.56772265325E+02  0.10000000000E+01 0.  0.
    9000005    1    3    3    0    0 -0.30823599677E+02 -0.13083261145E+02 -0.60408903067E+02  0.69076056554E+02  0.10000000000E+01 0.  0.
<mgrwt>
<rscale>  0 0.12500158E+03</rscale>
<asrwt>0</asrwt>
<pdfrwt beam="1">  1        4 0.13909271E-01 0.12500158E+03</pdfrwt>
<pdfrwt beam="2">  1       -4 0.17552810E-01 0.12500158E+03</pdfrwt>
<totfact> 0.19788389E+03</totfact>
</mgrwt>
</event>
<event>
 5    1  0.1440092E-002  0.1249952E+03  0.7818608E-02  0.1235077E+00
         -4   -1    0    0    0  501 -0.00000000000E+00  0.00000000000E+00  0.19036179944E+03  0.19036603580E+03  0.12700000000E+01 0.  1.
          4   -1    0    0  501    0  0.00000000000E+00 -0.00000000000E+00 -0.20494439704E+02  0.20533751698E+02  0.12700000000E+01 0.  1.
         25    2    1    2    0    0  0.00000000000E+00  0.00000000000E+00  0.16986735973E+03  0.21089978749E+03  0.12499520176E+03 0.  0.
    9000005    1    3    3    0    0 -0.54380119245E+02 -0.28529957773E+02  0.10445016183E+03  0.12116927072E+03  0.10000000000E+01 0.  0.
    9000005    1    3    3    0    0  0.54380119245E+02  0.28529957773E+02  0.65417197898E+02  0.89730516773E+02  0.10000000000E+01 0.  0.
<mgrwt>
<rscale>  0 0.12499520E+03</rscale>
<asrwt>0</asrwt>
<pdfrwt beam="2">  1        4 0.51290535E-02 0.12499520E+03</pdfrwt>
<pdfrwt beam="1">  1       -4 0.47595893E-01 0.12499520E+03</pdfrwt>
<totfact> 0.15896467E+03</totfact>
</mgrwt>
</event>
<event>
 5    1  0.1440092E-002  0.1250016E+03  0.7818608E-02  0.1235067E+00
         -4   -1    0    0    0  501 -0.00000000000E+00  0.00000000000E+00  0.92462657460E+02  0.92471378948E+02  0.12700000000E+01 0. -1.
          4   -1    0    0  501    0  0.00000000000E+00 -0.00000000000E+00 -0.42227624919E+02  0.42246718290E+02  0.12700000000E+01 0. -1.
         25    2    1    2    0    0  0.00000000000E+00  0.00000000000E+00  0.50235032541E+02  0.13471809724E+03  0.12500162891E+03 0.  0.
    9000005    1    3    3    0    0  0.50330813679E+02 -0.22481592123E+01  0.64965971185E+02  0.82218139346E+02  0.10000000000E+01 0.  0.
    9000005    1    3    3    0    0 -0.50330813679E+02  0.22481592123E+01 -0.14730938644E+02  0.52499957893E+02  0.10000000000E+01 0.  0.
<mgrwt>
<rscale>  0 0.12500163E+03</rscale>
<asrwt>0</asrwt>
<pdfrwt beam="2">  1        4 0.10560383E-01 0.12500163E+03</pdfrwt>
<pdfrwt beam="1">  1       -4 0.23119141E-01 0.12500163E+03</pdfrwt>
<totfact> 0.19313179E+03</totfact>
</mgrwt>
</event>
<event>
 5    1  0.1440092E-002  0.1249940E+03  0.7818608E-02  0.1235079E+00
         -4   -1    0    0    0  501 -0.00000000000E+00  0.00000000000E+00  0.13062792305E+02  0.13124383521E+02  0.12700000000E+01 0.  1.
          4   -1    0    0  501    0  0.00000000000E+00 -0.00000000000E+00 -0.29824136827E+03  0.29824407227E+03  0.12700000000E+01 0.  1.
         25    2    1    2    0    0  0.00000000000E+00  0.00000000000E+00 -0.28517857596E+03  0.31136845580E+03  0.12499398016E+03 0.  0.
    9000005    1    3    3    0    0 -0.41257377551E+02 -0.39381519803E+02 -0.78991474907E+02  0.97435765571E+02  0.10000000000E+01 0.  0.
    9000005    1    3    3    0    0  0.41257377551E+02  0.39381519803E+02 -0.20618710106E+03  0.21393269022E+03  0.10000000000E+01 0.  0.
<mgrwt>
<rscale>  0 0.12499398E+03</rscale>
<asrwt>0</asrwt>
<pdfrwt beam="2">  1        4 0.74568357E-01 0.12499398E+03</pdfrwt>
<pdfrwt beam="1">  1       -4 0.32737360E-02 0.12499398E+03</pdfrwt>
<totfact> 0.12660058E+03</totfact>
</mgrwt>
</event>
<event>
 5    1  0.1440092E-002  0.1249984E+03  0.7818608E-02  0.1235072E+00
          4   -1    0    0  501    0  0.00000000000E+00  0.00000000000E+00  0.30347598583E+02  0.30374160725E+02  0.12700000000E+01 0. -1.
         -4   -1    0    0    0  501 -0.00000000000E+00 -0.00000000000E+00 -0.12862754522E+03  0.12863381472E+03  0.12700000000E+01 0. -1.
         25    2    1    2    0    0  0.00000000000E+00  0.00000000000E+00 -0.98279946634E+02  0.15900797544E+03  0.12499835336E+03 0.  0.
    9000005    1    3    3    0    0  0.17087009323E+02 -0.19703743134E+01  0.27283370527E+02  0.32268104528E+02  0.10000000000E+01 0.  0.
    9000005    1    3    3    0    0 -0.17087009323E+02  0.19703743134E+01 -0.12556331716E+03  0.12673987091E+03  0.10000000000E+01 0.  0.
<mgrwt>
<rscale>  0 0.12499835E+03</rscale>
<asrwt>0</asrwt>
<pdfrwt beam="1">  1        4 0.75910039E-02 0.12499835E+03</pdfrwt>
<pdfrwt beam="2">  1       -4 0.32160989E-01 0.12499835E+03</pdfrwt>
<totfact> 0.18105234E+03</totfact>
</mgrwt>
</event>
<event>
 5    1  0.1440092E-002  0.1250023E+03  0.7818608E-02  0.1235066E+00
          4   -1    0    0  501    0  0.00000000000E+00  0.00000000000E+00  0.71965700689E+02  0.71976905849E+02  0.12700000000E+01 0. -1.
         -4   -1    0    0    0  501 -0.00000000000E+00 -0.00000000000E+00 -0.54258426665E+02  0.54273287759E+02  0.12700000000E+01 0. -1.
         25    2    1    2    0    0  0.00000000000E+00  0.00000000000E+00  0.17707274024E+02  0.12625019361E+03  0.12500225531E+03 0.  0.
    9000005    1    3    3    0    0 -0.50946457569E+02 -0.22203942014E+02 -0.20012004120E+02  0.59076534162E+02  0.10000000000E+01 0.  0.
    9000005    1    3    3    0    0  0.50946457569E+02  0.22203942014E+02  0.37719278144E+02  0.67173659446E+02  0.10000000000E+01 0.  0.
<mgrwt>
<rscale>  0 0.12500226E+03</rscale>
<asrwt>0</asrwt>
<pdfrwt beam="1">  1        4 0.17994683E-01 0.12500226E+03</pdfrwt>
<pdfrwt beam="2">  1       -4 0.13567865E-01 0.12500226E+03</pdfrwt>
<totfact> 0.19766363E+03</totfact>
</mgrwt>
</event>
<event>
 5    1  0.1440092E-002  0.1250017E+03  0.7818608E-02  0.1235067E+00
         -4   -1    0    0    0  501 -0.00000000000E+00  0.00000000000E+00  0.37985842712E+03  0.37986055014E+03  0.12700000000E+01 0. -1.
          4   -1    0    0  501    0  0.00000000000E+00 -0.00000000000E+00 -0.10242354067E+02  0.10320790514E+02  0.12700000000E+01 0. -1.
         25    2    1    2    0    0  0.00000000000E+00  0.00000000000E+00  0.36961607305E+03  0.39018134066E+03  0.12500174854E+03 0.  0.
    9000005    1    3    3    0    0  0.14021063411E+02  0.91917604300E+01 -0.31069062751E+01  0.17080150631E+02  0.10000000000E+01 0.  0.
    9000005    1    3    3    0    0 -0.14021063411E+02 -0.91917604300E+01  0.37272297933E+03  0.37310119003E+03  0.10000000000E+01 0.  0.
<mgrwt>
<rscale>  0 0.12500175E+03</rscale>
<asrwt>0</asrwt>
<pdfrwt beam="2">  1        4 0.25706586E-02 0.12500175E+03</pdfrwt>
<pdfrwt beam="1">  1       -4 0.94974671E-01 0.12500175E+03</pdfrwt>
<totfact> 0.10773853E+03</totfact>
</mgrwt>
</event>
<event>
 5    1  0.1440092E-002  0.1250020E+03  0.7818608E-02  0.1235066E+00
         -4   -1    0    0    0  501 -0.00000000000E+00  0.00000000000E+00  0.37890109364E+02  0.37911387308E+02  0.12700000000E+01 0. -1.
          4   -1    0    0  501    0  0.00000000000E+00 -0.00000000000E+00 -0.10304332101E+03  0.10305114704E+03  0.12700000000E+01 0. -1.
         25    2    1    2    0    0  0.00000000000E+00  0.00000000000E+00 -0.65153211650E+02  0.14096253434E+03  0.12500198039E+03 0.  0.
    9000005    1    3    3    0    0 -0.47680534590E+01  0.37188975982E+02 -0.88956435345E+02  0.96540155675E+02  0.10000000000E+01 0.  0.
    9000005    1    3    3    0    0  0.47680534590E+01 -0.37188975982E+02  0.23803223695E+02  0.44422378669E+02  0.10000000000E+01 0.  0.
<mgrwt>
<rscale>  0 0.12500198E+03</rscale>
<asrwt>0</asrwt>
<pdfrwt beam="2">  1        4 0.25764468E-01 0.12500198E+03</pdfrwt>
<pdfrwt beam="1">  1       -4 0.94761655E-02 0.12500198E+03</pdfrwt>
<totfact> 0.18990332E+03</totfact>
</mgrwt>
</event>
<event>
 5    1  0.1440092E-002  0.1249979E+03  0.7818608E-02  0.1235073E+00
         -4   -1    0    0    0  501 -0.00000000000E+00  0.00000000000E+00  0.13659782949E+04  0.13659788853E+04  0.12700000000E+01 0. -1.
          4   -1    0    0  501    0  0.00000000000E+00 -0.00000000000E+00 -0.27179462372E+01  0.30000219580E+01  0.12700000000E+01 0. -1.
         25    2    1    2    0    0  0.00000000000E+00  0.00000000000E+00  0.13632603487E+04  0.13689789073E+04  0.12499788092E+03 0.  0.
    9000005    1    3    3    0    0  0.52997136214E+02 -0.11867790251E+02  0.34307701230E+03  0.34735051066E+03  0.10000000000E+01 0.  0.
    9000005    1    3    3    0    0 -0.52997136214E+02  0.11867790251E+02  0.10201833364E+04  0.10216283966E+04  0.10000000000E+01 0.  0.
<mgrwt>
<rscale>  0 0.12499788E+03</rscale>
<asrwt>0</asrwt>
<pdfrwt beam="2">  1        4 0.71481964E-03 0.12499788E+03</pdfrwt>
<pdfrwt beam="1">  1       -4 0.34152999E+00 0.12499788E+03</pdfrwt>
<totfact> 0.17332096E+02</totfact>
</mgrwt>
</event>
<event>
 5    1  0.1440092E-002  0.1250014E+03  0.7818608E-02  0.1235067E+00
          4   -1    0    0  501    0  0.00000000000E+00  0.00000000000E+00  0.59523041765E+02  0.59536588758E+02  0.12700000000E+01 0. -1.
         -4   -1    0    0    0  501 -0.00000000000E+00 -0.00000000000E+00 -0.65600178753E+02  0.65612471013E+02  0.12700000000E+01 0. -1.
         25    2    1    2    0    0  0.00000000000E+00  0.00000000000E+00 -0.60771369877E+01  0.12514905977E+03  0.12500142226E+03 0.  0.
    9000005    1    3    3    0    0 -0.31542898060E+02 -0.13998691776E+02 -0.55200209782E+02  0.65107456942E+02  0.10000000000E+01 0.  0.
    9000005    1    3    3    0    0  0.31542898060E+02  0.13998691776E+02  0.49123072795E+02  0.60041602829E+02  0.10000000000E+01 0.  0.
<mgrwt>
<rscale>  0 0.12500142E+03</rscale>
<asrwt>0</asrwt>
<pdfrwt beam="1">  1        4 0.14883990E-01 0.12500142E+03</pdfrwt>
<pdfrwt beam="2">  1       -4 0.16403275E-01 0.12500142E+03</pdfrwt>
<totfact> 0.19826314E+03</totfact>
</mgrwt>
</event>
<event>
 5    1  0.1440092E-002  0.1249996E+03  0.7818608E-02  0.1235070E+00
          4   -1    0    0  501    0  0.00000000000E+00  0.00000000000E+00  0.56069648646E+02  0.56084029806E+02  0.12700000000E+01 0. -1.
         -4   -1    0    0    0  501 -0.00000000000E+00 -0.00000000000E+00 -0.69638269355E+02  0.69649848950E+02  0.12700000000E+01 0. -1.
         25    2    1    2    0    0  0.00000000000E+00  0.00000000000E+00 -0.13568620709E+02  0.12573387876E+03  0.12499960320E+03 0.  0.
    9000005    1    3    3    0    0 -0.46831852032E+02 -0.34213994456E+02  0.16620491991E+02  0.60341200978E+02  0.10000000000E+01 0.  0.
    9000005    1    3    3    0    0  0.46831852032E+02  0.34213994456E+02 -0.30189112700E+02  0.65392677778E+02  0.10000000000E+01 0.  0.
<mgrwt>
<rscale>  0 0.12499960E+03</rscale>
<asrwt>0</asrwt>
<pdfrwt beam="1">  1        4 0.14020657E-01 0.12499960E+03</pdfrwt>
<pdfrwt beam="2">  1       -4 0.17412812E-01 0.12499960E+03</pdfrwt>
<totfact> 0.19795491E+03</totfact>
</mgrwt>
</event>
<event>
 5    1  0.1440092E-002  0.1249891E+03  0.7818608E-02  0.1235086E+00
         -4   -1    0    0    0  501 -0.00000000000E+00  0.00000000000E+00  0.94256512110E+01  0.95108254505E+01  0.12700000000E+01 0. -1.
          4   -1    0    0  501    0  0.00000000000E+00 -0.00000000000E+00 -0.41240526059E+03  0.41240721606E+03  0.12700000000E+01 0. -1.
         25    2    1    2    0    0  0.00000000000E+00  0.00000000000E+00 -0.40297960938E+03  0.42191804151E+03  0.12498907225E+03 0.  0.
    9000005    1    3    3    0    0 -0.29632881885E+02  0.15619129797E+02 -0.37955285371E+03  0.38102943937E+03  0.10000000000E+01 0.  0.
    9000005    1    3    3    0    0  0.29632881885E+02 -0.15619129797E+02 -0.23426755667E+02  0.40888602147E+02  0.10000000000E+01 0.  0.
<mgrwt>
<rscale>  0 0.12498907E+03</rscale>
<asrwt>0</asrwt>
<pdfrwt beam="2">  1        4 0.10311215E+00 0.12498907E+03</pdfrwt>
<pdfrwt beam="1">  1       -4 0.23673054E-02 0.12498907E+03</pdfrwt>
<totfact> 0.10130984E+03</totfact>
</mgrwt>
</event>
<event>
 5    1  0.1440092E-002  0.1249962E+03  0.7818608E-02  0.1235075E+00
         -4   -1    0    0    0  501 -0.00000000000E+00  0.00000000000E+00  0.23000781592E+03  0.23001132208E+03  0.12700000000E+01 0.  1.
          4   -1    0    0  501    0  0.00000000000E+00 -0.00000000000E+00 -0.16954690218E+02  0.17002188694E+02  0.12700000000E+01 0.  1.
         25    2    1    2    0    0  0.00000000000E+00  0.00000000000E+00  0.21305312570E+03  0.24701351077E+03  0.12499616047E+03 0.  0.
    9000005    1    3    3    0    0  0.59945255466E+02 -0.39692458285E+01  0.14051560136E+03  0.15282284774E+03  0.10000000000E+01 0.  0.
    9000005    1    3    3    0    0 -0.59945255466E+02  0.39692458285E+01  0.72537524343E+02  0.94190663036E+02  0.10000000000E+01 0.  0.
<mgrwt>
<rscale>  0 0.12499616E+03</rscale>
<asrwt>0</asrwt>
<pdfrwt beam="2">  1        4 0.42450481E-02 0.12499616E+03</pdfrwt>
<pdfrwt beam="1">  1       -4 0.57508329E-01 0.12499616E+03</pdfrwt>
<totfact> 0.14599136E+03</totfact>
</mgrwt>
</event>
<event>
 5    1  0.1440092E-002  0.1250043E+03  0.7818608E-02  0.1235063E+00
          4   -1    0    0  501    0  0.00000000000E+00  0.00000000000E+00  0.13285381656E+03  0.13285988663E+03  0.12700000000E+01 0. -1.
         -4   -1    0    0    0  501 -0.00000000000E+00 -0.00000000000E+00 -0.29384169798E+02  0.29411602043E+02  0.12700000000E+01 0. -1.
         25    2    1    2    0    0  0.00000000000E+00  0.00000000000E+00  0.10346964676E+03  0.16227148867E+03  0.12500427286E+03 0.  0.
    9000005    1    3    3    0    0 -0.19953991298E+02 -0.45371267532E+02  0.23240005411E+01  0.49629775989E+02  0.10000000000E+01 0.  0.
    9000005    1    3    3    0    0  0.19953991298E+02  0.45371267532E+02  0.10114564622E+03  0.11264171268E+03  0.10000000000E+01 0.  0.
<mgrwt>
<rscale>  0 0.12500427E+03</rscale>
<asrwt>0</asrwt>
<pdfrwt beam="1">  1        4 0.33217642E-01 0.12500427E+03</pdfrwt>
<pdfrwt beam="2">  1       -4 0.73502303E-02 0.12500427E+03</pdfrwt>
<totfact> 0.17949594E+03</totfact>
</mgrwt>
</event>
<event>
 5    1  0.1440092E-002  0.1250067E+03  0.7818608E-02  0.1235059E+00
          4   -1    0    0  501    0  0.00000000000E+00  0.00000000000E+00  0.12913094912E+03  0.12913719418E+03  0.12700000000E+01 0.  1.
         -4   -1    0    0    0  501 -0.00000000000E+00 -0.00000000000E+00 -0.30233224707E+02  0.30259887247E+02  0.12700000000E+01 0.  1.
         25    2    1    2    0    0  0.00000000000E+00  0.00000000000E+00  0.98897724409E+02  0.15939708142E+03  0.12500667851E+03 0.  0.
    9000005    1    3    3    0    0  0.22241990228E+02  0.56483688812E+02  0.30512140243E+02  0.67949274708E+02  0.10000000000E+01 0.  0.
    9000005    1    3    3    0    0 -0.22241990228E+02 -0.56483688812E+02  0.68385584166E+02  0.91447806715E+02  0.10000000000E+01 0.  0.
<mgrwt>
<rscale>  0 0.12500668E+03</rscale>
<asrwt>0</asrwt>
<pdfrwt beam="1">  1        4 0.32286850E-01 0.12500668E+03</pdfrwt>
<pdfrwt beam="2">  1       -4 0.75624198E-02 0.12500668E+03</pdfrwt>
<totfact> 0.18083358E+03</totfact>
</mgrwt>
</event>
<event>
 5    1  0.1440092E-002  0.1250013E+03  0.7818608E-02  0.1235067E+00
          4   -1    0    0  501    0  0.00000000000E+00  0.00000000000E+00  0.87926274190E+02  0.87935445600E+02  0.12700000000E+01 0. -1.
         -4   -1    0    0    0  501 -0.00000000000E+00 -0.00000000000E+00 -0.44406753615E+02  0.44424910429E+02  0.12700000000E+01 0. -1.
         25    2    1    2    0    0  0.00000000000E+00  0.00000000000E+00  0.43519520574E+02  0.13236035603E+03  0.12500126070E+03 0.  0.
    9000005    1    3    3    0    0  0.43162848649E+01  0.40212571674E+02 -0.28685776204E+02  0.49593900755E+02  0.10000000000E+01 0.  0.
    9000005    1    3    3    0    0 -0.43162848649E+01 -0.40212571674E+02  0.72205296778E+02  0.82766455274E+02  0.10000000000E+01 0.  0.
<mgrwt>
<rscale>  0 0.12500126E+03</rscale>
<asrwt>0</asrwt>
<pdfrwt beam="1">  1        4 0.21984984E-01 0.12500126E+03</pdfrwt>
<pdfrwt beam="2">  1       -4 0.11105105E-01 0.12500126E+03</pdfrwt>
<totfact> 0.19437738E+03</totfact>
</mgrwt>
</event>
<event>
 5    1  0.1440092E-002  0.1249957E+03  0.7818608E-02  0.1235076E+00
         -4   -1    0    0    0  501 -0.00000000000E+00  0.00000000000E+00  0.64524030816E+02  0.64536528050E+02  0.12700000000E+01 0. -1.
          4   -1    0    0  501    0  0.00000000000E+00 -0.00000000000E+00 -0.60510308088E+02  0.60523634102E+02  0.12700000000E+01 0. -1.
         25    2    1    2    0    0  0.00000000000E+00  0.00000000000E+00  0.40137227281E+01  0.12506016215E+03  0.12499573668E+03 0.  0.
    9000005    1    3    3    0    0  0.84433740768E+01  0.18805499189E+02  0.61029183296E+02  0.64424363243E+02  0.10000000000E+01 0.  0.
    9000005    1    3    3    0    0 -0.84433740768E+01 -0.18805499189E+02 -0.57015460567E+02  0.60635798908E+02  0.10000000000E+01 0.  0.
<mgrwt>
<rscale>  0 0.12499574E+03</rscale>
<asrwt>0</asrwt>
<pdfrwt beam="2">  1        4 0.15130805E-01 0.12499574E+03</pdfrwt>
<pdfrwt beam="1">  1       -4 0.16134236E-01 0.12499574E+03</pdfrwt>
<totfact> 0.19833771E+03</totfact>
</mgrwt>
</event>
<event>
 5    1  0.1440092E-002  0.1250023E+03  0.7818608E-02  0.1235066E+00
          4   -1    0    0  501    0  0.00000000000E+00  0.00000000000E+00  0.57894076630E+01  0.59270685071E+01  0.12700000000E+01 0. -1.
         -4   -1    0    0    0  501 -0.00000000000E+00 -0.00000000000E+00 -0.66668201235E+03  0.66668322200E+03  0.12700000000E+01 0. -1.
         25    2    1    2    0    0  0.00000000000E+00  0.00000000000E+00 -0.66089260469E+03  0.67261029051E+03  0.12500227182E+03 0.  0.
    9000005    1    3    3    0    0 -0.44498495344E+02 -0.17439972951E+02 -0.54709377052E+03  0.54917835216E+03  0.10000000000E+01 0.  0.
    9000005    1    3    3    0    0  0.44498495344E+02  0.17439972951E+02 -0.11379883417E+03  0.12343193835E+03  0.10000000000E+01 0.  0.
<mgrwt>
<rscale>  0 0.12500227E+03</rscale>
<asrwt>0</asrwt>
<pdfrwt beam="1">  1        4 0.14647130E-02 0.12500227E+03</pdfrwt>
<pdfrwt beam="2">  1       -4 0.16668760E+00 0.12500227E+03</pdfrwt>
<totfact> 0.64978914E+02</totfact>
</mgrwt>
</event>
<event>
 5    1  0.1440092E-002  0.1249948E+03  0.7818608E-02  0.1235077E+00
         -4   -1    0    0    0  501 -0.00000000000E+00  0.00000000000E+00  0.15606285103E+03  0.15606801841E+03  0.12700000000E+01 0. -1.
          4   -1    0    0  501    0  0.00000000000E+00 -0.00000000000E+00 -0.25006193579E+02  0.25038422820E+02  0.12700000000E+01 0. -1.
         25    2    1    2    0    0  0.00000000000E+00  0.00000000000E+00  0.13105665745E+03  0.18110644123E+03  0.12499478227E+03 0.  0.
    9000005    1    3    3    0    0 -0.11797675024E+02 -0.29295634990E+02  0.14365552021E+03  0.14708952326E+03  0.10000000000E+01 0.  0.
    9000005    1    3    3    0    0  0.11797675024E+02  0.29295634990E+02 -0.12598862762E+02  0.34016917972E+02  0.10000000000E+01 0.  0.
<mgrwt>
<rscale>  0 0.12499478E+03</rscale>
<asrwt>0</asrwt>
<pdfrwt beam="2">  1        4 0.62562230E-02 0.12499478E+03</pdfrwt>
<pdfrwt beam="1">  1       -4 0.39020387E-01 0.12499478E+03</pdfrwt>
<totfact> 0.17109499E+03</totfact>
</mgrwt>
</event>
<event>
 5    1  0.1440092E-002  0.1250019E+03  0.7818608E-02  0.1235066E+00
          4   -1    0    0  501    0  0.00000000000E+00  0.00000000000E+00  0.90511289679E+02  0.90520199179E+02  0.12700000000E+01 0. -1.
         -4   -1    0    0    0  501 -0.00000000000E+00 -0.00000000000E+00 -0.43138536344E+02  0.43157226717E+02  0.12700000000E+01 0. -1.
         25    2    1    2    0    0  0.00000000000E+00  0.00000000000E+00  0.47372753335E+02  0.13367742590E+03  0.12500190573E+03 0.  0.
    9000005    1    3    3    0    0  0.30464855589E+01  0.57142564877E+02 -0.31727912271E+01  0.57320331464E+02  0.10000000000E+01 0.  0.
    9000005    1    3    3    0    0 -0.30464855589E+01 -0.57142564877E+02  0.50545544563E+02  0.76357094432E+02  0.10000000000E+01 0.  0.
<mgrwt>
<rscale>  0 0.12500191E+03</rscale>
<asrwt>0</asrwt>
<pdfrwt beam="1">  1        4 0.22631272E-01 0.12500191E+03</pdfrwt>
<pdfrwt beam="2">  1       -4 0.10788084E-01 0.12500191E+03</pdfrwt>
<totfact> 0.19367776E+03</totfact>
</mgrwt>
</event>
<event>
 5    1  0.1440092E-002  0.1249942E+03  0.7818608E-02  0.1235078E+00
          4   -1    0    0  501    0  0.00000000000E+00  0.00000000000E+00  0.90903283630E+02  0.90912154714E+02  0.12700000000E+01 0. -1.
         -4   -1    0    0    0  501 -0.00000000000E+00 -0.00000000000E+00 -0.42947140548E+02  0.42965914180E+02  0.12700000000E+01 0. -1.
         25    2    1    2    0    0  0.00000000000E+00  0.00000000000E+00  0.47956143082E+02  0.13387806889E+03  0.12499418255E+03 0.  0.
    9000005    1    3    3    0    0 -0.46398457737E+02  0.10338038997E+02 -0.19465774051E+02  0.51377118351E+02  0.10000000000E+01 0.  0.
    9000005    1    3    3    0    0  0.46398457737E+02 -0.10338038997E+02  0.67421917133E+02  0.82500950543E+02  0.10000000000E+01 0.  0.
<mgrwt>
<rscale>  0 0.12499418E+03</rscale>
<asrwt>0</asrwt>
<pdfrwt beam="1">  1        4 0.22729276E-01 0.12499418E+03</pdfrwt>
<pdfrwt beam="2">  1       -4 0.10740241E-01 0.12499418E+03</pdfrwt>
<totfact> 0.19360693E+03</totfact>
</mgrwt>
</event>
<event>
 5    1  0.1440092E-002  0.1250065E+03  0.7818608E-02  0.1235059E+00
         -4   -1    0    0    0  501 -0.00000000000E+00  0.00000000000E+00  0.27249774016E+02  0.27279352703E+02  0.12700000000E+01 0. -1.
          4   -1    0    0  501    0  0.00000000000E+00 -0.00000000000E+00 -0.14325446229E+03  0.14326009168E+03  0.12700000000E+01 0. -1.
         25    2    1    2    0    0  0.00000000000E+00  0.00000000000E+00 -0.11600468828E+03  0.17053944438E+03  0.12500645738E+03 0.  0.
    9000005    1    3    3    0    0  0.47434915902E+02  0.12545464033E+02 -0.11080750582E+03  0.12118895684E+03  0.10000000000E+01 0.  0.
    9000005    1    3    3    0    0 -0.47434915902E+02 -0.12545464033E+02 -0.51971824558E+01  0.49350487535E+02  0.10000000000E+01 0.  0.
<mgrwt>
<rscale>  0 0.12500646E+03</rscale>
<asrwt>0</asrwt>
<pdfrwt beam="2">  1        4 0.35818015E-01 0.12500646E+03</pdfrwt>
<pdfrwt beam="1">  1       -4 0.68168449E-02 0.12500646E+03</pdfrwt>
<totfact> 0.17570110E+03</totfact>
</mgrwt>
</event>
<event>
 5    1  0.1440092E-002  0.1249988E+03  0.7818608E-02  0.1235071E+00
          4   -1    0    0  501    0  0.00000000000E+00  0.00000000000E+00  0.95414539752E+02  0.95422991443E+02  0.12700000000E+01 0. -1.
         -4   -1    0    0    0  501 -0.00000000000E+00 -0.00000000000E+00 -0.40918877011E+02  0.40938580774E+02  0.12700000000E+01 0. -1.
         25    2    1    2    0    0  0.00000000000E+00  0.00000000000E+00  0.54495662741E+02  0.13636157222E+03  0.12499880448E+03 0.  0.
    9000005    1    3    3    0    0 -0.57401817827E+01 -0.23659717870E+02 -0.35537815052E+02  0.43089073270E+02  0.10000000000E+01 0.  0.
    9000005    1    3    3    0    0  0.57401817827E+01  0.23659717870E+02  0.90033477793E+02  0.93272498948E+02  0.10000000000E+01 0.  0.
<mgrwt>
<rscale>  0 0.12499880E+03</rscale>
<asrwt>0</asrwt>
<pdfrwt beam="1">  1        4 0.23857154E-01 0.12499880E+03</pdfrwt>
<pdfrwt beam="2">  1       -4 0.10233239E-01 0.12499880E+03</pdfrwt>
<totfact> 0.19228592E+03</totfact>
</mgrwt>
</event>
<event>
 5    1  0.1440092E-002  0.1249971E+03  0.7818608E-02  0.1235074E+00
         -4   -1    0    0    0  501 -0.00000000000E+00  0.00000000000E+00  0.66343855946E+02  0.66356010442E+02  0.12700000000E+01 0.  1.
          4   -1    0    0  501    0  0.00000000000E+00 -0.00000000000E+00 -0.58851741009E+02  0.58865442492E+02  0.12700000000E+01 0.  1.
         25    2    1    2    0    0  0.00000000000E+00  0.00000000000E+00  0.74921149374E+01  0.12522145293E+03  0.12499712192E+03 0.  0.
    9000005    1    3    3    0    0  0.21281782958E+00 -0.50904430930E+02 -0.32564871599E+02  0.60438210115E+02  0.10000000000E+01 0.  0.
    9000005    1    3    3    0    0 -0.21281782958E+00  0.50904430930E+02  0.40056986536E+02  0.64783242818E+02  0.10000000000E+01 0.  0.
<mgrwt>
<rscale>  0 0.12499712E+03</rscale>
<asrwt>0</asrwt>
<pdfrwt beam="2">  1        4 0.14716167E-01 0.12499712E+03</pdfrwt>
<pdfrwt beam="1">  1       -4 0.16589196E-01 0.12499712E+03</pdfrwt>
<totfact> 0.19824385E+03</totfact>
</mgrwt>
</event>
<event>
 5    1  0.1440092E-002  0.1249996E+03  0.7818608E-02  0.1235070E+00
          4   -1    0    0  501    0  0.00000000000E+00  0.00000000000E+00  0.11864164358E+03  0.11864844075E+03  0.12700000000E+01 0.  1.
         -4   -1    0    0    0  501 -0.00000000000E+00 -0.00000000000E+00 -0.32904589866E+02  0.32929089484E+02  0.12700000000E+01 0.  1.
         25    2    1    2    0    0  0.00000000000E+00  0.00000000000E+00  0.85737053714E+02  0.15157753023E+03  0.12499962116E+03 0.  0.
    9000005    1    3    3    0    0  0.40993129590E+02  0.47037782079E+02  0.38626646681E+02  0.73389423286E+02  0.10000000000E+01 0.  0.
    9000005    1    3    3    0    0 -0.40993129590E+02 -0.47037782079E+02  0.47110407033E+02  0.78188106943E+02  0.10000000000E+01 0.  0.
<mgrwt>
<rscale>  0 0.12499962E+03</rscale>
<asrwt>0</asrwt>
<pdfrwt beam="1">  1        4 0.29664323E-01 0.12499962E+03</pdfrwt>
<pdfrwt beam="2">  1       -4 0.82300596E-02 0.12499962E+03</pdfrwt>
<totfact> 0.18461647E+03</totfact>
</mgrwt>
</event>
<event>
 5    1  0.1440092E-002  0.1250044E+03  0.7818608E-02  0.1235062E+00
          4   -1    0    0  501    0  0.00000000000E+00  0.00000000000E+00  0.11560069208E+04  0.11560076185E+04  0.12700000000E+01 0.  1.
         -4   -1    0    0    0  501 -0.00000000000E+00 -0.00000000000E+00 -0.32592825697E+01  0.34979741093E+01  0.12700000000E+01 0.  1.
         25    2    1    2    0    0  0.00000000000E+00  0.00000000000E+00  0.11527476383E+04  0.11595055926E+04  0.12500440654E+03 0.  0.
    9000005    1    3    3    0    0  0.14036393761E+01 -0.59020715345E+02  0.38625319731E+03  0.39074025576E+03  0.10000000000E+01 0.  0.
    9000005    1    3    3    0    0 -0.14036393761E+01  0.59020715345E+02  0.76649444097E+03  0.76876533681E+03  0.10000000000E+01 0.  0.
<mgrwt>
<rscale>  0 0.12500441E+03</rscale>
<asrwt>0</asrwt>
<pdfrwt beam="1">  1        4 0.28903159E+00 0.12500441E+03</pdfrwt>
<pdfrwt beam="2">  1       -4 0.84474448E-03 0.12500441E+03</pdfrwt>
<totfact> 0.27374254E+02</totfact>
</mgrwt>
</event>
<event>
 5    1  0.1440092E-002  0.1249997E+03  0.7818608E-02  0.1235070E+00
         -4   -1    0    0    0  501 -0.00000000000E+00  0.00000000000E+00  0.32921937205E+02  0.32946423923E+02  0.12700000000E+01 0.  1.
          4   -1    0    0  501    0  0.00000000000E+00 -0.00000000000E+00 -0.11857934355E+03  0.11858614428E+03  0.12700000000E+01 0.  1.
         25    2    1    2    0    0  0.00000000000E+00  0.00000000000E+00 -0.85657406342E+02  0.15153256821E+03  0.12499971186E+03 0.  0.
    9000005    1    3    3    0    0  0.30132943921E+02 -0.34829022514E+02  0.83767158866E+01  0.46821196991E+02  0.10000000000E+01 0.  0.
    9000005    1    3    3    0    0 -0.30132943921E+02  0.34829022514E+02 -0.94034122229E+02  0.10471137122E+03  0.10000000000E+01 0.  0.
<mgrwt>
<rscale>  0 0.12499971E+03</rscale>
<asrwt>0</asrwt>
<pdfrwt beam="2">  1        4 0.29648746E-01 0.12499971E+03</pdfrwt>
<pdfrwt beam="1">  1       -4 0.82343955E-02 0.12499971E+03</pdfrwt>
<totfact> 0.18463804E+03</totfact>
</mgrwt>
</event>
<event>
 5    1  0.1440092E-002  0.1250003E+03  0.7818608E-02  0.1235069E+00
         -4   -1    0    0    0  501 -0.00000000000E+00  0.00000000000E+00  0.12817602011E+02  0.12880365729E+02  0.12700000000E+01 0.  1.
          4   -1    0    0  501    0  0.00000000000E+00 -0.00000000000E+00 -0.30394986517E+03  0.30395251839E+03  0.12700000000E+01 0.  1.
         25    2    1    2    0    0  0.00000000000E+00  0.00000000000E+00 -0.29113226316E+03  0.31683288412E+03  0.12500032723E+03 0.  0.
    9000005    1    3    3    0    0 -0.58577058309E+02 -0.10494681746E+01 -0.20068528289E+03  0.20906447788E+03  0.10000000000E+01 0.  0.
    9000005    1    3    3    0    0  0.58577058309E+02  0.10494681746E+01 -0.90446980271E+02  0.10776840624E+03  0.10000000000E+01 0.  0.
<mgrwt>
<rscale>  0 0.12500033E+03</rscale>
<asrwt>0</asrwt>
<pdfrwt beam="2">  1        4 0.75995620E-01 0.12500033E+03</pdfrwt>
<pdfrwt beam="1">  1       -4 0.32125786E-02 0.12500033E+03</pdfrwt>
<totfact> 0.12511969E+03</totfact>
</mgrwt>
</event>
<event>
 5    1  0.1440092E-002  0.1250114E+03  0.7818608E-02  0.1235051E+00
         -4   -1    0    0    0  501 -0.00000000000E+00  0.00000000000E+00  0.26489415577E+03  0.26489720017E+03  0.12700000000E+01 0.  1.
          4   -1    0    0  501    0  0.00000000000E+00 -0.00000000000E+00 -0.14718670368E+02  0.14773359720E+02  0.12700000000E+01 0.  1.
         25    2    1    2    0    0  0.00000000000E+00  0.00000000000E+00  0.25017548540E+03  0.27967055989E+03  0.12501139379E+03 0.  0.
    9000005    1    3    3    0    0  0.51272967315E+02  0.33963723388E+02  0.10022500061E+03  0.11759465307E+03  0.10000000000E+01 0.  0.
    9000005    1    3    3    0    0 -0.51272967315E+02 -0.33963723388E+02  0.14995048479E+03  0.16207590683E+03  0.10000000000E+01 0.  0.
<mgrwt>
<rscale>  0 0.12501139E+03</rscale>
<asrwt>0</asrwt>
<pdfrwt beam="2">  1        4 0.36868843E-02 0.12501139E+03</pdfrwt>
<pdfrwt beam="1">  1       -4 0.66230756E-01 0.12501139E+03</pdfrwt>
<totfact> 0.13557039E+03</totfact>
</mgrwt>
</event>
<event>
 5    1  0.1440092E-002  0.1250088E+03  0.7818608E-02  0.1235055E+00
          4   -1    0    0  501    0  0.00000000000E+00  0.00000000000E+00  0.22232438024E+03  0.22232800756E+03  0.12700000000E+01 0. -1.
         -4   -1    0    0    0  501 -0.00000000000E+00 -0.00000000000E+00 -0.17545809303E+02  0.17591711802E+02  0.12700000000E+01 0. -1.
         25    2    1    2    0    0  0.00000000000E+00  0.00000000000E+00  0.20477857093E+03  0.23991971937E+03  0.12500883420E+03 0.  0.
    9000005    1    3    3    0    0 -0.45216163180E+02 -0.15708870435E+02  0.25272558935E+02  0.54138454523E+02  0.10000000000E+01 0.  0.
    9000005    1    3    3    0    0  0.45216163180E+02  0.15708870435E+02  0.17950601200E+03  0.18578126484E+03  0.10000000000E+01 0.  0.
<mgrwt>
<rscale>  0 0.12500883E+03</rscale>
<asrwt>0</asrwt>
<pdfrwt beam="1">  1        4 0.55587286E-01 0.12500883E+03</pdfrwt>
<pdfrwt beam="2">  1       -4 0.43926436E-02 0.12500883E+03</pdfrwt>
<totfact> 0.14836199E+03</totfact>
</mgrwt>
</event>
<event>
 5    1  0.1440092E-002  0.1249913E+03  0.7818608E-02  0.1235083E+00
          4   -1    0    0  501    0  0.00000000000E+00  0.00000000000E+00  0.86670069852E+03  0.86670162900E+03  0.12700000000E+01 0. -1.
         -4   -1    0    0    0  501 -0.00000000000E+00 -0.00000000000E+00 -0.44159768730E+01  0.45949702657E+01  0.12700000000E+01 0. -1.
         25    2    1    2    0    0  0.00000000000E+00  0.00000000000E+00  0.86228472165E+03  0.87129659927E+03  0.12499129054E+03 0.  0.
    9000005    1    3    3    0    0 -0.16145350280E+02 -0.19578956148E+01  0.10562097443E+02  0.19418125381E+02  0.10000000000E+01 0.  0.
    9000005    1    3    3    0    0  0.16145350280E+02  0.19578956148E+01  0.85172262420E+03  0.85187847389E+03  0.10000000000E+01 0.  0.
<mgrwt>
<rscale>  0 0.12499129E+03</rscale>
<asrwt>0</asrwt>
<pdfrwt beam="1">  1        4 0.21669771E+00 0.12499129E+03</pdfrwt>
<pdfrwt beam="2">  1       -4 0.11264845E-02 0.12499129E+03</pdfrwt>
<totfact> 0.46519798E+02</totfact>
</mgrwt>
</event>
<event>
 5    1  0.1440092E-002  0.1249952E+03  0.7818608E-02  0.1235077E+00
          4   -1    0    0  501    0  0.00000000000E+00  0.00000000000E+00  0.87215904369E+03  0.87215996835E+03  0.12700000000E+01 0. -1.
         -4   -1    0    0    0  501 -0.00000000000E+00 -0.00000000000E+00 -0.43875029821E+01  0.45676123323E+01  0.12700000000E+01 0. -1.
         25    2    1    2    0    0  0.00000000000E+00  0.00000000000E+00  0.86777154071E+03  0.87672758068E+03  0.12499521537E+03 0.  0.
    9000005    1    3    3    0    0 -0.33489431686E+02 -0.52335045342E+02  0.48065031825E+03  0.48465062410E+03  0.10000000000E+01 0.  0.
    9000005    1    3    3    0    0  0.33489431686E+02  0.52335045342E+02  0.38712122246E+03  0.39207695658E+03  0.10000000000E+01 0.  0.
<mgrwt>
<rscale>  0 0.12499522E+03</rscale>
<asrwt>0</asrwt>
<pdfrwt beam="1">  1        4 0.21806235E+00 0.12499522E+03</pdfrwt>
<pdfrwt beam="2">  1       -4 0.11195052E-02 0.12499522E+03</pdfrwt>
<totfact> 0.46085482E+02</totfact>
</mgrwt>
</event>
<event>
 5    1  0.1440092E-002  0.1250009E+03  0.7818608E-02  0.1235068E+00
         -4   -1    0    0    0  501 -0.00000000000E+00  0.00000000000E+00  0.57430984090E+02  0.57445024445E+02  0.12700000000E+01 0.  1.
          4   -1    0    0  501    0  0.00000000000E+00 -0.00000000000E+00 -0.67989114221E+02  0.68000974644E+02  0.12700000000E+01 0.  1.
         25    2    1    2    0    0  0.00000000000E+00  0.00000000000E+00 -0.10558130131E+02  0.12544599909E+03  0.12500089830E+03 0.  0.
    9000005    1    3    3    0    0  0.54064717049E+02 -0.98281662100E+01  0.24587950192E+02  0.60209249915E+02  0.10000000000E+01 0.  0.
    9000005    1    3    3    0    0 -0.54064717049E+02  0.98281662100E+01 -0.35146080323E+02  0.65236749174E+02  0.10000000000E+01 0.  0.
<mgrwt>
<rscale>  0 0.12500090E+03</rscale>
<asrwt>0</asrwt>
<pdfrwt beam="2">  1        4 0.17000516E-01 0.12500090E+03</pdfrwt>
<pdfrwt beam="1">  1       -4 0.14360984E-01 0.12500090E+03</pdfrwt>
<totfact> 0.19810471E+03</totfact>
</mgrwt>
</event>
<event>
 5    1  0.1440092E-002  0.1249911E+03  0.7818608E-02  0.1235083E+00
          4   -1    0    0  501    0  0.00000000000E+00  0.00000000000E+00  0.86122971661E+01  0.87054329288E+01  0.12700000000E+01 0. -1.
         -4   -1    0    0    0  501 -0.00000000000E+00 -0.00000000000E+00 -0.45096920178E+03  0.45097099003E+03  0.12700000000E+01 0. -1.
         25    2    1    2    0    0  0.00000000000E+00  0.00000000000E+00 -0.44235690461E+03  0.45967642296E+03  0.12499113077E+03 0.  0.
    9000005    1    3    3    0    0  0.36777984916E+02 -0.31927165061E+02 -0.77197150905E+02  0.91281784334E+02  0.10000000000E+01 0.  0.
    9000005    1    3    3    0    0 -0.36777984916E+02  0.31927165061E+02 -0.36515975371E+03  0.36839463863E+03  0.10000000000E+01 0.  0.
<mgrwt>
<rscale>  0 0.12499113E+03</rscale>
<asrwt>0</asrwt>
<pdfrwt beam="1">  1        4 0.21649413E-02 0.12499113E+03</pdfrwt>
<pdfrwt beam="2">  1       -4 0.11275409E+00 0.12499113E+03</pdfrwt>
<totfact> 0.94324372E+02</totfact>
</mgrwt>
</event>
<event>
 5    1  0.1440092E-002  0.1250010E+03  0.7818608E-02  0.1235068E+00
         -4   -1    0    0    0  501 -0.00000000000E+00  0.00000000000E+00  0.13399530480E+04  0.13399536499E+04  0.12700000000E+01 0. -1.
          4   -1    0    0  501    0  0.00000000000E+00 -0.00000000000E+00 -0.27763133244E+01  0.30530010933E+01  0.12700000000E+01 0. -1.
         25    2    1    2    0    0  0.00000000000E+00  0.00000000000E+00  0.13371767347E+04  0.13430066510E+04  0.12500097887E+03 0.  0.
    9000005    1    3    3    0    0  0.22474639537E+02 -0.51338230812E+02  0.96567180156E+03  0.96729713723E+03  0.10000000000E+01 0.  0.
    9000005    1    3    3    0    0 -0.22474639537E+02  0.51338230812E+02  0.37150493315E+03  0.37570951375E+03  0.10000000000E+01 0.  0.
<mgrwt>
<rscale>  0 0.12500098E+03</rscale>
<asrwt>0</asrwt>
<pdfrwt beam="2">  1        4 0.72873984E-03 0.12500098E+03</pdfrwt>
<pdfrwt beam="1">  1       -4 0.33502278E+00 0.12500098E+03</pdfrwt>
<totfact> 0.18418561E+02</totfact>
</mgrwt>
</event>
<event>
 5    1  0.1440092E-002  0.1250129E+03  0.7818608E-02  0.1235049E+00
         -4   -1    0    0    0  501 -0.00000000000E+00  0.00000000000E+00  0.15011927616E+02  0.15065552454E+02  0.12700000000E+01 0. -1.
          4   -1    0    0  501    0  0.00000000000E+00 -0.00000000000E+00 -0.25974439659E+03  0.25974750135E+03  0.12700000000E+01 0. -1.
         25    2    1    2    0    0  0.00000000000E+00  0.00000000000E+00 -0.24473246897E+03  0.27481305381E+03  0.12501293202E+03 0.  0.
    9000005    1    3    3    0    0 -0.71762301838E+01  0.25623493451E+02  0.19481590618E+01  0.26699382390E+02  0.10000000000E+01 0.  0.
    9000005    1    3    3    0    0  0.71762301838E+01 -0.25623493451E+02 -0.24668062804E+03  0.24811367142E+03  0.10000000000E+01 0.  0.
<mgrwt>
<rscale>  0 0.12501293E+03</rscale>
<asrwt>0</asrwt>
<pdfrwt beam="2">  1        4 0.64943176E-01 0.12501293E+03</pdfrwt>
<pdfrwt beam="1">  1       -4 0.37600739E-02 0.12501293E+03</pdfrwt>
<totfact> 0.13703469E+03</totfact>
</mgrwt>
</event>
<event>
 5    1  0.1440092E-002  0.1249982E+03  0.7818608E-02  0.1235072E+00
          4   -1    0    0  501    0  0.00000000000E+00  0.00000000000E+00  0.31618583570E+02  0.31644078861E+02  0.12700000000E+01 0. -1.
         -4   -1    0    0    0  501 -0.00000000000E+00 -0.00000000000E+00 -0.12346078549E+03  0.12346731735E+03  0.12700000000E+01 0. -1.
         25    2    1    2    0    0  0.00000000000E+00  0.00000000000E+00 -0.91842201922E+02  0.15511139621E+03  0.12499822071E+03 0.  0.
    9000005    1    3    3    0    0 -0.47375821668E+02  0.17841728378E+02 -0.91385518810E+02  0.10447539805E+03  0.10000000000E+01 0.  0.
    9000005    1    3    3    0    0  0.47375821668E+02 -0.17841728378E+02 -0.45668311207E+00  0.50635998160E+02  0.10000000000E+01 0.  0.
<mgrwt>
<rscale>  0 0.12499822E+03</rscale>
<asrwt>0</asrwt>
<pdfrwt beam="1">  1        4 0.79086496E-02 0.12499822E+03</pdfrwt>
<pdfrwt beam="2">  1       -4 0.30869199E-01 0.12499822E+03</pdfrwt>
<totfact> 0.18291032E+03</totfact>
</mgrwt>
</event>
<event>
 5    1  0.1440092E-002  0.1250028E+03  0.7818608E-02  0.1235065E+00
          4   -1    0    0  501    0  0.00000000000E+00  0.00000000000E+00  0.28337338960E+03  0.28337623548E+03  0.12700000000E+01 0.  1.
         -4   -1    0    0    0  501 -0.00000000000E+00 -0.00000000000E+00 -0.13753269261E+02  0.13811781759E+02  0.12700000000E+01 0.  1.
         25    2    1    2    0    0  0.00000000000E+00  0.00000000000E+00  0.26962012034E+03  0.29718801724E+03  0.12500283316E+03 0.  0.
    9000005    1    3    3    0    0  0.20693578233E+01  0.55113356744E+02  0.20467889975E+03  0.21198164150E+03  0.10000000000E+01 0.  0.
    9000005    1    3    3    0    0 -0.20693578233E+01 -0.55113356744E+02  0.64941220592E+02  0.85206375731E+02  0.10000000000E+01 0.  0.
<mgrwt>
<rscale>  0 0.12500283E+03</rscale>
<asrwt>0</asrwt>
<pdfrwt beam="1">  1        4 0.70851018E-01 0.12500283E+03</pdfrwt>
<pdfrwt beam="2">  1       -4 0.34459871E-02 0.12500283E+03</pdfrwt>
<totfact> 0.13049387E+03</totfact>
</mgrwt>
</event>
<event>
 5    1  0.1440092E-002  0.1249994E+03  0.7818608E-02  0.1235070E+00
          4   -1    0    0  501    0  0.00000000000E+00  0.00000000000E+00  0.30082527366E+02  0.30109323352E+02  0.12700000000E+01 0.  1.
         -4   -1    0    0    0  501 -0.00000000000E+00 -0.00000000000E+00 -0.12976210126E+03  0.12976831595E+03  0.12700000000E+01 0.  1.
         25    2    1    2    0    0  0.00000000000E+00  0.00000000000E+00 -0.99679573897E+02  0.15987763930E+03  0.12499936838E+03 0.  0.
    9000005    1    3    3    0    0 -0.25926078737E+01  0.41000615847E+02  0.10389218434E+02  0.42387592230E+02  0.10000000000E+01 0.  0.
    9000005    1    3    3    0    0  0.25926078737E+01 -0.41000615847E+02 -0.11006879233E+03  0.11749004707E+03  0.10000000000E+01 0.  0.
<mgrwt>
<rscale>  0 0.12499937E+03</rscale>
<asrwt>0</asrwt>
<pdfrwt beam="1">  1        4 0.75247585E-02 0.12499937E+03</pdfrwt>
<pdfrwt beam="2">  1       -4 0.32444650E-01 0.12499937E+03</pdfrwt>
<totfact> 0.18063780E+03</totfact>
</mgrwt>
</event>
<event>
 5    1  0.1440092E-002  0.1250014E+03  0.7818608E-02  0.1235067E+00
          4   -1    0    0  501    0  0.00000000000E+00  0.00000000000E+00  0.58141791730E+02  0.58155660477E+02  0.12700000000E+01 0.  1.
         -4   -1    0    0    0  501 -0.00000000000E+00 -0.00000000000E+00 -0.67158519822E+02  0.67170526905E+02  0.12700000000E+01 0.  1.
         25    2    1    2    0    0  0.00000000000E+00  0.00000000000E+00 -0.90167280925E+01  0.12532618738E+03  0.12500140743E+03 0.  0.
    9000005    1    3    3    0    0 -0.13131760231E+02  0.26161218140E+02  0.50848182957E+02  0.58680407049E+02  0.10000000000E+01 0.  0.
    9000005    1    3    3    0    0  0.13131760231E+02 -0.26161218140E+02 -0.59864911050E+02  0.66645780334E+02  0.10000000000E+01 0.  0.
<mgrwt>
<rscale>  0 0.12500141E+03</rscale>
<asrwt>0</asrwt>
<pdfrwt beam="1">  1        4 0.14538682E-01 0.12500141E+03</pdfrwt>
<pdfrwt beam="2">  1       -4 0.16792864E-01 0.12500141E+03</pdfrwt>
<totfact> 0.19816723E+03</totfact>
</mgrwt>
</event>
<event>
 5    1  0.1440092E-002  0.1250010E+03  0.7818608E-02  0.1235068E+00
         -4   -1    0    0    0  501 -0.00000000000E+00  0.00000000000E+00  0.26236246928E+03  0.26236554306E+03  0.12700000000E+01 0.  1.
          4   -1    0    0  501    0  0.00000000000E+00 -0.00000000000E+00 -0.14858749547E+02  0.14912925202E+02  0.12700000000E+01 0.  1.
         25    2    1    2    0    0  0.00000000000E+00  0.00000000000E+00  0.24750371973E+03  0.27727846826E+03  0.12500103072E+03 0.  0.
    9000005    1    3    3    0    0  0.31527989774E+02 -0.36136099853E+02  0.34871593090E+02  0.59303118438E+02  0.10000000000E+01 0.  0.
    9000005    1    3    3    0    0 -0.31527989774E+02  0.36136099853E+02  0.21263212664E+03  0.21797534983E+03  0.10000000000E+01 0.  0.
<mgrwt>
<rscale>  0 0.12500103E+03</rscale>
<asrwt>0</asrwt>
<pdfrwt beam="2">  1        4 0.37218434E-02 0.12500103E+03</pdfrwt>
<pdfrwt beam="1">  1       -4 0.65597776E-01 0.12500103E+03</pdfrwt>
<totfact> 0.13632323E+03</totfact>
</mgrwt>
</event>
<event>
 5    1  0.1440092E-002  0.1249979E+03  0.7818608E-02  0.1235073E+00
         -4   -1    0    0    0  501 -0.00000000000E+00  0.00000000000E+00  0.91802970576E+02  0.91811754730E+02  0.12700000000E+01 0. -1.
          4   -1    0    0  501    0  0.00000000000E+00 -0.00000000000E+00 -0.42528637315E+02  0.42547595606E+02  0.12700000000E+01 0. -1.
         25    2    1    2    0    0  0.00000000000E+00  0.00000000000E+00  0.49274333262E+02  0.13435935034E+03  0.12499790040E+03 0.  0.
    9000005    1    3    3    0    0  0.40965439566E+02 -0.47116407553E+02  0.27480187429E+02  0.68222311605E+02  0.10000000000E+01 0.  0.
    9000005    1    3    3    0    0 -0.40965439566E+02  0.47116407553E+02  0.21794145833E+02  0.66137038731E+02  0.10000000000E+01 0.  0.
<mgrwt>
<rscale>  0 0.12499790E+03</rscale>
<asrwt>0</asrwt>
<pdfrwt beam="2">  1        4 0.10635627E-01 0.12499790E+03</pdfrwt>
<pdfrwt beam="1">  1       -4 0.22954210E-01 0.12499790E+03</pdfrwt>
<totfact> 0.19333693E+03</totfact>
</mgrwt>
</event>
<event>
 5    1  0.1440092E-002  0.1250009E+03  0.7818608E-02  0.1235068E+00
          4   -1    0    0  501    0  0.00000000000E+00  0.00000000000E+00  0.19955185771E+03  0.19955589897E+03  0.12700000000E+01 0.  1.
         -4   -1    0    0    0  501 -0.00000000000E+00 -0.00000000000E+00 -0.19550555425E+02  0.19591761469E+02  0.12700000000E+01 0.  1.
         25    2    1    2    0    0  0.00000000000E+00  0.00000000000E+00  0.18000130228E+03  0.21914766044E+03  0.12500091301E+03 0.  0.
    9000005    1    3    3    0    0  0.22738946433E+02  0.52293467283E+02  0.13482285255E+03  0.14638943942E+03  0.10000000000E+01 0.  0.
    9000005    1    3    3    0    0 -0.22738946433E+02 -0.52293467283E+02  0.45178449734E+02  0.72758221018E+02  0.10000000000E+01 0.  0.
<mgrwt>
<rscale>  0 0.12500091E+03</rscale>
<asrwt>0</asrwt>
<pdfrwt beam="1">  1        4 0.49893620E-01 0.12500091E+03</pdfrwt>
<pdfrwt beam="2">  1       -4 0.48932948E-02 0.12500091E+03</pdfrwt>
<totfact> 0.15582673E+03</totfact>
</mgrwt>
</event>
<event>
 5    1  0.1440092E-002  0.1250006E+03  0.7818608E-02  0.1235068E+00
          4   -1    0    0  501    0  0.00000000000E+00  0.00000000000E+00  0.24784474012E+01  0.27848880625E+01  0.12700000000E+01 0. -1.
         -4   -1    0    0    0  501 -0.00000000000E+00 -0.00000000000E+00 -0.14840314036E+04  0.14840319470E+04  0.12700000000E+01 0. -1.
         25    2    1    2    0    0  0.00000000000E+00  0.00000000000E+00 -0.14815529562E+04  0.14868168351E+04  0.12500055623E+03 0.  0.
    9000005    1    3    3    0    0  0.56811468789E+02  0.39248904464E+01 -0.43466117778E+03  0.43837687807E+03  0.10000000000E+01 0.  0.
    9000005    1    3    3    0    0 -0.56811468789E+02 -0.39248904464E+01 -0.10468917784E+04  0.10484399570E+04  0.10000000000E+01 0.  0.
<mgrwt>
<rscale>  0 0.12500056E+03</rscale>
<asrwt>0</asrwt>
<pdfrwt beam="1">  1        4 0.65798995E-03 0.12500056E+03</pdfrwt>
<pdfrwt beam="2">  1       -4 0.37104335E+00 0.12500056E+03</pdfrwt>
<totfact> 0.12931775E+02</totfact>
</mgrwt>
</event>
<event>
 5    1  0.1440092E-002  0.1250011E+03  0.7818608E-02  0.1235067E+00
         -4   -1    0    0    0  501 -0.00000000000E+00  0.00000000000E+00  0.37201356258E+01  0.39309425173E+01  0.12700000000E+01 0. -1.
          4   -1    0    0  501    0  0.00000000000E+00 -0.00000000000E+00 -0.10209054404E+04  0.10209062303E+04  0.12700000000E+01 0. -1.
         25    2    1    2    0    0  0.00000000000E+00  0.00000000000E+00 -0.10171853047E+04  0.10248371728E+04  0.12500114644E+03 0.  0.
    9000005    1    3    3    0    0  0.17585749810E+02  0.40848331272E+02 -0.14864821750E+03  0.15516164903E+03  0.10000000000E+01 0.  0.
    9000005    1    3    3    0    0 -0.17585749810E+02 -0.40848331272E+02 -0.86853708724E+03  0.86967552379E+03  0.10000000000E+01 0.  0.
<mgrwt>
<rscale>  0 0.12500115E+03</rscale>
<asrwt>0</asrwt>
<pdfrwt beam="2">  1        4 0.25525188E+00 0.12500115E+03</pdfrwt>
<pdfrwt beam="1">  1       -4 0.95648701E-03 0.12500115E+03</pdfrwt>
<totfact> 0.35462951E+02</totfact>
</mgrwt>
</event>
<event>
 5    1  0.1440092E-002  0.1250077E+03  0.7818608E-02  0.1235057E+00
         -4   -1    0    0    0  501 -0.00000000000E+00  0.00000000000E+00  0.25343174887E+02  0.25374976125E+02  0.12700000000E+01 0. -1.
          4   -1    0    0  501    0  0.00000000000E+00 -0.00000000000E+00 -0.15402218233E+03  0.15402741817E+03  0.12700000000E+01 0. -1.
         25    2    1    2    0    0  0.00000000000E+00  0.00000000000E+00 -0.12867900744E+03  0.17940239430E+03  0.12500772826E+03 0.  0.
    9000005    1    3    3    0    0  0.22152795473E+02 -0.45413214239E+02 -0.11558172101E+02  0.51843010302E+02  0.10000000000E+01 0.  0.
    9000005    1    3    3    0    0 -0.22152795473E+02  0.45413214239E+02 -0.11712083534E+03  0.12755938400E+03  0.10000000000E+01 0.  0.
<mgrwt>
<rscale>  0 0.12500773E+03</rscale>
<asrwt>0</asrwt>
<pdfrwt beam="2">  1        4 0.38510173E-01 0.12500773E+03</pdfrwt>
<pdfrwt beam="1">  1       -4 0.63404238E-02 0.12500773E+03</pdfrwt>
<totfact> 0.17178034E+03</totfact>
</mgrwt>
</event>
<event>
 5    1  0.1440092E-002  0.1249958E+03  0.7818608E-02  0.1235076E+00
          4   -1    0    0  501    0  0.00000000000E+00  0.00000000000E+00  0.19357607649E+02  0.19399223538E+02  0.12700000000E+01 0.  1.
         -4   -1    0    0    0  501 -0.00000000000E+00 -0.00000000000E+00 -0.20152034403E+03  0.20152434582E+03  0.12700000000E+01 0.  1.
         25    2    1    2    0    0  0.00000000000E+00  0.00000000000E+00 -0.18216273639E+03  0.22092356936E+03  0.12499584382E+03 0.  0.
    9000005    1    3    3    0    0 -0.54975053930E+02  0.48666164780E+01 -0.14288445418E+03  0.15317606783E+03  0.10000000000E+01 0.  0.
    9000005    1    3    3    0    0  0.54975053930E+02 -0.48666164780E+01 -0.39278282208E+02  0.67747501531E+02  0.10000000000E+01 0.  0.
<mgrwt>
<rscale>  0 0.12499584E+03</rscale>
<asrwt>0</asrwt>
<pdfrwt beam="1">  1        4 0.48451047E-02 0.12499584E+03</pdfrwt>
<pdfrwt beam="2">  1       -4 0.50385782E-01 0.12499584E+03</pdfrwt>
<totfact> 0.15518637E+03</totfact>
</mgrwt>
</event>
<event>
 5    1  0.1440092E-002  0.1249945E+03  0.7818608E-02  0.1235078E+00
          4   -1    0    0  501    0  0.00000000000E+00  0.00000000000E+00  0.80972834140E+02  0.80982793040E+02  0.12700000000E+01 0.  1.
         -4   -1    0    0    0  501 -0.00000000000E+00 -0.00000000000E+00 -0.48215955779E+02  0.48232678670E+02  0.12700000000E+01 0.  1.
         25    2    1    2    0    0  0.00000000000E+00  0.00000000000E+00  0.32756878361E+02  0.12921547171E+03  0.12499450008E+03 0.  0.
    9000005    1    3    3    0    0  0.22668292018E+02  0.42072030795E+02  0.57999676819E+02  0.75158963201E+02  0.10000000000E+01 0.  0.
    9000005    1    3    3    0    0 -0.22668292018E+02 -0.42072030795E+02 -0.25242798458E+02  0.54056508510E+02  0.10000000000E+01 0.  0.
<mgrwt>
<rscale>  0 0.12499450E+03</rscale>
<asrwt>0</asrwt>
<pdfrwt beam="1">  1        4 0.20246544E-01 0.12499450E+03</pdfrwt>
<pdfrwt beam="2">  1       -4 0.12057324E-01 0.12499450E+03</pdfrwt>
<totfact> 0.19609169E+03</totfact>
</mgrwt>
</event>
<event>
 5    1  0.1440092E-002  0.1250008E+03  0.7818608E-02  0.1235068E+00
         -4   -1    0    0    0  501 -0.00000000000E+00  0.00000000000E+00  0.21604152305E+03  0.21604525587E+03  0.12700000000E+01 0.  1.
          4   -1    0    0  501    0  0.00000000000E+00 -0.00000000000E+00 -0.18055056584E+02  0.18099667628E+02  0.12700000000E+01 0.  1.
         25    2    1    2    0    0  0.00000000000E+00  0.00000000000E+00  0.19798646647E+03  0.23414492350E+03  0.12500081717E+03 0.  0.
    9000005    1    3    3    0    0 -0.50330129700E+02  0.10700653235E+02  0.32564475323E+02  0.60902142724E+02  0.10000000000E+01 0.  0.
    9000005    1    3    3    0    0  0.50330129700E+02 -0.10700653235E+02  0.16542199115E+03  0.17324278077E+03  0.10000000000E+01 0.  0.
<mgrwt>
<rscale>  0 0.12500082E+03</rscale>
<asrwt>0</asrwt>
<pdfrwt beam="2">  1        4 0.45198072E-02 0.12500082E+03</pdfrwt>
<pdfrwt beam="1">  1       -4 0.54016423E-01 0.12500082E+03</pdfrwt>
<totfact> 0.15040044E+03</totfact>
</mgrwt>
</event>
<event>
 5    1  0.1440092E-002  0.1250039E+03  0.7818608E-02  0.1235063E+00
         -4   -1    0    0    0  501 -0.00000000000E+00  0.00000000000E+00  0.10346343878E+03  0.10347123303E+03  0.12700000000E+01 0. -1.
          4   -1    0    0  501    0  0.00000000000E+00 -0.00000000000E+00 -0.37737351535E+02  0.37758715562E+02  0.12700000000E+01 0. -1.
         25    2    1    2    0    0  0.00000000000E+00  0.00000000000E+00  0.65726087243E+02  0.14122994859E+03  0.12500391927E+03 0.  0.
    9000005    1    3    3    0    0  0.10903692445E+02 -0.49037835816E+02  0.74862213925E+02  0.90160695007E+02  0.10000000000E+01 0.  0.
    9000005    1    3    3    0    0 -0.10903692445E+02  0.49037835816E+02 -0.91361266814E+01  0.51069253580E+02  0.10000000000E+01 0.  0.
<mgrwt>
<rscale>  0 0.12500392E+03</rscale>
<asrwt>0</asrwt>
<pdfrwt beam="2">  1        4 0.94379827E-02 0.12500392E+03</pdfrwt>
<pdfrwt beam="1">  1       -4 0.25869504E-01 0.12500392E+03</pdfrwt>
<totfact> 0.18975862E+03</totfact>
</mgrwt>
</event>
<event>
 5    1  0.1440092E-002  0.1249995E+03  0.7818608E-02  0.1235070E+00
          4   -1    0    0  501    0  0.00000000000E+00  0.00000000000E+00  0.72423988093E+03  0.72424099444E+03  0.12700000000E+01 0.  1.
         -4   -1    0    0    0  501 -0.00000000000E+00 -0.00000000000E+00 -0.53176456024E+01  0.54671980715E+01  0.12700000000E+01 0.  1.
         25    2    1    2    0    0  0.00000000000E+00  0.00000000000E+00  0.71892223533E+03  0.72970819251E+03  0.12499946309E+03 0.  0.
    9000005    1    3    3    0    0  0.24673148559E+02  0.54905116152E+02  0.45747182351E+03  0.46141608700E+03  0.10000000000E+01 0.  0.
    9000005    1    3    3    0    0 -0.24673148559E+02 -0.54905116152E+02  0.26145041182E+03  0.26829210551E+03  0.10000000000E+01 0.  0.
<mgrwt>
<rscale>  0 0.12499946E+03</rscale>
<asrwt>0</asrwt>
<pdfrwt beam="1">  1        4 0.18107883E+00 0.12499946E+03</pdfrwt>
<pdfrwt beam="2">  1       -4 0.13482445E-02 0.12499946E+03</pdfrwt>
<totfact> 0.59044299E+02</totfact>
</mgrwt>
</event>
<event>
 5    1  0.1440092E-002  0.1249968E+03  0.7818608E-02  0.1235074E+00
         -4   -1    0    0    0  501 -0.00000000000E+00  0.00000000000E+00  0.69222199913E+02  0.69233849097E+02  0.12700000000E+01 0.  1.
          4   -1    0    0  501    0  0.00000000000E+00 -0.00000000000E+00 -0.56404193581E+02  0.56418489465E+02  0.12700000000E+01 0.  1.
         25    2    1    2    0    0  0.00000000000E+00  0.00000000000E+00  0.12818006332E+02  0.12565233856E+03  0.12499683556E+03 0.  0.
    9000005    1    3    3    0    0  0.93207751383E+01 -0.10775302821E+02  0.67572705544E+02  0.69065581403E+02  0.10000000000E+01 0.  0.
    9000005    1    3    3    0    0 -0.93207751383E+01  0.10775302821E+02 -0.54754699211E+02  0.56586757159E+02  0.10000000000E+01 0.  0.
<mgrwt>
<rscale>  0 0.12499684E+03</rscale>
<asrwt>0</asrwt>
<pdfrwt beam="2">  1        4 0.14104292E-01 0.12499684E+03</pdfrwt>
<pdfrwt beam="1">  1       -4 0.17308793E-01 0.12499684E+03</pdfrwt>
<totfact> 0.19801185E+03</totfact>
</mgrwt>
</event>
<event>
 5    1  0.1440092E-002  0.1249992E+03  0.7818608E-02  0.1235070E+00
          4   -1    0    0  501    0  0.00000000000E+00  0.00000000000E+00  0.27007710508E+02  0.27037554011E+02  0.12700000000E+01 0. -1.
         -4   -1    0    0    0  501 -0.00000000000E+00 -0.00000000000E+00 -0.14452033078E+03  0.14452591085E+03  0.12700000000E+01 0. -1.
         25    2    1    2    0    0  0.00000000000E+00  0.00000000000E+00 -0.11751262027E+03  0.17156346487E+03  0.12499922621E+03 0.  0.
    9000005    1    3    3    0    0 -0.42913079182E+02 -0.18424203506E+01  0.35425434852E+01  0.43110050939E+02  0.10000000000E+01 0.  0.
    9000005    1    3    3    0    0  0.42913079182E+02  0.18424203506E+01 -0.12105516376E+03  0.12845341393E+03  0.10000000000E+01 0.  0.
<mgrwt>
<rscale>  0 0.12499923E+03</rscale>
<asrwt>0</asrwt>
<pdfrwt beam="1">  1        4 0.67563560E-02 0.12499923E+03</pdfrwt>
<pdfrwt beam="2">  1       -4 0.36134509E-01 0.12499923E+03</pdfrwt>
<totfact> 0.17527073E+03</totfact>
</mgrwt>
</event>
<event>
 5    1  0.1440092E-002  0.1249992E+03  0.7818608E-02  0.1235071E+00
          4   -1    0    0  501    0  0.00000000000E+00  0.00000000000E+00  0.10140241317E+04  0.10140249270E+04  0.12700000000E+01 0. -1.
         -4   -1    0    0    0  501 -0.00000000000E+00 -0.00000000000E+00 -0.37466828941E+01  0.39560754175E+01  0.12700000000E+01 0. -1.
         25    2    1    2    0    0  0.00000000000E+00  0.00000000000E+00  0.10102774488E+04  0.10179810024E+04  0.12499919084E+03 0.  0.
    9000005    1    3    3    0    0 -0.40884021271E+02 -0.35869598325E+02  0.25451447637E+03  0.26026284783E+03  0.10000000000E+01 0.  0.
    9000005    1    3    3    0    0  0.40884021271E+02  0.35869598325E+02  0.75576297244E+03  0.75771815459E+03  0.10000000000E+01 0.  0.
<mgrwt>
<rscale>  0 0.12499919E+03</rscale>
<asrwt>0</asrwt>
<pdfrwt beam="1">  1        4 0.25353240E+00 0.12499919E+03</pdfrwt>
<pdfrwt beam="2">  1       -4 0.96294383E-03 0.12499919E+03</pdfrwt>
<totfact> 0.35913394E+02</totfact>
</mgrwt>
</event>
<event>
 5    1  0.1440092E-002  0.1250014E+03  0.7818608E-02  0.1235067E+00
         -4   -1    0    0    0  501 -0.00000000000E+00  0.00000000000E+00  0.22035566370E+03  0.22035932344E+03  0.12700000000E+01 0.  1.
          4   -1    0    0  501    0  0.00000000000E+00 -0.00000000000E+00 -0.17700856374E+02  0.17746357834E+02  0.12700000000E+01 0.  1.
         25    2    1    2    0    0  0.00000000000E+00  0.00000000000E+00  0.20265480733E+03  0.23810568127E+03  0.12500137807E+03 0.  0.
    9000005    1    3    3    0    0 -0.12962946202E+01 -0.62435462592E+02  0.10578190856E+03  0.12284412703E+03  0.10000000000E+01 0.  0.
    9000005    1    3    3    0    0  0.12962946202E+01  0.62435462592E+02  0.96872898771E+02  0.11526155424E+03  0.10000000000E+01 0.  0.
<mgrwt>
<rscale>  0 0.12500138E+03</rscale>
<asrwt>0</asrwt>
<pdfrwt beam="2">  1        4 0.44313592E-02 0.12500138E+03</pdfrwt>
<pdfrwt beam="1">  1       -4 0.55095061E-01 0.12500138E+03</pdfrwt>
<totfact> 0.14901465E+03</totfact>
</mgrwt>
</event>
<event>
 5    1  0.1440092E-002  0.1250011E+03  0.7818608E-02  0.1235068E+00
         -4   -1    0    0    0  501 -0.00000000000E+00  0.00000000000E+00  0.26583427932E+02  0.26613747211E+02  0.12700000000E+01 0. -1.
          4   -1    0    0  501    0  0.00000000000E+00 -0.00000000000E+00 -0.14682889078E+03  0.14683438312E+03  0.12700000000E+01 0. -1.
         25    2    1    2    0    0  0.00000000000E+00  0.00000000000E+00 -0.12024546284E+03  0.17344813033E+03  0.12500113032E+03 0.  0.
    9000005    1    3    3    0    0  0.53662233093E+02 -0.31962344010E+02 -0.57315184911E+02  0.84777692328E+02  0.10000000000E+01 0.  0.
    9000005    1    3    3    0    0 -0.53662233093E+02  0.31962344010E+02 -0.62930277933E+02  0.88670438004E+02  0.10000000000E+01 0.  0.
<mgrwt>
<rscale>  0 0.12500113E+03</rscale>
<asrwt>0</asrwt>
<pdfrwt beam="2">  1        4 0.36711697E-01 0.12500113E+03</pdfrwt>
<pdfrwt beam="1">  1       -4 0.66503338E-02 0.12500113E+03</pdfrwt>
<totfact> 0.17442177E+03</totfact>
</mgrwt>
</event>
<event>
 5    1  0.1440092E-002  0.1249979E+03  0.7818608E-02  0.1235073E+00
         -4   -1    0    0    0  501 -0.00000000000E+00  0.00000000000E+00  0.29521717950E+02  0.29549022500E+02  0.12700000000E+01 0.  1.
          4   -1    0    0  501    0  0.00000000000E+00 -0.00000000000E+00 -0.13222186419E+03  0.13222796327E+03  0.12700000000E+01 0.  1.
         25    2    1    2    0    0  0.00000000000E+00  0.00000000000E+00 -0.10270014624E+03  0.16177698577E+03  0.12499789233E+03 0.  0.
    9000005    1    3    3    0    0  0.50402338332E+01  0.16987057133E+01 -0.13193472904E+03  0.13204568257E+03  0.10000000000E+01 0.  0.
    9000005    1    3    3    0    0 -0.50402338332E+01 -0.16987057133E+01  0.29234582802E+02  0.29731303197E+02  0.10000000000E+01 0.  0.
<mgrwt>
<rscale>  0 0.12499789E+03</rscale>
<asrwt>0</asrwt>
<pdfrwt beam="2">  1        4 0.33059640E-01 0.12499789E+03</pdfrwt>
<pdfrwt beam="1">  1       -4 0.73846053E-02 0.12499789E+03</pdfrwt>
<totfact> 0.17975327E+03</totfact>
</mgrwt>
</event>
<event>
 5    1  0.1440092E-002  0.1250001E+03  0.7818608E-02  0.1235069E+00
         -4   -1    0    0    0  501 -0.00000000000E+00  0.00000000000E+00  0.28533325959E+02  0.28561575416E+02  0.12700000000E+01 0. -1.
          4   -1    0    0  501    0  0.00000000000E+00 -0.00000000000E+00 -0.13680268126E+03  0.13680857612E+03  0.12700000000E+01 0. -1.
         25    2    1    2    0    0  0.00000000000E+00  0.00000000000E+00 -0.10826935530E+03  0.16537015154E+03  0.12500013489E+03 0.  0.
    9000005    1    3    3    0    0  0.40820524424E+02 -0.17279172697E+02  0.41412639878E+01  0.44531282160E+02  0.10000000000E+01 0.  0.
    9000005    1    3    3    0    0 -0.40820524424E+02  0.17279172697E+02 -0.11241061929E+03  0.12083886938E+03  0.10000000000E+01 0.  0.
<mgrwt>
<rscale>  0 0.12500013E+03</rscale>
<asrwt>0</asrwt>
<pdfrwt beam="2">  1        4 0.34204937E-01 0.12500013E+03</pdfrwt>
<pdfrwt beam="1">  1       -4 0.71375999E-02 0.12500013E+03</pdfrwt>
<totfact> 0.17807862E+03</totfact>
</mgrwt>
</event>
<event>
 5    1  0.1440092E-002  0.1250056E+03  0.7818608E-02  0.1235060E+00
         -4   -1    0    0    0  501 -0.00000000000E+00  0.00000000000E+00  0.70827880979E+03  0.70827994840E+03  0.12700000000E+01 0.  1.
          4   -1    0    0  501    0  0.00000000000E+00 -0.00000000000E+00 -0.54413628562E+01  0.55876050087E+01  0.12700000000E+01 0.  1.
         25    2    1    2    0    0  0.00000000000E+00  0.00000000000E+00  0.70283744694E+03  0.71386755341E+03  0.12500562783E+03 0.  0.
    9000005    1    3    3    0    0 -0.26126423718E+02  0.51492114652E+02  0.21488992865E+03  0.22251451486E+03  0.10000000000E+01 0.  0.
    9000005    1    3    3    0    0  0.26126423718E+02 -0.51492114652E+02  0.48794751829E+03  0.49135303855E+03  0.10000000000E+01 0.  0.
<mgrwt>
<rscale>  0 0.12500563E+03</rscale>
<asrwt>0</asrwt>
<pdfrwt beam="2">  1        4 0.13787633E-02 0.12500563E+03</pdfrwt>
<pdfrwt beam="1">  1       -4 0.17708813E+00 0.12500563E+03</pdfrwt>
<totfact> 0.60627184E+02</totfact>
</mgrwt>
</event>
<event>
 5    1  0.1440092E-002  0.1249994E+03  0.7818608E-02  0.1235070E+00
          4   -1    0    0  501    0  0.00000000000E+00  0.00000000000E+00  0.74717655029E+02  0.74728447549E+02  0.12700000000E+01 0.  1.
         -4   -1    0    0    0  501 -0.00000000000E+00 -0.00000000000E+00 -0.52257379354E+02  0.52272809347E+02  0.12700000000E+01 0.  1.
         25    2    1    2    0    0  0.00000000000E+00  0.00000000000E+00  0.22460275674E+02  0.12700125690E+03  0.12499942108E+03 0.  0.
    9000005    1    3    3    0    0 -0.28748414187E+02  0.53166860445E+02 -0.48994748752E+01  0.60648093308E+02  0.10000000000E+01 0.  0.
    9000005    1    3    3    0    0  0.28748414187E+02 -0.53166860445E+02  0.27359750550E+02  0.66353163587E+02  0.10000000000E+01 0.  0.
<mgrwt>
<rscale>  0 0.12499942E+03</rscale>
<asrwt>0</asrwt>
<pdfrwt beam="1">  1        4 0.18682692E-01 0.12499942E+03</pdfrwt>
<pdfrwt beam="2">  1       -4 0.13067623E-01 0.12499942E+03</pdfrwt>
<totfact> 0.19727177E+03</totfact>
</mgrwt>
</event>
<event>
 5    1  0.1440092E-002  0.1249974E+03  0.7818608E-02  0.1235073E+00
         -4   -1    0    0    0  501 -0.00000000000E+00  0.00000000000E+00  0.29264402942E+03  0.29264678514E+03  0.12700000000E+01 0. -1.
          4   -1    0    0  501    0  0.00000000000E+00 -0.00000000000E+00 -0.13314530915E+02  0.13374962935E+02  0.12700000000E+01 0. -1.
         25    2    1    2    0    0  0.00000000000E+00  0.00000000000E+00  0.27932949851E+03  0.30602174808E+03  0.12499736622E+03 0.  0.
    9000005    1    3    3    0    0  0.59123584204E+02  0.73090571137E+01  0.18586198505E+03  0.19517863103E+03  0.10000000000E+01 0.  0.
    9000005    1    3    3    0    0 -0.59123584204E+02 -0.73090571137E+01  0.93467513453E+02  0.11084311704E+03  0.10000000000E+01 0.  0.
<mgrwt>
<rscale>  0 0.12499737E+03</rscale>
<asrwt>0</asrwt>
<pdfrwt beam="2">  1        4 0.33365314E-02 0.12499737E+03</pdfrwt>
<pdfrwt beam="1">  1       -4 0.73168902E-01 0.12499737E+03</pdfrwt>
<totfact> 0.12804721E+03</totfact>
</mgrwt>
</event>
<event>
 5    1  0.1440092E-002  0.1249976E+03  0.7818608E-02  0.1235073E+00
         -4   -1    0    0    0  501 -0.00000000000E+00  0.00000000000E+00  0.52561204989E+02  0.52576545816E+02  0.12700000000E+01 0.  1.
          4   -1    0    0  501    0  0.00000000000E+00 -0.00000000000E+00 -0.74283622642E+02  0.74294478212E+02  0.12700000000E+01 0.  1.
         25    2    1    2    0    0  0.00000000000E+00  0.00000000000E+00 -0.21722417653E+02  0.12687102403E+03  0.12499757321E+03 0.  0.
    9000005    1    3    3    0    0  0.42449429763E+02  0.35373915788E+02  0.18762362289E+02  0.58363466690E+02  0.10000000000E+01 0.  0.
    9000005    1    3    3    0    0 -0.42449429763E+02 -0.35373915788E+02 -0.40484779942E+02  0.68507557338E+02  0.10000000000E+01 0.  0.
<mgrwt>
<rscale>  0 0.12499757E+03</rscale>
<asrwt>0</asrwt>
<pdfrwt beam="2">  1        4 0.18574180E-01 0.12499757E+03</pdfrwt>
<pdfrwt beam="1">  1       -4 0.13143576E-01 0.12499757E+03</pdfrwt>
<totfact> 0.19735044E+03</totfact>
</mgrwt>
</event>
<event>
 5    1  0.1440092E-002  0.1250139E+03  0.7818608E-02  0.1235048E+00
          4   -1    0    0  501    0  0.00000000000E+00  0.00000000000E+00  0.15179259911E+02  0.15232295672E+02  0.12700000000E+01 0.  1.
         -4   -1    0    0    0  501 -0.00000000000E+00 -0.00000000000E+00 -0.25689507360E+03  0.25689821280E+03  0.12700000000E+01 0.  1.
         25    2    1    2    0    0  0.00000000000E+00  0.00000000000E+00 -0.24171581369E+03  0.27213050848E+03  0.12501391544E+03 0.  0.
    9000005    1    3    3    0    0  0.40685893578E+02  0.37068444478E+02 -0.56404419174E+02  0.78815417366E+02  0.10000000000E+01 0.  0.
    9000005    1    3    3    0    0 -0.40685893578E+02 -0.37068444478E+02 -0.18531139452E+03  0.19331509111E+03  0.10000000000E+01 0.  0.
<mgrwt>
<rscale>  0 0.12501392E+03</rscale>
<asrwt>0</asrwt>
<pdfrwt beam="1">  1        4 0.38018377E-02 0.12501392E+03</pdfrwt>
<pdfrwt beam="2">  1       -4 0.64230776E-01 0.12501392E+03</pdfrwt>
<totfact> 0.13785339E+03</totfact>
</mgrwt>
</event>
<event>
 5    1  0.1440092E-002  0.1249977E+03  0.7818608E-02  0.1235073E+00
          4   -1    0    0  501    0  0.00000000000E+00  0.00000000000E+00  0.26765600891E+02  0.26795714043E+02  0.12700000000E+01 0. -1.
         -4   -1    0    0    0  501 -0.00000000000E+00 -0.00000000000E+00 -0.14582262499E+03  0.14582815524E+03  0.12700000000E+01 0. -1.
         25    2    1    2    0    0  0.00000000000E+00  0.00000000000E+00 -0.11905702410E+03  0.17262386928E+03  0.12499770101E+03 0.  0.
    9000005    1    3    3    0    0 -0.21360163089E+01  0.59379812858E+02 -0.86256854463E+02  0.10474621560E+03  0.10000000000E+01 0.  0.
    9000005    1    3    3    0    0  0.21360163089E+01 -0.59379812858E+02 -0.32800169639E+02  0.67877653680E+02  0.10000000000E+01 0.  0.
<mgrwt>
<rscale>  0 0.12499770E+03</rscale>
<asrwt>0</asrwt>
<pdfrwt beam="1">  1        4 0.66958561E-02 0.12499770E+03</pdfrwt>
<pdfrwt beam="2">  1       -4 0.36460109E-01 0.12499770E+03</pdfrwt>
<totfact> 0.17480278E+03</totfact>
</mgrwt>
</event>
<event>
 5    1  0.1440092E-002  0.1249948E+03  0.7818608E-02  0.1235077E+00
          4   -1    0    0  501    0  0.00000000000E+00  0.00000000000E+00  0.17418252416E+03  0.17418715401E+03  0.12700000000E+01 0.  1.
         -4   -1    0    0    0  501 -0.00000000000E+00 -0.00000000000E+00 -0.22401404426E+02  0.22437375521E+02  0.12700000000E+01 0.  1.
         25    2    1    2    0    0  0.00000000000E+00  0.00000000000E+00  0.15178111973E+03  0.19662452953E+03  0.12499478912E+03 0.  0.
    9000005    1    3    3    0    0  0.70736457639E+01 -0.15954437350E+02 -0.18497655486E+02  0.25450811264E+02  0.10000000000E+01 0.  0.
    9000005    1    3    3    0    0 -0.70736457639E+01  0.15954437350E+02  0.17027877522E+03  0.17117371827E+03  0.10000000000E+01 0.  0.
<mgrwt>
<rscale>  0 0.12499479E+03</rscale>
<asrwt>0</asrwt>
<pdfrwt beam="1">  1        4 0.43550706E-01 0.12499479E+03</pdfrwt>
<pdfrwt beam="2">  1       -4 0.56054263E-02 0.12499479E+03</pdfrwt>
<totfact> 0.16460082E+03</totfact>
</mgrwt>
</event>
<event>
 5    1  0.1440092E-002  0.1249939E+03  0.7818608E-02  0.1235079E+00
          4   -1    0    0  501    0  0.00000000000E+00  0.00000000000E+00  0.93070339421E+02  0.93079003969E+02  0.12700000000E+01 0.  1.
         -4   -1    0    0    0  501 -0.00000000000E+00 -0.00000000000E+00 -0.41946616297E+02  0.41965837520E+02  0.12700000000E+01 0.  1.
         25    2    1    2    0    0  0.00000000000E+00  0.00000000000E+00  0.51123723124E+02  0.13504484149E+03  0.12499389644E+03 0.  0.
    9000005    1    3    3    0    0  0.24489470049E+02 -0.55840655278E+02  0.40334512823E+02  0.73114881179E+02  0.10000000000E+01 0.  0.
    9000005    1    3    3    0    0 -0.24489470049E+02  0.55840655278E+02  0.10789210301E+02  0.61929960310E+02  0.10000000000E+01 0.  0.
<mgrwt>
<rscale>  0 0.12499390E+03</rscale>
<asrwt>0</asrwt>
<pdfrwt beam="1">  1        4 0.23271070E-01 0.12499390E+03</pdfrwt>
<pdfrwt beam="2">  1       -4 0.10490140E-01 0.12499390E+03</pdfrwt>
<totfact> 0.19299537E+03</totfact>
</mgrwt>
</event>
<event>
 5    1  0.1440092E-002  0.1250135E+03  0.7818608E-02  0.1235048E+00
          4   -1    0    0  501    0  0.00000000000E+00  0.00000000000E+00  0.48157113957E+03  0.48157281419E+03  0.12700000000E+01 0.  1.
         -4   -1    0    0    0  501 -0.00000000000E+00 -0.00000000000E+00 -0.80618293656E+01  0.81612494582E+01  0.12700000000E+01 0.  1.
         25    2    1    2    0    0  0.00000000000E+00  0.00000000000E+00  0.47350931020E+03  0.48973406364E+03  0.12501354425E+03 0.  0.
    9000005    1    3    3    0    0 -0.40259018478E+02  0.38261618276E+02  0.12448326251E+03  0.13631515927E+03  0.10000000000E+01 0.  0.
    9000005    1    3    3    0    0  0.40259018478E+02 -0.38261618276E+02  0.34902604769E+03  0.35341890438E+03  0.10000000000E+01 0.  0.
<mgrwt>
<rscale>  0 0.12501354E+03</rscale>
<asrwt>0</asrwt>
<pdfrwt beam="1">  1        4 0.12040542E+00 0.12501354E+03</pdfrwt>
<pdfrwt beam="2">  1       -4 0.20280943E-02 0.12501354E+03</pdfrwt>
<totfact> 0.89234993E+02</totfact>
</mgrwt>
</event>
<event>
 5    1  0.1440092E-002  0.1250002E+03  0.7818608E-02  0.1235069E+00
          4   -1    0    0  501    0  0.00000000000E+00  0.00000000000E+00  0.25769877939E+01  0.28729368406E+01  0.12700000000E+01 0. -1.
         -4   -1    0    0    0  501 -0.00000000000E+00 -0.00000000000E+00 -0.14332147403E+04  0.14332153030E+04  0.12700000000E+01 0. -1.
         25    2    1    2    0    0  0.00000000000E+00  0.00000000000E+00 -0.14306377525E+04  0.14360882398E+04  0.12500021469E+03 0.  0.
    9000005    1    3    3    0    0  0.61306813132E+02  0.11157252406E+02 -0.66112222395E+03  0.66405316400E+03  0.10000000000E+01 0.  0.
    9000005    1    3    3    0    0 -0.61306813132E+02 -0.11157252406E+02 -0.76951552852E+03  0.77203507579E+03  0.10000000000E+01 0.  0.
<mgrwt>
<rscale>  0 0.12500021E+03</rscale>
<asrwt>0</asrwt>
<pdfrwt beam="1">  1        4 0.68131583E-03 0.12500021E+03</pdfrwt>
<pdfrwt beam="2">  1       -4 0.35833816E+00 0.12500021E+03</pdfrwt>
<totfact> 0.14719607E+02</totfact>
</mgrwt>
</event>
<event>
 5    1  0.1440092E-002  0.1249977E+03  0.7818608E-02  0.1235073E+00
          4   -1    0    0  501    0  0.00000000000E+00  0.00000000000E+00  0.64190946871E+02  0.64203508940E+02  0.12700000000E+01 0. -1.
         -4   -1    0    0    0  501 -0.00000000000E+00 -0.00000000000E+00 -0.60826254157E+02  0.60839510967E+02  0.12700000000E+01 0. -1.
         25    2    1    2    0    0  0.00000000000E+00  0.00000000000E+00  0.33646927147E+01  0.12504301991E+03  0.12499774266E+03 0.  0.
    9000005    1    3    3    0    0 -0.33988277488E+01 -0.52692359812E+02  0.35117081489E+02  0.63421181201E+02  0.10000000000E+01 0.  0.
    9000005    1    3    3    0    0  0.33988277488E+01  0.52692359812E+02 -0.31752388774E+02  0.61621838706E+02  0.10000000000E+01 0.  0.
<mgrwt>
<rscale>  0 0.12499774E+03</rscale>
<asrwt>0</asrwt>
<pdfrwt beam="1">  1        4 0.16050964E-01 0.12499774E+03</pdfrwt>
<pdfrwt beam="2">  1       -4 0.15209791E-01 0.12499774E+03</pdfrwt>
<totfact> 0.19833770E+03</totfact>
</mgrwt>
</event>
<event>
 5    1  0.1440092E-002  0.1249998E+03  0.7818608E-02  0.1235070E+00
          4   -1    0    0  501    0  0.00000000000E+00  0.00000000000E+00  0.47569916933E+02  0.47586866854E+02  0.12700000000E+01 0. -1.
         -4   -1    0    0    0  501 -0.00000000000E+00 -0.00000000000E+00 -0.82079180250E+02  0.82089004931E+02  0.12700000000E+01 0. -1.
         25    2    1    2    0    0  0.00000000000E+00  0.00000000000E+00 -0.34509263317E+02  0.12967587178E+03  0.12499976987E+03 0.  0.
    9000005    1    3    3    0    0  0.53589621720E+02 -0.51328903537E+01 -0.50175679238E+02  0.73598864845E+02  0.10000000000E+01 0.  0.
    9000005    1    3    3    0    0 -0.53589621720E+02  0.51328903537E+01  0.15666415921E+02  0.56077006940E+02  0.10000000000E+01 0.  0.
<mgrwt>
<rscale>  0 0.12499977E+03</rscale>
<asrwt>0</asrwt>
<pdfrwt beam="1">  1        4 0.11895826E-01 0.12499977E+03</pdfrwt>
<pdfrwt beam="2">  1       -4 0.20523142E-01 0.12499977E+03</pdfrwt>
<totfact> 0.19581928E+03</totfact>
</mgrwt>
</event>
<event>
 5    1  0.1440092E-002  0.1249994E+03  0.7818608E-02  0.1235070E+00
         -4   -1    0    0    0  501 -0.00000000000E+00  0.00000000000E+00  0.74359081072E+02  0.74369925628E+02  0.12700000000E+01 0. -1.
          4   -1    0    0  501    0  0.00000000000E+00 -0.00000000000E+00 -0.52509399137E+02  0.52524755094E+02  0.12700000000E+01 0. -1.
         25    2    1    2    0    0  0.00000000000E+00  0.00000000000E+00  0.21849681935E+02  0.12689468072E+03  0.12499940558E+03 0.  0.
    9000005    1    3    3    0    0  0.18927479918E+02 -0.10694336255E+02  0.70401521539E+02  0.73688483218E+02  0.10000000000E+01 0.  0.
    9000005    1    3    3    0    0 -0.18927479918E+02  0.10694336255E+02 -0.48551839604E+02  0.53206197504E+02  0.10000000000E+01 0.  0.
<mgrwt>
<rscale>  0 0.12499941E+03</rscale>
<asrwt>0</asrwt>
<pdfrwt beam="2">  1        4 0.13130625E-01 0.12499941E+03</pdfrwt>
<pdfrwt beam="1">  1       -4 0.18593045E-01 0.12499941E+03</pdfrwt>
<totfact> 0.19732924E+03</totfact>
</mgrwt>
</event>
<event>
 5    1  0.1440092E-002  0.1249990E+03  0.7818608E-02  0.1235071E+00
         -4   -1    0    0    0  501 -0.00000000000E+00  0.00000000000E+00  0.13940061442E+04  0.13940067227E+04  0.12700000000E+01 0.  1.
          4   -1    0    0  501    0  0.00000000000E+00 -0.00000000000E+00 -0.26576234632E+01  0.29454817046E+01  0.12700000000E+01 0.  1.
         25    2    1    2    0    0  0.00000000000E+00  0.00000000000E+00  0.13913485207E+04  0.13969522044E+04  0.12499902107E+03 0.  0.
    9000005    1    3    3    0    0 -0.27089881795E+02  0.56273692549E+02  0.67170856424E+03  0.67460654121E+03  0.10000000000E+01 0.  0.
    9000005    1    3    3    0    0  0.27089881795E+02 -0.56273692549E+02  0.71963995650E+03  0.72234566322E+03  0.10000000000E+01 0.  0.
<mgrwt>
<rscale>  0 0.12499902E+03</rscale>
<asrwt>0</asrwt>
<pdfrwt beam="2">  1        4 0.70046037E-03 0.12499902E+03</pdfrwt>
<pdfrwt beam="1">  1       -4 0.34853764E+00 0.12499902E+03</pdfrwt>
<totfact> 0.16208130E+02</totfact>
</mgrwt>
</event>
<event>
 5    1  0.1440092E-002  0.1249945E+03  0.7818608E-02  0.1235078E+00
         -4   -1    0    0    0  501 -0.00000000000E+00  0.00000000000E+00  0.44417487611E+03  0.44417669172E+03  0.12700000000E+01 0. -1.
          4   -1    0    0  501    0  0.00000000000E+00 -0.00000000000E+00 -0.87459229066E+01  0.88376505639E+01  0.12700000000E+01 0. -1.
         25    2    1    2    0    0  0.00000000000E+00  0.00000000000E+00  0.43542895320E+03  0.45301434228E+03  0.12499448399E+03 0.  0.
    9000005    1    3    3    0    0  0.59190769351E+02  0.12996165958E+02  0.27297221672E+03  0.27961988235E+03  0.10000000000E+01 0.  0.
    9000005    1    3    3    0    0 -0.59190769351E+02 -0.12996165958E+02  0.16245673648E+03  0.17339445993E+03  0.10000000000E+01 0.  0.
<mgrwt>
<rscale>  0 0.12499448E+03</rscale>
<asrwt>0</asrwt>
<pdfrwt beam="2">  1        4 0.21981738E-02 0.12499448E+03</pdfrwt>
<pdfrwt beam="1">  1       -4 0.11105540E+00 0.12499448E+03</pdfrwt>
<totfact> 0.95490249E+02</totfact>
</mgrwt>
</event>
<event>
 5    1  0.1440092E-002  0.1249977E+03  0.7818608E-02  0.1235073E+00
         -4   -1    0    0    0  501 -0.00000000000E+00  0.00000000000E+00  0.24849276719E+02  0.24881709215E+02  0.12700000000E+01 0. -1.
          4   -1    0    0  501    0  0.00000000000E+00 -0.00000000000E+00 -0.15705453278E+03  0.15705966753E+03  0.12700000000E+01 0. -1.
         25    2    1    2    0    0  0.00000000000E+00  0.00000000000E+00 -0.13220525606E+03  0.18194137675E+03  0.12499773935E+03 0.  0.
    9000005    1    3    3    0    0 -0.20443942179E+02  0.26231200954E+02 -0.14311080125E+03  0.14692764243E+03  0.10000000000E+01 0.  0.
    9000005    1    3    3    0    0  0.20443942179E+02 -0.26231200954E+02  0.10905545189E+02  0.35013734322E+02  0.10000000000E+01 0.  0.
<mgrwt>
<rscale>  0 0.12499774E+03</rscale>
<asrwt>0</asrwt>
<pdfrwt beam="2">  1        4 0.39268326E-01 0.12499774E+03</pdfrwt>
<pdfrwt beam="1">  1       -4 0.62170155E-02 0.12499774E+03</pdfrwt>
<totfact> 0.17072408E+03</totfact>
</mgrwt>
</event>
<event>
 5    1  0.1440092E-002  0.1250004E+03  0.7818608E-02  0.1235069E+00
         -4   -1    0    0    0  501 -0.00000000000E+00  0.00000000000E+00  0.22989129644E+03  0.22989480437E+03  0.12700000000E+01 0. -1.
          4   -1    0    0  501    0  0.00000000000E+00 -0.00000000000E+00 -0.16964450984E+02  0.17011922207E+02  0.12700000000E+01 0. -1.
         25    2    1    2    0    0  0.00000000000E+00  0.00000000000E+00  0.21292684545E+03  0.24690672658E+03  0.12500036046E+03 0.  0.
    9000005    1    3    3    0    0  0.52250659407E+02  0.17088261105E+02  0.47763898866E+02  0.72832205177E+02  0.10000000000E+01 0.  0.
    9000005    1    3    3    0    0 -0.52250659407E+02 -0.17088261105E+02  0.16516294659E+03  0.17407452140E+03  0.10000000000E+01 0.  0.
<mgrwt>
<rscale>  0 0.12500036E+03</rscale>
<asrwt>0</asrwt>
<pdfrwt beam="2">  1        4 0.42474852E-02 0.12500036E+03</pdfrwt>
<pdfrwt beam="1">  1       -4 0.57479196E-01 0.12500036E+03</pdfrwt>
<totfact> 0.14601314E+03</totfact>
</mgrwt>
</event>
<event>
 5    1  0.1440092E-002  0.1249983E+03  0.7818608E-02  0.1235072E+00
          4   -1    0    0  501    0  0.00000000000E+00  0.00000000000E+00  0.84426182705E+01  0.85376052416E+01  0.12700000000E+01 0.  1.
         -4   -1    0    0    0  501 -0.00000000000E+00 -0.00000000000E+00 -0.45998533291E+03  0.45998708611E+03  0.12700000000E+01 0.  1.
         25    2    1    2    0    0  0.00000000000E+00  0.00000000000E+00 -0.45154271464E+03  0.46852469135E+03  0.12499825305E+03 0.  0.
    9000005    1    3    3    0    0 -0.42838282090E+02  0.26454919539E+01 -0.55523891348E+02  0.70185607859E+02  0.10000000000E+01 0.  0.
    9000005    1    3    3    0    0  0.42838282090E+02 -0.26454919539E+01 -0.39601882329E+03  0.39833908349E+03  0.10000000000E+01 0.  0.
<mgrwt>
<rscale>  0 0.12499825E+03</rscale>
<asrwt>0</asrwt>
<pdfrwt beam="1">  1        4 0.21227486E-02 0.12499825E+03</pdfrwt>
<pdfrwt beam="2">  1       -4 0.11500834E+00 0.12499825E+03</pdfrwt>
<totfact> 0.92787417E+02</totfact>
</mgrwt>
</event>
<event>
 5    1  0.1440092E-002  0.1249988E+03  0.7818608E-02  0.1235071E+00
         -4   -1    0    0    0  501 -0.00000000000E+00  0.00000000000E+00  0.68018251436E+03  0.68018370000E+03  0.12700000000E+01 0.  1.
          4   -1    0    0  501    0  0.00000000000E+00 -0.00000000000E+00 -0.56714123659E+01  0.58118687377E+01  0.12700000000E+01 0.  1.
         25    2    1    2    0    0  0.00000000000E+00  0.00000000000E+00  0.67451110199E+03  0.68599556873E+03  0.12499877443E+03 0.  0.
    9000005    1    3    3    0    0 -0.34016539062E+01  0.56776213784E+02  0.19519496512E+03  0.20331547926E+03  0.10000000000E+01 0.  0.
    9000005    1    3    3    0    0  0.34016539062E+01 -0.56776213784E+02  0.47931613688E+03  0.48268008947E+03  0.10000000000E+01 0.  0.
<mgrwt>
<rscale>  0 0.12499877E+03</rscale>
<asrwt>0</asrwt>
<pdfrwt beam="2">  1        4 0.14355585E-02 0.12499877E+03</pdfrwt>
<pdfrwt beam="1">  1       -4 0.17006332E+00 0.12499877E+03</pdfrwt>
<totfact> 0.63539729E+02</totfact>
</mgrwt>
</event>
<event>
 5    1  0.1440092E-002  0.1249994E+03  0.7818608E-02  0.1235070E+00
         -4   -1    0    0    0  501 -0.00000000000E+00  0.00000000000E+00  0.23076172599E+03  0.23076522069E+03  0.12700000000E+01 0.  1.
          4   -1    0    0  501    0  0.00000000000E+00 -0.00000000000E+00 -0.16900030387E+02  0.16947682057E+02  0.12700000000E+01 0.  1.
         25    2    1    2    0    0  0.00000000000E+00  0.00000000000E+00  0.21386169560E+03  0.24771290275E+03  0.12499942937E+03 0.  0.
    9000005    1    3    3    0    0  0.58414420971E+02  0.10205696218E+02  0.67854741824E+02  0.90120290727E+02  0.10000000000E+01 0.  0.
    9000005    1    3    3    0    0 -0.58414420971E+02 -0.10205696218E+02  0.14600695377E+03  0.15759261202E+03  0.10000000000E+01 0.  0.
<mgrwt>
<rscale>  0 0.12499943E+03</rscale>
<asrwt>0</asrwt>
<pdfrwt beam="2">  1        4 0.42314009E-02 0.12499943E+03</pdfrwt>
<pdfrwt beam="1">  1       -4 0.57696824E-01 0.12499943E+03</pdfrwt>
<totfact> 0.14574569E+03</totfact>
</mgrwt>
</event>
<event>
 5    1  0.1440092E-002  0.1250011E+03  0.7818608E-02  0.1235068E+00
          4   -1    0    0  501    0  0.00000000000E+00  0.00000000000E+00  0.36661091025E+02  0.36683081866E+02  0.12700000000E+01 0. -1.
         -4   -1    0    0    0  501 -0.00000000000E+00 -0.00000000000E+00 -0.10649437502E+03  0.10650194745E+03  0.12700000000E+01 0. -1.
         25    2    1    2    0    0  0.00000000000E+00  0.00000000000E+00 -0.69833283992E+02  0.14318502931E+03  0.12500106026E+03 0.  0.
    9000005    1    3    3    0    0  0.12827047202E+02  0.12503483129E+02 -0.10349624067E+03  0.10503971660E+03  0.10000000000E+01 0.  0.
    9000005    1    3    3    0    0 -0.12827047202E+02 -0.12503483129E+02  0.33662956675E+02  0.38145312718E+02  0.10000000000E+01 0.  0.
<mgrwt>
<rscale>  0 0.12500106E+03</rscale>
<asrwt>0</asrwt>
<pdfrwt beam="1">  1        4 0.91689684E-02 0.12500106E+03</pdfrwt>
<pdfrwt beam="2">  1       -4 0.26627289E-01 0.12500106E+03</pdfrwt>
<totfact> 0.18878103E+03</totfact>
</mgrwt>
</event>
<event>
 5    1  0.1440092E-002  0.1249624E+03  0.7818608E-02  0.1235128E+00
          4   -1    0    0  501    0  0.00000000000E+00  0.00000000000E+00  0.14507380734E+02  0.14562863584E+02  0.12700000000E+01 0. -1.
         -4   -1    0    0    0  501 -0.00000000000E+00 -0.00000000000E+00 -0.26852674171E+03  0.26852974494E+03  0.12700000000E+01 0. -1.
         25    2    1    2    0    0  0.00000000000E+00  0.00000000000E+00 -0.25401936098E+03  0.28309260852E+03  0.12496235131E+03 0.  0.
    9000005    1    3    3    0    0  0.55135453434E+02  0.98737010361E+01 -0.18968821755E+03  0.19778783601E+03  0.10000000000E+01 0.  0.
    9000005    1    3    3    0    0 -0.55135453434E+02 -0.98737010361E+01 -0.64331143435E+02  0.85304772511E+02  0.10000000000E+01 0.  0.
<mgrwt>
<rscale>  0 0.12496235E+03</rscale>
<asrwt>0</asrwt>
<pdfrwt beam="1">  1        4 0.36341568E-02 0.12496235E+03</pdfrwt>
<pdfrwt beam="2">  1       -4 0.67138980E-01 0.12496235E+03</pdfrwt>
<totfact> 0.13470138E+03</totfact>
</mgrwt>
</event>
<event>
 5    1  0.1440092E-002  0.1250021E+03  0.7818608E-02  0.1235066E+00
          4   -1    0    0  501    0  0.00000000000E+00  0.00000000000E+00  0.83580055246E+03  0.83580151734E+03  0.12700000000E+01 0.  1.
         -4   -1    0    0    0  501 -0.00000000000E+00 -0.00000000000E+00 -0.45865642050E+01  0.47591460586E+01  0.12700000000E+01 0.  1.
         25    2    1    2    0    0  0.00000000000E+00  0.00000000000E+00  0.83121398826E+03  0.84056066340E+03  0.12500213833E+03 0.  0.
    9000005    1    3    3    0    0 -0.14178952038E+02 -0.25985150245E+02  0.45515288165E+02  0.54303887255E+02  0.10000000000E+01 0.  0.
    9000005    1    3    3    0    0  0.14178952038E+02  0.25985150245E+02  0.78569870009E+03  0.78625677615E+03  0.10000000000E+01 0.  0.
<mgrwt>
<rscale>  0 0.12500214E+03</rscale>
<asrwt>0</asrwt>
<pdfrwt beam="1">  1        4 0.20897179E+00 0.12500214E+03</pdfrwt>
<pdfrwt beam="2">  1       -4 0.11683346E-02 0.12500214E+03</pdfrwt>
<totfact> 0.49006668E+02</totfact>
</mgrwt>
</event>
<event>
 5    1  0.1440092E-002  0.1250010E+03  0.7818608E-02  0.1235068E+00
         -4   -1    0    0    0  501 -0.00000000000E+00  0.00000000000E+00  0.34175651870E+02  0.34199240939E+02  0.12700000000E+01 0.  1.
          4   -1    0    0  501    0  0.00000000000E+00 -0.00000000000E+00 -0.11423452053E+03  0.11424157991E+03  0.12700000000E+01 0.  1.
         25    2    1    2    0    0  0.00000000000E+00  0.00000000000E+00 -0.80058868659E+02  0.14844082085E+03  0.12500101937E+03 0.  0.
    9000005    1    3    3    0    0  0.23468783609E+02  0.25046761647E+02  0.21985667570E+02  0.40773688226E+02  0.10000000000E+01 0.  0.
    9000005    1    3    3    0    0 -0.23468783609E+02 -0.25046761647E+02 -0.10204453623E+03  0.10766713262E+03  0.10000000000E+01 0.  0.
<mgrwt>
<rscale>  0 0.12500102E+03</rscale>
<asrwt>0</asrwt>
<pdfrwt beam="2">  1        4 0.28562460E-01 0.12500102E+03</pdfrwt>
<pdfrwt beam="1">  1       -4 0.85477443E-02 0.12500102E+03</pdfrwt>
<totfact> 0.18615271E+03</totfact>
</mgrwt>
</event>
<event>
 5    1  0.1440092E-002  0.1249989E+03  0.7818608E-02  0.1235071E+00
         -4   -1    0    0    0  501 -0.00000000000E+00  0.00000000000E+00  0.31022873335E+02  0.31048857789E+02  0.12700000000E+01 0. -1.
          4   -1    0    0  501    0  0.00000000000E+00 -0.00000000000E+00 -0.12583106904E+03  0.12583747786E+03  0.12700000000E+01 0. -1.
         25    2    1    2    0    0  0.00000000000E+00  0.00000000000E+00 -0.94808195702E+02  0.15688633565E+03  0.12499891336E+03 0.  0.
    9000005    1    3    3    0    0 -0.30629545463E+02  0.26710469276E+02 -0.10698592491E+03  0.11444914309E+03  0.10000000000E+01 0.  0.
    9000005    1    3    3    0    0  0.30629545463E+02 -0.26710469276E+02  0.12177729208E+02  0.42437192566E+02  0.10000000000E+01 0.  0.
<mgrwt>
<rscale>  0 0.12499891E+03</rscale>
<asrwt>0</asrwt>
<pdfrwt beam="2">  1        4 0.31461815E-01 0.12499891E+03</pdfrwt>
<pdfrwt beam="1">  1       -4 0.77597678E-02 0.12499891E+03</pdfrwt>
<totfact> 0.18205740E+03</totfact>
</mgrwt>
</event>
<event>
 5    1  0.1440092E-002  0.1249996E+03  0.7818608E-02  0.1235070E+00
          4   -1    0    0  501    0  0.00000000000E+00  0.00000000000E+00  0.20659349091E+03  0.20659739444E+03  0.12700000000E+01 0. -1.
         -4   -1    0    0    0  501 -0.00000000000E+00 -0.00000000000E+00 -0.18882360249E+02  0.18925021231E+02  0.12700000000E+01 0. -1.
         25    2    1    2    0    0  0.00000000000E+00  0.00000000000E+00  0.18771113066E+03  0.22552241567E+03  0.12499956557E+03 0.  0.
    9000005    1    3    3    0    0  0.51591078281E+02  0.80666037835E+01  0.31918806850E+02  0.61208820325E+02  0.10000000000E+01 0.  0.
    9000005    1    3    3    0    0 -0.51591078281E+02 -0.80666037835E+01  0.15579232381E+03  0.16431359534E+03  0.10000000000E+01 0.  0.
<mgrwt>
<rscale>  0 0.12499957E+03</rscale>
<asrwt>0</asrwt>
<pdfrwt beam="1">  1        4 0.51654191E-01 0.12499957E+03</pdfrwt>
<pdfrwt beam="2">  1       -4 0.47264108E-02 0.12499957E+03</pdfrwt>
<totfact> 0.15348790E+03</totfact>
</mgrwt>
</event>
<event>
 5    1  0.1440092E-002  0.1249944E+03  0.7818608E-02  0.1235078E+00
         -4   -1    0    0    0  501 -0.00000000000E+00  0.00000000000E+00  0.45619540956E+01  0.47354329444E+01  0.12700000000E+01 0.  1.
          4   -1    0    0  501    0  0.00000000000E+00 -0.00000000000E+00 -0.84004117760E+03  0.84004213762E+03  0.12700000000E+01 0.  1.
         25    2    1    2    0    0  0.00000000000E+00  0.00000000000E+00 -0.83547922351E+03  0.84477757056E+03  0.12499444311E+03 0.  0.
    9000005    1    3    3    0    0 -0.39083735890E+02  0.44862358803E+02 -0.54681374867E+03  0.55004222146E+03  0.10000000000E+01 0.  0.
    9000005    1    3    3    0    0  0.39083735890E+02 -0.44862358803E+02 -0.28866547484E+03  0.29473534910E+03  0.10000000000E+01 0.  0.
<mgrwt>
<rscale>  0 0.12499444E+03</rscale>
<asrwt>0</asrwt>
<pdfrwt beam="2">  1        4 0.21003158E+00 0.12499444E+03</pdfrwt>
<pdfrwt beam="1">  1       -4 0.11622963E-02 0.12499444E+03</pdfrwt>
<totfact> 0.48666965E+02</totfact>
</mgrwt>
</event>
<event>
 5    1  0.1440092E-002  0.1250012E+03  0.7818608E-02  0.1235067E+00
          4   -1    0    0  501    0  0.00000000000E+00  0.00000000000E+00  0.59301515307E+03  0.59301651298E+03  0.12700000000E+01 0. -1.
         -4   -1    0    0    0  501 -0.00000000000E+00 -0.00000000000E+00 -0.65246338636E+01  0.66470856061E+01  0.12700000000E+01 0. -1.
         25    2    1    2    0    0  0.00000000000E+00  0.00000000000E+00  0.58649051921E+03  0.59966359859E+03  0.12500120941E+03 0.  0.
    9000005    1    3    3    0    0 -0.20244486170E+02 -0.58652937530E+02  0.32892582765E+03  0.33472855630E+03  0.10000000000E+01 0.  0.
    9000005    1    3    3    0    0  0.20244486170E+02  0.58652937530E+02  0.25756469155E+03  0.26493504229E+03  0.10000000000E+01 0.  0.
<mgrwt>
<rscale>  0 0.12500121E+03</rscale>
<asrwt>0</asrwt>
<pdfrwt beam="1">  1        4 0.14826925E+00 0.12500121E+03</pdfrwt>
<pdfrwt beam="2">  1       -4 0.16466351E-02 0.12500121E+03</pdfrwt>
<totfact> 0.73543225E+02</totfact>
</mgrwt>
</event>
<event>
 5    1  0.1440092E-002  0.1249965E+03  0.7818608E-02  0.1235075E+00
         -4   -1    0    0    0  501 -0.00000000000E+00  0.00000000000E+00  0.83719662401E+01  0.84677457878E+01  0.12700000000E+01 0. -1.
          4   -1    0    0  501    0  0.00000000000E+00 -0.00000000000E+00 -0.46381066926E+03  0.46381240801E+03  0.12700000000E+01 0. -1.
         25    2    1    2    0    0  0.00000000000E+00  0.00000000000E+00 -0.45543870302E+03  0.47228015380E+03  0.12499652578E+03 0.  0.
    9000005    1    3    3    0    0 -0.32493648884E+02  0.26119383222E+02 -0.51834453744E+02  0.66527212422E+02  0.10000000000E+01 0.  0.
    9000005    1    3    3    0    0  0.32493648884E+02 -0.26119383222E+02 -0.40360424928E+03  0.40575294137E+03  0.10000000000E+01 0.  0.
<mgrwt>
<rscale>  0 0.12499653E+03</rscale>
<asrwt>0</asrwt>
<pdfrwt beam="2">  1        4 0.11596477E+00 0.12499653E+03</pdfrwt>
<pdfrwt beam="1">  1       -4 0.21051829E-02 0.12499653E+03</pdfrwt>
<totfact> 0.92157193E+02</totfact>
</mgrwt>
</event>
<event>
 5    1  0.1440092E-002  0.1250098E+03  0.7818608E-02  0.1235054E+00
          4   -1    0    0  501    0  0.00000000000E+00  0.00000000000E+00  0.23895674105E+03  0.23896011590E+03  0.12700000000E+01 0. -1.
         -4   -1    0    0    0  501 -0.00000000000E+00 -0.00000000000E+00 -0.16321507569E+02  0.16370843268E+02  0.12700000000E+01 0. -1.
         25    2    1    2    0    0  0.00000000000E+00  0.00000000000E+00  0.22263523348E+03  0.25533095917E+03  0.12500980571E+03 0.  0.
    9000005    1    3    3    0    0  0.23435673017E+02  0.57868551159E+02  0.11704492714E+03  0.13265939451E+03  0.10000000000E+01 0.  0.
    9000005    1    3    3    0    0 -0.23435673017E+02 -0.57868551159E+02  0.10559030634E+03  0.12267156466E+03  0.10000000000E+01 0.  0.
<mgrwt>
<rscale>  0 0.12500981E+03</rscale>
<asrwt>0</asrwt>
<pdfrwt beam="1">  1        4 0.59745772E-01 0.12500981E+03</pdfrwt>
<pdfrwt beam="2">  1       -4 0.40869658E-02 0.12500981E+03</pdfrwt>
<totfact> 0.14319088E+03</totfact>
</mgrwt>
</event>
<event>
 5    1  0.1440092E-002  0.1250040E+03  0.7818608E-02  0.1235063E+00
          4   -1    0    0  501    0  0.00000000000E+00  0.00000000000E+00  0.15053653140E+03  0.15054188847E+03  0.12700000000E+01 0. -1.
         -4   -1    0    0    0  501 -0.00000000000E+00 -0.00000000000E+00 -0.25929163922E+02  0.25960247335E+02  0.12700000000E+01 0. -1.
         25    2    1    2    0    0  0.00000000000E+00  0.00000000000E+00  0.12460736748E+03  0.17650213581E+03  0.12500403160E+03 0.  0.
    9000005    1    3    3    0    0 -0.34444556966E+01  0.47454068492E+02  0.50927103616E+01  0.47861138623E+02  0.10000000000E+01 0.  0.
    9000005    1    3    3    0    0  0.34444556966E+01 -0.47454068492E+02  0.11951465711E+03  0.12864099718E+03  0.10000000000E+01 0.  0.
<mgrwt>
<rscale>  0 0.12500403E+03</rscale>
<asrwt>0</asrwt>
<pdfrwt beam="1">  1        4 0.37638687E-01 0.12500403E+03</pdfrwt>
<pdfrwt beam="2">  1       -4 0.64868462E-02 0.12500403E+03</pdfrwt>
<totfact> 0.17306081E+03</totfact>
</mgrwt>
</event>
<event>
 5    1  0.1440092E-002  0.1250002E+03  0.7818608E-02  0.1235069E+00
         -4   -1    0    0    0  501 -0.00000000000E+00  0.00000000000E+00  0.36730789851E+02  0.36752738988E+02  0.12700000000E+01 0.  1.
          4   -1    0    0  501    0  0.00000000000E+00 -0.00000000000E+00 -0.10629091761E+03  0.10629850454E+03  0.12700000000E+01 0.  1.
         25    2    1    2    0    0  0.00000000000E+00  0.00000000000E+00 -0.69560127762E+02  0.14305124353E+03  0.12500018760E+03 0.  0.
    9000005    1    3    3    0    0  0.41286887951E+02  0.34916710459E+02  0.10725846580E+01  0.54091905344E+02  0.10000000000E+01 0.  0.
    9000005    1    3    3    0    0 -0.41286887951E+02 -0.34916710459E+02 -0.70632712420E+02  0.88959338182E+02  0.10000000000E+01 0.  0.
<mgrwt>
<rscale>  0 0.12500019E+03</rscale>
<asrwt>0</asrwt>
<pdfrwt beam="2">  1        4 0.26576421E-01 0.12500019E+03</pdfrwt>
<pdfrwt beam="1">  1       -4 0.91863897E-02 0.12500019E+03</pdfrwt>
<totfact> 0.18885236E+03</totfact>
</mgrwt>
</event>
<event>
 5    1  0.1440092E-002  0.1250012E+03  0.7818608E-02  0.1235067E+00
         -4   -1    0    0    0  501 -0.00000000000E+00  0.00000000000E+00  0.10709813891E+02  0.10784851116E+02  0.12700000000E+01 0.  1.
          4   -1    0    0  501    0  0.00000000000E+00 -0.00000000000E+00 -0.36339290182E+03  0.36339512104E+03  0.12700000000E+01 0.  1.
         25    2    1    2    0    0  0.00000000000E+00  0.00000000000E+00 -0.35268308793E+03  0.37417997215E+03  0.12500116419E+03 0.  0.
    9000005    1    3    3    0    0  0.89532760400E+01 -0.54297819565E+02 -0.87698717426E+02  0.10353974792E+03  0.10000000000E+01 0.  0.
    9000005    1    3    3    0    0 -0.89532760400E+01  0.54297819565E+02 -0.26498437050E+03  0.27064022423E+03  0.10000000000E+01 0.  0.
<mgrwt>
<rscale>  0 0.12500116E+03</rscale>
<asrwt>0</asrwt>
<pdfrwt beam="2">  1        4 0.90857842E-01 0.12500116E+03</pdfrwt>
<pdfrwt beam="1">  1       -4 0.26871117E-02 0.12500116E+03</pdfrwt>
<totfact> 0.11120837E+03</totfact>
</mgrwt>
</event>
<event>
 5    1  0.1440092E-002  0.1249926E+03  0.7818608E-02  0.1235081E+00
         -4   -1    0    0    0  501 -0.00000000000E+00  0.00000000000E+00  0.11398647892E+02  0.11469179298E+02  0.12700000000E+01 0. -1.
          4   -1    0    0  501    0  0.00000000000E+00 -0.00000000000E+00 -0.34152500318E+03  0.34152736449E+03  0.12700000000E+01 0. -1.
         25    2    1    2    0    0  0.00000000000E+00  0.00000000000E+00 -0.33012635529E+03  0.35299654379E+03  0.12499259767E+03 0.  0.
    9000005    1    3    3    0    0 -0.34615395891E+02  0.13484264144E+02 -0.30696702691E+03  0.30920835471E+03  0.10000000000E+01 0.  0.
    9000005    1    3    3    0    0  0.34615395891E+02 -0.13484264144E+02 -0.23159328381E+02  0.43788189084E+02  0.10000000000E+01 0.  0.
<mgrwt>
<rscale>  0 0.12499260E+03</rscale>
<asrwt>0</asrwt>
<pdfrwt beam="2">  1        4 0.85390329E-01 0.12499260E+03</pdfrwt>
<pdfrwt beam="1">  1       -4 0.28587747E-02 0.12499260E+03</pdfrwt>
<totfact> 0.11608138E+03</totfact>
</mgrwt>
</event>
<event>
 5    1  0.1440092E-002  0.1250025E+03  0.7818608E-02  0.1235065E+00
          4   -1    0    0  501    0  0.00000000000E+00  0.00000000000E+00  0.83853044291E+02  0.83862661160E+02  0.12700000000E+01 0.  1.
         -4   -1    0    0    0  501 -0.00000000000E+00 -0.00000000000E+00 -0.46565369913E+02  0.46582685358E+02  0.12700000000E+01 0.  1.
         25    2    1    2    0    0  0.00000000000E+00  0.00000000000E+00  0.37287674378E+02  0.13044534652E+03  0.12500247105E+03 0.  0.
    9000005    1    3    3    0    0  0.47707491722E+02  0.33721734982E+02 -0.45087924797E+01  0.58604516773E+02  0.10000000000E+01 0.  0.
    9000005    1    3    3    0    0 -0.47707491722E+02 -0.33721734982E+02  0.41796466858E+02  0.71840829745E+02  0.10000000000E+01 0.  0.
<mgrwt>
<rscale>  0 0.12500247E+03</rscale>
<asrwt>0</asrwt>
<pdfrwt beam="1">  1        4 0.20966627E-01 0.12500247E+03</pdfrwt>
<pdfrwt beam="2">  1       -4 0.11644709E-01 0.12500247E+03</pdfrwt>
<totfact> 0.19539344E+03</totfact>
</mgrwt>
</event>
<event>
 5    1  0.1440092E-002  0.1250366E+03  0.7818608E-02  0.1235012E+00
         -4   -1    0    0    0  501 -0.00000000000E+00  0.00000000000E+00  0.93715704264E+02  0.93724309150E+02  0.12700000000E+01 0.  1.
          4   -1    0    0  501    0  0.00000000000E+00 -0.00000000000E+00 -0.41686168091E+02  0.41705509350E+02  0.12700000000E+01 0.  1.
         25    2    1    2    0    0  0.00000000000E+00  0.00000000000E+00  0.52029536173E+02  0.13542981850E+03  0.12503664705E+03 0.  0.
    9000005    1    3    3    0    0  0.25723898834E+02  0.53660302737E+02  0.52823009855E+01  0.59749893429E+02  0.10000000000E+01 0.  0.
    9000005    1    3    3    0    0 -0.25723898834E+02 -0.53660302737E+02  0.46747235187E+02  0.75679925071E+02  0.10000000000E+01 0.  0.
<mgrwt>
<rscale>  0 0.12503665E+03</rscale>
<asrwt>0</asrwt>
<pdfrwt beam="2">  1        4 0.10425035E-01 0.12503665E+03</pdfrwt>
<pdfrwt beam="1">  1       -4 0.23432419E-01 0.12503665E+03</pdfrwt>
<totfact> 0.19260175E+03</totfact>
</mgrwt>
</event>
<event>
 5    1  0.1440092E-002  0.1249991E+03  0.7818608E-02  0.1235071E+00
         -4   -1    0    0    0  501 -0.00000000000E+00  0.00000000000E+00  0.17337670918E+02  0.17384123011E+02  0.12700000000E+01 0. -1.
          4   -1    0    0  501    0  0.00000000000E+00 -0.00000000000E+00 -0.22495116076E+03  0.22495474573E+03  0.12700000000E+01 0. -1.
         25    2    1    2    0    0  0.00000000000E+00  0.00000000000E+00 -0.20761348984E+03  0.24233886874E+03  0.12499906455E+03 0.  0.
    9000005    1    3    3    0    0  0.43505742735E+02 -0.39432172479E+02 -0.62336792963E+02  0.85641821759E+02  0.10000000000E+01 0.  0.
    9000005    1    3    3    0    0 -0.43505742735E+02  0.39432172479E+02 -0.14527669688E+03  0.15669704698E+03  0.10000000000E+01 0.  0.
<mgrwt>
<rscale>  0 0.12499906E+03</rscale>
<asrwt>0</asrwt>
<pdfrwt beam="2">  1        4 0.56244036E-01 0.12499906E+03</pdfrwt>
<pdfrwt beam="1">  1       -4 0.43406731E-02 0.12499906E+03</pdfrwt>
<totfact> 0.14756532E+03</totfact>
</mgrwt>
</event>
<event>
 5    1  0.1440092E-002  0.1249568E+03  0.7818608E-02  0.1235137E+00
         -4   -1    0    0    0  501 -0.00000000000E+00  0.00000000000E+00  0.82311425499E+02  0.82321222462E+02  0.12700000000E+01 0.  1.
          4   -1    0    0  501    0  0.00000000000E+00 -0.00000000000E+00 -0.47403055446E+02  0.47420065011E+02  0.12700000000E+01 0.  1.
         25    2    1    2    0    0  0.00000000000E+00  0.00000000000E+00  0.34908370053E+02  0.12974128747E+03  0.12495682204E+03 0.  0.
    9000005    1    3    3    0    0 -0.56299371378E+02 -0.13086080535E+02 -0.71532000425E+01  0.58249746713E+02  0.10000000000E+01 0.  0.
    9000005    1    3    3    0    0  0.56299371378E+02  0.13086080535E+02  0.42061570095E+02  0.71491540760E+02  0.10000000000E+01 0.  0.
<mgrwt>
<rscale>  0 0.12495682E+03</rscale>
<asrwt>0</asrwt>
<pdfrwt beam="2">  1        4 0.11854115E-01 0.12495682E+03</pdfrwt>
<pdfrwt beam="1">  1       -4 0.20581207E-01 0.12495682E+03</pdfrwt>
<totfact> 0.19598045E+03</totfact>
</mgrwt>
</event>
<event>
 4    1  0.1440092E-002  0.1251876E+03  0.7818608E-02  0.1234776E+00
         -4   -1    0    0    0  501 -0.00000000000E+00  0.00000000000E+00  0.14147673639E+02  0.14204561570E+02  0.12700000000E+01 0.  1.
          4   -1    0    0  501    0  0.00000000000E+00 -0.00000000000E+00 -0.27632077822E+03  0.27632369673E+03  0.12700000000E+01 0.  1.
    9000005    1    1    2    0    0 -0.10035044455E+02  0.13729240937E+02  0.86944372972E+01  0.19125569634E+02  0.10000000000E+01 0.  0.
    9000005    1    1    2    0    0  0.10035044455E+02 -0.13729240937E+02 -0.27086754188E+03  0.27140268867E+03  0.10000000000E+01 0.  0.
<mgrwt>
<rscale>  0 0.12518759E+03</rscale>
<asrwt>0</asrwt>
<pdfrwt beam="2">  1        4 0.69087653E-01 0.12518759E+03</pdfrwt>
<pdfrwt beam="1">  1       -4 0.35443951E-02 0.12518759E+03</pdfrwt>
<totfact> 0.13183951E+03</totfact>
</mgrwt>
</event>
<event>
 5    1  0.1440092E-002  0.1250017E+03  0.7818608E-02  0.1235067E+00
         -4   -1    0    0    0  501 -0.00000000000E+00  0.00000000000E+00  0.15975286815E+02  0.16025688404E+02  0.12700000000E+01 0.  1.
          4   -1    0    0  501    0  0.00000000000E+00 -0.00000000000E+00 -0.24408760511E+03  0.24409090902E+03  0.12700000000E+01 0.  1.
         25    2    1    2    0    0  0.00000000000E+00  0.00000000000E+00 -0.22811231829E+03  0.26011659743E+03  0.12500165799E+03 0.  0.
    9000005    1    3    3    0    0 -0.89180477757E+01  0.48639775165E+02 -0.19356727973E+03  0.19978651377E+03  0.10000000000E+01 0.  0.
    9000005    1    3    3    0    0  0.89180477757E+01 -0.48639775165E+02 -0.34545038566E+02  0.60330083654E+02  0.10000000000E+01 0.  0.
<mgrwt>
<rscale>  0 0.12500166E+03</rscale>
<asrwt>0</asrwt>
<pdfrwt beam="2">  1        4 0.61028603E-01 0.12500166E+03</pdfrwt>
<pdfrwt beam="1">  1       -4 0.40005357E-02 0.12500166E+03</pdfrwt>
<totfact> 0.14166869E+03</totfact>
</mgrwt>
</event>
<event>
 5    1  0.1440092E-002  0.1249946E+03  0.7818608E-02  0.1235078E+00
         -4   -1    0    0    0  501 -0.00000000000E+00  0.00000000000E+00  0.92241117669E+02  0.92249860102E+02  0.12700000000E+01 0.  1.
          4   -1    0    0  501    0  0.00000000000E+00 -0.00000000000E+00 -0.42324301092E+02  0.42343350870E+02  0.12700000000E+01 0.  1.
         25    2    1    2    0    0  0.00000000000E+00  0.00000000000E+00  0.49916816577E+02  0.13459321097E+03  0.12499457533E+03 0.  0.
    9000005    1    3    3    0    0  0.98952015574E+01 -0.10772732765E+02  0.90376930216E+02  0.91558485682E+02  0.10000000000E+01 0.  0.
    9000005    1    3    3    0    0 -0.98952015574E+01  0.10772732765E+02 -0.40460113639E+02  0.43034725290E+02  0.10000000000E+01 0.  0.
<mgrwt>
<rscale>  0 0.12499458E+03</rscale>
<asrwt>0</asrwt>
<pdfrwt beam="2">  1        4 0.10584549E-01 0.12499458E+03</pdfrwt>
<pdfrwt beam="1">  1       -4 0.23063753E-01 0.12499458E+03</pdfrwt>
<totfact> 0.19322911E+03</totfact>
</mgrwt>
</event>
<event>
 5    1  0.1440092E-002  0.1250058E+03  0.7818608E-02  0.1235060E+00
         -4   -1    0    0    0  501 -0.00000000000E+00  0.00000000000E+00  0.33619280678E+02  0.33643259849E+02  0.12700000000E+01 0.  1.
          4   -1    0    0  501    0  0.00000000000E+00 -0.00000000000E+00 -0.11613270319E+03  0.11613964719E+03  0.12700000000E+01 0.  1.
         25    2    1    2    0    0  0.00000000000E+00  0.00000000000E+00 -0.82513422511E+02  0.14978290704E+03  0.12500581725E+03 0.  0.
    9000005    1    3    3    0    0 -0.10778290465E+02 -0.55223096095E+02 -0.73848212780E+02  0.92845680666E+02  0.10000000000E+01 0.  0.
    9000005    1    3    3    0    0  0.10778290465E+02  0.55223096095E+02 -0.86652097318E+01  0.56937226376E+02  0.10000000000E+01 0.  0.
<mgrwt>
<rscale>  0 0.12500582E+03</rscale>
<asrwt>0</asrwt>
<pdfrwt beam="2">  1        4 0.29037040E-01 0.12500582E+03</pdfrwt>
<pdfrwt beam="1">  1       -4 0.84086858E-02 0.12500582E+03</pdfrwt>
<totfact> 0.18546950E+03</totfact>
</mgrwt>
</event>
<event>
 5    1  0.1440092E-002  0.1250019E+03  0.7818608E-02  0.1235066E+00
          4   -1    0    0  501    0  0.00000000000E+00  0.00000000000E+00  0.54478655534E+02  0.54493456568E+02  0.12700000000E+01 0. -1.
         -4   -1    0    0    0  501 -0.00000000000E+00 -0.00000000000E+00 -0.71674357309E+02  0.71685608010E+02  0.12700000000E+01 0. -1.
         25    2    1    2    0    0  0.00000000000E+00  0.00000000000E+00 -0.17195701776E+02  0.12617906458E+03  0.12500185670E+03 0.  0.
    9000005    1    3    3    0    0  0.23246070929E+02 -0.58000639035E+02 -0.76338162366E+01  0.62958153503E+02  0.10000000000E+01 0.  0.
    9000005    1    3    3    0    0 -0.23246070929E+02  0.58000639035E+02 -0.95618855390E+01  0.63220911075E+02  0.10000000000E+01 0.  0.
<mgrwt>
<rscale>  0 0.12500186E+03</rscale>
<asrwt>0</asrwt>
<pdfrwt beam="1">  1        4 0.13622920E-01 0.12500186E+03</pdfrwt>
<pdfrwt beam="2">  1       -4 0.17921846E-01 0.12500186E+03</pdfrwt>
<totfact> 0.19770388E+03</totfact>
</mgrwt>
</event>
<event>
 5    1  0.1440092E-002  0.1250005E+03  0.7818608E-02  0.1235069E+00
          4   -1    0    0  501    0  0.00000000000E+00  0.00000000000E+00  0.97151926082E+01  0.97978501425E+01  0.12700000000E+01 0. -1.
         -4   -1    0    0    0  501 -0.00000000000E+00 -0.00000000000E+00 -0.40029256500E+03  0.40029457965E+03  0.12700000000E+01 0. -1.
         25    2    1    2    0    0  0.00000000000E+00  0.00000000000E+00 -0.39057737239E+03  0.41009242979E+03  0.12500046858E+03 0.  0.
    9000005    1    3    3    0    0 -0.40657861638E+02  0.40502062019E+02 -0.27643616691E+03  0.28233213263E+03  0.10000000000E+01 0.  0.
    9000005    1    3    3    0    0  0.40657861638E+02 -0.40502062019E+02 -0.11414120548E+03  0.12776029716E+03  0.10000000000E+01 0.  0.
<mgrwt>
<rscale>  0 0.12500047E+03</rscale>
<asrwt>0</asrwt>
<pdfrwt beam="1">  1        4 0.24393835E-02 0.12500047E+03</pdfrwt>
<pdfrwt beam="2">  1       -4 0.10008367E+00 0.12500047E+03</pdfrwt>
<totfact> 0.10364032E+03</totfact>
</mgrwt>
</event>
<event>
 5    1  0.1440092E-002  0.1249965E+03  0.7818608E-02  0.1235075E+00
          4   -1    0    0  501    0  0.00000000000E+00  0.00000000000E+00  0.34517276454E+02  0.34540632215E+02  0.12700000000E+01 0.  1.
         -4   -1    0    0    0  501 -0.00000000000E+00 -0.00000000000E+00 -0.11309645591E+03  0.11310358632E+03  0.12700000000E+01 0.  1.
         25    2    1    2    0    0  0.00000000000E+00  0.00000000000E+00 -0.78579179452E+02  0.14764421854E+03  0.12499651125E+03 0.  0.
    9000005    1    3    3    0    0 -0.36599397253E+02 -0.15270478821E+02  0.17754863057E+02  0.43461920861E+02  0.10000000000E+01 0.  0.
    9000005    1    3    3    0    0  0.36599397253E+02  0.15270478821E+02 -0.96334042508E+02  0.10418229767E+03  0.10000000000E+01 0.  0.
<mgrwt>
<rscale>  0 0.12499651E+03</rscale>
<asrwt>0</asrwt>
<pdfrwt beam="1">  1        4 0.86331301E-02 0.12499651E+03</pdfrwt>
<pdfrwt beam="2">  1       -4 0.28277924E-01 0.12499651E+03</pdfrwt>
<totfact> 0.18656740E+03</totfact>
</mgrwt>
</event>
<event>
 5    1  0.1440092E-002  0.1250025E+03  0.7818608E-02  0.1235065E+00
         -4   -1    0    0    0  501 -0.00000000000E+00  0.00000000000E+00  0.11857940709E+03  0.11858620782E+03  0.12700000000E+01 0. -1.
          4   -1    0    0  501    0  0.00000000000E+00 -0.00000000000E+00 -0.32923401601E+02  0.32947887231E+02  0.12700000000E+01 0. -1.
         25    2    1    2    0    0  0.00000000000E+00  0.00000000000E+00  0.85656005488E+02  0.15153409505E+03  0.12500252272E+03 0.  0.
    9000005    1    3    3    0    0 -0.35618651691E+02  0.61856888604E+00  0.10507121811E+03  0.11095058292E+03  0.10000000000E+01 0.  0.
    9000005    1    3    3    0    0  0.35618651691E+02 -0.61856888604E+00 -0.19415212621E+02  0.40583512131E+02  0.10000000000E+01 0.  0.
<mgrwt>
<rscale>  0 0.12500252E+03</rscale>
<asrwt>0</asrwt>
<pdfrwt beam="2">  1        4 0.82347613E-02 0.12500252E+03</pdfrwt>
<pdfrwt beam="1">  1       -4 0.29648762E-01 0.12500252E+03</pdfrwt>
<totfact> 0.18462522E+03</totfact>
</mgrwt>
</event>
<event>
 5    1  0.1440092E-002  0.1250023E+03  0.7818608E-02  0.1235066E+00
          4   -1    0    0  501    0  0.00000000000E+00  0.00000000000E+00  0.35259518430E+02  0.35282382855E+02  0.12700000000E+01 0. -1.
         -4   -1    0    0    0  501 -0.00000000000E+00 -0.00000000000E+00 -0.11072733292E+03  0.11073461589E+03  0.12700000000E+01 0. -1.
         25    2    1    2    0    0  0.00000000000E+00  0.00000000000E+00 -0.75467814492E+02  0.14601699874E+03  0.12500229157E+03 0.  0.
    9000005    1    3    3    0    0 -0.28546345970E+02 -0.44242881104E+02 -0.77053879756E+02  0.93330738678E+02  0.10000000000E+01 0.  0.
    9000005    1    3    3    0    0  0.28546345970E+02  0.44242881104E+02  0.15860652641E+01  0.52686260065E+02  0.10000000000E+01 0.  0.
<mgrwt>
<rscale>  0 0.12500229E+03</rscale>
<asrwt>0</asrwt>
<pdfrwt beam="1">  1        4 0.88186483E-02 0.12500229E+03</pdfrwt>
<pdfrwt beam="2">  1       -4 0.27685601E-01 0.12500229E+03</pdfrwt>
<totfact> 0.18735375E+03</totfact>
</mgrwt>
</event>
<event>
 5    1  0.1440092E-002  0.1249979E+03  0.7818608E-02  0.1235073E+00
         -4   -1    0    0    0  501 -0.00000000000E+00  0.00000000000E+00  0.11907908635E+03  0.11908585854E+03  0.12700000000E+01 0. -1.
          4   -1    0    0  501    0  0.00000000000E+00 -0.00000000000E+00 -0.32782713230E+02  0.32807303862E+02  0.12700000000E+01 0. -1.
         25    2    1    2    0    0  0.00000000000E+00  0.00000000000E+00  0.86296373116E+02  0.15189316241E+03  0.12499787507E+03 0.  0.
    9000005    1    3    3    0    0  0.53880380588E+02 -0.60422545172E+01  0.80906678775E+02  0.97398639222E+02  0.10000000000E+01 0.  0.
    9000005    1    3    3    0    0 -0.53880380588E+02  0.60422545172E+01  0.53896943413E+01  0.54494523184E+02  0.10000000000E+01 0.  0.
<mgrwt>
<rscale>  0 0.12499788E+03</rscale>
<asrwt>0</asrwt>
<pdfrwt beam="2">  1        4 0.81995988E-02 0.12499788E+03</pdfrwt>
<pdfrwt beam="1">  1       -4 0.29773692E-01 0.12499788E+03</pdfrwt>
<totfact> 0.18446996E+03</totfact>
</mgrwt>
</event>
<event>
 5    1  0.1440092E-002  0.1249986E+03  0.7818608E-02  0.1235071E+00
         -4   -1    0    0    0  501 -0.00000000000E+00  0.00000000000E+00  0.27853085579E+03  0.27853375114E+03  0.12700000000E+01 0.  1.
          4   -1    0    0  501    0  0.00000000000E+00 -0.00000000000E+00 -0.13992445756E+02  0.14049962215E+02  0.12700000000E+01 0.  1.
         25    2    1    2    0    0  0.00000000000E+00  0.00000000000E+00  0.26453841003E+03  0.29258371336E+03  0.12499863575E+03 0.  0.
    9000005    1    3    3    0    0  0.50120233468E+01 -0.45353254291E+02  0.23221241591E+03  0.23665511648E+03  0.10000000000E+01 0.  0.
    9000005    1    3    3    0    0 -0.50120233468E+01  0.45353254291E+02  0.32325994120E+02  0.55928596877E+02  0.10000000000E+01 0.  0.
<mgrwt>
<rscale>  0 0.12499864E+03</rscale>
<asrwt>0</asrwt>
<pdfrwt beam="2">  1        4 0.35056628E-02 0.12499864E+03</pdfrwt>
<pdfrwt beam="1">  1       -4 0.69640267E-01 0.12499864E+03</pdfrwt>
<totfact> 0.13181898E+03</totfact>
</mgrwt>
</event>
<event>
 5    1  0.1440092E-002  0.1249964E+03  0.7818608E-02  0.1235075E+00
          4   -1    0    0  501    0  0.00000000000E+00  0.00000000000E+00  0.22220926853E+02  0.22257189629E+02  0.12700000000E+01 0.  1.
         -4   -1    0    0    0  501 -0.00000000000E+00 -0.00000000000E+00 -0.17559946247E+03  0.17560405496E+03  0.12700000000E+01 0.  1.
         25    2    1    2    0    0  0.00000000000E+00  0.00000000000E+00 -0.15337853561E+03  0.19786124459E+03  0.12499638764E+03 0.  0.
    9000005    1    3    3    0    0 -0.56813928569E+02  0.13098134333E+01 -0.11782995063E+03  0.13082215163E+03  0.10000000000E+01 0.  0.
    9000005    1    3    3    0    0  0.56813928569E+02 -0.13098134333E+01 -0.35548584980E+02  0.67039092959E+02  0.10000000000E+01 0.  0.
<mgrwt>
<rscale>  0 0.12499639E+03</rscale>
<asrwt>0</asrwt>
<pdfrwt beam="1">  1        4 0.55603392E-02 0.12499639E+03</pdfrwt>
<pdfrwt beam="2">  1       -4 0.43904968E-01 0.12499639E+03</pdfrwt>
<totfact> 0.16409411E+03</totfact>
</mgrwt>
</event>
<event>
 5    1  0.1440092E-002  0.1250005E+03  0.7818608E-02  0.1235069E+00
          4   -1    0    0  501    0  0.00000000000E+00  0.00000000000E+00  0.16994079273E+02  0.17041467963E+02  0.12700000000E+01 0.  1.
         -4   -1    0    0    0  501 -0.00000000000E+00 -0.00000000000E+00 -0.22949193167E+03  0.22949544571E+03  0.12700000000E+01 0.  1.
         25    2    1    2    0    0  0.00000000000E+00  0.00000000000E+00 -0.21249785240E+03  0.24653691367E+03  0.12500045012E+03 0.  0.
    9000005    1    3    3    0    0  0.48527833888E+02 -0.12365858786E+02 -0.32520872620E+02  0.59719948772E+02  0.10000000000E+01 0.  0.
    9000005    1    3    3    0    0 -0.48527833888E+02  0.12365858786E+02 -0.17997697978E+03  0.18681696490E+03  0.10000000000E+01 0.  0.
<mgrwt>
<rscale>  0 0.12500045E+03</rscale>
<asrwt>0</asrwt>
<pdfrwt beam="1">  1        4 0.42548834E-02 0.12500045E+03</pdfrwt>
<pdfrwt beam="2">  1       -4 0.57379336E-01 0.12500045E+03</pdfrwt>
<totfact> 0.14613722E+03</totfact>
</mgrwt>
</event>
<event>
 5    1  0.1440092E-002  0.1249955E+03  0.7818608E-02  0.1235076E+00
          4   -1    0    0  501    0  0.00000000000E+00  0.00000000000E+00  0.42423252689E+02  0.42442258054E+02  0.12700000000E+01 0.  1.
         -4   -1    0    0    0  501 -0.00000000000E+00 -0.00000000000E+00 -0.92027403549E+02  0.92036166282E+02  0.12700000000E+01 0.  1.
         25    2    1    2    0    0  0.00000000000E+00  0.00000000000E+00 -0.49604150859E+02  0.13447842434E+03  0.12499549924E+03 0.  0.
    9000005    1    3    3    0    0 -0.96388578899E+01 -0.59230282957E+02 -0.43555342008E+02  0.74156603334E+02  0.10000000000E+01 0.  0.
    9000005    1    3    3    0    0  0.96388578899E+01  0.59230282957E+02 -0.60488088510E+01  0.60321821003E+02  0.10000000000E+01 0.  0.
<mgrwt>
<rscale>  0 0.12499550E+03</rscale>
<asrwt>0</asrwt>
<pdfrwt beam="1">  1        4 0.10609284E-01 0.12499550E+03</pdfrwt>
<pdfrwt beam="2">  1       -4 0.23010322E-01 0.12499550E+03</pdfrwt>
<totfact> 0.19328521E+03</totfact>
</mgrwt>
</event>
<event>
 5    1  0.1440092E-002  0.1249992E+03  0.7818608E-02  0.1235071E+00
          4   -1    0    0  501    0  0.00000000000E+00  0.00000000000E+00  0.13358643571E+03  0.13359247249E+03  0.12700000000E+01 0. -1.
         -4   -1    0    0    0  501 -0.00000000000E+00 -0.00000000000E+00 -0.29220490014E+02  0.29248075777E+02  0.12700000000E+01 0. -1.
         25    2    1    2    0    0  0.00000000000E+00  0.00000000000E+00  0.10436594570E+03  0.16284054827E+03  0.12499917415E+03 0.  0.
    9000005    1    3    3    0    0  0.86993094970E+01 -0.52637488513E+02  0.97927698574E+01  0.54252018619E+02  0.10000000000E+01 0.  0.
    9000005    1    3    3    0    0 -0.86993094970E+01  0.52637488513E+02  0.94573175838E+02  0.10858852965E+03  0.10000000000E+01 0.  0.
<mgrwt>
<rscale>  0 0.12499917E+03</rscale>
<asrwt>0</asrwt>
<pdfrwt beam="1">  1        4 0.33400811E-01 0.12499917E+03</pdfrwt>
<pdfrwt beam="2">  1       -4 0.73093255E-02 0.12499917E+03</pdfrwt>
<totfact> 0.17925232E+03</totfact>
</mgrwt>
</event>
<event>
 5    1  0.1440092E-002  0.1249981E+03  0.7818608E-02  0.1235072E+00
         -4   -1    0    0    0  501 -0.00000000000E+00  0.00000000000E+00  0.35013900148E+01  0.37245982382E+01  0.12700000000E+01 0.  1.
          4   -1    0    0  501    0  0.00000000000E+00 -0.00000000000E+00 -0.10809113988E+04  0.10809121448E+04  0.12700000000E+01 0.  1.
         25    2    1    2    0    0  0.00000000000E+00  0.00000000000E+00 -0.10774100087E+04  0.10846367431E+04  0.12499814998E+03 0.  0.
    9000005    1    3    3    0    0  0.39330077666E+02 -0.30836750048E+02 -0.86423088435E+03  0.86567533269E+03  0.10000000000E+01 0.  0.
    9000005    1    3    3    0    0 -0.39330077666E+02  0.30836750048E+02 -0.21317912438E+03  0.21896141038E+03  0.10000000000E+01 0.  0.
<mgrwt>
<rscale>  0 0.12499815E+03</rscale>
<asrwt>0</asrwt>
<pdfrwt beam="2">  1        4 0.27025474E+00 0.12499815E+03</pdfrwt>
<pdfrwt beam="1">  1       -4 0.90334549E-03 0.12499815E+03</pdfrwt>
<totfact> 0.31706373E+02</totfact>
</mgrwt>
</event>
<event>
 5    1  0.1440092E-002  0.1249765E+03  0.7818608E-02  0.1235106E+00
         -4   -1    0    0    0  501 -0.00000000000E+00  0.00000000000E+00  0.13171140251E+04  0.13171146374E+04  0.12700000000E+01 0. -1.
          4   -1    0    0  501    0  0.00000000000E+00 -0.00000000000E+00 -0.28279955212E+01  0.31000739778E+01  0.12700000000E+01 0. -1.
         25    2    1    2    0    0  0.00000000000E+00  0.00000000000E+00  0.13142860296E+04  0.13202147114E+04  0.12497646400E+03 0.  0.
    9000005    1    3    3    0    0 -0.24571190750E+02 -0.56832647233E+02  0.56870647086E+03  0.57206795331E+03  0.10000000000E+01 0.  0.
    9000005    1    3    3    0    0  0.24571190750E+02  0.56832647233E+02  0.74557955874E+03  0.74814675808E+03  0.10000000000E+01 0.  0.
<mgrwt>
<rscale>  0 0.12497646E+03</rscale>
<asrwt>0</asrwt>
<pdfrwt beam="2">  1        4 0.74108503E-03 0.12497646E+03</pdfrwt>
<pdfrwt beam="1">  1       -4 0.32931268E+00 0.12497646E+03</pdfrwt>
<totfact> 0.19419637E+02</totfact>
</mgrwt>
</event>
<event>
 5    1  0.1440092E-002  0.1250001E+03  0.7818608E-02  0.1235069E+00
         -4   -1    0    0    0  501 -0.00000000000E+00  0.00000000000E+00  0.14538222595E+02  0.14593588188E+02  0.12700000000E+01 0.  1.
          4   -1    0    0  501    0  0.00000000000E+00 -0.00000000000E+00 -0.26812102366E+03  0.26812403143E+03  0.12700000000E+01 0.  1.
         25    2    1    2    0    0  0.00000000000E+00  0.00000000000E+00 -0.25358280107E+03  0.28271761962E+03  0.12500006178E+03 0.  0.
    9000005    1    3    3    0    0 -0.54160890690E+02  0.20230975790E+02 -0.18043610297E+03  0.18947527996E+03  0.10000000000E+01 0.  0.
    9000005    1    3    3    0    0  0.54160890690E+02 -0.20230975790E+02 -0.73146698097E+02  0.93242339655E+02  0.10000000000E+01 0.  0.
<mgrwt>
<rscale>  0 0.12500006E+03</rscale>
<asrwt>0</asrwt>
<pdfrwt beam="2">  1        4 0.67037537E-01 0.12500006E+03</pdfrwt>
<pdfrwt beam="1">  1       -4 0.36418532E-02 0.12500006E+03</pdfrwt>
<totfact> 0.13469617E+03</totfact>
</mgrwt>
</event>
<event>
 5    1  0.1440092E-002  0.1249998E+03  0.7818608E-02  0.1235070E+00
         -4   -1    0    0    0  501 -0.00000000000E+00  0.00000000000E+00  0.80727030644E+01  0.81719908692E+01  0.12700000000E+01 0. -1.
          4   -1    0    0  501    0  0.00000000000E+00 -0.00000000000E+00 -0.48082429246E+03  0.48082596968E+03  0.12700000000E+01 0. -1.
         25    2    1    2    0    0  0.00000000000E+00  0.00000000000E+00 -0.47275158939E+03  0.48899796055E+03  0.12499976058E+03 0.  0.
    9000005    1    3    3    0    0 -0.32512596428E+02  0.11066442543E+02 -0.32137634096E+02  0.47046387771E+02  0.10000000000E+01 0.  0.
    9000005    1    3    3    0    0  0.32512596428E+02 -0.11066442543E+02 -0.44061395530E+03  0.44195157278E+03  0.10000000000E+01 0.  0.
<mgrwt>
<rscale>  0 0.12499976E+03</rscale>
<asrwt>0</asrwt>
<pdfrwt beam="2">  1        4 0.12021860E+00 0.12499976E+03</pdfrwt>
<pdfrwt beam="1">  1       -4 0.20307980E-02 0.12499976E+03</pdfrwt>
<totfact> 0.89383415E+02</totfact>
</mgrwt>
</event>
<event>
 5    1  0.1440092E-002  0.1250019E+03  0.7818608E-02  0.1235066E+00
          4   -1    0    0  501    0  0.00000000000E+00  0.00000000000E+00  0.42995501276E+02  0.43014253800E+02  0.12700000000E+01 0. -1.
         -4   -1    0    0    0  501 -0.00000000000E+00 -0.00000000000E+00 -0.90812306063E+02  0.90821186033E+02  0.12700000000E+01 0. -1.
         25    2    1    2    0    0  0.00000000000E+00  0.00000000000E+00 -0.47816804787E+02  0.13383543983E+03  0.12500191253E+03 0.  0.
    9000005    1    3    3    0    0 -0.37526762221E+02  0.18592001682E+02 -0.73569922984E+02  0.84660817249E+02  0.10000000000E+01 0.  0.
    9000005    1    3    3    0    0  0.37526762221E+02 -0.18592001682E+02  0.25753118197E+02  0.49174622584E+02  0.10000000000E+01 0.  0.
<mgrwt>
<rscale>  0 0.12500191E+03</rscale>
<asrwt>0</asrwt>
<pdfrwt beam="1">  1        4 0.10752330E-01 0.12500191E+03</pdfrwt>
<pdfrwt beam="2">  1       -4 0.22706530E-01 0.12500191E+03</pdfrwt>
<totfact> 0.19359446E+03</totfact>
</mgrwt>
</event>
<event>
 5    1  0.1440092E-002  0.1249999E+03  0.7818608E-02  0.1235069E+00
         -4   -1    0    0    0  501 -0.00000000000E+00  0.00000000000E+00  0.60459982813E+02  0.60473319916E+02  0.12700000000E+01 0.  1.
          4   -1    0    0  501    0  0.00000000000E+00 -0.00000000000E+00 -0.64582050789E+02  0.64594536798E+02  0.12700000000E+01 0.  1.
         25    2    1    2    0    0  0.00000000000E+00  0.00000000000E+00 -0.41220679766E+01  0.12506785671E+03  0.12499990935E+03 0.  0.
    9000005    1    3    3    0    0  0.31874043064E+02 -0.15477078821E+02  0.49442667098E+02  0.60836435792E+02  0.10000000000E+01 0.  0.
    9000005    1    3    3    0    0 -0.31874043064E+02  0.15477078821E+02 -0.53564735075E+02  0.64231420922E+02  0.10000000000E+01 0.  0.
<mgrwt>
<rscale>  0 0.12499991E+03</rscale>
<asrwt>0</asrwt>
<pdfrwt beam="2">  1        4 0.16148741E-01 0.12499991E+03</pdfrwt>
<pdfrwt beam="1">  1       -4 0.15118224E-01 0.12499991E+03</pdfrwt>
<totfact> 0.19831418E+03</totfact>
</mgrwt>
</event>
<event>
 5    1  0.1440092E-002  0.1250003E+03  0.7818608E-02  0.1235069E+00
          4   -1    0    0  501    0  0.00000000000E+00  0.00000000000E+00  0.27371766748E+03  0.27372061375E+03  0.12700000000E+01 0.  1.
         -4   -1    0    0    0  501 -0.00000000000E+00 -0.00000000000E+00 -0.14239877100E+02  0.14296398141E+02  0.12700000000E+01 0.  1.
         25    2    1    2    0    0  0.00000000000E+00  0.00000000000E+00  0.25947779038E+03  0.28801701189E+03  0.12500030175E+03 0.  0.
    9000005    1    3    3    0    0  0.46621108544E+02  0.23105974353E+02  0.20948495101E+03  0.21585263147E+03  0.10000000000E+01 0.  0.
    9000005    1    3    3    0    0 -0.46621108544E+02 -0.23105974353E+02  0.49992839362E+02  0.72164380412E+02  0.10000000000E+01 0.  0.
<mgrwt>
<rscale>  0 0.12500030E+03</rscale>
<asrwt>0</asrwt>
<pdfrwt beam="1">  1        4 0.68436850E-01 0.12500030E+03</pdfrwt>
<pdfrwt beam="2">  1       -4 0.35674027E-02 0.12500030E+03</pdfrwt>
<totfact> 0.13313582E+03</totfact>
</mgrwt>
</event>
<event>
 5    1  0.1440092E-002  0.1249958E+03  0.7818608E-02  0.1235076E+00
          4   -1    0    0  501    0  0.00000000000E+00  0.00000000000E+00  0.47892057196E+02  0.47908893145E+02  0.12700000000E+01 0.  1.
         -4   -1    0    0    0  501 -0.00000000000E+00 -0.00000000000E+00 -0.81521992956E+02  0.81531884779E+02  0.12700000000E+01 0.  1.
         25    2    1    2    0    0  0.00000000000E+00  0.00000000000E+00 -0.33629935761E+02  0.12944077792E+03  0.12499576957E+03 0.  0.
    9000005    1    3    3    0    0 -0.40978545953E+02 -0.41547035411E+02  0.63313490537E+01  0.58706757369E+02  0.10000000000E+01 0.  0.
    9000005    1    3    3    0    0  0.40978545953E+02  0.41547035411E+02 -0.39961284814E+02  0.70734020555E+02  0.10000000000E+01 0.  0.
<mgrwt>
<rscale>  0 0.12499577E+03</rscale>
<asrwt>0</asrwt>
<pdfrwt beam="1">  1        4 0.11976355E-01 0.12499577E+03</pdfrwt>
<pdfrwt beam="2">  1       -4 0.20383839E-01 0.12499577E+03</pdfrwt>
<totfact> 0.19596428E+03</totfact>
</mgrwt>
</event>
<event>
 5    1  0.1440092E-002  0.1250021E+03  0.7818608E-02  0.1235066E+00
         -4   -1    0    0    0  501 -0.00000000000E+00  0.00000000000E+00  0.19726703670E+02  0.19767542530E+02  0.12700000000E+01 0.  1.
          4   -1    0    0  501    0  0.00000000000E+00 -0.00000000000E+00 -0.19777750008E+03  0.19778157760E+03  0.12700000000E+01 0.  1.
         25    2    1    2    0    0  0.00000000000E+00  0.00000000000E+00 -0.17805079641E+03  0.21754912013E+03  0.12500213425E+03 0.  0.
    9000005    1    3    3    0    0 -0.33179082587E+01  0.41583831795E+02 -0.17000672381E+03  0.17505287693E+03  0.10000000000E+01 0.  0.
    9000005    1    3    3    0    0  0.33179082587E+01 -0.41583831795E+02 -0.80440726014E+01  0.42496243199E+02  0.10000000000E+01 0.  0.
<mgrwt>
<rscale>  0 0.12500213E+03</rscale>
<asrwt>0</asrwt>
<pdfrwt beam="2">  1        4 0.49449983E-01 0.12500213E+03</pdfrwt>
<pdfrwt beam="1">  1       -4 0.49372911E-02 0.12500213E+03</pdfrwt>
<totfact> 0.15641885E+03</totfact>
</mgrwt>
</event>
<event>
 5    1  0.1440092E-002  0.1250012E+03  0.7818608E-02  0.1235067E+00
         -4   -1    0    0    0  501 -0.00000000000E+00  0.00000000000E+00  0.52620515279E+03  0.52620668536E+03  0.12700000000E+01 0. -1.
          4   -1    0    0  501    0  0.00000000000E+00 -0.00000000000E+00 -0.73677050517E+01  0.74763612626E+01  0.12700000000E+01 0. -1.
         25    2    1    2    0    0  0.00000000000E+00  0.00000000000E+00  0.51883744774E+03  0.53368304663E+03  0.12500118832E+03 0.  0.
    9000005    1    3    3    0    0  0.38316838601E+02  0.46693010734E+02  0.32785039544E+03  0.33336961344E+03  0.10000000000E+01 0.  0.
    9000005    1    3    3    0    0 -0.38316838601E+02 -0.46693010734E+02  0.19098705230E+03  0.20031343319E+03  0.10000000000E+01 0.  0.
<mgrwt>
<rscale>  0 0.12500119E+03</rscale>
<asrwt>0</asrwt>
<pdfrwt beam="2">  1        4 0.18556998E-02 0.12500119E+03</pdfrwt>
<pdfrwt beam="1">  1       -4 0.13156506E+00 0.12500119E+03</pdfrwt>
<totfact> 0.82485186E+02</totfact>
</mgrwt>
</event>
<event>
 5    1  0.1440092E-002  0.1249957E+03  0.7818608E-02  0.1235076E+00
          4   -1    0    0  501    0  0.00000000000E+00  0.00000000000E+00  0.57115898876E+03  0.57116040072E+03  0.12700000000E+01 0.  1.
         -4   -1    0    0    0  501 -0.00000000000E+00 -0.00000000000E+00 -0.67783034554E+01  0.68962524413E+01  0.12700000000E+01 0.  1.
         25    2    1    2    0    0  0.00000000000E+00  0.00000000000E+00  0.56438068531E+03  0.57805665316E+03  0.12499574517E+03 0.  0.
    9000005    1    3    3    0    0 -0.31523825748E+02 -0.20590957167E+02  0.51550435366E+02  0.63845019330E+02  0.10000000000E+01 0.  0.
    9000005    1    3    3    0    0  0.31523825748E+02  0.20590957167E+02  0.51283024994E+03  0.51421163383E+03  0.10000000000E+01 0.  0.
<mgrwt>
<rscale>  0 0.12499575E+03</rscale>
<asrwt>0</asrwt>
<pdfrwt beam="1">  1        4 0.14280466E+00 0.12499575E+03</pdfrwt>
<pdfrwt beam="2">  1       -4 0.17094961E-02 0.12499575E+03</pdfrwt>
<totfact> 0.76342491E+02</totfact>
</mgrwt>
</event>
<event>
 5    1  0.1440092E-002  0.1250044E+03  0.7818608E-02  0.1235062E+00
         -4   -1    0    0    0  501 -0.00000000000E+00  0.00000000000E+00  0.58499155928E+02  0.58512939974E+02  0.12700000000E+01 0. -1.
          4   -1    0    0  501    0  0.00000000000E+00 -0.00000000000E+00 -0.66751449792E+02  0.66763530084E+02  0.12700000000E+01 0. -1.
         25    2    1    2    0    0  0.00000000000E+00  0.00000000000E+00 -0.82522938633E+01  0.12527647006E+03  0.12500437431E+03 0.  0.
    9000005    1    3    3    0    0  0.58829577388E+02  0.15899028938E+02  0.97540943681E+01  0.61723906663E+02  0.10000000000E+01 0.  0.
    9000005    1    3    3    0    0 -0.58829577388E+02 -0.15899028938E+02 -0.18006388231E+02  0.63552563394E+02  0.10000000000E+01 0.  0.
<mgrwt>
<rscale>  0 0.12500437E+03</rscale>
<asrwt>0</asrwt>
<pdfrwt beam="2">  1        4 0.16691095E-01 0.12500437E+03</pdfrwt>
<pdfrwt beam="1">  1       -4 0.14628022E-01 0.12500437E+03</pdfrwt>
<totfact> 0.19818041E+03</totfact>
</mgrwt>
</event>
<event>
 5    1  0.1440092E-002  0.1250006E+03  0.7818608E-02  0.1235068E+00
          4   -1    0    0  501    0  0.00000000000E+00  0.00000000000E+00  0.41312759702E+02  0.41332275696E+02  0.12700000000E+01 0. -1.
         -4   -1    0    0    0  501 -0.00000000000E+00 -0.00000000000E+00 -0.94507976448E+02  0.94516509205E+02  0.12700000000E+01 0. -1.
         25    2    1    2    0    0  0.00000000000E+00  0.00000000000E+00 -0.53195216746E+02  0.13584878490E+03  0.12500064510E+03 0.  0.
    9000005    1    3    3    0    0  0.49940284607E+02 -0.24476743275E+02 -0.57569013887E+02  0.80052072727E+02  0.10000000000E+01 0.  0.
    9000005    1    3    3    0    0 -0.49940284607E+02  0.24476743275E+02  0.43737971411E+01  0.55796712173E+02  0.10000000000E+01 0.  0.
<mgrwt>
<rscale>  0 0.12500065E+03</rscale>
<asrwt>0</asrwt>
<pdfrwt beam="1">  1        4 0.10331696E-01 0.12500065E+03</pdfrwt>
<pdfrwt beam="2">  1       -4 0.23630500E-01 0.12500065E+03</pdfrwt>
<totfact> 0.19254481E+03</totfact>
</mgrwt>
</event>
<event>
 5    1  0.1440092E-002  0.1250010E+03  0.7818608E-02  0.1235068E+00
         -4   -1    0    0    0  501 -0.00000000000E+00  0.00000000000E+00  0.11506056855E+03  0.11506757725E+03  0.12700000000E+01 0.  1.
          4   -1    0    0  501    0  0.00000000000E+00 -0.00000000000E+00 -0.33930130470E+02  0.33953890112E+02  0.12700000000E+01 0.  1.
         25    2    1    2    0    0  0.00000000000E+00  0.00000000000E+00  0.81130438080E+02  0.14902146737E+03  0.12500099901E+03 0.  0.
    9000005    1    3    3    0    0  0.29243955675E+02 -0.34824635965E+02  0.91666417845E+02  0.10233130691E+03  0.10000000000E+01 0.  0.
    9000005    1    3    3    0    0 -0.29243955675E+02  0.34824635965E+02 -0.10535979765E+02  0.46690160454E+02  0.10000000000E+01 0.  0.
<mgrwt>
<rscale>  0 0.12500100E+03</rscale>
<asrwt>0</asrwt>
<pdfrwt beam="2">  1        4 0.84863788E-02 0.12500100E+03</pdfrwt>
<pdfrwt beam="1">  1       -4 0.28768988E-01 0.12500100E+03</pdfrwt>
<totfact> 0.18586568E+03</totfact>
</mgrwt>
</event>
<event>
 5    1  0.1440092E-002  0.1249988E+03  0.7818608E-02  0.1235071E+00
         -4   -1    0    0    0  501 -0.00000000000E+00  0.00000000000E+00  0.11769888437E+02  0.11838208218E+02  0.12700000000E+01 0.  1.
          4   -1    0    0  501    0  0.00000000000E+00 -0.00000000000E+00 -0.33084859956E+03  0.33085103707E+03  0.12700000000E+01 0.  1.
         25    2    1    2    0    0  0.00000000000E+00  0.00000000000E+00 -0.31907871112E+03  0.34268924529E+03  0.12499877977E+03 0.  0.
    9000005    1    3    3    0    0  0.15358683092E+02  0.49984529855E+01 -0.32504079124E+03  0.32544337396E+03  0.10000000000E+01 0.  0.
    9000005    1    3    3    0    0 -0.15358683092E+02 -0.49984529855E+01  0.59620801236E+01  0.17245871331E+02  0.10000000000E+01 0.  0.
<mgrwt>
<rscale>  0 0.12499878E+03</rscale>
<asrwt>0</asrwt>
<pdfrwt beam="2">  1        4 0.82720964E-01 0.12499878E+03</pdfrwt>
<pdfrwt beam="1">  1       -4 0.29513179E-02 0.12499878E+03</pdfrwt>
<totfact> 0.11854014E+03</totfact>
</mgrwt>
</event>
<event>
 5    1  0.1440092E-002  0.1250005E+03  0.7818608E-02  0.1235069E+00
         -4   -1    0    0    0  501 -0.00000000000E+00  0.00000000000E+00  0.66297947219E+02  0.66310110130E+02  0.12700000000E+01 0.  1.
          4   -1    0    0  501    0  0.00000000000E+00 -0.00000000000E+00 -0.58895657252E+02  0.58909348521E+02  0.12700000000E+01 0.  1.
         25    2    1    2    0    0  0.00000000000E+00  0.00000000000E+00  0.74022899671E+01  0.12521945865E+03  0.12500047571E+03 0.  0.
    9000005    1    3    3    0    0  0.97853097062E+01 -0.11060111521E+02 -0.57127561999E+02  0.59013868648E+02  0.10000000000E+01 0.  0.
    9000005    1    3    3    0    0 -0.97853097062E+01  0.11060111521E+02  0.64529851966E+02  0.66205590003E+02  0.10000000000E+01 0.  0.
<mgrwt>
<rscale>  0 0.12500048E+03</rscale>
<asrwt>0</asrwt>
<pdfrwt beam="2">  1        4 0.14727146E-01 0.12500048E+03</pdfrwt>
<pdfrwt beam="1">  1       -4 0.16577719E-01 0.12500048E+03</pdfrwt>
<totfact> 0.19822938E+03</totfact>
</mgrwt>
</event>
<event>
 5    1  0.1440092E-002  0.1250001E+03  0.7818608E-02  0.1235069E+00
          4   -1    0    0  501    0  0.00000000000E+00  0.00000000000E+00  0.50232318625E+02  0.50248370465E+02  0.12700000000E+01 0. -1.
         -4   -1    0    0    0  501 -0.00000000000E+00 -0.00000000000E+00 -0.77730123560E+02  0.77740497868E+02  0.12700000000E+01 0. -1.
         25    2    1    2    0    0  0.00000000000E+00  0.00000000000E+00 -0.27497804935E+02  0.12798886833E+03  0.12500008456E+03 0.  0.
    9000005    1    3    3    0    0 -0.26015286494E+02 -0.47341723533E+02  0.18422438641E+02  0.57082573207E+02  0.10000000000E+01 0.  0.
    9000005    1    3    3    0    0  0.26015286494E+02  0.47341723533E+02 -0.45920243577E+02  0.70906295126E+02  0.10000000000E+01 0.  0.
<mgrwt>
<rscale>  0 0.12500008E+03</rscale>
<asrwt>0</asrwt>
<pdfrwt beam="1">  1        4 0.12561383E-01 0.12500008E+03</pdfrwt>
<pdfrwt beam="2">  1       -4 0.19435834E-01 0.12500008E+03</pdfrwt>
<totfact> 0.19673101E+03</totfact>
</mgrwt>
</event>
<event>
 5    1  0.1440092E-002  0.1249965E+03  0.7818608E-02  0.1235075E+00
         -4   -1    0    0    0  501 -0.00000000000E+00  0.00000000000E+00  0.23843231310E+03  0.23843569538E+03  0.12700000000E+01 0. -1.
          4   -1    0    0  501    0  0.00000000000E+00 -0.00000000000E+00 -0.16354008330E+02  0.16403246278E+02  0.12700000000E+01 0. -1.
         25    2    1    2    0    0  0.00000000000E+00  0.00000000000E+00  0.22207830477E+03  0.25483894166E+03  0.12499645089E+03 0.  0.
    9000005    1    3    3    0    0  0.44310184993E+02  0.24940466607E+02  0.18510034732E+03  0.19195978210E+03  0.10000000000E+01 0.  0.
    9000005    1    3    3    0    0 -0.44310184993E+02 -0.24940466607E+02  0.36977957457E+02  0.62879159555E+02  0.10000000000E+01 0.  0.
<mgrwt>
<rscale>  0 0.12499645E+03</rscale>
<asrwt>0</asrwt>
<pdfrwt beam="2">  1        4 0.40950796E-02 0.12499645E+03</pdfrwt>
<pdfrwt beam="1">  1       -4 0.59614656E-01 0.12499645E+03</pdfrwt>
<totfact> 0.14339561E+03</totfact>
</mgrwt>
</event>
<event>
 5    1  0.1440092E-002  0.1250028E+03  0.7818608E-02  0.1235065E+00
         -4   -1    0    0    0  501 -0.00000000000E+00  0.00000000000E+00  0.14540509410E+03  0.14541064023E+03  0.12700000000E+01 0. -1.
          4   -1    0    0  501    0  0.00000000000E+00 -0.00000000000E+00 -0.26844723691E+02  0.26874748185E+02  0.12700000000E+01 0. -1.
         25    2    1    2    0    0  0.00000000000E+00  0.00000000000E+00  0.11856037041E+03  0.17228538841E+03  0.12500277448E+03 0.  0.
    9000005    1    3    3    0    0  0.57992497193E+02  0.20913667833E+02  0.45163207227E+02  0.76427917151E+02  0.10000000000E+01 0.  0.
    9000005    1    3    3    0    0 -0.57992497193E+02 -0.20913667833E+02  0.73397163184E+02  0.95857471260E+02  0.10000000000E+01 0.  0.
<mgrwt>
<rscale>  0 0.12500277E+03</rscale>
<asrwt>0</asrwt>
<pdfrwt beam="2">  1        4 0.67156274E-02 0.12500277E+03</pdfrwt>
<pdfrwt beam="1">  1       -4 0.36355719E-01 0.12500277E+03</pdfrwt>
<totfact> 0.17493330E+03</totfact>
</mgrwt>
</event>
<event>
 5    1  0.1440092E-002  0.1249991E+03  0.7818608E-02  0.1235071E+00
         -4   -1    0    0    0  501 -0.00000000000E+00  0.00000000000E+00  0.99375648776E+02  0.99383763612E+02  0.12700000000E+01 0. -1.
          4   -1    0    0  501    0  0.00000000000E+00 -0.00000000000E+00 -0.39287388074E+02  0.39307909657E+02  0.12700000000E+01 0. -1.
         25    2    1    2    0    0  0.00000000000E+00  0.00000000000E+00  0.60088260702E+02  0.13869167327E+03  0.12499912464E+03 0.  0.
    9000005    1    3    3    0    0 -0.32040462540E+02  0.38284331802E+01 -0.29333917562E+02  0.43620257449E+02  0.10000000000E+01 0.  0.
    9000005    1    3    3    0    0  0.32040462540E+02 -0.38284331802E+01  0.89422178264E+02  0.95071415820E+02  0.10000000000E+01 0.  0.
<mgrwt>
<rscale>  0 0.12499912E+03</rscale>
<asrwt>0</asrwt>
<pdfrwt beam="2">  1        4 0.98254266E-02 0.12499912E+03</pdfrwt>
<pdfrwt beam="1">  1       -4 0.24847492E-01 0.12499912E+03</pdfrwt>
<totfact> 0.19107865E+03</totfact>
</mgrwt>
</event>
<event>
 5    1  0.1440092E-002  0.1250020E+03  0.7818608E-02  0.1235066E+00
          4   -1    0    0  501    0  0.00000000000E+00  0.00000000000E+00  0.72455871230E+02  0.72467000598E+02  0.12700000000E+01 0. -1.
         -4   -1    0    0    0  501 -0.00000000000E+00 -0.00000000000E+00 -0.53891074178E+02  0.53906036546E+02  0.12700000000E+01 0. -1.
         25    2    1    2    0    0  0.00000000000E+00  0.00000000000E+00  0.18564797052E+02  0.12637303714E+03  0.12500197129E+03 0.  0.
    9000005    1    3    3    0    0 -0.30434612513E+02 -0.44893225495E+02 -0.22101711230E+02  0.58576044365E+02  0.10000000000E+01 0.  0.
    9000005    1    3    3    0    0  0.30434612513E+02  0.44893225495E+02  0.40666508281E+02  0.67796992779E+02  0.10000000000E+01 0.  0.
<mgrwt>
<rscale>  0 0.12500197E+03</rscale>
<asrwt>0</asrwt>
<pdfrwt beam="1">  1        4 0.18117229E-01 0.12500197E+03</pdfrwt>
<pdfrwt beam="2">  1       -4 0.13476030E-01 0.12500197E+03</pdfrwt>
<totfact> 0.19759864E+03</totfact>
</mgrwt>
</event>
<event>
 5    1  0.1440092E-002  0.1250012E+03  0.7818608E-02  0.1235067E+00
          4   -1    0    0  501    0  0.00000000000E+00  0.00000000000E+00  0.17552224733E+03  0.17552684185E+03  0.12700000000E+01 0.  1.
         -4   -1    0    0    0  501 -0.00000000000E+00 -0.00000000000E+00 -0.22232439004E+02  0.22268683034E+02  0.12700000000E+01 0.  1.
         25    2    1    2    0    0  0.00000000000E+00  0.00000000000E+00  0.15328980833E+03  0.19779552488E+03  0.12500121730E+03 0.  0.
    9000005    1    3    3    0    0 -0.26449481841E+01  0.55905734950E+02  0.12063531412E+03  0.13298994686E+03  0.10000000000E+01 0.  0.
    9000005    1    3    3    0    0  0.26449481841E+01 -0.55905734950E+02  0.32654494204E+02  0.64805578023E+02  0.10000000000E+01 0.  0.
<mgrwt>
<rscale>  0 0.12500122E+03</rscale>
<asrwt>0</asrwt>
<pdfrwt beam="1">  1        4 0.43885666E-01 0.12500122E+03</pdfrwt>
<pdfrwt beam="2">  1       -4 0.55632147E-02 0.12500122E+03</pdfrwt>
<totfact> 0.16410232E+03</totfact>
</mgrwt>
</event>
<event>
 5    1  0.1440092E-002  0.1250000E+03  0.7818608E-02  0.1235069E+00
          4   -1    0    0  501    0  0.00000000000E+00  0.00000000000E+00  0.41051243361E+02  0.41070883622E+02  0.12700000000E+01 0.  1.
         -4   -1    0    0    0  501 -0.00000000000E+00 -0.00000000000E+00 -0.95108755881E+02  0.95117234743E+02  0.12700000000E+01 0.  1.
         25    2    1    2    0    0  0.00000000000E+00  0.00000000000E+00 -0.54057512520E+02  0.13618811836E+03  0.12499995570E+03 0.  0.
    9000005    1    3    3    0    0  0.52526439268E+02 -0.28085180790E+02 -0.64303899951E+01  0.59917894803E+02  0.10000000000E+01 0.  0.
    9000005    1    3    3    0    0 -0.52526439268E+02  0.28085180790E+02 -0.47627122525E+02  0.76270223562E+02  0.10000000000E+01 0.  0.
<mgrwt>
<rscale>  0 0.12499996E+03</rscale>
<asrwt>0</asrwt>
<pdfrwt beam="1">  1        4 0.10266326E-01 0.12499996E+03</pdfrwt>
<pdfrwt beam="2">  1       -4 0.23780703E-01 0.12499996E+03</pdfrwt>
<totfact> 0.19237104E+03</totfact>
</mgrwt>
</event>
<event>
 5    1  0.1440092E-002  0.1250019E+03  0.7818608E-02  0.1235066E+00
          4   -1    0    0  501    0  0.00000000000E+00  0.00000000000E+00  0.11797481175E+03  0.11798164733E+03  0.12700000000E+01 0.  1.
         -4   -1    0    0    0  501 -0.00000000000E+00 -0.00000000000E+00 -0.33091923266E+02  0.33116284294E+02  0.12700000000E+01 0.  1.
         25    2    1    2    0    0  0.00000000000E+00  0.00000000000E+00  0.84882888485E+02  0.15109793163E+03  0.12500192072E+03 0.  0.
    9000005    1    3    3    0    0 -0.38551244149E+02  0.27423110002E+02 -0.69132511377E+01  0.47822781485E+02  0.10000000000E+01 0.  0.
    9000005    1    3    3    0    0  0.38551244149E+02 -0.27423110002E+02  0.91796139623E+02  0.10327515014E+03  0.10000000000E+01 0.  0.
<mgrwt>
<rscale>  0 0.12500192E+03</rscale>
<asrwt>0</asrwt>
<pdfrwt beam="1">  1        4 0.29497602E-01 0.12500192E+03</pdfrwt>
<pdfrwt beam="2">  1       -4 0.82768804E-02 0.12500192E+03</pdfrwt>
<totfact> 0.18484101E+03</totfact>
</mgrwt>
</event>
<event>
 5    1  0.1440092E-002  0.1249994E+03  0.7818608E-02  0.1235070E+00
          4   -1    0    0  501    0  0.00000000000E+00  0.00000000000E+00  0.11805097881E+03  0.11805780999E+03  0.12700000000E+01 0.  1.
         -4   -1    0    0    0  501 -0.00000000000E+00 -0.00000000000E+00 -0.33069228785E+02  0.33093606519E+02  0.12700000000E+01 0.  1.
         25    2    1    2    0    0  0.00000000000E+00  0.00000000000E+00  0.84981750030E+02  0.15115141651E+03  0.12499941149E+03 0.  0.
    9000005    1    3    3    0    0 -0.47543535914E+02  0.18636531790E+02 -0.10662081297E+01  0.51086641347E+02  0.10000000000E+01 0.  0.
    9000005    1    3    3    0    0  0.47543535914E+02 -0.18636531790E+02  0.86047958159E+02  0.10006477516E+03  0.10000000000E+01 0.  0.
<mgrwt>
<rscale>  0 0.12499941E+03</rscale>
<asrwt>0</asrwt>
<pdfrwt beam="1">  1        4 0.29516646E-01 0.12499941E+03</pdfrwt>
<pdfrwt beam="2">  1       -4 0.82712084E-02 0.12499941E+03</pdfrwt>
<totfact> 0.18482563E+03</totfact>
</mgrwt>
</event>
<event>
 5    1  0.1440092E-002  0.1249969E+03  0.7818608E-02  0.1235074E+00
         -4   -1    0    0    0  501 -0.00000000000E+00  0.00000000000E+00  0.32124741307E+02  0.32149835210E+02  0.12700000000E+01 0.  1.
          4   -1    0    0  501    0  0.00000000000E+00 -0.00000000000E+00 -0.12151433221E+03  0.12152096870E+03  0.12700000000E+01 0.  1.
         25    2    1    2    0    0  0.00000000000E+00  0.00000000000E+00 -0.89389590905E+02  0.15367080391E+03  0.12499686801E+03 0.  0.
    9000005    1    3    3    0    0 -0.34734257000E+02 -0.49829573936E+02 -0.62746399936E+02  0.87335936206E+02  0.10000000000E+01 0.  0.
    9000005    1    3    3    0    0  0.34734257000E+02  0.49829573936E+02 -0.26643190969E+02  0.66334867701E+02  0.10000000000E+01 0.  0.
<mgrwt>
<rscale>  0 0.12499687E+03</rscale>
<asrwt>0</asrwt>
<pdfrwt beam="2">  1        4 0.30382548E-01 0.12499687E+03</pdfrwt>
<pdfrwt beam="1">  1       -4 0.80351519E-02 0.12499687E+03</pdfrwt>
<totfact> 0.18361086E+03</totfact>
</mgrwt>
</event>
<event>
 5    1  0.1440092E-002  0.1250009E+03  0.7818608E-02  0.1235068E+00
         -4   -1    0    0    0  501 -0.00000000000E+00  0.00000000000E+00  0.28862090836E+02  0.28890018820E+02  0.12700000000E+01 0.  1.
          4   -1    0    0  501    0  0.00000000000E+00 -0.00000000000E+00 -0.13524749725E+03  0.13525345990E+03  0.12700000000E+01 0.  1.
         25    2    1    2    0    0  0.00000000000E+00  0.00000000000E+00 -0.10638540642E+03  0.16414347871E+03  0.12500090762E+03 0.  0.
    9000005    1    3    3    0    0  0.62489962370E+00  0.34658802130E+02 -0.12147190025E+03  0.12632515828E+03  0.10000000000E+01 0.  0.
    9000005    1    3    3    0    0 -0.62489962370E+00 -0.34658802130E+02  0.15086493827E+02  0.37818320437E+02  0.10000000000E+01 0.  0.
<mgrwt>
<rscale>  0 0.12500091E+03</rscale>
<asrwt>0</asrwt>
<pdfrwt beam="2">  1        4 0.33816109E-01 0.12500091E+03</pdfrwt>
<pdfrwt beam="1">  1       -4 0.72197594E-02 0.12500091E+03</pdfrwt>
<totfact> 0.17864105E+03</totfact>
</mgrwt>
</event>
<event>
 5    1  0.1440092E-002  0.1249999E+03  0.7818608E-02  0.1235069E+00
         -4   -1    0    0    0  501 -0.00000000000E+00  0.00000000000E+00  0.64465397324E+01  0.65704470564E+01  0.12700000000E+01 0.  1.
          4   -1    0    0  501    0  0.00000000000E+00 -0.00000000000E+00 -0.60005193939E+03  0.60005328336E+03  0.12700000000E+01 0.  1.
         25    2    1    2    0    0  0.00000000000E+00  0.00000000000E+00 -0.59360539966E+03  0.60662373041E+03  0.12499991918E+03 0.  0.
    9000005    1    3    3    0    0 -0.61814006699E+02 -0.77612392840E+01 -0.27300982107E+03  0.28002958890E+03  0.10000000000E+01 0.  0.
    9000005    1    3    3    0    0  0.61814006699E+02  0.77612392840E+01 -0.32059557859E+03  0.32659414152E+03  0.10000000000E+01 0.  0.
<mgrwt>
<rscale>  0 0.12499992E+03</rscale>
<asrwt>0</asrwt>
<pdfrwt beam="2">  1        4 0.15002845E+00 0.12499992E+03</pdfrwt>
<pdfrwt beam="1">  1       -4 0.16272934E-02 0.12499992E+03</pdfrwt>
<totfact> 0.72675952E+02</totfact>
</mgrwt>
</event>
<event>
 5    1  0.1440092E-002  0.1249995E+03  0.7818608E-02  0.1235070E+00
         -4   -1    0    0    0  501 -0.00000000000E+00  0.00000000000E+00  0.88497848335E+03  0.88497939461E+03  0.12700000000E+01 0.  1.
          4   -1    0    0  501    0  0.00000000000E+00 -0.00000000000E+00 -0.43216250783E+01  0.45043693584E+01  0.12700000000E+01 0.  1.
         25    2    1    2    0    0  0.00000000000E+00  0.00000000000E+00  0.88065685827E+03  0.88948376397E+03  0.12499945740E+03 0.  0.
    9000005    1    3    3    0    0 -0.28938617872E+02  0.14629373179E+02  0.60193166442E+02  0.68378940107E+02  0.10000000000E+01 0.  0.
    9000005    1    3    3    0    0  0.28938617872E+02 -0.14629373179E+02  0.82046369183E+03  0.82110482386E+03  0.10000000000E+01 0.  0.
<mgrwt>
<rscale>  0 0.12499946E+03</rscale>
<asrwt>0</asrwt>
<pdfrwt beam="2">  1        4 0.11033629E-02 0.12499946E+03</pdfrwt>
<pdfrwt beam="1">  1       -4 0.22126764E+00 0.12499946E+03</pdfrwt>
<totfact> 0.45083804E+02</totfact>
</mgrwt>
</event>
<event>
 5    1  0.1440092E-002  0.1249963E+03  0.7818608E-02  0.1235075E+00
          4   -1    0    0  501    0  0.00000000000E+00  0.00000000000E+00  0.78498819527E+02  0.78509092258E+02  0.12700000000E+01 0. -1.
         -4   -1    0    0    0  501 -0.00000000000E+00 -0.00000000000E+00 -0.49737297906E+02  0.49753509454E+02  0.12700000000E+01 0. -1.
         25    2    1    2    0    0  0.00000000000E+00  0.00000000000E+00  0.28761521621E+02  0.12826260171E+03  0.12499627943E+03 0.  0.
    9000005    1    3    3    0    0 -0.34587049581E+02  0.32344153295E+02 -0.27459853341E+02  0.54748989001E+02  0.10000000000E+01 0.  0.
    9000005    1    3    3    0    0  0.34587049581E+02 -0.32344153295E+02  0.56221374962E+02  0.73513612711E+02  0.10000000000E+01 0.  0.
<mgrwt>
<rscale>  0 0.12499628E+03</rscale>
<asrwt>0</asrwt>
<pdfrwt beam="1">  1        4 0.19628015E-01 0.12499628E+03</pdfrwt>
<pdfrwt beam="2">  1       -4 0.12437635E-01 0.12499628E+03</pdfrwt>
<totfact> 0.19659965E+03</totfact>
</mgrwt>
</event>
<event>
 5    1  0.1440092E-002  0.1250023E+03  0.7818608E-02  0.1235066E+00
          4   -1    0    0  501    0  0.00000000000E+00  0.00000000000E+00  0.13175941926E+03  0.13176553975E+03  0.12700000000E+01 0.  1.
         -4   -1    0    0    0  501 -0.00000000000E+00 -0.00000000000E+00 -0.29627492354E+02  0.29654699512E+02  0.12700000000E+01 0.  1.
         25    2    1    2    0    0  0.00000000000E+00  0.00000000000E+00  0.10213192691E+03  0.16142023926E+03  0.12500225257E+03 0.  0.
    9000005    1    3    3    0    0 -0.16707909457E+02 -0.45634476439E+02  0.10180310260E+03  0.11281192923E+03  0.10000000000E+01 0.  0.
    9000005    1    3    3    0    0  0.16707909457E+02  0.45634476439E+02  0.32882431195E+00  0.48608310028E+02  0.10000000000E+01 0.  0.
<mgrwt>
<rscale>  0 0.12500225E+03</rscale>
<asrwt>0</asrwt>
<pdfrwt beam="1">  1        4 0.32944020E-01 0.12500225E+03</pdfrwt>
<pdfrwt beam="2">  1       -4 0.74110392E-02 0.12500225E+03</pdfrwt>
<totfact> 0.17990178E+03</totfact>
</mgrwt>
</event>
<event>
 5    1  0.1440092E-002  0.1249993E+03  0.7818608E-02  0.1235070E+00
          4   -1    0    0  501    0  0.00000000000E+00  0.00000000000E+00  0.76006261933E+01  0.77059988665E+01  0.12700000000E+01 0.  1.
         -4   -1    0    0    0  501 -0.00000000000E+00 -0.00000000000E+00 -0.51028770579E+03  0.51028928617E+03  0.12700000000E+01 0.  1.
         25    2    1    2    0    0  0.00000000000E+00  0.00000000000E+00 -0.50268707960E+03  0.51799528504E+03  0.12499926131E+03 0.  0.
    9000005    1    3    3    0    0  0.42295482257E+02  0.43236697590E+02 -0.31645610831E+03  0.32218595302E+03  0.10000000000E+01 0.  0.
    9000005    1    3    3    0    0 -0.42295482257E+02 -0.43236697590E+02 -0.18623097129E+03  0.19580933202E+03  0.10000000000E+01 0.  0.
<mgrwt>
<rscale>  0 0.12499926E+03</rscale>
<asrwt>0</asrwt>
<pdfrwt beam="1">  1        4 0.19135274E-02 0.12499926E+03</pdfrwt>
<pdfrwt beam="2">  1       -4 0.12758518E+00 0.12499926E+03</pdfrwt>
<totfact> 0.84815388E+02</totfact>
</mgrwt>
</event>
<event>
 5    1  0.1440092E-002  0.1250023E+03  0.7818608E-02  0.1235066E+00
         -4   -1    0    0    0  501 -0.00000000000E+00  0.00000000000E+00  0.73618342713E+02  0.73629296369E+02  0.12700000000E+01 0. -1.
          4   -1    0    0  501    0  0.00000000000E+00 -0.00000000000E+00 -0.53040268811E+02  0.53055471118E+02  0.12700000000E+01 0. -1.
         25    2    1    2    0    0  0.00000000000E+00  0.00000000000E+00  0.20578073902E+02  0.12668476749E+03  0.12500229273E+03 0.  0.
    9000005    1    3    3    0    0  0.51787754730E+02  0.28880558323E+02 -0.97081176271E+01  0.60094140621E+02  0.10000000000E+01 0.  0.
    9000005    1    3    3    0    0 -0.51787754730E+02 -0.28880558323E+02  0.30286191529E+02  0.66590626866E+02  0.10000000000E+01 0.  0.
<mgrwt>
<rscale>  0 0.12500229E+03</rscale>
<asrwt>0</asrwt>
<pdfrwt beam="2">  1        4 0.13263337E-01 0.12500229E+03</pdfrwt>
<pdfrwt beam="1">  1       -4 0.18407855E-01 0.12500229E+03</pdfrwt>
<totfact> 0.19742903E+03</totfact>
</mgrwt>
</event>
<event>
 5    1  0.1440092E-002  0.1250130E+03  0.7818608E-02  0.1235049E+00
         -4   -1    0    0    0  501 -0.00000000000E+00  0.00000000000E+00  0.13055348588E+02  0.13116974756E+02  0.12700000000E+01 0. -1.
          4   -1    0    0  501    0  0.00000000000E+00 -0.00000000000E+00 -0.29850130413E+03  0.29850400578E+03  0.12700000000E+01 0. -1.
         25    2    1    2    0    0  0.00000000000E+00  0.00000000000E+00 -0.28544595554E+03  0.31162098054E+03  0.12501296723E+03 0.  0.
    9000005    1    3    3    0    0  0.12945570841E+02  0.49358917307E+02 -0.23267386771E+03  0.23820583376E+03  0.10000000000E+01 0.  0.
    9000005    1    3    3    0    0 -0.12945570841E+02 -0.49358917307E+02 -0.52772087831E+02  0.73415146776E+02  0.10000000000E+01 0.  0.
<mgrwt>
<rscale>  0 0.12501297E+03</rscale>
<asrwt>0</asrwt>
<pdfrwt beam="2">  1        4 0.74633345E-01 0.12501297E+03</pdfrwt>
<pdfrwt beam="1">  1       -4 0.32718791E-02 0.12501297E+03</pdfrwt>
<totfact> 0.12647742E+03</totfact>
</mgrwt>
</event>
<event>
 5    1  0.1440092E-002  0.1249914E+03  0.7818608E-02  0.1235083E+00
         -4   -1    0    0    0  501 -0.00000000000E+00  0.00000000000E+00  0.12712853671E+03  0.12713488013E+03  0.12700000000E+01 0.  1.
          4   -1    0    0  501    0  0.00000000000E+00 -0.00000000000E+00 -0.30702304443E+02  0.30728559974E+02  0.12700000000E+01 0.  1.
         25    2    1    2    0    0  0.00000000000E+00  0.00000000000E+00  0.96426232262E+02  0.15786344010E+03  0.12499138951E+03 0.  0.
    9000005    1    3    3    0    0  0.28396236066E+02  0.27199528216E+02  0.10955034205E+03  0.11639775772E+03  0.10000000000E+01 0.  0.
    9000005    1    3    3    0    0 -0.28396236066E+02 -0.27199528216E+02 -0.13124109789E+02  0.41465682385E+02  0.10000000000E+01 0.  0.
<mgrwt>
<rscale>  0 0.12499139E+03</rscale>
<asrwt>0</asrwt>
<pdfrwt beam="2">  1        4 0.76796510E-02 0.12499139E+03</pdfrwt>
<pdfrwt beam="1">  1       -4 0.31786209E-01 0.12499139E+03</pdfrwt>
<totfact> 0.18162405E+03</totfact>
</mgrwt>
</event>
<event>
 5    1  0.1440092E-002  0.1249815E+03  0.7818608E-02  0.1235098E+00
         -4   -1    0    0    0  501 -0.00000000000E+00  0.00000000000E+00  0.62927279870E+01  0.64196047790E+01  0.12700000000E+01 0. -1.
          4   -1    0    0  501    0  0.00000000000E+00 -0.00000000000E+00 -0.61425147935E+03  0.61425279225E+03  0.12700000000E+01 0. -1.
         25    2    1    2    0    0  0.00000000000E+00  0.00000000000E+00 -0.60795875136E+03  0.62067239702E+03  0.12498152292E+03 0.  0.
    9000005    1    3    3    0    0  0.11627315367E+02  0.53842921981E+02 -0.45044524918E+03  0.45380191408E+03  0.10000000000E+01 0.  0.
    9000005    1    3    3    0    0 -0.11627315367E+02 -0.53842921981E+02 -0.15751350218E+03  0.16687048295E+03  0.10000000000E+01 0.  0.
<mgrwt>
<rscale>  0 0.12498152E+03</rscale>
<asrwt>0</asrwt>
<pdfrwt beam="2">  1        4 0.15357869E+00 0.12498152E+03</pdfrwt>
<pdfrwt beam="1">  1       -4 0.15892078E-02 0.12498152E+03</pdfrwt>
<totfact> 0.70990981E+02</totfact>
</mgrwt>
</event>
<event>
 5    1  0.1440092E-002  0.1250000E+03  0.7818608E-02  0.1235069E+00
          4   -1    0    0  501    0  0.00000000000E+00  0.00000000000E+00  0.31601641018E+01  0.34058093239E+01  0.12700000000E+01 0.  1.
         -4   -1    0    0    0  501 -0.00000000000E+00 -0.00000000000E+00 -0.11895999218E+04  0.11896005997E+04  0.12700000000E+01 0.  1.
         25    2    1    2    0    0  0.00000000000E+00  0.00000000000E+00 -0.11864397577E+04  0.11930064090E+04  0.12499997346E+03 0.  0.
    9000005    1    3    3    0    0 -0.36166429827E+02  0.22076818142E+02 -0.10316080536E+04  0.10324783644E+04  0.10000000000E+01 0.  0.
    9000005    1    3    3    0    0  0.36166429827E+02 -0.22076818142E+02 -0.15483170403E+03  0.16052804464E+03  0.10000000000E+01 0.  0.
<mgrwt>
<rscale>  0 0.12499997E+03</rscale>
<asrwt>0</asrwt>
<pdfrwt beam="1">  1        4 0.82083549E-03 0.12499997E+03</pdfrwt>
<pdfrwt beam="2">  1       -4 0.29742929E+00 0.12499997E+03</pdfrwt>
<totfact> 0.25570667E+02</totfact>
</mgrwt>
</event>
<event>
 5    1  0.1440092E-002  0.1250166E+03  0.7818608E-02  0.1235043E+00
          4   -1    0    0  501    0  0.00000000000E+00  0.00000000000E+00  0.94399135157E+01  0.95249602195E+01  0.12700000000E+01 0.  1.
         -4   -1    0    0    0  501 -0.00000000000E+00 -0.00000000000E+00 -0.41196887430E+03  0.41197083184E+03  0.12700000000E+01 0.  1.
         25    2    1    2    0    0  0.00000000000E+00  0.00000000000E+00 -0.40252896078E+03  0.42149579206E+03  0.12501655274E+03 0.  0.
    9000005    1    3    3    0    0 -0.36413685692E+02 -0.49951468173E+02 -0.23238105842E+03  0.24046426344E+03  0.10000000000E+01 0.  0.
    9000005    1    3    3    0    0  0.36413685692E+02  0.49951468173E+02 -0.17014790237E+03  0.18103152863E+03  0.10000000000E+01 0.  0.
<mgrwt>
<rscale>  0 0.12501655E+03</rscale>
<asrwt>0</asrwt>
<pdfrwt beam="1">  1        4 0.23708553E-02 0.12501655E+03</pdfrwt>
<pdfrwt beam="2">  1       -4 0.10300303E+00 0.12501655E+03</pdfrwt>
<totfact> 0.10132923E+03</totfact>
</mgrwt>
</event>
<event>
 5    1  0.1440092E-002  0.1250091E+03  0.7818608E-02  0.1235055E+00
          4   -1    0    0  501    0  0.00000000000E+00  0.00000000000E+00  0.40415377309E+02  0.40435326425E+02  0.12700000000E+01 0. -1.
         -4   -1    0    0    0  501 -0.00000000000E+00 -0.00000000000E+00 -0.96618593286E+02  0.96626939663E+02  0.12700000000E+01 0. -1.
         25    2    1    2    0    0  0.00000000000E+00  0.00000000000E+00 -0.56203215977E+02  0.13706226609E+03  0.12500905287E+03 0.  0.
    9000005    1    3    3    0    0 -0.30772880346E+02 -0.19676223267E+02  0.27499815631E+02  0.45731431058E+02  0.10000000000E+01 0.  0.
    9000005    1    3    3    0    0  0.30772880346E+02  0.19676223267E+02 -0.83703031608E+02  0.91330835030E+02  0.10000000000E+01 0.  0.
<mgrwt>
<rscale>  0 0.12500905E+03</rscale>
<asrwt>0</asrwt>
<pdfrwt beam="1">  1        4 0.10107381E-01 0.12500905E+03</pdfrwt>
<pdfrwt beam="2">  1       -4 0.24158185E-01 0.12500905E+03</pdfrwt>
<totfact> 0.19187603E+03</totfact>
</mgrwt>
</event>
<event>
 5    1  0.1440092E-002  0.1250020E+03  0.7818608E-02  0.1235066E+00
          4   -1    0    0  501    0  0.00000000000E+00  0.00000000000E+00  0.21838250757E+03  0.21838620037E+03  0.12700000000E+01 0.  1.
         -4   -1    0    0    0  501 -0.00000000000E+00 -0.00000000000E+00 -0.17861384555E+02  0.17906478108E+02  0.12700000000E+01 0.  1.
         25    2    1    2    0    0  0.00000000000E+00  0.00000000000E+00  0.20052112301E+03  0.23629267848E+03  0.12500203649E+03 0.  0.
    9000005    1    3    3    0    0  0.51407910860E+02  0.72408346854E+01  0.16601985505E+03  0.17395055406E+03  0.10000000000E+01 0.  0.
    9000005    1    3    3    0    0 -0.51407910860E+02 -0.72408346854E+01  0.34501267958E+02  0.62342124416E+02  0.10000000000E+01 0.  0.
<mgrwt>
<rscale>  0 0.12500204E+03</rscale>
<asrwt>0</asrwt>
<pdfrwt beam="1">  1        4 0.54601726E-01 0.12500204E+03</pdfrwt>
<pdfrwt beam="2">  1       -4 0.44714444E-02 0.12500204E+03</pdfrwt>
<totfact> 0.14964334E+03</totfact>
</mgrwt>
</event>
<event>
 5    1  0.1440092E-002  0.1250011E+03  0.7818608E-02  0.1235067E+00
         -4   -1    0    0    0  501 -0.00000000000E+00  0.00000000000E+00  0.13756040498E+03  0.13756626737E+03  0.12700000000E+01 0. -1.
          4   -1    0    0  501    0  0.00000000000E+00 -0.00000000000E+00 -0.28376467223E+02  0.28404872682E+02  0.12700000000E+01 0. -1.
         25    2    1    2    0    0  0.00000000000E+00  0.00000000000E+00  0.10918393776E+03  0.16597114006E+03  0.12500114826E+03 0.  0.
    9000005    1    3    3    0    0 -0.70864280208E+01  0.38064204779E+02  0.11972275149E+03  0.12583178602E+03  0.10000000000E+01 0.  0.
    9000005    1    3    3    0    0  0.70864280208E+01 -0.38064204779E+02 -0.10538813733E+02  0.40139354037E+02  0.10000000000E+01 0.  0.
<mgrwt>
<rscale>  0 0.12500115E+03</rscale>
<asrwt>0</asrwt>
<pdfrwt beam="2">  1        4 0.70984004E-02 0.12500115E+03</pdfrwt>
<pdfrwt beam="1">  1       -4 0.34394384E-01 0.12500115E+03</pdfrwt>
<totfact> 0.17779837E+03</totfact>
</mgrwt>
</event>
<event>
 5    1  0.1440092E-002  0.1249539E+03  0.7818608E-02  0.1235141E+00
         -4   -1    0    0    0  501 -0.00000000000E+00  0.00000000000E+00  0.20248861157E+03  0.20249259422E+03  0.12700000000E+01 0.  1.
          4   -1    0    0  501    0  0.00000000000E+00 -0.00000000000E+00 -0.19251887321E+02  0.19293731246E+02  0.12700000000E+01 0.  1.
         25    2    1    2    0    0  0.00000000000E+00  0.00000000000E+00  0.18323672425E+03  0.22178632547E+03  0.12495389971E+03 0.  0.
    9000005    1    3    3    0    0 -0.23483366743E+02 -0.56037195145E+02  0.11738464385E+03  0.13218090015E+03  0.10000000000E+01 0.  0.
    9000005    1    3    3    0    0  0.23483366743E+02  0.56037195145E+02  0.65852080398E+02  0.89605425316E+02  0.10000000000E+01 0.  0.
<mgrwt>
<rscale>  0 0.12495390E+03</rscale>
<asrwt>0</asrwt>
<pdfrwt beam="2">  1        4 0.48187001E-02 0.12495390E+03</pdfrwt>
<pdfrwt beam="1">  1       -4 0.50627882E-01 0.12495390E+03</pdfrwt>
<totfact> 0.15501794E+03</totfact>
</mgrwt>
</event>
<event>
 5    1  0.1440092E-002  0.1249971E+03  0.7818608E-02  0.1235074E+00
          4   -1    0    0  501    0  0.00000000000E+00  0.00000000000E+00  0.14540085087E+03  0.14540639715E+03  0.12700000000E+01 0. -1.
         -4   -1    0    0    0  501 -0.00000000000E+00 -0.00000000000E+00 -0.26843050496E+02  0.26873076861E+02  0.12700000000E+01 0. -1.
         25    2    1    2    0    0  0.00000000000E+00  0.00000000000E+00  0.11855780037E+03  0.17227947401E+03  0.12499706052E+03 0.  0.
    9000005    1    3    3    0    0 -0.61387638198E+01  0.53174061978E+02  0.10372459851E+03  0.11672599378E+03  0.10000000000E+01 0.  0.
    9000005    1    3    3    0    0  0.61387638198E+01 -0.53174061978E+02  0.14833201863E+02  0.55553480233E+02  0.10000000000E+01 0.  0.
<mgrwt>
<rscale>  0 0.12499706E+03</rscale>
<asrwt>0</asrwt>
<pdfrwt beam="1">  1        4 0.36354659E-01 0.12499706E+03</pdfrwt>
<pdfrwt beam="2">  1       -4 0.67152093E-02 0.12499706E+03</pdfrwt>
<totfact> 0.17495914E+03</totfact>
</mgrwt>
</event>
<event>
 5    1  0.1440092E-002  0.1249991E+03  0.7818608E-02  0.1235071E+00
         -4   -1    0    0    0  501 -0.00000000000E+00  0.00000000000E+00  0.34984433728E+02  0.35007477819E+02  0.12700000000E+01 0.  1.
          4   -1    0    0  501    0  0.00000000000E+00 -0.00000000000E+00 -0.11159179089E+03  0.11159901744E+03  0.12700000000E+01 0.  1.
         25    2    1    2    0    0  0.00000000000E+00  0.00000000000E+00 -0.76607357163E+02  0.14660649526E+03  0.12499910912E+03 0.  0.
    9000005    1    3    3    0    0  0.37476301415E+02 -0.48384141822E+02 -0.23482140436E+02  0.65558441615E+02  0.10000000000E+01 0.  0.
    9000005    1    3    3    0    0 -0.37476301415E+02  0.48384141822E+02 -0.53125216727E+02  0.81048053646E+02  0.10000000000E+01 0.  0.
<mgrwt>
<rscale>  0 0.12499911E+03</rscale>
<asrwt>0</asrwt>
<pdfrwt beam="2">  1        4 0.27901731E-01 0.12499911E+03</pdfrwt>
<pdfrwt beam="1">  1       -4 0.87498925E-02 0.12499911E+03</pdfrwt>
<totfact> 0.18707296E+03</totfact>
</mgrwt>
</event>
<event>
 5    1  0.1440092E-002  0.1249778E+03  0.7818608E-02  0.1235104E+00
         -4   -1    0    0    0  501 -0.00000000000E+00  0.00000000000E+00  0.12522035184E+03  0.12522679192E+03  0.12700000000E+01 0. -1.
          4   -1    0    0  501    0  0.00000000000E+00 -0.00000000000E+00 -0.31163745604E+02  0.31189612695E+02  0.12700000000E+01 0. -1.
         25    2    1    2    0    0  0.00000000000E+00  0.00000000000E+00  0.94056606232E+02  0.15641640461E+03  0.12497778385E+03 0.  0.
    9000005    1    3    3    0    0 -0.32719312537E+02 -0.34856863356E+02 -0.33194360133E+01  0.47933005240E+02  0.10000000000E+01 0.  0.
    9000005    1    3    3    0    0  0.32719312537E+02  0.34856863356E+02  0.97376042245E+02  0.10848339937E+03  0.10000000000E+01 0.  0.
<mgrwt>
<rscale>  0 0.12497778E+03</rscale>
<asrwt>0</asrwt>
<pdfrwt beam="2">  1        4 0.77949749E-02 0.12497778E+03</pdfrwt>
<pdfrwt beam="1">  1       -4 0.31309126E-01 0.12497778E+03</pdfrwt>
<totfact> 0.18237138E+03</totfact>
</mgrwt>
</event>
<event>
 5    1  0.1440092E-002  0.1250016E+03  0.7818608E-02  0.1235067E+00
          4   -1    0    0  501    0  0.00000000000E+00  0.00000000000E+00  0.48646534265E+01  0.50276985749E+01  0.12700000000E+01 0.  1.
         -4   -1    0    0    0  501 -0.00000000000E+00 -0.00000000000E+00 -0.78960778719E+03  0.78960880851E+03  0.12700000000E+01 0.  1.
         25    2    1    2    0    0  0.00000000000E+00  0.00000000000E+00 -0.78474313376E+03  0.79463650709E+03  0.12500156966E+03 0.  0.
    9000005    1    3    3    0    0 -0.41382567462E+02  0.46554892107E+02 -0.42445605414E+03  0.42900328293E+03  0.10000000000E+01 0.  0.
    9000005    1    3    3    0    0  0.41382567462E+02 -0.46554892107E+02 -0.36028707961E+03  0.36563322416E+03  0.10000000000E+01 0.  0.
<mgrwt>
<rscale>  0 0.12500157E+03</rscale>
<asrwt>0</asrwt>
<pdfrwt beam="1">  1        4 0.12366744E-02 0.12500157E+03</pdfrwt>
<pdfrwt beam="2">  1       -4 0.19742202E+00 0.12500157E+03</pdfrwt>
<totfact> 0.52952364E+02</totfact>
</mgrwt>
</event>
<event>
 5    1  0.1440092E-002  0.1250045E+03  0.7818608E-02  0.1235062E+00
          4   -1    0    0  501    0  0.00000000000E+00  0.00000000000E+00  0.26856330271E+02  0.26886341805E+02  0.12700000000E+01 0. -1.
         -4   -1    0    0    0  501 -0.00000000000E+00 -0.00000000000E+00 -0.14534627277E+03  0.14535182114E+03  0.12700000000E+01 0. -1.
         25    2    1    2    0    0  0.00000000000E+00  0.00000000000E+00 -0.11848994250E+03  0.17223816294E+03  0.12500447312E+03 0.  0.
    9000005    1    3    3    0    0 -0.57147902061E+02  0.12075560183E+02 -0.89864010482E+02  0.10718321811E+03  0.10000000000E+01 0.  0.
    9000005    1    3    3    0    0  0.57147902061E+02 -0.12075560183E+02 -0.28625932014E+02  0.65054944834E+02  0.10000000000E+01 0.  0.
<mgrwt>
<rscale>  0 0.12500447E+03</rscale>
<asrwt>0</asrwt>
<pdfrwt beam="1">  1        4 0.67185280E-02 0.12500447E+03</pdfrwt>
<pdfrwt beam="2">  1       -4 0.36341011E-01 0.12500447E+03</pdfrwt>
<totfact> 0.17494751E+03</totfact>
</mgrwt>
</event>
<event>
 5    1  0.1440092E-002  0.1249998E+03  0.7818608E-02  0.1235070E+00
          4   -1    0    0  501    0  0.00000000000E+00  0.00000000000E+00  0.53720904649E+02  0.53735914399E+02  0.12700000000E+01 0.  1.
         -4   -1    0    0    0  501 -0.00000000000E+00 -0.00000000000E+00 -0.72682818921E+02  0.72693913543E+02  0.12700000000E+01 0.  1.
         25    2    1    2    0    0  0.00000000000E+00  0.00000000000E+00 -0.18961914272E+02  0.12642982794E+03  0.12499978880E+03 0.  0.
    9000005    1    3    3    0    0  0.53489342790E+02 -0.21859603795E+02 -0.33549937529E+02  0.66824773688E+02  0.10000000000E+01 0.  0.
    9000005    1    3    3    0    0 -0.53489342790E+02  0.21859603795E+02  0.14588023257E+02  0.59605054255E+02  0.10000000000E+01 0.  0.
<mgrwt>
<rscale>  0 0.12499979E+03</rscale>
<asrwt>0</asrwt>
<pdfrwt beam="1">  1        4 0.13433489E-01 0.12499979E+03</pdfrwt>
<pdfrwt beam="2">  1       -4 0.18173968E-01 0.12499979E+03</pdfrwt>
<totfact> 0.19757808E+03</totfact>
</mgrwt>
</event>
<event>
 5    1  0.1440092E-002  0.1249996E+03  0.7818608E-02  0.1235070E+00
         -4   -1    0    0    0  501 -0.00000000000E+00  0.00000000000E+00  0.54226824742E+03  0.54226973460E+03  0.12700000000E+01 0. -1.
          4   -1    0    0  501    0  0.00000000000E+00 -0.00000000000E+00 -0.71460087421E+01  0.72579846336E+01  0.12700000000E+01 0. -1.
         25    2    1    2    0    0  0.00000000000E+00  0.00000000000E+00  0.53512223868E+03  0.54952771923E+03  0.12499961550E+03 0.  0.
    9000005    1    3    3    0    0  0.18780543637E+02  0.58804744362E+02  0.31030174965E+03  0.31638407453E+03  0.10000000000E+01 0.  0.
    9000005    1    3    3    0    0 -0.18780543637E+02 -0.58804744362E+02  0.22482048903E+03  0.23314364470E+03  0.10000000000E+01 0.  0.
<mgrwt>
<rscale>  0 0.12499962E+03</rscale>
<asrwt>0</asrwt>
<pdfrwt beam="2">  1        4 0.18006851E-02 0.12499962E+03</pdfrwt>
<pdfrwt beam="1">  1       -4 0.13558124E+00 0.12499962E+03</pdfrwt>
<totfact> 0.80233286E+02</totfact>
</mgrwt>
</event>
<event>
 5    1  0.1440092E-002  0.1250025E+03  0.7818608E-02  0.1235065E+00
          4   -1    0    0  501    0  0.00000000000E+00  0.00000000000E+00  0.12832623844E+03  0.12833252266E+03  0.12700000000E+01 0. -1.
         -4   -1    0    0    0  501 -0.00000000000E+00 -0.00000000000E+00 -0.30420915226E+02  0.30447413407E+02  0.12700000000E+01 0. -1.
         25    2    1    2    0    0  0.00000000000E+00  0.00000000000E+00  0.97905323213E+02  0.15877993607E+03  0.12500246311E+03 0.  0.
    9000005    1    3    3    0    0 -0.88724716730E+00 -0.45714037245E+02  0.10306504297E+03  0.11275621265E+03  0.10000000000E+01 0.  0.
    9000005    1    3    3    0    0  0.88724716730E+00  0.45714037245E+02 -0.51597197606E+01  0.46023723413E+02  0.10000000000E+01 0.  0.
<mgrwt>
<rscale>  0 0.12500246E+03</rscale>
<asrwt>0</asrwt>
<pdfrwt beam="1">  1        4 0.32085657E-01 0.12500246E+03</pdfrwt>
<pdfrwt beam="2">  1       -4 0.76093267E-02 0.12500246E+03</pdfrwt>
<totfact> 0.18114287E+03</totfact>
</mgrwt>
</event>
<event>
 5    1  0.1440092E-002  0.1250001E+03  0.7818608E-02  0.1235069E+00
         -4   -1    0    0    0  501 -0.00000000000E+00  0.00000000000E+00  0.41158569970E+02  0.41178159040E+02  0.12700000000E+01 0. -1.
          4   -1    0    0  501    0  0.00000000000E+00 -0.00000000000E+00 -0.94861013831E+02  0.94869514835E+02  0.12700000000E+01 0. -1.
         25    2    1    2    0    0  0.00000000000E+00  0.00000000000E+00 -0.53702443861E+02  0.13604767388E+03  0.12500006836E+03 0.  0.
    9000005    1    3    3    0    0 -0.27482793778E+02 -0.42116981694E+02  0.13523307410E+02  0.52086696422E+02  0.10000000000E+01 0.  0.
    9000005    1    3    3    0    0  0.27482793778E+02  0.42116981694E+02 -0.67225751271E+02  0.83960977453E+02  0.10000000000E+01 0.  0.
<mgrwt>
<rscale>  0 0.12500007E+03</rscale>
<asrwt>0</asrwt>
<pdfrwt beam="2">  1        4 0.23718764E-01 0.12500007E+03</pdfrwt>
<pdfrwt beam="1">  1       -4 0.10293154E-01 0.12500007E+03</pdfrwt>
<totfact> 0.19244370E+03</totfact>
</mgrwt>
</event>
<event>
 5    1  0.1440092E-002  0.1250002E+03  0.7818608E-02  0.1235069E+00
          4   -1    0    0  501    0  0.00000000000E+00  0.00000000000E+00  0.21074979965E+02  0.21113211043E+02  0.12700000000E+01 0. -1.
         -4   -1    0    0    0  501 -0.00000000000E+00 -0.00000000000E+00 -0.18514233515E+03  0.18514669094E+03  0.12700000000E+01 0. -1.
         25    2    1    2    0    0  0.00000000000E+00  0.00000000000E+00 -0.16406735519E+03  0.20625990198E+03  0.12500020051E+03 0.  0.
    9000005    1    3    3    0    0  0.54987721689E+02  0.19776188325E+02 -0.11857888305E+03  0.13219946546E+03  0.10000000000E+01 0.  0.
    9000005    1    3    3    0    0 -0.54987721689E+02 -0.19776188325E+02 -0.45488472136E+02  0.74060436526E+02  0.10000000000E+01 0.  0.
<mgrwt>
<rscale>  0 0.12500020E+03</rscale>
<asrwt>0</asrwt>
<pdfrwt beam="1">  1        4 0.52740689E-02 0.12500020E+03</pdfrwt>
<pdfrwt beam="2">  1       -4 0.46290902E-01 0.12500020E+03</pdfrwt>
<totfact> 0.16074343E+03</totfact>
</mgrwt>
</event>
<event>
 5    1  0.1440092E-002  0.1250030E+03  0.7818608E-02  0.1235065E+00
         -4   -1    0    0    0  501 -0.00000000000E+00  0.00000000000E+00  0.39485775249E+03  0.39485979486E+03  0.12700000000E+01 0. -1.
          4   -1    0    0  501    0  0.00000000000E+00 -0.00000000000E+00 -0.98504402812E+01  0.99319722983E+01  0.12700000000E+01 0. -1.
         25    2    1    2    0    0  0.00000000000E+00  0.00000000000E+00  0.38500731220E+03  0.40479176716E+03  0.12500297720E+03 0.  0.
    9000005    1    3    3    0    0 -0.13399229710E+02  0.47397730414E+02  0.31705460974E+03  0.32085933018E+03  0.10000000000E+01 0.  0.
    9000005    1    3    3    0    0  0.13399229710E+02 -0.47397730414E+02  0.67952702459E+02  0.83932436976E+02  0.10000000000E+01 0.  0.
<mgrwt>
<rscale>  0 0.12500298E+03</rscale>
<asrwt>0</asrwt>
<pdfrwt beam="2">  1        4 0.24730569E-02 0.12500298E+03</pdfrwt>
<pdfrwt beam="1">  1       -4 0.98724883E-01 0.12500298E+03</pdfrwt>
<totfact> 0.10470449E+03</totfact>
</mgrwt>
</event>
<event>
 5    1  0.1440092E-002  0.1249992E+03  0.7818608E-02  0.1235070E+00
          4   -1    0    0  501    0  0.00000000000E+00  0.00000000000E+00  0.11210152105E+03  0.11210871474E+03  0.12700000000E+01 0. -1.
         -4   -1    0    0    0  501 -0.00000000000E+00 -0.00000000000E+00 -0.34825326278E+02  0.34848475582E+02  0.12700000000E+01 0. -1.
         25    2    1    2    0    0  0.00000000000E+00  0.00000000000E+00  0.77276194769E+02  0.14695719032E+03  0.12499922204E+03 0.  0.
    9000005    1    3    3    0    0 -0.37132724841E+02 -0.14423861992E+02 -0.17968844030E+02  0.43712314108E+02  0.10000000000E+01 0.  0.
    9000005    1    3    3    0    0  0.37132724841E+02  0.14423861992E+02  0.95245038799E+02  0.10324487622E+03  0.10000000000E+01 0.  0.
<mgrwt>
<rscale>  0 0.12499922E+03</rscale>
<asrwt>0</asrwt>
<pdfrwt beam="1">  1        4 0.28029173E-01 0.12499922E+03</pdfrwt>
<pdfrwt beam="2">  1       -4 0.87101246E-02 0.12499922E+03</pdfrwt>
<totfact> 0.18689753E+03</totfact>
</mgrwt>
</event>
<event>
 5    1  0.1440092E-002  0.1249996E+03  0.7818608E-02  0.1235070E+00
          4   -1    0    0  501    0  0.00000000000E+00  0.00000000000E+00  0.80673440700E+02  0.80683436556E+02  0.12700000000E+01 0. -1.
         -4   -1    0    0    0  501 -0.00000000000E+00 -0.00000000000E+00 -0.48398906481E+02  0.48415566180E+02  0.12700000000E+01 0. -1.
         25    2    1    2    0    0  0.00000000000E+00  0.00000000000E+00  0.32274534219E+02  0.12909900274E+03  0.12499962779E+03 0.  0.
    9000005    1    3    3    0    0  0.36810319150E+02  0.50206294223E+02  0.21752022435E+02  0.65953180785E+02  0.10000000000E+01 0.  0.
    9000005    1    3    3    0    0 -0.36810319150E+02 -0.50206294223E+02  0.10522511785E+02  0.63145821951E+02  0.10000000000E+01 0.  0.
<mgrwt>
<rscale>  0 0.12499963E+03</rscale>
<asrwt>0</asrwt>
<pdfrwt beam="1">  1        4 0.20171692E-01 0.12499963E+03</pdfrwt>
<pdfrwt beam="2">  1       -4 0.12103059E-01 0.12499963E+03</pdfrwt>
<totfact> 0.19613114E+03</totfact>
</mgrwt>
</event>
<event>
 5    1  0.1440092E-002  0.1250101E+03  0.7818608E-02  0.1235053E+00
          4   -1    0    0  501    0  0.00000000000E+00  0.00000000000E+00  0.18054988363E+02  0.18099599576E+02  0.12700000000E+01 0.  1.
         -4   -1    0    0    0  501 -0.00000000000E+00 -0.00000000000E+00 -0.21607446617E+03  0.21607819842E+03  0.12700000000E+01 0.  1.
         25    2    1    2    0    0  0.00000000000E+00  0.00000000000E+00 -0.19801947781E+03  0.23417779799E+03  0.12501010952E+03 0.  0.
    9000005    1    3    3    0    0  0.78076541688E+01 -0.45272889740E+02 -0.17838179480E+03  0.18420547962E+03  0.10000000000E+01 0.  0.
    9000005    1    3    3    0    0 -0.78076541688E+01  0.45272889740E+02 -0.19637683011E+02  0.49972318368E+02  0.10000000000E+01 0.  0.
<mgrwt>
<rscale>  0 0.12501011E+03</rscale>
<asrwt>0</asrwt>
<pdfrwt beam="1">  1        4 0.45197907E-02 0.12501011E+03</pdfrwt>
<pdfrwt beam="2">  1       -4 0.54024651E-01 0.12501011E+03</pdfrwt>
<totfact> 0.15035668E+03</totfact>
</mgrwt>
</event>
<event>
 5    1  0.1440092E-002  0.1250000E+03  0.7818608E-02  0.1235069E+00
         -4   -1    0    0    0  501 -0.00000000000E+00  0.00000000000E+00  0.13812033050E+02  0.13870297652E+02  0.12700000000E+01 0.  1.
          4   -1    0    0  501    0  0.00000000000E+00 -0.00000000000E+00 -0.28216004258E+03  0.28216290069E+03  0.12700000000E+01 0.  1.
         25    2    1    2    0    0  0.00000000000E+00  0.00000000000E+00 -0.26834800953E+03  0.29603319834E+03  0.12500000122E+03 0.  0.
    9000005    1    3    3    0    0  0.80756772083E+01  0.46402793558E+02 -0.36907338182E+02  0.59846365170E+02  0.10000000000E+01 0.  0.
    9000005    1    3    3    0    0 -0.80756772083E+01 -0.46402793558E+02 -0.23144067134E+03  0.23618683317E+03  0.10000000000E+01 0.  0.
<mgrwt>
<rscale>  0 0.12500000E+03</rscale>
<asrwt>0</asrwt>
<pdfrwt beam="2">  1        4 0.70547632E-01 0.12500000E+03</pdfrwt>
<pdfrwt beam="1">  1       -4 0.34606495E-02 0.12500000E+03</pdfrwt>
<totfact> 0.13082967E+03</totfact>
</mgrwt>
</event>
<event>
 5    1  0.1440092E-002  0.1250080E+03  0.7818608E-02  0.1235057E+00
         -4   -1    0    0    0  501 -0.00000000000E+00  0.00000000000E+00  0.76101430164E+02  0.76112026468E+02  0.12700000000E+01 0.  1.
          4   -1    0    0  501    0  0.00000000000E+00 -0.00000000000E+00 -0.51314097804E+02  0.51329811352E+02  0.12700000000E+01 0.  1.
         25    2    1    2    0    0  0.00000000000E+00  0.00000000000E+00  0.24787332361E+02  0.12744183782E+03  0.12500804047E+03 0.  0.
    9000005    1    3    3    0    0  0.59746630594E+02 -0.16896159358E+02  0.51409134035E+01  0.62310264476E+02  0.10000000000E+01 0.  0.
    9000005    1    3    3    0    0 -0.59746630594E+02  0.16896159358E+02  0.19646418957E+02  0.65131573344E+02  0.10000000000E+01 0.  0.
<mgrwt>
<rscale>  0 0.12500804E+03</rscale>
<asrwt>0</asrwt>
<pdfrwt beam="2">  1        4 0.12831813E-01 0.12500804E+03</pdfrwt>
<pdfrwt beam="1">  1       -4 0.19028646E-01 0.12500804E+03</pdfrwt>
<totfact> 0.19699263E+03</totfact>
</mgrwt>
</event>
<event>
 5    1  0.1440092E-002  0.1250049E+03  0.7818608E-02  0.1235062E+00
          4   -1    0    0  501    0  0.00000000000E+00  0.00000000000E+00  0.43871191864E+03  0.43871375686E+03  0.12700000000E+01 0.  1.
         -4   -1    0    0    0  501 -0.00000000000E+00 -0.00000000000E+00 -0.88574524842E+01  0.89480369081E+01  0.12700000000E+01 0.  1.
         25    2    1    2    0    0  0.00000000000E+00  0.00000000000E+00  0.42985446616E+03  0.44766179377E+03  0.12500487800E+03 0.  0.
    9000005    1    3    3    0    0 -0.54445623176E+02 -0.30667985409E+02  0.21793128394E+03  0.22671545102E+03  0.10000000000E+01 0.  0.
    9000005    1    3    3    0    0  0.54445623176E+02  0.30667985409E+02  0.21192318222E+03  0.22094634275E+03  0.10000000000E+01 0.  0.
<mgrwt>
<rscale>  0 0.12500488E+03</rscale>
<asrwt>0</asrwt>
<pdfrwt beam="1">  1        4 0.10968953E+00 0.12500488E+03</pdfrwt>
<pdfrwt beam="2">  1       -4 0.22259160E-02 0.12500488E+03</pdfrwt>
<totfact> 0.96427588E+02</totfact>
</mgrwt>
</event>
<event>
 5    1  0.1440092E-002  0.1249956E+03  0.7818608E-02  0.1235076E+00
          4   -1    0    0  501    0  0.00000000000E+00  0.00000000000E+00  0.20782807126E+03  0.20783195159E+03  0.12700000000E+01 0. -1.
         -4   -1    0    0    0  501 -0.00000000000E+00 -0.00000000000E+00 -0.18768760006E+02  0.18811678611E+02  0.12700000000E+01 0. -1.
         25    2    1    2    0    0  0.00000000000E+00  0.00000000000E+00  0.18905931125E+03  0.22664363020E+03  0.12499564769E+03 0.  0.
    9000005    1    3    3    0    0  0.36263818375E+02  0.48629750535E+02  0.67327796968E+02  0.90630841355E+02  0.10000000000E+01 0.  0.
    9000005    1    3    3    0    0 -0.36263818375E+02 -0.48629750535E+02  0.12173151428E+03  0.13601278885E+03  0.10000000000E+01 0.  0.
<mgrwt>
<rscale>  0 0.12499565E+03</rscale>
<asrwt>0</asrwt>
<pdfrwt beam="1">  1        4 0.51962868E-01 0.12499565E+03</pdfrwt>
<pdfrwt beam="2">  1       -4 0.46980399E-02 0.12499565E+03</pdfrwt>
<totfact> 0.15309524E+03</totfact>
</mgrwt>
</event>
<event>
 5    1  0.1440092E-002  0.1250026E+03  0.7818608E-02  0.1235065E+00
          4   -1    0    0  501    0  0.00000000000E+00  0.00000000000E+00  0.37556251652E+03  0.37556466383E+03  0.12700000000E+01 0.  1.
         -4   -1    0    0    0  501 -0.00000000000E+00 -0.00000000000E+00 -0.10360541658E+02  0.10438090029E+02  0.12700000000E+01 0.  1.
         25    2    1    2    0    0  0.00000000000E+00  0.00000000000E+00  0.36520197486E+03  0.38600275386E+03  0.12500257414E+03 0.  0.
    9000005    1    3    3    0    0  0.59340856889E+02 -0.10762631200E+02  0.23317561550E+03  0.24085065745E+03  0.10000000000E+01 0.  0.
    9000005    1    3    3    0    0 -0.59340856889E+02  0.10762631200E+02  0.13202635936E+03  0.14515209641E+03  0.10000000000E+01 0.  0.
<mgrwt>
<rscale>  0 0.12500257E+03</rscale>
<asrwt>0</asrwt>
<pdfrwt beam="1">  1        4 0.93900582E-01 0.12500257E+03</pdfrwt>
<pdfrwt beam="2">  1       -4 0.26000976E-02 0.12500257E+03</pdfrwt>
<totfact> 0.10862679E+03</totfact>
</mgrwt>
</event>
<event>
 5    1  0.1440092E-002  0.1249986E+03  0.7818608E-02  0.1235071E+00
          4   -1    0    0  501    0  0.00000000000E+00  0.00000000000E+00  0.18196104263E+04  0.18196108695E+04  0.12700000000E+01 0.  1.
         -4   -1    0    0    0  501 -0.00000000000E+00 -0.00000000000E+00 -0.19583863909E+01  0.23341330845E+01  0.12700000000E+01 0.  1.
         25    2    1    2    0    0  0.00000000000E+00  0.00000000000E+00  0.18176520399E+04  0.18219450026E+04  0.12499861701E+03 0.  0.
    9000005    1    3    3    0    0  0.37800296775E+01 -0.48010314277E+02  0.14892774087E+04  0.14900562000E+04  0.10000000000E+01 0.  0.
    9000005    1    3    3    0    0 -0.37800296775E+01  0.48010314277E+02  0.32837463116E+03  0.33188880260E+03  0.10000000000E+01 0.  0.
<mgrwt>
<rscale>  0 0.12499862E+03</rscale>
<asrwt>0</asrwt>
<pdfrwt beam="1">  1        4 0.45495015E+00 0.12499862E+03</pdfrwt>
<pdfrwt beam="2">  1       -4 0.53661972E-03 0.12499862E+03</pdfrwt>
<totfact> 0.47888392E+01</totfact>
</mgrwt>
</event>
<event>
 5    1  0.1440092E-002  0.1250007E+03  0.7818608E-02  0.1235068E+00
         -4   -1    0    0    0  501 -0.00000000000E+00  0.00000000000E+00  0.50291836904E+02  0.50307869754E+02  0.12700000000E+01 0.  1.
          4   -1    0    0  501    0  0.00000000000E+00 -0.00000000000E+00 -0.77638868124E+02  0.77649254624E+02  0.12700000000E+01 0.  1.
         25    2    1    2    0    0  0.00000000000E+00  0.00000000000E+00 -0.27347031220E+02  0.12795712438E+03  0.12500066225E+03 0.  0.
    9000005    1    3    3    0    0 -0.92178309067E+01 -0.57322419394E+02 -0.37338764102E+02  0.69036305495E+02  0.10000000000E+01 0.  0.
    9000005    1    3    3    0    0  0.92178309067E+01  0.57322419394E+02  0.99917328817E+01  0.58920818882E+02  0.10000000000E+01 0.  0.
<mgrwt>
<rscale>  0 0.12500066E+03</rscale>
<asrwt>0</asrwt>
<pdfrwt beam="2">  1        4 0.19413019E-01 0.12500066E+03</pdfrwt>
<pdfrwt beam="1">  1       -4 0.12576262E-01 0.12500066E+03</pdfrwt>
<totfact> 0.19674563E+03</totfact>
</mgrwt>
</event>
<event>
 5    1  0.1440092E-002  0.1250092E+03  0.7818608E-02  0.1235055E+00
          4   -1    0    0  501    0  0.00000000000E+00  0.00000000000E+00  0.88351991502E+03  0.88352082779E+03  0.12700000000E+01 0.  1.
         -4   -1    0    0    0  501 -0.00000000000E+00 -0.00000000000E+00 -0.43297623100E+01  0.45121770423E+01  0.12700000000E+01 0.  1.
         25    2    1    2    0    0  0.00000000000E+00  0.00000000000E+00  0.87919015271E+03  0.88803300483E+03  0.12500917185E+03 0.  0.
    9000005    1    3    3    0    0  0.51649747486E+02 -0.33958753272E+02  0.37412880694E+03  0.37920213280E+03  0.10000000000E+01 0.  0.
    9000005    1    3    3    0    0 -0.51649747486E+02  0.33958753272E+02  0.50506134577E+03  0.50883087203E+03  0.10000000000E+01 0.  0.
<mgrwt>
<rscale>  0 0.12500917E+03</rscale>
<asrwt>0</asrwt>
<pdfrwt beam="1">  1        4 0.22090296E+00 0.12500917E+03</pdfrwt>
<pdfrwt beam="2">  1       -4 0.11053562E-02 0.12500917E+03</pdfrwt>
<totfact> 0.45186378E+02</totfact>
</mgrwt>
</event>
<event>
 5    1  0.1440092E-002  0.1249774E+03  0.7818608E-02  0.1235105E+00
          4   -1    0    0  501    0  0.00000000000E+00  0.00000000000E+00  0.16400961662E+02  0.16450059071E+02  0.12700000000E+01 0. -1.
         -4   -1    0    0    0  501 -0.00000000000E+00 -0.00000000000E+00 -0.23767921300E+03  0.23768260599E+03  0.12700000000E+01 0. -1.
         25    2    1    2    0    0  0.00000000000E+00  0.00000000000E+00 -0.22127825133E+03  0.25413266506E+03  0.12497738570E+03 0.  0.
    9000005    1    3    3    0    0  0.37619539221E+02  0.32340407489E+02 -0.18787478007E+03  0.19431691813E+03  0.10000000000E+01 0.  0.
    9000005    1    3    3    0    0 -0.37619539221E+02 -0.32340407489E+02 -0.33403471265E+02  0.59815746926E+02  0.10000000000E+01 0.  0.
<mgrwt>
<rscale>  0 0.12497739E+03</rscale>
<asrwt>0</asrwt>
<pdfrwt beam="1">  1        4 0.41068025E-02 0.12497739E+03</pdfrwt>
<pdfrwt beam="2">  1       -4 0.59426354E-01 0.12497739E+03</pdfrwt>
<totfact> 0.14368986E+03</totfact>
</mgrwt>
</event>
<event>
 5    1  0.1440092E-002  0.1250018E+03  0.7818608E-02  0.1235066E+00
          4   -1    0    0  501    0  0.00000000000E+00  0.00000000000E+00  0.14907059140E+03  0.14907600116E+03  0.12700000000E+01 0.  1.
         -4   -1    0    0    0  501 -0.00000000000E+00 -0.00000000000E+00 -0.26183517516E+02  0.26214299333E+02  0.12700000000E+01 0.  1.
         25    2    1    2    0    0  0.00000000000E+00  0.00000000000E+00  0.12288707388E+03  0.17529030049E+03  0.12500182606E+03 0.  0.
    9000005    1    3    3    0    0  0.25586601975E+02 -0.55713539974E+02  0.78427687989E+02  0.99551870803E+02  0.10000000000E+01 0.  0.
    9000005    1    3    3    0    0 -0.25586601975E+02  0.55713539974E+02  0.44459385896E+02  0.75738429686E+02  0.10000000000E+01 0.  0.
<mgrwt>
<rscale>  0 0.12500183E+03</rscale>
<asrwt>0</asrwt>
<pdfrwt beam="1">  1        4 0.37272171E-01 0.12500183E+03</pdfrwt>
<pdfrwt beam="2">  1       -4 0.65504035E-02 0.12500183E+03</pdfrwt>
<totfact> 0.17360303E+03</totfact>
</mgrwt>
</event>
<event>
 5    1  0.1440092E-002  0.1250027E+03  0.7818608E-02  0.1235065E+00
         -4   -1    0    0    0  501 -0.00000000000E+00  0.00000000000E+00  0.61316061322E+02  0.61329212257E+02  0.12700000000E+01 0. -1.
          4   -1    0    0  501    0  0.00000000000E+00 -0.00000000000E+00 -0.63683226529E+02  0.63695888730E+02  0.12700000000E+01 0. -1.
         25    2    1    2    0    0  0.00000000000E+00  0.00000000000E+00 -0.23671652075E+01  0.12502510099E+03  0.12500268959E+03 0.  0.
    9000005    1    3    3    0    0 -0.62373455794E+02  0.21902766459E+01  0.20064722515E+01  0.62452151527E+02  0.10000000000E+01 0.  0.
    9000005    1    3    3    0    0  0.62373455794E+02 -0.21902766459E+01 -0.43736374590E+01  0.62572949460E+02  0.10000000000E+01 0.  0.
<mgrwt>
<rscale>  0 0.12500269E+03</rscale>
<asrwt>0</asrwt>
<pdfrwt beam="2">  1        4 0.15924033E-01 0.12500269E+03</pdfrwt>
<pdfrwt beam="1">  1       -4 0.15332242E-01 0.12500269E+03</pdfrwt>
<totfact> 0.19832446E+03</totfact>
</mgrwt>
</event>
<event>
 5    1  0.1440092E-002  0.1249985E+03  0.7818608E-02  0.1235072E+00
         -4   -1    0    0    0  501 -0.00000000000E+00  0.00000000000E+00  0.27351646104E+02  0.27381114744E+02  0.12700000000E+01 0.  1.
          4   -1    0    0  501    0  0.00000000000E+00 -0.00000000000E+00 -0.14270321114E+03  0.14270886227E+03  0.12700000000E+01 0.  1.
         25    2    1    2    0    0  0.00000000000E+00  0.00000000000E+00 -0.11535156504E+03  0.17008997701E+03  0.12499846688E+03 0.  0.
    9000005    1    3    3    0    0  0.35937001425E+02 -0.50818424332E+02 -0.50078306963E+02  0.79892535016E+02  0.10000000000E+01 0.  0.
    9000005    1    3    3    0    0 -0.35937001425E+02  0.50818424332E+02 -0.65273258073E+02  0.90197441995E+02  0.10000000000E+01 0.  0.
<mgrwt>
<rscale>  0 0.12499847E+03</rscale>
<asrwt>0</asrwt>
<pdfrwt beam="2">  1        4 0.35680191E-01 0.12499847E+03</pdfrwt>
<pdfrwt beam="1">  1       -4 0.68423019E-02 0.12499847E+03</pdfrwt>
<totfact> 0.17593616E+03</totfact>
</mgrwt>
</event>
<event>
 5    1  0.1440092E-002  0.1249996E+03  0.7818608E-02  0.1235070E+00
         -4   -1    0    0    0  501 -0.00000000000E+00  0.00000000000E+00  0.26365457629E+02  0.26396027276E+02  0.12700000000E+01 0.  1.
          4   -1    0    0  501    0  0.00000000000E+00 -0.00000000000E+00 -0.14803788375E+03  0.14804333124E+03  0.12700000000E+01 0.  1.
         25    2    1    2    0    0  0.00000000000E+00  0.00000000000E+00 -0.12167242612E+03  0.17443935852E+03  0.12499964209E+03 0.  0.
    9000005    1    3    3    0    0 -0.42090667523E+02 -0.18167896693E+02 -0.12010110560E+03  0.12855727257E+03  0.10000000000E+01 0.  0.
    9000005    1    3    3    0    0  0.42090667523E+02  0.18167896693E+02 -0.15713205150E+01  0.45882085948E+02  0.10000000000E+01 0.  0.
<mgrwt>
<rscale>  0 0.12499964E+03</rscale>
<asrwt>0</asrwt>
<pdfrwt beam="2">  1        4 0.37013971E-01 0.12499964E+03</pdfrwt>
<pdfrwt beam="1">  1       -4 0.65958670E-02 0.12499964E+03</pdfrwt>
<totfact> 0.17398797E+03</totfact>
</mgrwt>
</event>
<event>
 5    1  0.1440092E-002  0.1249934E+03  0.7818608E-02  0.1235080E+00
         -4   -1    0    0    0  501 -0.00000000000E+00  0.00000000000E+00  0.43527624220E+02  0.43546147594E+02  0.12700000000E+01 0. -1.
          4   -1    0    0  501    0  0.00000000000E+00 -0.00000000000E+00 -0.89690260908E+02  0.89699251957E+02  0.12700000000E+01 0. -1.
         25    2    1    2    0    0  0.00000000000E+00  0.00000000000E+00 -0.46162636687E+02  0.13324539955E+03  0.12499338973E+03 0.  0.
    9000005    1    3    3    0    0 -0.12449067186E+02 -0.95759887166E+01 -0.87557069310E+02  0.88960211442E+02  0.10000000000E+01 0.  0.
    9000005    1    3    3    0    0  0.12449067186E+02  0.95759887166E+01  0.41394432623E+02  0.44285188109E+02  0.10000000000E+01 0.  0.
<mgrwt>
<rscale>  0 0.12499339E+03</rscale>
<asrwt>0</asrwt>
<pdfrwt beam="2">  1        4 0.22426004E-01 0.12499339E+03</pdfrwt>
<pdfrwt beam="1">  1       -4 0.10885345E-01 0.12499339E+03</pdfrwt>
<totfact> 0.19394432E+03</totfact>
</mgrwt>
</event>
<event>
 5    1  0.1440092E-002  0.1250050E+03  0.7818608E-02  0.1235061E+00
         -4   -1    0    0    0  501 -0.00000000000E+00  0.00000000000E+00  0.17021879693E+03  0.17022353459E+03  0.12700000000E+01 0.  1.
          4   -1    0    0  501    0  0.00000000000E+00 -0.00000000000E+00 -0.22927616027E+02  0.22962762828E+02  0.12700000000E+01 0.  1.
         25    2    1    2    0    0  0.00000000000E+00  0.00000000000E+00  0.14729118090E+03  0.19318629742E+03  0.12500501405E+03 0.  0.
    9000005    1    3    3    0    0 -0.28838073548E+02  0.38755221123E+02  0.13491869291E+03  0.14330964848E+03  0.10000000000E+01 0.  0.
    9000005    1    3    3    0    0  0.28838073548E+02 -0.38755221123E+02  0.12372487991E+02  0.49876648938E+02  0.10000000000E+01 0.  0.
<mgrwt>
<rscale>  0 0.12500501E+03</rscale>
<asrwt>0</asrwt>
<pdfrwt beam="2">  1        4 0.57368896E-02 0.12500501E+03</pdfrwt>
<pdfrwt beam="1">  1       -4 0.42559685E-01 0.12500501E+03</pdfrwt>
<totfact> 0.16596632E+03</totfact>
</mgrwt>
</event>
<event>
 5    1  0.1440092E-002  0.1249903E+03  0.7818608E-02  0.1235084E+00
         -4   -1    0    0    0  501 -0.00000000000E+00  0.00000000000E+00  0.42147070524E+02  0.42166200371E+02  0.12700000000E+01 0. -1.
          4   -1    0    0  501    0  0.00000000000E+00 -0.00000000000E+00 -0.92622552927E+02  0.92631259361E+02  0.12700000000E+01 0. -1.
         25    2    1    2    0    0  0.00000000000E+00  0.00000000000E+00 -0.50475482403E+02  0.13479745973E+03  0.12499032293E+03 0.  0.
    9000005    1    3    3    0    0  0.37187856674E+02  0.49837787449E+02 -0.18598097531E+02  0.64912487040E+02  0.10000000000E+01 0.  0.
    9000005    1    3    3    0    0 -0.37187856674E+02 -0.49837787449E+02 -0.31877384872E+02  0.69884972692E+02  0.10000000000E+01 0.  0.
<mgrwt>
<rscale>  0 0.12499032E+03</rscale>
<asrwt>0</asrwt>
<pdfrwt beam="2">  1        4 0.23159117E-01 0.12499032E+03</pdfrwt>
<pdfrwt beam="1">  1       -4 0.10540247E-01 0.12499032E+03</pdfrwt>
<totfact> 0.19314112E+03</totfact>
</mgrwt>
</event>
<event>
 5    1  0.1440092E-002  0.1250009E+03  0.7818608E-02  0.1235068E+00
         -4   -1    0    0    0  501 -0.00000000000E+00  0.00000000000E+00  0.28244014419E+02  0.28272552953E+02  0.12700000000E+01 0.  1.
          4   -1    0    0  501    0  0.00000000000E+00 -0.00000000000E+00 -0.13820429669E+03  0.13821013177E+03  0.12700000000E+01 0.  1.
         25    2    1    2    0    0  0.00000000000E+00  0.00000000000E+00 -0.10996028227E+03  0.16648268472E+03  0.12500088254E+03 0.  0.
    9000005    1    3    3    0    0 -0.15333879125E+02  0.62490676103E+00  0.25701813056E+02  0.29951653575E+02  0.10000000000E+01 0.  0.
    9000005    1    3    3    0    0  0.15333879125E+02 -0.62490676103E+00 -0.13566209533E+03  0.13653103115E+03  0.10000000000E+01 0.  0.
<mgrwt>
<rscale>  0 0.12500088E+03</rscale>
<asrwt>0</asrwt>
<pdfrwt beam="2">  1        4 0.34555369E-01 0.12500088E+03</pdfrwt>
<pdfrwt beam="1">  1       -4 0.70653007E-02 0.12500088E+03</pdfrwt>
<totfact> 0.17756506E+03</totfact>
</mgrwt>
</event>
<event>
 5    1  0.1440092E-002  0.1250018E+03  0.7818608E-02  0.1235066E+00
          4   -1    0    0  501    0  0.00000000000E+00  0.00000000000E+00  0.13661882292E+02  0.13720784517E+02  0.12700000000E+01 0.  1.
         -4   -1    0    0    0  501 -0.00000000000E+00 -0.00000000000E+00 -0.28525624650E+03  0.28525907359E+03  0.12700000000E+01 0.  1.
         25    2    1    2    0    0  0.00000000000E+00  0.00000000000E+00 -0.27159436421E+03  0.29897985811E+03  0.12500182753E+03 0.  0.
    9000005    1    3    3    0    0  0.57260918428E+02 -0.14121947141E+02 -0.86365935197E+02  0.10458640893E+03  0.10000000000E+01 0.  0.
    9000005    1    3    3    0    0 -0.57260918428E+02  0.14121947141E+02 -0.18522842901E+03  0.19439344918E+03  0.10000000000E+01 0.  0.
<mgrwt>
<rscale>  0 0.12500183E+03</rscale>
<asrwt>0</asrwt>
<pdfrwt beam="1">  1        4 0.34231877E-02 0.12500183E+03</pdfrwt>
<pdfrwt beam="2">  1       -4 0.71321758E-01 0.12500183E+03</pdfrwt>
<totfact> 0.12999153E+03</totfact>
</mgrwt>
</event>
<event>
 5    1  0.1440092E-002  0.1249978E+03  0.7818608E-02  0.1235073E+00
         -4   -1    0    0    0  501 -0.00000000000E+00  0.00000000000E+00  0.86018426453E+02  0.86027801259E+02  0.12700000000E+01 0. -1.
          4   -1    0    0  501    0  0.00000000000E+00 -0.00000000000E+00 -0.45389442618E+02  0.45407206489E+02  0.12700000000E+01 0. -1.
         25    2    1    2    0    0  0.00000000000E+00  0.00000000000E+00  0.40628983835E+02  0.13143500775E+03  0.12499778772E+03 0.  0.
    9000005    1    3    3    0    0  0.25181897805E+02 -0.30566402018E+02 -0.30514118846E+02  0.50005443287E+02  0.10000000000E+01 0.  0.
    9000005    1    3    3    0    0 -0.25181897805E+02  0.30566402018E+02  0.71143102681E+02  0.81429564461E+02  0.10000000000E+01 0.  0.
<mgrwt>
<rscale>  0 0.12499779E+03</rscale>
<asrwt>0</asrwt>
<pdfrwt beam="2">  1        4 0.11350753E-01 0.12499779E+03</pdfrwt>
<pdfrwt beam="1">  1       -4 0.21507999E-01 0.12499779E+03</pdfrwt>
<totfact> 0.19488551E+03</totfact>
</mgrwt>
</event>
<event>
 5    1  0.1440092E-002  0.1249973E+03  0.7818608E-02  0.1235073E+00
         -4   -1    0    0    0  501 -0.00000000000E+00  0.00000000000E+00  0.24276606846E+02  0.24309803371E+02  0.12700000000E+01 0.  1.
          4   -1    0    0  501    0  0.00000000000E+00 -0.00000000000E+00 -0.16075336343E+03  0.16075838004E+03  0.12700000000E+01 0.  1.
         25    2    1    2    0    0  0.00000000000E+00  0.00000000000E+00 -0.13647675658E+03  0.18506818341E+03  0.12499730967E+03 0.  0.
    9000005    1    3    3    0    0 -0.35152505197E+02 -0.62427349073E+01 -0.14417354368E+03  0.14853175101E+03  0.10000000000E+01 0.  0.
    9000005    1    3    3    0    0  0.35152505197E+02  0.62427349073E+01  0.76967871021E+01  0.36536432399E+02  0.10000000000E+01 0.  0.
<mgrwt>
<rscale>  0 0.12499731E+03</rscale>
<asrwt>0</asrwt>
<pdfrwt beam="2">  1        4 0.40193114E-01 0.12499731E+03</pdfrwt>
<pdfrwt beam="1">  1       -4 0.60739288E-02 0.12499731E+03</pdfrwt>
<totfact> 0.16938983E+03</totfact>
</mgrwt>
</event>
<event>
 5    1  0.1440092E-002  0.1249948E+03  0.7818608E-02  0.1235077E+00
          4   -1    0    0  501    0  0.00000000000E+00  0.00000000000E+00  0.43975512044E+01  0.45772651873E+01  0.12700000000E+01 0. -1.
         -4   -1    0    0    0  501 -0.00000000000E+00 -0.00000000000E+00 -0.87023907149E+03  0.87023999819E+03  0.12700000000E+01 0. -1.
         25    2    1    2    0    0  0.00000000000E+00  0.00000000000E+00 -0.86584152028E+03  0.87481726337E+03  0.12499482409E+03 0.  0.
    9000005    1    3    3    0    0 -0.90390530412E+01  0.15354127395E+02 -0.85211916727E+03  0.85230600663E+03  0.10000000000E+01 0.  0.
    9000005    1    3    3    0    0  0.90390530412E+01 -0.15354127395E+02 -0.13722353011E+02  0.22511256742E+02  0.10000000000E+01 0.  0.
<mgrwt>
<rscale>  0 0.12499482E+03</rscale>
<asrwt>0</asrwt>
<pdfrwt beam="1">  1        4 0.11219709E-02 0.12499482E+03</pdfrwt>
<pdfrwt beam="2">  1       -4 0.21758177E+00 0.12499482E+03</pdfrwt>
<totfact> 0.46236999E+02</totfact>
</mgrwt>
</event>
<event>
 5    1  0.1440092E-002  0.1249980E+03  0.7818608E-02  0.1235072E+00
          4   -1    0    0  501    0  0.00000000000E+00  0.00000000000E+00  0.39434961535E+02  0.39455406363E+02  0.12700000000E+01 0. -1.
         -4   -1    0    0    0  501 -0.00000000000E+00 -0.00000000000E+00 -0.99002135112E+02  0.99010280561E+02  0.12700000000E+01 0. -1.
         25    2    1    2    0    0  0.00000000000E+00  0.00000000000E+00 -0.59567173577E+02  0.13846568692E+03  0.12499799313E+03 0.  0.
    9000005    1    3    3    0    0  0.51784424210E+02 -0.30899547907E+02 -0.47942331489E+02  0.77044635116E+02  0.10000000000E+01 0.  0.
    9000005    1    3    3    0    0 -0.51784424210E+02  0.30899547907E+02 -0.11624842088E+02  0.61421051808E+02  0.10000000000E+01 0.  0.
<mgrwt>
<rscale>  0 0.12499799E+03</rscale>
<asrwt>0</asrwt>
<pdfrwt beam="1">  1        4 0.98623144E-02 0.12499799E+03</pdfrwt>
<pdfrwt beam="2">  1       -4 0.24754107E-01 0.12499799E+03</pdfrwt>
<totfact> 0.19120007E+03</totfact>
</mgrwt>
</event>
<event>
 5    1  0.1440092E-002  0.1249973E+03  0.7818608E-02  0.1235073E+00
          4   -1    0    0  501    0  0.00000000000E+00  0.00000000000E+00  0.14653428633E+03  0.14653978972E+03  0.12700000000E+01 0.  1.
         -4   -1    0    0    0  501 -0.00000000000E+00 -0.00000000000E+00 -0.26635306798E+02  0.26665567090E+02  0.12700000000E+01 0.  1.
         25    2    1    2    0    0  0.00000000000E+00  0.00000000000E+00  0.11989897953E+03  0.17320535681E+03  0.12499732131E+03 0.  0.
    9000005    1    3    3    0    0  0.97340952290E+01  0.23928993146E+02  0.13879575865E+03  0.14118290244E+03  0.10000000000E+01 0.  0.
    9000005    1    3    3    0    0 -0.97340952290E+01 -0.23928993146E+02 -0.18896779114E+02  0.32022454369E+02  0.10000000000E+01 0.  0.
<mgrwt>
<rscale>  0 0.12499732E+03</rscale>
<asrwt>0</asrwt>
<pdfrwt beam="1">  1        4 0.36638042E-01 0.12499732E+03</pdfrwt>
<pdfrwt beam="2">  1       -4 0.66632972E-02 0.12499732E+03</pdfrwt>
<totfact> 0.17454518E+03</totfact>
</mgrwt>
</event>
<event>
 5    1  0.1440092E-002  0.1249965E+03  0.7818608E-02  0.1235075E+00
          4   -1    0    0  501    0  0.00000000000E+00  0.00000000000E+00  0.17855034608E+02  0.17900144158E+02  0.12700000000E+01 0.  1.
         -4   -1    0    0    0  501 -0.00000000000E+00 -0.00000000000E+00 -0.21844062358E+03  0.21844431539E+03  0.12700000000E+01 0.  1.
         25    2    1    2    0    0  0.00000000000E+00  0.00000000000E+00 -0.20058558897E+03  0.23634445955E+03  0.12499650019E+03 0.  0.
    9000005    1    3    3    0    0  0.36876718007E+02 -0.14705351267E+02 -0.90450353488E+01  0.40730238783E+02  0.10000000000E+01 0.  0.
    9000005    1    3    3    0    0 -0.36876718007E+02  0.14705351267E+02 -0.19154055362E+03  0.19561422077E+03  0.10000000000E+01 0.  0.
<mgrwt>
<rscale>  0 0.12499650E+03</rscale>
<asrwt>0</asrwt>
<pdfrwt beam="1">  1        4 0.44698595E-02 0.12499650E+03</pdfrwt>
<pdfrwt beam="2">  1       -4 0.54616248E-01 0.12499650E+03</pdfrwt>
<totfact> 0.14964436E+03</totfact>
</mgrwt>
</event>
<event>
 5    1  0.1440092E-002  0.1249986E+03  0.7818608E-02  0.1235071E+00
          4   -1    0    0  501    0  0.00000000000E+00  0.00000000000E+00  0.23663560486E+03  0.23663901282E+03  0.12700000000E+01 0. -1.
         -4   -1    0    0    0  501 -0.00000000000E+00 -0.00000000000E+00 -0.16479124923E+02  0.16527990145E+02  0.12700000000E+01 0. -1.
         25    2    1    2    0    0  0.00000000000E+00  0.00000000000E+00  0.22015647994E+03  0.25316700296E+03  0.12499862292E+03 0.  0.
    9000005    1    3    3    0    0 -0.60080572813E+02 -0.35093917369E+01  0.75996034112E+02  0.96945284881E+02  0.10000000000E+01 0.  0.
    9000005    1    3    3    0    0  0.60080572813E+02  0.35093917369E+01  0.14416044583E+03  0.15622171808E+03  0.10000000000E+01 0.  0.
<mgrwt>
<rscale>  0 0.12499862E+03</rscale>
<asrwt>0</asrwt>
<pdfrwt beam="1">  1        4 0.59165435E-01 0.12499862E+03</pdfrwt>
<pdfrwt beam="2">  1       -4 0.41263154E-02 0.12499862E+03</pdfrwt>
<totfact> 0.14393681E+03</totfact>
</mgrwt>
</event>
<event>
 5    1  0.1440092E-002  0.1250069E+03  0.7818608E-02  0.1235059E+00
         -4   -1    0    0    0  501 -0.00000000000E+00  0.00000000000E+00  0.24287316856E+03  0.24287648899E+03  0.12700000000E+01 0. -1.
          4   -1    0    0  501    0  0.00000000000E+00 -0.00000000000E+00 -0.16056766657E+02  0.16106913282E+02  0.12700000000E+01 0. -1.
         25    2    1    2    0    0  0.00000000000E+00  0.00000000000E+00  0.22681640190E+03  0.25898340227E+03  0.12500688974E+03 0.  0.
    9000005    1    3    3    0    0  0.44882587443E+02 -0.42617850791E+02  0.13134445694E+03  0.14520018674E+03  0.10000000000E+01 0.  0.
    9000005    1    3    3    0    0 -0.44882587443E+02  0.42617850791E+02  0.95471944960E+02  0.11378321553E+03  0.10000000000E+01 0.  0.
<mgrwt>
<rscale>  0 0.12500689E+03</rscale>
<asrwt>0</asrwt>
<pdfrwt beam="2">  1        4 0.40208751E-02 0.12500689E+03</pdfrwt>
<pdfrwt beam="1">  1       -4 0.60724974E-01 0.12500689E+03</pdfrwt>
<totfact> 0.14201605E+03</totfact>
</mgrwt>
</event>
<event>
 5    1  0.1440092E-002  0.1250011E+03  0.7818608E-02  0.1235067E+00
         -4   -1    0    0    0  501 -0.00000000000E+00  0.00000000000E+00  0.35043322817E+02  0.35066328209E+02  0.12700000000E+01 0.  1.
          4   -1    0    0  501    0  0.00000000000E+00 -0.00000000000E+00 -0.11140800824E+03  0.11141524671E+03  0.12700000000E+01 0.  1.
         25    2    1    2    0    0  0.00000000000E+00  0.00000000000E+00 -0.76364685422E+02  0.14648157492E+03  0.12500114644E+03 0.  0.
    9000005    1    3    3    0    0 -0.43010987529E+02 -0.25335140198E+02 -0.82239657961E+02  0.96209020983E+02  0.10000000000E+01 0.  0.
    9000005    1    3    3    0    0  0.43010987529E+02  0.25335140198E+02  0.58749725387E+01  0.50272553937E+02  0.10000000000E+01 0.  0.
<mgrwt>
<rscale>  0 0.12500115E+03</rscale>
<asrwt>0</asrwt>
<pdfrwt beam="2">  1        4 0.27855782E-01 0.12500115E+03</pdfrwt>
<pdfrwt beam="1">  1       -4 0.87646115E-02 0.12500115E+03</pdfrwt>
<totfact> 0.18712647E+03</totfact>
</mgrwt>
</event>
<event>
 5    1  0.1440092E-002  0.1249997E+03  0.7818608E-02  0.1235070E+00
          4   -1    0    0  501    0  0.00000000000E+00  0.00000000000E+00  0.21191869093E+01  0.24705977327E+01  0.12700000000E+01 0.  1.
         -4   -1    0    0    0  501 -0.00000000000E+00 -0.00000000000E+00 -0.17017904095E+04  0.17017908834E+04  0.12700000000E+01 0.  1.
         25    2    1    2    0    0  0.00000000000E+00  0.00000000000E+00 -0.16996712226E+04  0.17042614811E+04  0.12499972445E+03 0.  0.
    9000005    1    3    3    0    0 -0.52162616084E+02  0.11274039298E+02 -0.12931417624E+04  0.12942428908E+04  0.10000000000E+01 0.  0.
    9000005    1    3    3    0    0  0.52162616084E+02 -0.11274039298E+02 -0.40652946013E+03  0.41001859035E+03  0.10000000000E+01 0.  0.
<mgrwt>
<rscale>  0 0.12499972E+03</rscale>
<asrwt>0</asrwt>
<pdfrwt beam="1">  1        4 0.57378816E-03 0.12499972E+03</pdfrwt>
<pdfrwt beam="2">  1       -4 0.42548726E+00 0.12499972E+03</pdfrwt>
<totfact> 0.69807119E+01</totfact>
</mgrwt>
</event>
<event>
 5    1  0.1440092E-002  0.1249963E+03  0.7818608E-02  0.1235075E+00
          4   -1    0    0  501    0  0.00000000000E+00  0.00000000000E+00  0.53430498323E+02  0.53445589631E+02  0.12700000000E+01 0.  1.
         -4   -1    0    0    0  501 -0.00000000000E+00 -0.00000000000E+00 -0.73073751308E+02  0.73084786585E+02  0.12700000000E+01 0.  1.
         25    2    1    2    0    0  0.00000000000E+00  0.00000000000E+00 -0.19643252985E+02  0.12653037622E+03  0.12499631482E+03 0.  0.
    9000005    1    3    3    0    0 -0.12113473045E+02 -0.60161300958E+02  0.21086572391E+01  0.61413066993E+02  0.10000000000E+01 0.  0.
    9000005    1    3    3    0    0  0.12113473045E+02  0.60161300958E+02 -0.21751910224E+02  0.65117309223E+02  0.10000000000E+01 0.  0.
<mgrwt>
<rscale>  0 0.12499631E+03</rscale>
<asrwt>0</asrwt>
<pdfrwt beam="1">  1        4 0.13360890E-01 0.12499631E+03</pdfrwt>
<pdfrwt beam="2">  1       -4 0.18271704E-01 0.12499631E+03</pdfrwt>
<totfact> 0.19753989E+03</totfact>
</mgrwt>
</event>
<event>
 5    1  0.1440092E-002  0.1249995E+03  0.7818608E-02  0.1235070E+00
         -4   -1    0    0    0  501 -0.00000000000E+00  0.00000000000E+00  0.26325278820E+01  0.29228587119E+01  0.12700000000E+01 0. -1.
          4   -1    0    0  501    0  0.00000000000E+00 -0.00000000000E+00 -0.14059909688E+04  0.14059915424E+04  0.12700000000E+01 0. -1.
         25    2    1    2    0    0  0.00000000000E+00  0.00000000000E+00 -0.14033584409E+04  0.14089144011E+04  0.12499950364E+03 0.  0.
    9000005    1    3    3    0    0 -0.78130293697E+01 -0.96920546746E+01 -0.13919282885E+04  0.13919843173E+04  0.10000000000E+01 0.  0.
    9000005    1    3    3    0    0  0.78130293697E+01  0.96920546746E+01 -0.11430152386E+02  0.16930083736E+02  0.10000000000E+01 0.  0.
<mgrwt>
<rscale>  0 0.12499950E+03</rscale>
<asrwt>0</asrwt>
<pdfrwt beam="2">  1        4 0.35153166E+00 0.12499950E+03</pdfrwt>
<pdfrwt beam="1">  1       -4 0.69449984E-03 0.12499950E+03</pdfrwt>
<totfact> 0.15743121E+02</totfact>
</mgrwt>
</event>
<event>
 5    1  0.1440092E-002  0.1249975E+03  0.7818608E-02  0.1235073E+00
          4   -1    0    0  501    0  0.00000000000E+00  0.00000000000E+00  0.17437396739E+03  0.17437859216E+03  0.12700000000E+01 0.  1.
         -4   -1    0    0    0  501 -0.00000000000E+00 -0.00000000000E+00 -0.22377730449E+02  0.22413739538E+02  0.12700000000E+01 0.  1.
         25    2    1    2    0    0  0.00000000000E+00  0.00000000000E+00  0.15199623695E+03  0.19679233170E+03  0.12499746306E+03 0.  0.
    9000005    1    3    3    0    0  0.27116248277E+02  0.18459689184E+02  0.15973688267E+03  0.16307336609E+03  0.10000000000E+01 0.  0.
    9000005    1    3    3    0    0 -0.27116248277E+02 -0.18459689184E+02 -0.77406457213E+01  0.33718965606E+02  0.10000000000E+01 0.  0.
<mgrwt>
<rscale>  0 0.12499746E+03</rscale>
<asrwt>0</asrwt>
<pdfrwt beam="1">  1        4 0.43598570E-01 0.12499746E+03</pdfrwt>
<pdfrwt beam="2">  1       -4 0.55995119E-02 0.12499746E+03</pdfrwt>
<totfact> 0.16452257E+03</totfact>
</mgrwt>
</event>
<event>
 5    1  0.1440092E-002  0.1249995E+03  0.7818608E-02  0.1235070E+00
          4   -1    0    0  501    0  0.00000000000E+00  0.00000000000E+00  0.28065749364E+02  0.28094468982E+02  0.12700000000E+01 0.  1.
         -4   -1    0    0    0  501 -0.00000000000E+00 -0.00000000000E+00 -0.13907817503E+03  0.13908397345E+03  0.12700000000E+01 0.  1.
         25    2    1    2    0    0  0.00000000000E+00  0.00000000000E+00 -0.11101242567E+03  0.16717844243E+03  0.12499949184E+03 0.  0.
    9000005    1    3    3    0    0 -0.15378786221E+02 -0.85366777878E-01 -0.13651429623E+03  0.13738146683E+03  0.10000000000E+01 0.  0.
    9000005    1    3    3    0    0  0.15378786221E+02  0.85366777878E-01  0.25501870559E+02  0.29796975604E+02  0.10000000000E+01 0.  0.
<mgrwt>
<rscale>  0 0.12499949E+03</rscale>
<asrwt>0</asrwt>
<pdfrwt beam="1">  1        4 0.70207525E-02 0.12499949E+03</pdfrwt>
<pdfrwt beam="2">  1       -4 0.34773857E-01 0.12499949E+03</pdfrwt>
<totfact> 0.17725277E+03</totfact>
</mgrwt>
</event>
<event>
 5    1  0.1440092E-002  0.1249950E+03  0.7818608E-02  0.1235077E+00
          4   -1    0    0  501    0  0.00000000000E+00  0.00000000000E+00  0.11176166859E+02  0.11248093423E+02  0.12700000000E+01 0. -1.
         -4   -1    0    0    0  501 -0.00000000000E+00 -0.00000000000E+00 -0.34829418560E+03  0.34829650102E+03  0.12700000000E+01 0. -1.
         25    2    1    2    0    0  0.00000000000E+00  0.00000000000E+00 -0.33711801874E+03  0.35954459444E+03  0.12499502723E+03 0.  0.
    9000005    1    3    3    0    0  0.27163378029E+02 -0.34407760037E+02 -0.40460857582E+02  0.59664261103E+02  0.10000000000E+01 0.  0.
    9000005    1    3    3    0    0 -0.27163378029E+02  0.34407760037E+02 -0.29665716116E+03  0.29988033334E+03  0.10000000000E+01 0.  0.
<mgrwt>
<rscale>  0 0.12499503E+03</rscale>
<asrwt>0</asrwt>
<pdfrwt beam="1">  1        4 0.28033231E-02 0.12499503E+03</pdfrwt>
<pdfrwt beam="2">  1       -4 0.87082791E-01 0.12499503E+03</pdfrwt>
<totfact> 0.11454244E+03</totfact>
</mgrwt>
</event>
<event>
 5    1  0.1440092E-002  0.1250058E+03  0.7818608E-02  0.1235060E+00
         -4   -1    0    0    0  501 -0.00000000000E+00  0.00000000000E+00  0.46529973750E+02  0.46547302362E+02  0.12700000000E+01 0.  1.
          4   -1    0    0  501    0  0.00000000000E+00 -0.00000000000E+00 -0.83921286247E+02  0.83930895297E+02  0.12700000000E+01 0.  1.
         25    2    1    2    0    0  0.00000000000E+00  0.00000000000E+00 -0.37391312497E+02  0.13047819766E+03  0.12500579912E+03 0.  0.
    9000005    1    3    3    0    0  0.14063666803E+02 -0.40756626159E+02 -0.65916891068E+02  0.78771351568E+02  0.10000000000E+01 0.  0.
    9000005    1    3    3    0    0 -0.14063666803E+02  0.40756626159E+02  0.28525578572E+02  0.51706846091E+02  0.10000000000E+01 0.  0.
<mgrwt>
<rscale>  0 0.12500580E+03</rscale>
<asrwt>0</asrwt>
<pdfrwt beam="2">  1        4 0.20983689E-01 0.12500580E+03</pdfrwt>
<pdfrwt beam="1">  1       -4 0.11635861E-01 0.12500580E+03</pdfrwt>
<totfact> 0.19536065E+03</totfact>
</mgrwt>
</event>
<event>
 5    1  0.1440092E-002  0.1249946E+03  0.7818608E-02  0.1235078E+00
          4   -1    0    0  501    0  0.00000000000E+00  0.00000000000E+00  0.94095246729E+02  0.94103816910E+02  0.12700000000E+01 0. -1.
         -4   -1    0    0    0  501 -0.00000000000E+00 -0.00000000000E+00 -0.41490037633E+02  0.41509470279E+02  0.12700000000E+01 0. -1.
         25    2    1    2    0    0  0.00000000000E+00  0.00000000000E+00  0.52605209095E+02  0.13561328719E+03  0.12499462244E+03 0.  0.
    9000005    1    3    3    0    0  0.26777864068E+02 -0.39675250858E+02 -0.17281380730E+02  0.50900153778E+02  0.10000000000E+01 0.  0.
    9000005    1    3    3    0    0 -0.26777864068E+02  0.39675250858E+02  0.69886589825E+02  0.84713133410E+02  0.10000000000E+01 0.  0.
<mgrwt>
<rscale>  0 0.12499462E+03</rscale>
<asrwt>0</asrwt>
<pdfrwt beam="1">  1        4 0.23527312E-01 0.12499462E+03</pdfrwt>
<pdfrwt beam="2">  1       -4 0.10376010E-01 0.12499462E+03</pdfrwt>
<totfact> 0.19269479E+03</totfact>
</mgrwt>
</event>
<event>
 5    1  0.1440092E-002  0.1249993E+03  0.7818608E-02  0.1235070E+00
         -4   -1    0    0    0  501 -0.00000000000E+00  0.00000000000E+00  0.16139788892E+03  0.16140288550E+03  0.12700000000E+01 0. -1.
          4   -1    0    0  501    0  0.00000000000E+00 -0.00000000000E+00 -0.24180309627E+02  0.24213638174E+02  0.12700000000E+01 0. -1.
         25    2    1    2    0    0  0.00000000000E+00  0.00000000000E+00  0.13721757929E+03  0.18561652367E+03  0.12499931917E+03 0.  0.
    9000005    1    3    3    0    0  0.18934664948E+02 -0.42748870652E+02  0.70380018104E+01  0.47291869790E+02  0.10000000000E+01 0.  0.
    9000005    1    3    3    0    0 -0.18934664948E+02  0.42748870652E+02  0.13017957748E+03  0.13832465388E+03  0.10000000000E+01 0.  0.
<mgrwt>
<rscale>  0 0.12499932E+03</rscale>
<asrwt>0</asrwt>
<pdfrwt beam="2">  1        4 0.60498682E-02 0.12499932E+03</pdfrwt>
<pdfrwt beam="1">  1       -4 0.40354262E-01 0.12499932E+03</pdfrwt>
<totfact> 0.16914921E+03</totfact>
</mgrwt>
</event>
<event>
 5    1  0.1440092E-002  0.1250002E+03  0.7818608E-02  0.1235069E+00
          4   -1    0    0  501    0  0.00000000000E+00  0.00000000000E+00  0.11531178260E+03  0.11531877604E+03  0.12700000000E+01 0.  1.
         -4   -1    0    0    0  501 -0.00000000000E+00 -0.00000000000E+00 -0.33855708293E+02  0.33879520127E+02  0.12700000000E+01 0.  1.
         25    2    1    2    0    0  0.00000000000E+00  0.00000000000E+00  0.81456074306E+02  0.14919829616E+03  0.12500015815E+03 0.  0.
    9000005    1    3    3    0    0 -0.60630021536E+02 -0.23940790685E+01  0.58573178968E+02  0.84341854500E+02  0.10000000000E+01 0.  0.
    9000005    1    3    3    0    0  0.60630021536E+02  0.23940790685E+01  0.22882895338E+02  0.64856441662E+02  0.10000000000E+01 0.  0.
<mgrwt>
<rscale>  0 0.12500016E+03</rscale>
<asrwt>0</asrwt>
<pdfrwt beam="1">  1        4 0.28831796E-01 0.12500016E+03</pdfrwt>
<pdfrwt beam="2">  1       -4 0.84677778E-02 0.12500016E+03</pdfrwt>
<totfact> 0.18578203E+03</totfact>
</mgrwt>
</event>
<event>
 5    1  0.1440092E-002  0.1249999E+03  0.7818608E-02  0.1235069E+00
          4   -1    0    0  501    0  0.00000000000E+00  0.00000000000E+00  0.98628262640E+02  0.98636438963E+02  0.12700000000E+01 0.  1.
         -4   -1    0    0    0  501 -0.00000000000E+00 -0.00000000000E+00 -0.39585712478E+02  0.39606079488E+02  0.12700000000E+01 0.  1.
         25    2    1    2    0    0  0.00000000000E+00  0.00000000000E+00  0.59042550161E+02  0.13824251845E+03  0.12499988471E+03 0.  0.
    9000005    1    3    3    0    0  0.28336356692E+02 -0.37771594835E+02  0.74791978252E+02  0.88456104921E+02  0.10000000000E+01 0.  0.
    9000005    1    3    3    0    0 -0.28336356692E+02  0.37771594835E+02 -0.15749428091E+02  0.49786413530E+02  0.10000000000E+01 0.  0.
<mgrwt>
<rscale>  0 0.12499988E+03</rscale>
<asrwt>0</asrwt>
<pdfrwt beam="1">  1        4 0.24660633E-01 0.12499988E+03</pdfrwt>
<pdfrwt beam="2">  1       -4 0.98999961E-02 0.12499988E+03</pdfrwt>
<totfact> 0.19130667E+03</totfact>
</mgrwt>
</event>
<event>
 5    1  0.1440092E-002  0.1249993E+03  0.7818608E-02  0.1235070E+00
         -4   -1    0    0    0  501 -0.00000000000E+00  0.00000000000E+00  0.26129216048E+02  0.26160061760E+02  0.12700000000E+01 0.  1.
          4   -1    0    0  501    0  0.00000000000E+00 -0.00000000000E+00 -0.14937388336E+03  0.14937928213E+03  0.12700000000E+01 0.  1.
         25    2    1    2    0    0  0.00000000000E+00  0.00000000000E+00 -0.12324466731E+03  0.17553934389E+03  0.12499925293E+03 0.  0.
    9000005    1    3    3    0    0 -0.48749489264E+02 -0.14932540771E+02 -0.11236699872E+03  0.12339706593E+03  0.10000000000E+01 0.  0.
    9000005    1    3    3    0    0  0.48749489264E+02  0.14932540771E+02 -0.10877668591E+02  0.52142277965E+02  0.10000000000E+01 0.  0.
<mgrwt>
<rscale>  0 0.12499925E+03</rscale>
<asrwt>0</asrwt>
<pdfrwt beam="2">  1        4 0.37347999E-01 0.12499925E+03</pdfrwt>
<pdfrwt beam="1">  1       -4 0.65368350E-02 0.12499925E+03</pdfrwt>
<totfact> 0.17350356E+03</totfact>
</mgrwt>
</event>
<event>
 5    1  0.1440092E-002  0.1250198E+03  0.7818608E-02  0.1235038E+00
          4   -1    0    0  501    0  0.00000000000E+00  0.00000000000E+00  0.31571886851E+03  0.31572142283E+03  0.12700000000E+01 0.  1.
         -4   -1    0    0    0  501 -0.00000000000E+00 -0.00000000000E+00 -0.12341284805E+02  0.12406458425E+02  0.12700000000E+01 0.  1.
         25    2    1    2    0    0  0.00000000000E+00  0.00000000000E+00  0.30337758371E+03  0.32812788126E+03  0.12501979108E+03 0.  0.
    9000005    1    3    3    0    0  0.10465278996E+02 -0.26947852415E+02  0.62472092252E+01  0.29592844361E+02  0.10000000000E+01 0.  0.
    9000005    1    3    3    0    0 -0.10465278996E+02  0.26947852415E+02  0.29713037448E+03  0.29853503690E+03  0.10000000000E+01 0.  0.
<mgrwt>
<rscale>  0 0.12501979E+03</rscale>
<asrwt>0</asrwt>
<pdfrwt beam="1">  1        4 0.78938179E-01 0.12501979E+03</pdfrwt>
<pdfrwt beam="2">  1       -4 0.30937874E-02 0.12501979E+03</pdfrwt>
<totfact> 0.12212266E+03</totfact>
</mgrwt>
</event>
<event>
 5    1  0.1440092E-002  0.1250041E+03  0.7818608E-02  0.1235063E+00
          4   -1    0    0  501    0  0.00000000000E+00  0.00000000000E+00  0.49469345043E+02  0.49485644373E+02  0.12700000000E+01 0. -1.
         -4   -1    0    0    0  501 -0.00000000000E+00 -0.00000000000E+00 -0.78933752896E+02  0.78943969030E+02  0.12700000000E+01 0. -1.
         25    2    1    2    0    0  0.00000000000E+00  0.00000000000E+00 -0.29464407853E+02  0.12842961340E+03  0.12500405701E+03 0.  0.
    9000005    1    3    3    0    0  0.40548657384E+02  0.29301114074E+02  0.23747518262E+02  0.55386763086E+02  0.10000000000E+01 0.  0.
    9000005    1    3    3    0    0 -0.40548657384E+02 -0.29301114074E+02 -0.53211926115E+02  0.73042850317E+02  0.10000000000E+01 0.  0.
<mgrwt>
<rscale>  0 0.12500406E+03</rscale>
<asrwt>0</asrwt>
<pdfrwt beam="1">  1        4 0.12370651E-01 0.12500406E+03</pdfrwt>
<pdfrwt beam="2">  1       -4 0.19736752E-01 0.12500406E+03</pdfrwt>
<totfact> 0.19647330E+03</totfact>
</mgrwt>
</event>
<event>
 5    1  0.1440092E-002  0.1249997E+03  0.7818608E-02  0.1235070E+00
         -4   -1    0    0    0  501 -0.00000000000E+00  0.00000000000E+00  0.88544302296E+02  0.88553409698E+02  0.12700000000E+01 0. -1.
          4   -1    0    0  501    0  0.00000000000E+00 -0.00000000000E+00 -0.44095581172E+02  0.44113866062E+02  0.12700000000E+01 0. -1.
         25    2    1    2    0    0  0.00000000000E+00  0.00000000000E+00  0.44448721124E+02  0.13266727576E+03  0.12499966899E+03 0.  0.
    9000005    1    3    3    0    0  0.34217312575E+02  0.52112866985E+02  0.17640408344E+02  0.64797834777E+02  0.10000000000E+01 0.  0.
    9000005    1    3    3    0    0 -0.34217312575E+02 -0.52112866985E+02  0.26808312780E+02  0.67869440983E+02  0.10000000000E+01 0.  0.
<mgrwt>
<rscale>  0 0.12499967E+03</rscale>
<asrwt>0</asrwt>
<pdfrwt beam="2">  1        4 0.11027319E-01 0.12499967E+03</pdfrwt>
<pdfrwt beam="1">  1       -4 0.22139499E-01 0.12499967E+03</pdfrwt>
<totfact> 0.19422182E+03</totfact>
</mgrwt>
</event>
<event>
 5    1  0.1440092E-002  0.1249951E+03  0.7818608E-02  0.1235077E+00
         -4   -1    0    0    0  501 -0.00000000000E+00  0.00000000000E+00  0.31833105816E+02  0.31858429433E+02  0.12700000000E+01 0. -1.
          4   -1    0    0  501    0  0.00000000000E+00 -0.00000000000E+00 -0.12262337862E+03  0.12262995509E+03  0.12700000000E+01 0. -1.
         25    2    1    2    0    0  0.00000000000E+00  0.00000000000E+00 -0.90790272806E+02  0.15448838452E+03  0.12499514917E+03 0.  0.
    9000005    1    3    3    0    0  0.26751115458E+02 -0.37805396243E+01 -0.11503801883E+03  0.11817216438E+03  0.10000000000E+01 0.  0.
    9000005    1    3    3    0    0 -0.26751115458E+02  0.37805396243E+01  0.24247746023E+02  0.36316220141E+02  0.10000000000E+01 0.  0.
<mgrwt>
<rscale>  0 0.12499515E+03</rscale>
<asrwt>0</asrwt>
<pdfrwt beam="2">  1        4 0.30659831E-01 0.12499515E+03</pdfrwt>
<pdfrwt beam="1">  1       -4 0.79622643E-02 0.12499515E+03</pdfrwt>
<totfact> 0.18322333E+03</totfact>
</mgrwt>
</event>
<event>
 5    1  0.1440092E-002  0.1249959E+03  0.7818608E-02  0.1235076E+00
          4   -1    0    0  501    0  0.00000000000E+00  0.00000000000E+00  0.29173807280E+03  0.29174083708E+03  0.12700000000E+01 0. -1.
         -4   -1    0    0    0  501 -0.00000000000E+00 -0.00000000000E+00 -0.13355751141E+02  0.13415997486E+02  0.12700000000E+01 0. -1.
         25    2    1    2    0    0  0.00000000000E+00  0.00000000000E+00  0.27838232166E+03  0.30515683457E+03  0.12499590662E+03 0.  0.
    9000005    1    3    3    0    0 -0.24235127969E+02 -0.14012643121E+02  0.27558506699E+03  0.27700509877E+03  0.10000000000E+01 0.  0.
    9000005    1    3    3    0    0  0.24235127969E+02  0.14012643121E+02  0.27972546690E+01  0.28151735801E+02  0.10000000000E+01 0.  0.
<mgrwt>
<rscale>  0 0.12499591E+03</rscale>
<asrwt>0</asrwt>
<pdfrwt beam="1">  1        4 0.72942393E-01 0.12499591E+03</pdfrwt>
<pdfrwt beam="2">  1       -4 0.33468142E-02 0.12499591E+03</pdfrwt>
<totfact> 0.12828950E+03</totfact>
</mgrwt>
</event>
<event>
 5    1  0.1440092E-002  0.1250018E+03  0.7818608E-02  0.1235066E+00
         -4   -1    0    0    0  501 -0.00000000000E+00  0.00000000000E+00  0.19691588940E+03  0.19691998476E+03  0.12700000000E+01 0.  1.
          4   -1    0    0  501    0  0.00000000000E+00 -0.00000000000E+00 -0.19813084175E+02  0.19853745353E+02  0.12700000000E+01 0.  1.
         25    2    1    2    0    0  0.00000000000E+00  0.00000000000E+00  0.17710280522E+03  0.21677373011E+03  0.12500178578E+03 0.  0.
    9000005    1    3    3    0    0 -0.19469890618E+01 -0.87329178877E+01 -0.18705087383E+02  0.20758971922E+02  0.10000000000E+01 0.  0.
    9000005    1    3    3    0    0  0.19469890618E+01  0.87329178877E+01  0.19580789261E+03  0.19601475819E+03  0.10000000000E+01 0.  0.
<mgrwt>
<rscale>  0 0.12500179E+03</rscale>
<asrwt>0</asrwt>
<pdfrwt beam="2">  1        4 0.49588656E-02 0.12500179E+03</pdfrwt>
<pdfrwt beam="1">  1       -4 0.49234567E-01 0.12500179E+03</pdfrwt>
<totfact> 0.15671075E+03</totfact>
</mgrwt>
</event>
<event>
 5    1  0.1440092E-002  0.1249958E+03  0.7818608E-02  0.1235076E+00
         -4   -1    0    0    0  501 -0.00000000000E+00  0.00000000000E+00  0.24066673970E+02  0.24100159667E+02  0.12700000000E+01 0. -1.
          4   -1    0    0  501    0  0.00000000000E+00 -0.00000000000E+00 -0.16214978463E+03  0.16215475804E+03  0.12700000000E+01 0. -1.
         25    2    1    2    0    0  0.00000000000E+00  0.00000000000E+00 -0.13808311066E+03  0.18625491770E+03  0.12499579561E+03 0.  0.
    9000005    1    3    3    0    0  0.53685086787E+02  0.83765054826E+01 -0.11503520907E+03  0.12722560164E+03  0.10000000000E+01 0.  0.
    9000005    1    3    3    0    0 -0.53685086787E+02 -0.83765054826E+01 -0.23047901588E+02  0.59029316064E+02  0.10000000000E+01 0.  0.
<mgrwt>
<rscale>  0 0.12499580E+03</rscale>
<asrwt>0</asrwt>
<pdfrwt beam="2">  1        4 0.40542250E-01 0.12499580E+03</pdfrwt>
<pdfrwt beam="1">  1       -4 0.60214763E-02 0.12499580E+03</pdfrwt>
<totfact> 0.16889270E+03</totfact>
</mgrwt>
</event>
<event>
 5    1  0.1440092E-002  0.1250105E+03  0.7818608E-02  0.1235053E+00
          4   -1    0    0  501    0  0.00000000000E+00  0.00000000000E+00  0.31848356457E+01  0.34287137662E+01  0.12700000000E+01 0. -1.
         -4   -1    0    0    0  501 -0.00000000000E+00 -0.00000000000E+00 -0.11812416591E+04  0.11812423418E+04  0.12700000000E+01 0. -1.
         25    2    1    2    0    0  0.00000000000E+00  0.00000000000E+00 -0.11780568235E+04  0.11846710556E+04  0.12501052212E+03 0.  0.
    9000005    1    3    3    0    0  0.15261765034E+02 -0.19536240698E+02 -0.11326996538E+04  0.11329713552E+04  0.10000000000E+01 0.  0.
    9000005    1    3    3    0    0 -0.15261765034E+02  0.19536240698E+02 -0.45357169718E+02  0.51699700361E+02  0.10000000000E+01 0.  0.
<mgrwt>
<rscale>  0 0.12501052E+03</rscale>
<asrwt>0</asrwt>
<pdfrwt beam="1">  1        4 0.82678306E-03 0.12501052E+03</pdfrwt>
<pdfrwt beam="2">  1       -4 0.29533954E+00 0.12501052E+03</pdfrwt>
<totfact> 0.26006502E+02</totfact>
</mgrwt>
</event>
<event>
 5    1  0.1440092E-002  0.1249959E+03  0.7818608E-02  0.1235076E+00
         -4   -1    0    0    0  501 -0.00000000000E+00  0.00000000000E+00  0.11934471842E+03  0.11935147554E+03  0.12700000000E+01 0.  1.
          4   -1    0    0  501    0  0.00000000000E+00 -0.00000000000E+00 -0.32708641709E+02  0.32733287988E+02  0.12700000000E+01 0.  1.
         25    2    1    2    0    0  0.00000000000E+00  0.00000000000E+00  0.86636076709E+02  0.15208476353E+03  0.12499586197E+03 0.  0.
    9000005    1    3    3    0    0  0.13564967682E+02  0.60991368486E+02  0.44556463851E+02  0.76747858921E+02  0.10000000000E+01 0.  0.
    9000005    1    3    3    0    0 -0.13564967682E+02 -0.60991368486E+02  0.42079612858E+02  0.75336904610E+02  0.10000000000E+01 0.  0.
<mgrwt>
<rscale>  0 0.12499586E+03</rscale>
<asrwt>0</asrwt>
<pdfrwt beam="2">  1        4 0.81810859E-02 0.12499586E+03</pdfrwt>
<pdfrwt beam="1">  1       -4 0.29840105E-01 0.12499586E+03</pdfrwt>
<totfact> 0.18438521E+03</totfact>
</mgrwt>
</event>
<event>
 5    1  0.1440092E-002  0.1249991E+03  0.7818608E-02  0.1235071E+00
         -4   -1    0    0    0  501 -0.00000000000E+00  0.00000000000E+00  0.22840989385E+03  0.22841342454E+03  0.12700000000E+01 0.  1.
          4   -1    0    0  501    0  0.00000000000E+00 -0.00000000000E+00 -0.17074442709E+02  0.17121608973E+02  0.12700000000E+01 0.  1.
         25    2    1    2    0    0  0.00000000000E+00  0.00000000000E+00  0.21133545114E+03  0.24553503351E+03  0.12499911908E+03 0.  0.
    9000005    1    3    3    0    0 -0.12905543132E+02 -0.34009885170E+02  0.20547956926E+03  0.20867697217E+03  0.10000000000E+01 0.  0.
    9000005    1    3    3    0    0  0.12905543132E+02  0.34009885170E+02  0.58558818835E+01  0.36858061336E+02  0.10000000000E+01 0.  0.
<mgrwt>
<rscale>  0 0.12499912E+03</rscale>
<asrwt>0</asrwt>
<pdfrwt beam="2">  1        4 0.42749479E-02 0.12499912E+03</pdfrwt>
<pdfrwt beam="1">  1       -4 0.57108809E-01 0.12499912E+03</pdfrwt>
<totfact> 0.14647947E+03</totfact>
</mgrwt>
</event>
<event>
 5    1  0.1440092E-002  0.1249981E+03  0.7818608E-02  0.1235072E+00
          4   -1    0    0  501    0  0.00000000000E+00  0.00000000000E+00  0.18208721755E+03  0.18209164641E+03  0.12700000000E+01 0.  1.
         -4   -1    0    0    0  501 -0.00000000000E+00 -0.00000000000E+00 -0.21428486375E+02  0.21466087868E+02  0.12700000000E+01 0.  1.
         25    2    1    2    0    0  0.00000000000E+00  0.00000000000E+00  0.16065873117E+03  0.20355773428E+03  0.12499809312E+03 0.  0.
    9000005    1    3    3    0    0 -0.41354317670E+02  0.21893679067E+02  0.12877413376E+02  0.48542152283E+02  0.10000000000E+01 0.  0.
    9000005    1    3    3    0    0  0.41354317670E+02 -0.21893679067E+02  0.14778131779E+03  0.15501558200E+03  0.10000000000E+01 0.  0.
<mgrwt>
<rscale>  0 0.12499809E+03</rscale>
<asrwt>0</asrwt>
<pdfrwt beam="1">  1        4 0.45527058E-01 0.12499809E+03</pdfrwt>
<pdfrwt beam="2">  1       -4 0.53623755E-02 0.12499809E+03</pdfrwt>
<totfact> 0.16181282E+03</totfact>
</mgrwt>
</event>
<event>
 5    1  0.1440092E-002  0.1249890E+03  0.7818608E-02  0.1235086E+00
          4   -1    0    0  501    0  0.00000000000E+00  0.00000000000E+00  0.97629079387E+01  0.98451648751E+01  0.12700000000E+01 0. -1.
         -4   -1    0    0    0  501 -0.00000000000E+00 -0.00000000000E+00 -0.39827966880E+03  0.39828169363E+03  0.12700000000E+01 0. -1.
         25    2    1    2    0    0  0.00000000000E+00  0.00000000000E+00 -0.38851676086E+03  0.40812685850E+03  0.12498903617E+03 0.  0.
    9000005    1    3    3    0    0  0.59368890339E+02 -0.19355973870E+02 -0.20173722196E+03  0.21118291974E+03  0.10000000000E+01 0.  0.
    9000005    1    3    3    0    0 -0.59368890339E+02  0.19355973870E+02 -0.18677953890E+03  0.19694393876E+03  0.10000000000E+01 0.  0.
<mgrwt>
<rscale>  0 0.12498904E+03</rscale>
<asrwt>0</asrwt>
<pdfrwt beam="1">  1        4 0.24512635E-02 0.12498904E+03</pdfrwt>
<pdfrwt beam="2">  1       -4 0.99580398E-01 0.12498904E+03</pdfrwt>
<totfact> 0.10406293E+03</totfact>
</mgrwt>
</event>
<event>
 5    1  0.1440092E-002  0.1249903E+03  0.7818608E-02  0.1235084E+00
          4   -1    0    0  501    0  0.00000000000E+00  0.00000000000E+00  0.18534758868E+02  0.18578218061E+02  0.12700000000E+01 0. -1.
         -4   -1    0    0    0  501 -0.00000000000E+00 -0.00000000000E+00 -0.21042784748E+03  0.21043167988E+03  0.12700000000E+01 0. -1.
         25    2    1    2    0    0  0.00000000000E+00  0.00000000000E+00 -0.19189308861E+03  0.22900989794E+03  0.12499030321E+03 0.  0.
    9000005    1    3    3    0    0  0.14194927593E+02 -0.42408627161E+01 -0.20717253631E+03  0.20770397369E+03  0.10000000000E+01 0.  0.
    9000005    1    3    3    0    0 -0.14194927593E+02  0.42408627161E+01  0.15279447699E+02  0.21305924245E+02  0.10000000000E+01 0.  0.
<mgrwt>
<rscale>  0 0.12499030E+03</rscale>
<asrwt>0</asrwt>
<pdfrwt beam="1">  1        4 0.46396018E-02 0.12499030E+03</pdfrwt>
<pdfrwt beam="2">  1       -4 0.52612866E-01 0.12499030E+03</pdfrwt>
<totfact> 0.15226159E+03</totfact>
</mgrwt>
</event>
<event>
 5    1  0.1440092E-002  0.1250036E+03  0.7818608E-02  0.1235064E+00
          4   -1    0    0  501    0  0.00000000000E+00  0.00000000000E+00  0.12983690075E+02  0.13045654754E+02  0.12700000000E+01 0. -1.
         -4   -1    0    0    0  501 -0.00000000000E+00 -0.00000000000E+00 -0.30009622811E+03  0.30009891540E+03  0.12700000000E+01 0. -1.
         25    2    1    2    0    0  0.00000000000E+00  0.00000000000E+00 -0.28711253804E+03  0.31314457016E+03  0.12500364923E+03 0.  0.
    9000005    1    3    3    0    0 -0.15902645647E+02  0.59621895634E+02 -0.16833172180E+03  0.17928812884E+03  0.10000000000E+01 0.  0.
    9000005    1    3    3    0    0  0.15902645647E+02 -0.59621895634E+02 -0.11878081623E+03  0.13385644132E+03  0.10000000000E+01 0.  0.
<mgrwt>
<rscale>  0 0.12500365E+03</rscale>
<asrwt>0</asrwt>
<pdfrwt beam="1">  1        4 0.32540050E-02 0.12500365E+03</pdfrwt>
<pdfrwt beam="2">  1       -4 0.75032116E-01 0.12500365E+03</pdfrwt>
<totfact> 0.12609439E+03</totfact>
</mgrwt>
</event>
<event>
 5    1  0.1440092E-002  0.1249969E+03  0.7818608E-02  0.1235074E+00
         -4   -1    0    0    0  501 -0.00000000000E+00  0.00000000000E+00  0.47706650311E+03  0.47706819354E+03  0.12700000000E+01 0.  1.
          4   -1    0    0  501    0  0.00000000000E+00 -0.00000000000E+00 -0.81366933729E+01  0.82352097146E+01  0.12700000000E+01 0.  1.
         25    2    1    2    0    0  0.00000000000E+00  0.00000000000E+00  0.46892980974E+03  0.48530340326E+03  0.12499690697E+03 0.  0.
    9000005    1    3    3    0    0 -0.17898167894E+01  0.38331906421E+01 -0.75991326581E+01  0.87546337327E+01  0.10000000000E+01 0.  0.
    9000005    1    3    3    0    0  0.17898167894E+01 -0.38331906421E+01  0.47652894239E+03  0.47654876952E+03  0.10000000000E+01 0.  0.
<mgrwt>
<rscale>  0 0.12499691E+03</rscale>
<asrwt>0</asrwt>
<pdfrwt beam="2">  1        4 0.20466993E-02 0.12499691E+03</pdfrwt>
<pdfrwt beam="1">  1       -4 0.11927914E+00 0.12499691E+03</pdfrwt>
<totfact> 0.89997348E+02</totfact>
</mgrwt>
</event>
<event>
 5    1  0.1440092E-002  0.1250004E+03  0.7818608E-02  0.1235069E+00
         -4   -1    0    0    0  501 -0.00000000000E+00  0.00000000000E+00  0.33129382331E+03  0.33129625754E+03  0.12700000000E+01 0.  1.
          4   -1    0    0  501    0  0.00000000000E+00 -0.00000000000E+00 -0.11754286331E+02  0.11822696273E+02  0.12700000000E+01 0.  1.
         25    2    1    2    0    0  0.00000000000E+00  0.00000000000E+00  0.31953953698E+03  0.34311895382E+03  0.12500040310E+03 0.  0.
    9000005    1    3    3    0    0  0.85810318721E+01  0.18691203590E+02  0.32175116521E+03  0.32240937876E+03  0.10000000000E+01 0.  0.
    9000005    1    3    3    0    0 -0.85810318721E+01 -0.18691203590E+02 -0.22116282291E+01  0.20709575058E+02  0.10000000000E+01 0.  0.
<mgrwt>
<rscale>  0 0.12500040E+03</rscale>
<asrwt>0</asrwt>
<pdfrwt beam="2">  1        4 0.29474271E-02 0.12500040E+03</pdfrwt>
<pdfrwt beam="1">  1       -4 0.82832310E-01 0.12500040E+03</pdfrwt>
<totfact> 0.11843078E+03</totfact>
</mgrwt>
</event>
<event>
 5    1  0.1440092E-002  0.1249975E+03  0.7818608E-02  0.1235073E+00
          4   -1    0    0  501    0  0.00000000000E+00  0.00000000000E+00  0.25004801629E+02  0.25037032662E+02  0.12700000000E+01 0.  1.
         -4   -1    0    0    0  501 -0.00000000000E+00 -0.00000000000E+00 -0.15607833917E+03  0.15608350604E+03  0.12700000000E+01 0.  1.
         25    2    1    2    0    0  0.00000000000E+00  0.00000000000E+00 -0.13107353754E+03  0.18112053870E+03  0.12499750916E+03 0.  0.
    9000005    1    3    3    0    0  0.11699976746E+02  0.18838657684E+01  0.23368804509E+02  0.26220973099E+02  0.10000000000E+01 0.  0.
    9000005    1    3    3    0    0 -0.11699976746E+02 -0.18838657684E+01 -0.15444234205E+03  0.15489956560E+03  0.10000000000E+01 0.  0.
<mgrwt>
<rscale>  0 0.12499751E+03</rscale>
<asrwt>0</asrwt>
<pdfrwt beam="1">  1        4 0.62558756E-02 0.12499751E+03</pdfrwt>
<pdfrwt beam="2">  1       -4 0.39024257E-01 0.12499751E+03</pdfrwt>
<totfact> 0.17107810E+03</totfact>
</mgrwt>
</event>
<event>
 5    1  0.1440092E-002  0.1249922E+03  0.7818608E-02  0.1235081E+00
          4   -1    0    0  501    0  0.00000000000E+00  0.00000000000E+00  0.53729335877E+01  0.55209886196E+01  0.12700000000E+01 0.  1.
         -4   -1    0    0    0  501 -0.00000000000E+00 -0.00000000000E+00 -0.71690475735E+03  0.71690588225E+03  0.12700000000E+01 0.  1.
         25    2    1    2    0    0  0.00000000000E+00  0.00000000000E+00 -0.71153182376E+03  0.72242687087E+03  0.12499218989E+03 0.  0.
    9000005    1    3    3    0    0  0.47385217761E+02  0.15287448735E+02 -0.57400102187E+03  0.57615730323E+03  0.10000000000E+01 0.  0.
    9000005    1    3    3    0    0 -0.47385217761E+02 -0.15287448735E+02 -0.13753080188E+03  0.14626956764E+03  0.10000000000E+01 0.  0.
<mgrwt>
<rscale>  0 0.12499219E+03</rscale>
<asrwt>0</asrwt>
<pdfrwt beam="1">  1        4 0.13618833E-02 0.12499219E+03</pdfrwt>
<pdfrwt beam="2">  1       -4 0.17924451E+00 0.12499219E+03</pdfrwt>
<totfact> 0.59780057E+02</totfact>
</mgrwt>
</event>
<event>
 5    1  0.1440092E-002  0.1250028E+03  0.7818608E-02  0.1235065E+00
          4   -1    0    0  501    0  0.00000000000E+00  0.00000000000E+00  0.34282749543E+02  0.34306264971E+02  0.12700000000E+01 0.  1.
         -4   -1    0    0    0  501 -0.00000000000E+00 -0.00000000000E+00 -0.11388119769E+03  0.11388827898E+03  0.12700000000E+01 0.  1.
         25    2    1    2    0    0  0.00000000000E+00  0.00000000000E+00 -0.79598448150E+02  0.14819454395E+03  0.12500283960E+03 0.  0.
    9000005    1    3    3    0    0  0.65835234169E+01 -0.54621628841E+02 -0.74938971223E+02  0.92971579130E+02  0.10000000000E+01 0.  0.
    9000005    1    3    3    0    0 -0.65835234169E+01  0.54621628841E+02 -0.46594769263E+01  0.55222964816E+02  0.10000000000E+01 0.  0.
<mgrwt>
<rscale>  0 0.12500284E+03</rscale>
<asrwt>0</asrwt>
<pdfrwt beam="1">  1        4 0.85745123E-02 0.12500284E+03</pdfrwt>
<pdfrwt beam="2">  1       -4 0.28474123E-01 0.12500284E+03</pdfrwt>
<totfact> 0.18626682E+03</totfact>
</mgrwt>
</event>
<event>
 4    1  0.1440092E-002  0.1250768E+03  0.7818608E-02  0.1234949E+00
          4   -1    0    0  501    0  0.00000000000E+00  0.00000000000E+00  0.58191720627E+03  0.58191859211E+03  0.12700000000E+01 0. -1.
         -4   -1    0    0    0  501 -0.00000000000E+00 -0.00000000000E+00 -0.66595698513E+01  0.67795848401E+01  0.12700000000E+01 0. -1.
    9000005    1    1    2    0    0  0.23655347297E+02 -0.48436753986E+02  0.43679127688E+03  0.44010602604E+03  0.10000000000E+01 0.  0.
    9000005    1    1    2    0    0 -0.23655347297E+02  0.48436753986E+02  0.13846635953E+03  0.14859215092E+03  0.10000000000E+01 0.  0.
<mgrwt>
<rscale>  0 0.12507676E+03</rscale>
<asrwt>0</asrwt>
<pdfrwt beam="1">  1        4 0.14549449E+00 0.12507676E+03</pdfrwt>
<pdfrwt beam="2">  1       -4 0.16800674E-02 0.12507676E+03</pdfrwt>
<totfact> 0.74813496E+02</totfact>
</mgrwt>
</event>
<event>
 5    1  0.1440092E-002  0.1250000E+03  0.7818608E-02  0.1235069E+00
          4   -1    0    0  501    0  0.00000000000E+00  0.00000000000E+00  0.19333077425E+03  0.19333494555E+03  0.12700000000E+01 0.  1.
         -4   -1    0    0    0  501 -0.00000000000E+00 -0.00000000000E+00 -0.20180665979E+02  0.20220588008E+02  0.12700000000E+01 0.  1.
         25    2    1    2    0    0  0.00000000000E+00  0.00000000000E+00  0.17315010827E+03  0.21355553356E+03  0.12500002368E+03 0.  0.
    9000005    1    3    3    0    0  0.64479568696E+01  0.25392606962E+02 -0.10353974083E+02  0.28188036743E+02  0.10000000000E+01 0.  0.
    9000005    1    3    3    0    0 -0.64479568696E+01 -0.25392606962E+02  0.18350408235E+03  0.18536749682E+03  0.10000000000E+01 0.  0.
<mgrwt>
<rscale>  0 0.12500002E+03</rscale>
<asrwt>0</asrwt>
<pdfrwt beam="1">  1        4 0.48338205E-01 0.12500002E+03</pdfrwt>
<pdfrwt beam="2">  1       -4 0.50506781E-02 0.12500002E+03</pdfrwt>
<totfact> 0.15793263E+03</totfact>
</mgrwt>
</event>
<event>
 5    1  0.1440092E-002  0.1250371E+03  0.7818608E-02  0.1235011E+00
         -4   -1    0    0    0  501 -0.00000000000E+00  0.00000000000E+00  0.28303598425E+02  0.28332076941E+02  0.12700000000E+01 0.  1.
          4   -1    0    0  501    0  0.00000000000E+00 -0.00000000000E+00 -0.13799367494E+03  0.13799951892E+03  0.12700000000E+01 0.  1.
         25    2    1    2    0    0  0.00000000000E+00  0.00000000000E+00 -0.10969007651E+03  0.16633159586E+03  0.12503714207E+03 0.  0.
    9000005    1    3    3    0    0  0.52515862219E+02  0.10200025230E+02 -0.97860214477E+02  0.11153285559E+03  0.10000000000E+01 0.  0.
    9000005    1    3    3    0    0 -0.52515862219E+02 -0.10200025230E+02 -0.11829862036E+02  0.54798740270E+02  0.10000000000E+01 0.  0.
<mgrwt>
<rscale>  0 0.12503714E+03</rscale>
<asrwt>0</asrwt>
<pdfrwt beam="2">  1        4 0.34502707E-01 0.12503714E+03</pdfrwt>
<pdfrwt beam="1">  1       -4 0.70801903E-02 0.12503714E+03</pdfrwt>
<totfact> 0.17748474E+03</totfact>
</mgrwt>
</event>
<event>
 5    1  0.1440092E-002  0.1250003E+03  0.7818608E-02  0.1235069E+00
          4   -1    0    0  501    0  0.00000000000E+00  0.00000000000E+00  0.19596949536E+03  0.19597361050E+03  0.12700000000E+01 0.  1.
         -4   -1    0    0    0  501 -0.00000000000E+00 -0.00000000000E+00 -0.19908480592E+02  0.19948947327E+02  0.12700000000E+01 0.  1.
         25    2    1    2    0    0  0.00000000000E+00  0.00000000000E+00  0.17606101477E+03  0.21592255783E+03  0.12500028023E+03 0.  0.
    9000005    1    3    3    0    0 -0.21185920419E+02 -0.26453589515E+02  0.17872406073E+03  0.18191186192E+03  0.10000000000E+01 0.  0.
    9000005    1    3    3    0    0  0.21185920419E+02  0.26453589515E+02 -0.26630459637E+01  0.34010695907E+02  0.10000000000E+01 0.  0.
<mgrwt>
<rscale>  0 0.12500028E+03</rscale>
<asrwt>0</asrwt>
<pdfrwt beam="1">  1        4 0.48997946E-01 0.12500028E+03</pdfrwt>
<pdfrwt beam="2">  1       -4 0.49826929E-02 0.12500028E+03</pdfrwt>
<totfact> 0.15703624E+03</totfact>
</mgrwt>
</event>
<event>
 5    1  0.1440092E-002  0.1250124E+03  0.7818608E-02  0.1235050E+00
          4   -1    0    0  501    0  0.00000000000E+00  0.00000000000E+00  0.27263373216E+01  0.30076261721E+01  0.12700000000E+01 0.  1.
         -4   -1    0    0    0  501 -0.00000000000E+00 -0.00000000000E+00 -0.13624852818E+04  0.13624858737E+04  0.12700000000E+01 0.  1.
         25    2    1    2    0    0  0.00000000000E+00  0.00000000000E+00 -0.13597589445E+04  0.13654934999E+04  0.12501244375E+03 0.  0.
    9000005    1    3    3    0    0  0.58854026696E+02  0.14392767658E+02 -0.84735209488E+03  0.84951605100E+03  0.10000000000E+01 0.  0.
    9000005    1    3    3    0    0 -0.58854026696E+02 -0.14392767658E+02 -0.51240684961E+03  0.51597744887E+03  0.10000000000E+01 0.  0.
<mgrwt>
<rscale>  0 0.12501244E+03</rscale>
<asrwt>0</asrwt>
<pdfrwt beam="1">  1        4 0.71682410E-03 0.12501244E+03</pdfrwt>
<pdfrwt beam="2">  1       -4 0.34065434E+00 0.12501244E+03</pdfrwt>
<totfact> 0.17470186E+02</totfact>
</mgrwt>
</event>
<event>
 5    1  0.1440092E-002  0.1249975E+03  0.7818608E-02  0.1235073E+00
          4   -1    0    0  501    0  0.00000000000E+00  0.00000000000E+00  0.23460979076E+03  0.23461322814E+03  0.12700000000E+01 0. -1.
         -4   -1    0    0    0  501 -0.00000000000E+00 -0.00000000000E+00 -0.16621547097E+02  0.16669994838E+02  0.12700000000E+01 0. -1.
         25    2    1    2    0    0  0.00000000000E+00  0.00000000000E+00  0.21798824366E+03  0.25128322298E+03  0.12499753508E+03 0.  0.
    9000005    1    3    3    0    0  0.29019538030E+01 -0.62422226245E+02  0.10824118502E+03  0.12498843867E+03  0.10000000000E+01 0.  0.
    9000005    1    3    3    0    0 -0.29019538030E+01  0.62422226245E+02  0.10974705864E+03  0.12629478431E+03  0.10000000000E+01 0.  0.
<mgrwt>
<rscale>  0 0.12499754E+03</rscale>
<asrwt>0</asrwt>
<pdfrwt beam="1">  1        4 0.58658931E-01 0.12499754E+03</pdfrwt>
<pdfrwt beam="2">  1       -4 0.41618726E-02 0.12499754E+03</pdfrwt>
<totfact> 0.14456217E+03</totfact>
</mgrwt>
</event>
<event>
 5    1  0.1440092E-002  0.1249973E+03  0.7818608E-02  0.1235073E+00
         -4   -1    0    0    0  501 -0.00000000000E+00  0.00000000000E+00  0.39729437799E+01  0.41709929607E+01  0.12700000000E+01 0. -1.
          4   -1    0    0  501    0  0.00000000000E+00 -0.00000000000E+00 -0.95906310680E+03  0.95906394767E+03  0.12700000000E+01 0. -1.
         25    2    1    2    0    0  0.00000000000E+00  0.00000000000E+00 -0.95509016302E+03  0.96323494063E+03  0.12499732541E+03 0.  0.
    9000005    1    3    3    0    0  0.22190010731E+01  0.56922669017E+02 -0.67551224141E+03  0.67791068918E+03  0.10000000000E+01 0.  0.
    9000005    1    3    3    0    0 -0.22190010731E+01 -0.56922669017E+02 -0.27957792161E+03  0.28532425145E+03  0.10000000000E+01 0.  0.
<mgrwt>
<rscale>  0 0.12499733E+03</rscale>
<asrwt>0</asrwt>
<pdfrwt beam="2">  1        4 0.23978987E+00 0.12499733E+03</pdfrwt>
<pdfrwt beam="1">  1       -4 0.10181005E-02 0.12499733E+03</pdfrwt>
<totfact> 0.39640180E+02</totfact>
</mgrwt>
</event>
<event>
 5    1  0.1440092E-002  0.1249962E+03  0.7818608E-02  0.1235075E+00
          4   -1    0    0  501    0  0.00000000000E+00  0.00000000000E+00  0.13192497848E+02  0.13253486314E+02  0.12700000000E+01 0.  1.
         -4   -1    0    0    0  501 -0.00000000000E+00 -0.00000000000E+00 -0.29533296877E+03  0.29533569940E+03  0.12700000000E+01 0.  1.
         25    2    1    2    0    0  0.00000000000E+00  0.00000000000E+00 -0.28214047092E+03  0.30858918572E+03  0.12499616078E+03 0.  0.
    9000005    1    3    3    0    0  0.44257401081E+02 -0.27848387438E+02 -0.56597232580E+02  0.77061643955E+02  0.10000000000E+01 0.  0.
    9000005    1    3    3    0    0 -0.44257401081E+02  0.27848387438E+02 -0.22554323834E+03  0.23152754176E+03  0.10000000000E+01 0.  0.
<mgrwt>
<rscale>  0 0.12499616E+03</rscale>
<asrwt>0</asrwt>
<pdfrwt beam="1">  1        4 0.33060903E-02 0.12499616E+03</pdfrwt>
<pdfrwt beam="2">  1       -4 0.73841186E-01 0.12499616E+03</pdfrwt>
<totfact> 0.12734819E+03</totfact>
</mgrwt>
</event>
<event>
 5    1  0.1440092E-002  0.1250005E+03  0.7818608E-02  0.1235069E+00
         -4   -1    0    0    0  501 -0.00000000000E+00  0.00000000000E+00  0.51899822248E+02  0.51915358512E+02  0.12700000000E+01 0.  1.
          4   -1    0    0  501    0  0.00000000000E+00 -0.00000000000E+00 -0.75233604643E+02  0.75244323158E+02  0.12700000000E+01 0.  1.
         25    2    1    2    0    0  0.00000000000E+00  0.00000000000E+00 -0.23333782395E+02  0.12715968167E+03  0.12500047697E+03 0.  0.
    9000005    1    3    3    0    0  0.27751314194E+02  0.23591110956E+02  0.39990215248E+02  0.54100769599E+02  0.10000000000E+01 0.  0.
    9000005    1    3    3    0    0 -0.27751314194E+02 -0.23591110956E+02 -0.63323997642E+02  0.73058912071E+02  0.10000000000E+01 0.  0.
<mgrwt>
<rscale>  0 0.12500048E+03</rscale>
<asrwt>0</asrwt>
<pdfrwt beam="2">  1        4 0.18811683E-01 0.12500048E+03</pdfrwt>
<pdfrwt beam="1">  1       -4 0.12978237E-01 0.12500048E+03</pdfrwt>
<totfact> 0.19718118E+03</totfact>
</mgrwt>
</event>
<event>
 5    1  0.1440092E-002  0.1249967E+03  0.7818608E-02  0.1235074E+00
         -4   -1    0    0    0  501 -0.00000000000E+00  0.00000000000E+00  0.20617535886E+03  0.20617927030E+03  0.12700000000E+01 0. -1.
          4   -1    0    0  501    0  0.00000000000E+00 -0.00000000000E+00 -0.18919879188E+02  0.18962455761E+02  0.12700000000E+01 0. -1.
         25    2    1    2    0    0  0.00000000000E+00  0.00000000000E+00  0.18725547967E+03  0.22514172606E+03  0.12499672854E+03 0.  0.
    9000005    1    3    3    0    0  0.52983629135E+02  0.32319155524E+02  0.10677176650E+03  0.12350304811E+03  0.10000000000E+01 0.  0.
    9000005    1    3    3    0    0 -0.52983629135E+02 -0.32319155524E+02  0.80483713168E+02  0.10163867795E+03  0.10000000000E+01 0.  0.
<mgrwt>
<rscale>  0 0.12499673E+03</rscale>
<asrwt>0</asrwt>
<pdfrwt beam="2">  1        4 0.47357809E-02 0.12499673E+03</pdfrwt>
<pdfrwt beam="1">  1       -4 0.51549650E-01 0.12499673E+03</pdfrwt>
<totfact> 0.15363635E+03</totfact>
</mgrwt>
</event>
<event>
 5    1  0.1440092E-002  0.1249934E+03  0.7818608E-02  0.1235080E+00
         -4   -1    0    0    0  501 -0.00000000000E+00  0.00000000000E+00  0.96383799763E+02  0.96392166470E+02  0.12700000000E+01 0.  1.
          4   -1    0    0  501    0  0.00000000000E+00 -0.00000000000E+00 -0.40503722140E+02  0.40523627765E+02  0.12700000000E+01 0.  1.
         25    2    1    2    0    0  0.00000000000E+00  0.00000000000E+00  0.55880077623E+02  0.13691579423E+03  0.12499340637E+03 0.  0.
    9000005    1    3    3    0    0 -0.39770721633E+01  0.59032017820E+02  0.49963571854E+02  0.77446463724E+02  0.10000000000E+01 0.  0.
    9000005    1    3    3    0    0  0.39770721633E+01 -0.59032017820E+02  0.59165057689E+01  0.59469330511E+02  0.10000000000E+01 0.  0.
<mgrwt>
<rscale>  0 0.12499341E+03</rscale>
<asrwt>0</asrwt>
<pdfrwt beam="2">  1        4 0.10129465E-01 0.12499341E+03</pdfrwt>
<pdfrwt beam="1">  1       -4 0.24099484E-01 0.12499341E+03</pdfrwt>
<totfact> 0.19202208E+03</totfact>
</mgrwt>
</event>
<event>
 5    1  0.1440092E-002  0.1249970E+03  0.7818608E-02  0.1235074E+00
          4   -1    0    0  501    0  0.00000000000E+00  0.00000000000E+00  0.28013112057E+02  0.28041885584E+02  0.12700000000E+01 0.  1.
         -4   -1    0    0    0  501 -0.00000000000E+00 -0.00000000000E+00 -0.13933378570E+03  0.13933957348E+03  0.12700000000E+01 0.  1.
         25    2    1    2    0    0  0.00000000000E+00  0.00000000000E+00 -0.11132067365E+03  0.16738145907E+03  0.12499704180E+03 0.  0.
    9000005    1    3    3    0    0 -0.49937828796E+02 -0.37208099497E+02 -0.48723458262E+02  0.79077207829E+02  0.10000000000E+01 0.  0.
    9000005    1    3    3    0    0  0.49937828796E+02  0.37208099497E+02 -0.62597215385E+02  0.88304251240E+02  0.10000000000E+01 0.  0.
<mgrwt>
<rscale>  0 0.12499704E+03</rscale>
<asrwt>0</asrwt>
<pdfrwt beam="1">  1        4 0.70075986E-02 0.12499704E+03</pdfrwt>
<pdfrwt beam="2">  1       -4 0.34837765E-01 0.12499704E+03</pdfrwt>
<totfact> 0.17717022E+03</totfact>
</mgrwt>
</event>
<event>
 5    1  0.1440092E-002  0.1250141E+03  0.7818608E-02  0.1235047E+00
         -4   -1    0    0    0  501 -0.00000000000E+00  0.00000000000E+00  0.34160085089E+03  0.34160321167E+03  0.12700000000E+01 0. -1.
          4   -1    0    0  501    0  0.00000000000E+00 -0.00000000000E+00 -0.11400053698E+02  0.11470576460E+02  0.12700000000E+01 0. -1.
         25    2    1    2    0    0  0.00000000000E+00  0.00000000000E+00  0.33020079719E+03  0.35307378813E+03  0.12501413281E+03 0.  0.
    9000005    1    3    3    0    0 -0.46714998166E+02 -0.36719639840E+02  0.21982937413E+03  0.22772039157E+03  0.10000000000E+01 0.  0.
    9000005    1    3    3    0    0  0.46714998166E+02  0.36719639840E+02  0.11037142305E+03  0.12535339657E+03  0.10000000000E+01 0.  0.
<mgrwt>
<rscale>  0 0.12501413E+03</rscale>
<asrwt>0</asrwt>
<pdfrwt beam="2">  1        4 0.28591240E-02 0.12501413E+03</pdfrwt>
<pdfrwt beam="1">  1       -4 0.85409320E-01 0.12501413E+03</pdfrwt>
<totfact> 0.11600606E+03</totfact>
</mgrwt>
</event>
<event>
 5    1  0.1440092E-002  0.1249999E+03  0.7818608E-02  0.1235070E+00
          4   -1    0    0  501    0  0.00000000000E+00  0.00000000000E+00  0.15863402667E+02  0.15914158608E+02  0.12700000000E+01 0.  1.
         -4   -1    0    0    0  501 -0.00000000000E+00 -0.00000000000E+00 -0.24579658845E+03  0.24579986939E+03  0.12700000000E+01 0.  1.
         25    2    1    2    0    0  0.00000000000E+00  0.00000000000E+00 -0.22993318578E+03  0.26171402800E+03  0.12499985011E+03 0.  0.
    9000005    1    3    3    0    0  0.19335494419E+02  0.37645124299E+02 -0.18696143565E+02  0.46277019265E+02  0.10000000000E+01 0.  0.
    9000005    1    3    3    0    0 -0.19335494419E+02 -0.37645124299E+02 -0.21123704222E+03  0.21543700874E+03  0.10000000000E+01 0.  0.
<mgrwt>
<rscale>  0 0.12499985E+03</rscale>
<asrwt>0</asrwt>
<pdfrwt beam="1">  1        4 0.39726061E-02 0.12499985E+03</pdfrwt>
<pdfrwt beam="2">  1       -4 0.61455890E-01 0.12499985E+03</pdfrwt>
<totfact> 0.14116327E+03</totfact>
</mgrwt>
</event>
<event>
 5    1  0.1440092E-002  0.1249912E+03  0.7818608E-02  0.1235083E+00
          4   -1    0    0  501    0  0.00000000000E+00  0.00000000000E+00  0.84894460100E+01  0.85839148153E+01  0.12700000000E+01 0. -1.
         -4   -1    0    0    0  501 -0.00000000000E+00 -0.00000000000E+00 -0.45742442879E+03  0.45742619181E+03  0.12700000000E+01 0. -1.
         25    2    1    2    0    0  0.00000000000E+00  0.00000000000E+00 -0.44893498278E+03  0.46601010662E+03  0.12499120254E+03 0.  0.
    9000005    1    3    3    0    0 -0.61048167775E+02  0.73477010828E+01 -0.26595654443E+03  0.27297390173E+03  0.10000000000E+01 0.  0.
    9000005    1    3    3    0    0  0.61048167775E+02 -0.73477010828E+01 -0.18297843835E+03  0.19303620489E+03  0.10000000000E+01 0.  0.
<mgrwt>
<rscale>  0 0.12499120E+03</rscale>
<asrwt>0</asrwt>
<pdfrwt beam="1">  1        4 0.21343920E-02 0.12499120E+03</pdfrwt>
<pdfrwt beam="2">  1       -4 0.11436805E+00 0.12499120E+03</pdfrwt>
<totfact> 0.93230696E+02</totfact>
</mgrwt>
</event>
<event>
 5    1  0.1440092E-002  0.1249991E+03  0.7818608E-02  0.1235071E+00
          4   -1    0    0  501    0  0.00000000000E+00  0.00000000000E+00  0.31239627569E+02  0.31265431880E+02  0.12700000000E+01 0.  1.
         -4   -1    0    0    0  501 -0.00000000000E+00 -0.00000000000E+00 -0.12495899977E+03  0.12496545332E+03  0.12700000000E+01 0.  1.
         25    2    1    2    0    0  0.00000000000E+00  0.00000000000E+00 -0.93719372200E+02  0.15623088520E+03  0.12499907505E+03 0.  0.
    9000005    1    3    3    0    0  0.42440552224E+02  0.36332291988E+02 -0.11864684723E+02  0.57122733284E+02  0.10000000000E+01 0.  0.
    9000005    1    3    3    0    0 -0.42440552224E+02 -0.36332291988E+02 -0.81854687477E+02  0.99108151916E+02  0.10000000000E+01 0.  0.
<mgrwt>
<rscale>  0 0.12499908E+03</rscale>
<asrwt>0</asrwt>
<pdfrwt beam="1">  1        4 0.78139394E-02 0.12499908E+03</pdfrwt>
<pdfrwt beam="2">  1       -4 0.31243781E-01 0.12499908E+03</pdfrwt>
<totfact> 0.18236983E+03</totfact>
</mgrwt>
</event>
<event>
 5    1  0.1440092E-002  0.1249879E+03  0.7818608E-02  0.1235088E+00
         -4   -1    0    0    0  501 -0.00000000000E+00  0.00000000000E+00  0.23131188201E+03  0.23131536840E+03  0.12700000000E+01 0. -1.
          4   -1    0    0  501    0  0.00000000000E+00 -0.00000000000E+00 -0.16856602768E+02  0.16904376856E+02  0.12700000000E+01 0. -1.
         25    2    1    2    0    0  0.00000000000E+00  0.00000000000E+00  0.21445527924E+03  0.24821974525E+03  0.12498789998E+03 0.  0.
    9000005    1    3    3    0    0 -0.40735167751E+02  0.21506844385E+01  0.13224528117E+02  0.42893676447E+02  0.10000000000E+01 0.  0.
    9000005    1    3    3    0    0  0.40735167751E+02 -0.21506844385E+01  0.20123075112E+03  0.20532606881E+03  0.10000000000E+01 0.  0.
<mgrwt>
<rscale>  0 0.12498790E+03</rscale>
<asrwt>0</asrwt>
<pdfrwt beam="2">  1        4 0.42205582E-02 0.12498790E+03</pdfrwt>
<pdfrwt beam="1">  1       -4 0.57834378E-01 0.12498790E+03</pdfrwt>
<totfact> 0.14561450E+03</totfact>
</mgrwt>
</event>
<event>
 5    1  0.1440092E-002  0.1249890E+03  0.7818608E-02  0.1235086E+00
          4   -1    0    0  501    0  0.00000000000E+00  0.00000000000E+00  0.16069412763E+03  0.16069914609E+03  0.12700000000E+01 0.  1.
         -4   -1    0    0    0  501 -0.00000000000E+00 -0.00000000000E+00 -0.24282342859E+02  0.24315531553E+02  0.12700000000E+01 0.  1.
         25    2    1    2    0    0  0.00000000000E+00  0.00000000000E+00  0.13641178477E+03  0.18501467764E+03  0.12498902320E+03 0.  0.
    9000005    1    3    3    0    0 -0.26019996757E+02 -0.37968211274E+02  0.56500925700E+01  0.46384791092E+02  0.10000000000E+01 0.  0.
    9000005    1    3    3    0    0  0.26019996757E+02  0.37968211274E+02  0.13076169220E+03  0.13862988655E+03  0.10000000000E+01 0.  0.
<mgrwt>
<rscale>  0 0.12498902E+03</rscale>
<asrwt>0</asrwt>
<pdfrwt beam="1">  1        4 0.40178307E-01 0.12498902E+03</pdfrwt>
<pdfrwt beam="2">  1       -4 0.60753617E-02 0.12498902E+03</pdfrwt>
<totfact> 0.16944508E+03</totfact>
</mgrwt>
</event>
<event>
 5    1  0.1440092E-002  0.1250050E+03  0.7818608E-02  0.1235061E+00
         -4   -1    0    0    0  501 -0.00000000000E+00  0.00000000000E+00  0.23387720605E+03  0.23388065420E+03  0.12700000000E+01 0. -1.
          4   -1    0    0  501    0  0.00000000000E+00 -0.00000000000E+00 -0.16675768704E+02  0.16724059372E+02  0.12700000000E+01 0. -1.
         25    2    1    2    0    0  0.00000000000E+00  0.00000000000E+00  0.21720143735E+03  0.25060471357E+03  0.12500503222E+03 0.  0.
    9000005    1    3    3    0    0  0.55798682115E+02 -0.26684496077E+02  0.12653284852E+03  0.14084430060E+03  0.10000000000E+01 0.  0.
    9000005    1    3    3    0    0 -0.55798682115E+02  0.26684496077E+02  0.90668588822E+02  0.10976041297E+03  0.10000000000E+01 0.  0.
<mgrwt>
<rscale>  0 0.12500503E+03</rscale>
<asrwt>0</asrwt>
<pdfrwt beam="2">  1        4 0.41754096E-02 0.12500503E+03</pdfrwt>
<pdfrwt beam="1">  1       -4 0.58475768E-01 0.12500503E+03</pdfrwt>
<totfact> 0.14476217E+03</totfact>
</mgrwt>
</event>
<event>
 5    1  0.1440092E-002  0.1250522E+03  0.7818608E-02  0.1234988E+00
          4   -1    0    0  501    0  0.00000000000E+00  0.00000000000E+00  0.26353503678E+02  0.26384087176E+02  0.12700000000E+01 0. -1.
         -4   -1    0    0    0  501 -0.00000000000E+00 -0.00000000000E+00 -0.14822945954E+03  0.14823489999E+03  0.12700000000E+01 0. -1.
         25    2    1    2    0    0  0.00000000000E+00  0.00000000000E+00 -0.12187595586E+03  0.17461898716E+03  0.12505215737E+03 0.  0.
    9000005    1    3    3    0    0 -0.55295088202E+02 -0.12256500536E+02 -0.97902009216E+02  0.11310867338E+03  0.10000000000E+01 0.  0.
    9000005    1    3    3    0    0  0.55295088202E+02  0.12256500536E+02 -0.23973946644E+02  0.61510313788E+02  0.10000000000E+01 0.  0.
<mgrwt>
<rscale>  0 0.12505216E+03</rscale>
<asrwt>0</asrwt>
<pdfrwt beam="1">  1        4 0.65928793E-02 0.12505216E+03</pdfrwt>
<pdfrwt beam="2">  1       -4 0.37061866E-01 0.12505216E+03</pdfrwt>
<totfact> 0.17369675E+03</totfact>
</mgrwt>
</event>
<event>
 5    1  0.1440092E-002  0.1250081E+03  0.7818608E-02  0.1235057E+00
          4   -1    0    0  501    0  0.00000000000E+00  0.00000000000E+00  0.13356493500E+02  0.13416736511E+02  0.12700000000E+01 0.  1.
         -4   -1    0    0    0  501 -0.00000000000E+00 -0.00000000000E+00 -0.29177893407E+03  0.29178169796E+03  0.12700000000E+01 0.  1.
         25    2    1    2    0    0  0.00000000000E+00  0.00000000000E+00 -0.27842244057E+03  0.30519843448E+03  0.12500811571E+03 0.  0.
    9000005    1    3    3    0    0  0.15729691412E+02 -0.60408957681E+02 -0.14657280208E+03  0.15931494490E+03  0.10000000000E+01 0.  0.
    9000005    1    3    3    0    0 -0.15729691412E+02  0.60408957681E+02 -0.13184963849E+03  0.14588348958E+03  0.10000000000E+01 0.  0.
<mgrwt>
<rscale>  0 0.12500812E+03</rscale>
<asrwt>0</asrwt>
<pdfrwt beam="1">  1        4 0.33470002E-02 0.12500812E+03</pdfrwt>
<pdfrwt beam="2">  1       -4 0.72952589E-01 0.12500812E+03</pdfrwt>
<totfact> 0.12824219E+03</totfact>
</mgrwt>
</event>
<event>
 5    1  0.1440092E-002  0.1249987E+03  0.7818608E-02  0.1235071E+00
          4   -1    0    0  501    0  0.00000000000E+00  0.00000000000E+00  0.41824746732E+02  0.41844023936E+02  0.12700000000E+01 0.  1.
         -4   -1    0    0    0  501 -0.00000000000E+00 -0.00000000000E+00 -0.93348553673E+02  0.93357192400E+02  0.12700000000E+01 0.  1.
         25    2    1    2    0    0  0.00000000000E+00  0.00000000000E+00 -0.51523806942E+02  0.13520121634E+03  0.12499866486E+03 0.  0.
    9000005    1    3    3    0    0 -0.40611517849E+02  0.40541814934E+02  0.10010096429E+01  0.57401534478E+02  0.10000000000E+01 0.  0.
    9000005    1    3    3    0    0  0.40611517849E+02 -0.40541814934E+02 -0.52524816585E+02  0.77799681859E+02  0.10000000000E+01 0.  0.
<mgrwt>
<rscale>  0 0.12499866E+03</rscale>
<asrwt>0</asrwt>
<pdfrwt beam="1">  1        4 0.10459676E-01 0.12499866E+03</pdfrwt>
<pdfrwt beam="2">  1       -4 0.23340628E-01 0.12499866E+03</pdfrwt>
<totfact> 0.19289204E+03</totfact>
</mgrwt>
</event>
<event>
 4    1  0.1440092E-002  0.1263260E+03  0.7818608E-02  0.1233011E+00
          4   -1    0    0  501    0  0.00000000000E+00  0.00000000000E+00  0.49197714780E+03  0.49197878700E+03  0.12700000000E+01 0. -1.
         -4   -1    0    0    0  501 -0.00000000000E+00 -0.00000000000E+00 -0.80578615227E+01  0.81573299748E+01  0.12700000000E+01 0. -1.
    9000005    1    1    2    0    0 -0.19047692709E+02 -0.59925570302E+02  0.26527340828E+03  0.27262587865E+03  0.10000000000E+01 0.  0.
    9000005    1    1    2    0    0  0.19047692709E+02  0.59925570302E+02  0.21864587800E+03  0.22751023832E+03  0.10000000000E+01 0.  0.
<mgrwt>
<rscale>  0 0.12632601E+03</rscale>
<asrwt>0</asrwt>
<pdfrwt beam="1">  1        4 0.12300692E+00 0.12632601E+03</pdfrwt>
<pdfrwt beam="2">  1       -4 0.20271039E-02 0.12632601E+03</pdfrwt>
<totfact> 0.85002303E+02</totfact>
</mgrwt>
</event>
<event>
 5    1  0.1440092E-002  0.1250010E+03  0.7818608E-02  0.1235068E+00
         -4   -1    0    0    0  501 -0.00000000000E+00  0.00000000000E+00  0.18383273034E+03  0.18383711716E+03  0.12700000000E+01 0.  1.
          4   -1    0    0  501    0  0.00000000000E+00 -0.00000000000E+00 -0.21225656583E+02  0.21263616752E+02  0.12700000000E+01 0.  1.
         25    2    1    2    0    0  0.00000000000E+00  0.00000000000E+00  0.16260707376E+03  0.20510073391E+03  0.12500100245E+03 0.  0.
    9000005    1    3    3    0    0 -0.57408127793E+02  0.92007597209E+01  0.11889758695E+03  0.13235551858E+03  0.10000000000E+01 0.  0.
    9000005    1    3    3    0    0  0.57408127793E+02 -0.92007597209E+01  0.43709486806E+02  0.72745215327E+02  0.10000000000E+01 0.  0.
<mgrwt>
<rscale>  0 0.12500100E+03</rscale>
<asrwt>0</asrwt>
<pdfrwt beam="2">  1        4 0.53117076E-02 0.12500100E+03</pdfrwt>
<pdfrwt beam="1">  1       -4 0.45963475E-01 0.12500100E+03</pdfrwt>
<totfact> 0.16119444E+03</totfact>
</mgrwt>
</event>
<event>
 5    1  0.1440092E-002  0.1249979E+03  0.7818608E-02  0.1235073E+00
          4   -1    0    0  501    0  0.00000000000E+00  0.00000000000E+00  0.56855762364E+02  0.56869944733E+02  0.12700000000E+01 0. -1.
         -4   -1    0    0    0  501 -0.00000000000E+00 -0.00000000000E+00 -0.68673656446E+02  0.68685398664E+02  0.12700000000E+01 0. -1.
         25    2    1    2    0    0  0.00000000000E+00  0.00000000000E+00 -0.11817894082E+02  0.12555534340E+03  0.12499792652E+03 0.  0.
    9000005    1    3    3    0    0 -0.30415578855E+02 -0.52192300486E+02  0.10161673421E+02  0.61265024882E+02  0.10000000000E+01 0.  0.
    9000005    1    3    3    0    0  0.30415578855E+02  0.52192300486E+02 -0.21979567502E+02  0.64290318515E+02  0.10000000000E+01 0.  0.
<mgrwt>
<rscale>  0 0.12499793E+03</rscale>
<asrwt>0</asrwt>
<pdfrwt beam="1">  1        4 0.14217181E-01 0.12499793E+03</pdfrwt>
<pdfrwt beam="2">  1       -4 0.17171655E-01 0.12499793E+03</pdfrwt>
<totfact> 0.19805928E+03</totfact>
</mgrwt>
</event>
<event>
 5    1  0.1440092E-002  0.1250017E+03  0.7818608E-02  0.1235067E+00
          4   -1    0    0  501    0  0.00000000000E+00  0.00000000000E+00  0.20659614233E+01  0.24250972357E+01  0.12700000000E+01 0. -1.
         -4   -1    0    0    0  501 -0.00000000000E+00 -0.00000000000E+00 -0.17392560195E+04  0.17392564832E+04  0.12700000000E+01 0. -1.
         25    2    1    2    0    0  0.00000000000E+00  0.00000000000E+00 -0.17371900581E+04  0.17416815804E+04  0.12500171864E+03 0.  0.
    9000005    1    3    3    0    0  0.12408726271E+02  0.57802305009E+02 -0.58637357967E+03  0.58934714549E+03  0.10000000000E+01 0.  0.
    9000005    1    3    3    0    0 -0.12408726271E+02 -0.57802305009E+02 -0.11508164784E+04  0.11523344349E+04  0.10000000000E+01 0.  0.
<mgrwt>
<rscale>  0 0.12500172E+03</rscale>
<asrwt>0</asrwt>
<pdfrwt beam="1">  1        4 0.56144626E-03 0.12500172E+03</pdfrwt>
<pdfrwt beam="2">  1       -4 0.43485433E+00 0.12500172E+03</pdfrwt>
<totfact> 0.62128528E+01</totfact>
</mgrwt>
</event>
<event>
 5    1  0.1440092E-002  0.1250002E+03  0.7818608E-02  0.1235069E+00
         -4   -1    0    0    0  501 -0.00000000000E+00  0.00000000000E+00  0.11603750193E+03  0.11604445163E+03  0.12700000000E+01 0.  1.
          4   -1    0    0  501    0  0.00000000000E+00 -0.00000000000E+00 -0.33643853441E+02  0.33667815111E+02  0.12700000000E+01 0.  1.
         25    2    1    2    0    0  0.00000000000E+00  0.00000000000E+00  0.82393648492E+02  0.14971226674E+03  0.12500019801E+03 0.  0.
    9000005    1    3    3    0    0  0.22958483315E+02 -0.81362648843E+01 -0.27730272777E+02  0.36922334578E+02  0.10000000000E+01 0.  0.
    9000005    1    3    3    0    0 -0.22958483315E+02  0.81362648843E+01  0.11012392127E+03  0.11278993217E+03  0.10000000000E+01 0.  0.
<mgrwt>
<rscale>  0 0.12500020E+03</rscale>
<asrwt>0</asrwt>
<pdfrwt beam="2">  1        4 0.84148273E-02 0.12500020E+03</pdfrwt>
<pdfrwt beam="1">  1       -4 0.29013239E-01 0.12500020E+03</pdfrwt>
<totfact> 0.18552852E+03</totfact>
</mgrwt>
</event>
<event>
 5    1  0.1440092E-002  0.1249986E+03  0.7818608E-02  0.1235071E+00
          4   -1    0    0  501    0  0.00000000000E+00  0.00000000000E+00  0.42070427947E+02  0.42089592629E+02  0.12700000000E+01 0.  1.
         -4   -1    0    0    0  501 -0.00000000000E+00 -0.00000000000E+00 -0.92803533921E+02  0.92812223377E+02  0.12700000000E+01 0.  1.
         25    2    1    2    0    0  0.00000000000E+00  0.00000000000E+00 -0.50733105974E+02  0.13490181601E+03  0.12499860767E+03 0.  0.
    9000005    1    3    3    0    0 -0.23151883137E+02  0.55546216591E+02 -0.71864344855E+01  0.60613832670E+02  0.10000000000E+01 0.  0.
    9000005    1    3    3    0    0  0.23151883137E+02 -0.55546216591E+02 -0.43546671488E+02  0.74287983336E+02  0.10000000000E+01 0.  0.
<mgrwt>
<rscale>  0 0.12499861E+03</rscale>
<asrwt>0</asrwt>
<pdfrwt beam="1">  1        4 0.10521089E-01 0.12499861E+03</pdfrwt>
<pdfrwt beam="2">  1       -4 0.23204365E-01 0.12499861E+03</pdfrwt>
<totfact> 0.19304908E+03</totfact>
</mgrwt>
</event>
<event>
 5    1  0.1440092E-002  0.1249971E+03  0.7818608E-02  0.1235074E+00
          4   -1    0    0  501    0  0.00000000000E+00  0.00000000000E+00  0.58180879504E+03  0.58181018115E+03  0.12700000000E+01 0. -1.
         -4   -1    0    0    0  501 -0.00000000000E+00 -0.00000000000E+00 -0.66522010993E+01  0.67723466735E+01  0.12700000000E+01 0. -1.
         25    2    1    2    0    0  0.00000000000E+00  0.00000000000E+00  0.57515659394E+03  0.58858252782E+03  0.12499713797E+03 0.  0.
    9000005    1    3    3    0    0 -0.30903675662E+01 -0.42751089422E+02  0.50170380144E+03  0.50353243232E+03  0.10000000000E+01 0.  0.
    9000005    1    3    3    0    0  0.30903675662E+01  0.42751089422E+02  0.73452792499E+02  0.85050095499E+02  0.10000000000E+01 0.  0.
<mgrwt>
<rscale>  0 0.12499714E+03</rscale>
<asrwt>0</asrwt>
<pdfrwt beam="1">  1        4 0.14546741E+00 0.12499714E+03</pdfrwt>
<pdfrwt beam="2">  1       -4 0.16782415E-02 0.12499714E+03</pdfrwt>
<totfact> 0.74963331E+02</totfact>
</mgrwt>
</event>
<event>
 5    1  0.1440092E-002  0.1250100E+03  0.7818608E-02  0.1235054E+00
          4   -1    0    0  501    0  0.00000000000E+00  0.00000000000E+00  0.36451335026E+02  0.36473452334E+02  0.12700000000E+01 0. -1.
         -4   -1    0    0    0  501 -0.00000000000E+00 -0.00000000000E+00 -0.10712212736E+03  0.10712965542E+03  0.12700000000E+01 0. -1.
         25    2    1    2    0    0  0.00000000000E+00  0.00000000000E+00 -0.70670792334E+02  0.14360310775E+03  0.12500996627E+03 0.  0.
    9000005    1    3    3    0    0 -0.72641090753E+01  0.60293764759E+02 -0.52287195410E+02  0.80143971410E+02  0.10000000000E+01 0.  0.
    9000005    1    3    3    0    0  0.72641090753E+01 -0.60293764759E+02 -0.18383596924E+02  0.63459136343E+02  0.10000000000E+01 0.  0.
<mgrwt>
<rscale>  0 0.12500997E+03</rscale>
<asrwt>0</asrwt>
<pdfrwt beam="1">  1        4 0.91165396E-02 0.12500997E+03</pdfrwt>
<pdfrwt beam="2">  1       -4 0.26784237E-01 0.12500997E+03</pdfrwt>
<totfact> 0.18853125E+03</totfact>
</mgrwt>
</event>
<event>
 5    1  0.1440092E-002  0.1250089E+03  0.7818608E-02  0.1235055E+00
         -4   -1    0    0    0  501 -0.00000000000E+00  0.00000000000E+00  0.29645097127E+02  0.29672288144E+02  0.12700000000E+01 0.  1.
          4   -1    0    0  501    0  0.00000000000E+00 -0.00000000000E+00 -0.13169520637E+03  0.13170132983E+03  0.12700000000E+01 0.  1.
         25    2    1    2    0    0  0.00000000000E+00  0.00000000000E+00 -0.10205010924E+03  0.16137361798E+03  0.12500887882E+03 0.  0.
    9000005    1    3    3    0    0  0.67218931696E+01  0.27735478854E+01 -0.13115358037E+03  0.13135881417E+03  0.10000000000E+01 0.  0.
    9000005    1    3    3    0    0 -0.67218931696E+01 -0.27735478854E+01  0.29103471133E+02  0.30014803808E+02  0.10000000000E+01 0.  0.
<mgrwt>
<rscale>  0 0.12500888E+03</rscale>
<asrwt>0</asrwt>
<pdfrwt beam="2">  1        4 0.32927964E-01 0.12500888E+03</pdfrwt>
<pdfrwt beam="1">  1       -4 0.74154389E-02 0.12500888E+03</pdfrwt>
<totfact> 0.17989589E+03</totfact>
</mgrwt>
</event>
<event>
 5    1  0.1440092E-002  0.1250067E+03  0.7818608E-02  0.1235059E+00
          4   -1    0    0  501    0  0.00000000000E+00  0.00000000000E+00  0.29788505549E+02  0.29815565781E+02  0.12700000000E+01 0.  1.
         -4   -1    0    0    0  501 -0.00000000000E+00 -0.00000000000E+00 -0.13105717638E+03  0.13106332966E+03  0.12700000000E+01 0.  1.
         25    2    1    2    0    0  0.00000000000E+00  0.00000000000E+00 -0.10126867084E+03  0.16087889544E+03  0.12500670104E+03 0.  0.
    9000005    1    3    3    0    0  0.52169370706E+02 -0.90212350885E+01 -0.93369287874E+02  0.10733988001E+03  0.10000000000E+01 0.  0.
    9000005    1    3    3    0    0 -0.52169370706E+02  0.90212350885E+01 -0.78993829614E+01  0.53539015433E+02  0.10000000000E+01 0.  0.
<mgrwt>
<rscale>  0 0.12500670E+03</rscale>
<asrwt>0</asrwt>
<pdfrwt beam="1">  1        4 0.74512784E-02 0.12500670E+03</pdfrwt>
<pdfrwt beam="2">  1       -4 0.32768444E-01 0.12500670E+03</pdfrwt>
<totfact> 0.18013665E+03</totfact>
</mgrwt>
</event>
<event>
 5    1  0.1440092E-002  0.1249999E+03  0.7818608E-02  0.1235069E+00
          4   -1    0    0  501    0  0.00000000000E+00  0.00000000000E+00  0.40853480067E+01  0.42781968557E+01  0.12700000000E+01 0. -1.
         -4   -1    0    0    0  501 -0.00000000000E+00 -0.00000000000E+00 -0.93391875011E+03  0.93391961362E+03  0.12700000000E+01 0. -1.
         25    2    1    2    0    0  0.00000000000E+00  0.00000000000E+00 -0.92983340211E+03  0.93819781048E+03  0.12499990367E+03 0.  0.
    9000005    1    3    3    0    0 -0.52811527621E+02 -0.28171659458E+02 -0.59971341653E+03  0.60269385413E+03  0.10000000000E+01 0.  0.
    9000005    1    3    3    0    0  0.52811527621E+02  0.28171659458E+02 -0.33011998558E+03  0.33550395635E+03  0.10000000000E+01 0.  0.
<mgrwt>
<rscale>  0 0.12499990E+03</rscale>
<asrwt>0</asrwt>
<pdfrwt beam="1">  1        4 0.10455542E-02 0.12499990E+03</pdfrwt>
<pdfrwt beam="2">  1       -4 0.23350319E+00 0.12499990E+03</pdfrwt>
<totfact> 0.41429172E+02</totfact>
</mgrwt>
</event>
<event>
 5    1  0.1440092E-002  0.1249997E+03  0.7818608E-02  0.1235070E+00
          4   -1    0    0  501    0  0.00000000000E+00  0.00000000000E+00  0.10584703536E+03  0.10585465410E+03  0.12700000000E+01 0.  1.
         -4   -1    0    0    0  501 -0.00000000000E+00 -0.00000000000E+00 -0.36884635228E+02  0.36906492869E+02  0.12700000000E+01 0.  1.
         25    2    1    2    0    0  0.00000000000E+00  0.00000000000E+00  0.68962400135E+02  0.14276114697E+03  0.12499972981E+03 0.  0.
    9000005    1    3    3    0    0 -0.39990831759E+02  0.34860749425E+02 -0.32371375215E+01  0.53160300362E+02  0.10000000000E+01 0.  0.
    9000005    1    3    3    0    0  0.39990831759E+02 -0.34860749425E+02  0.72199537657E+02  0.89600846609E+02  0.10000000000E+01 0.  0.
<mgrwt>
<rscale>  0 0.12499973E+03</rscale>
<asrwt>0</asrwt>
<pdfrwt beam="1">  1        4 0.26465443E-01 0.12499973E+03</pdfrwt>
<pdfrwt beam="2">  1       -4 0.92248434E-02 0.12499973E+03</pdfrwt>
<totfact> 0.18900085E+03</totfact>
</mgrwt>
</event>
<event>
 5    1  0.1440092E-002  0.1250001E+03  0.7818608E-02  0.1235069E+00
         -4   -1    0    0    0  501 -0.00000000000E+00  0.00000000000E+00  0.67799003049E+03  0.67799121996E+03  0.12700000000E+01 0. -1.
          4   -1    0    0  501    0  0.00000000000E+00 -0.00000000000E+00 -0.56903313606E+01  0.58303319797E+01  0.12700000000E+01 0. -1.
         25    2    1    2    0    0  0.00000000000E+00  0.00000000000E+00  0.67229969913E+03  0.68382155194E+03  0.12500011779E+03 0.  0.
    9000005    1    3    3    0    0 -0.34590540065E+02 -0.46573783098E+01  0.52572784871E+02  0.63111760741E+02  0.10000000000E+01 0.  0.
    9000005    1    3    3    0    0  0.34590540065E+02  0.46573783098E+01  0.61972691426E+03  0.62070979120E+03  0.10000000000E+01 0.  0.
<mgrwt>
<rscale>  0 0.12500012E+03</rscale>
<asrwt>0</asrwt>
<pdfrwt beam="2">  1        4 0.14402316E-02 0.12500012E+03</pdfrwt>
<pdfrwt beam="1">  1       -4 0.16951516E+00 0.12500012E+03</pdfrwt>
<totfact> 0.63769795E+02</totfact>
</mgrwt>
</event>
<event>
 5    1  0.1440092E-002  0.1249987E+03  0.7818608E-02  0.1235071E+00
          4   -1    0    0  501    0  0.00000000000E+00  0.00000000000E+00  0.10856415494E+03  0.10857158302E+03  0.12700000000E+01 0.  1.
         -4   -1    0    0    0  501 -0.00000000000E+00 -0.00000000000E+00 -0.35960409845E+02  0.35982828908E+02  0.12700000000E+01 0.  1.
         25    2    1    2    0    0  0.00000000000E+00  0.00000000000E+00  0.72603745099E+02  0.14455441193E+03  0.12499869681E+03 0.  0.
    9000005    1    3    3    0    0  0.19701699858E+02  0.51259603509E+02  0.18121099154E+01  0.54954414486E+02  0.10000000000E+01 0.  0.
    9000005    1    3    3    0    0 -0.19701699858E+02 -0.51259603509E+02  0.70791635184E+02  0.89599997439E+02  0.10000000000E+01 0.  0.
<mgrwt>
<rscale>  0 0.12499870E+03</rscale>
<asrwt>0</asrwt>
<pdfrwt beam="1">  1        4 0.27144769E-01 0.12499870E+03</pdfrwt>
<pdfrwt beam="2">  1       -4 0.89938335E-02 0.12499870E+03</pdfrwt>
<totfact> 0.18810290E+03</totfact>
</mgrwt>
</event>
<event>
 5    1  0.1440092E-002  0.1249995E+03  0.7818608E-02  0.1235070E+00
         -4   -1    0    0    0  501 -0.00000000000E+00  0.00000000000E+00  0.14557051208E+02  0.14612345461E+02  0.12700000000E+01 0.  1.
          4   -1    0    0  501    0  0.00000000000E+00 -0.00000000000E+00 -0.26777327951E+03  0.26777629118E+03  0.12700000000E+01 0.  1.
         25    2    1    2    0    0  0.00000000000E+00  0.00000000000E+00 -0.25321622830E+03  0.28238863664E+03  0.12499953532E+03 0.  0.
    9000005    1    3    3    0    0 -0.35757950431E+02 -0.37815305817E+02 -0.20475505319E+03  0.21126821857E+03  0.10000000000E+01 0.  0.
    9000005    1    3    3    0    0  0.35757950431E+02  0.37815305817E+02 -0.48461175114E+02  0.71120418070E+02  0.10000000000E+01 0.  0.
<mgrwt>
<rscale>  0 0.12499954E+03</rscale>
<asrwt>0</asrwt>
<pdfrwt beam="2">  1        4 0.66950592E-01 0.12499954E+03</pdfrwt>
<pdfrwt beam="1">  1       -4 0.36465519E-02 0.12499954E+03</pdfrwt>
<totfact> 0.13479554E+03</totfact>
</mgrwt>
</event>
<event>
 5    1  0.1440092E-002  0.1250013E+03  0.7818608E-02  0.1235067E+00
         -4   -1    0    0    0  501 -0.00000000000E+00  0.00000000000E+00  0.70604746556E+03  0.70604860776E+03  0.12700000000E+01 0. -1.
          4   -1    0    0  501    0  0.00000000000E+00 -0.00000000000E+00 -0.54586349111E+01  0.56044263839E+01  0.12700000000E+01 0. -1.
         25    2    1    2    0    0  0.00000000000E+00  0.00000000000E+00  0.70058883065E+03  0.71165303415E+03  0.12500132551E+03 0.  0.
    9000005    1    3    3    0    0  0.20612800892E+01 -0.25730035127E+02  0.26281394183E+02  0.36850987279E+02  0.10000000000E+01 0.  0.
    9000005    1    3    3    0    0 -0.20612800892E+01  0.25730035127E+02  0.67430743647E+03  0.67480204687E+03  0.10000000000E+01 0.  0.
<mgrwt>
<rscale>  0 0.12500133E+03</rscale>
<asrwt>0</asrwt>
<pdfrwt beam="2">  1        4 0.13830257E-02 0.12500133E+03</pdfrwt>
<pdfrwt beam="1">  1       -4 0.17653019E+00 0.12500133E+03</pdfrwt>
<totfact> 0.60859220E+02</totfact>
</mgrwt>
</event>
<event>
 5    1  0.1440092E-002  0.1249876E+03  0.7818608E-02  0.1235089E+00
         -4   -1    0    0    0  501 -0.00000000000E+00  0.00000000000E+00  0.14851457231E+03  0.14852000232E+03  0.12700000000E+01 0.  1.
          4   -1    0    0  501    0  0.00000000000E+00 -0.00000000000E+00 -0.26275663491E+02  0.26306337485E+02  0.12700000000E+01 0.  1.
         25    2    1    2    0    0  0.00000000000E+00  0.00000000000E+00  0.12223890882E+03  0.17482633981E+03  0.12498759242E+03 0.  0.
    9000005    1    3    3    0    0 -0.37522633597E+02  0.47229910340E+02  0.38312453502E+02  0.71466471553E+02  0.10000000000E+01 0.  0.
    9000005    1    3    3    0    0  0.37522633597E+02 -0.47229910340E+02  0.83926455321E+02  0.10335986825E+03  0.10000000000E+01 0.  0.
<mgrwt>
<rscale>  0 0.12498759E+03</rscale>
<asrwt>0</asrwt>
<pdfrwt beam="2">  1        4 0.65734290E-02 0.12498759E+03</pdfrwt>
<pdfrwt beam="1">  1       -4 0.37133155E-01 0.12498759E+03</pdfrwt>
<totfact> 0.17386534E+03</totfact>
</mgrwt>
</event>
<event>
 5    1  0.1440092E-002  0.1249977E+03  0.7818608E-02  0.1235073E+00
          4   -1    0    0  501    0  0.00000000000E+00  0.00000000000E+00  0.51409603252E+02  0.51425287618E+02  0.12700000000E+01 0.  1.
         -4   -1    0    0    0  501 -0.00000000000E+00 -0.00000000000E+00 -0.75947561801E+02  0.75958179570E+02  0.12700000000E+01 0.  1.
         25    2    1    2    0    0  0.00000000000E+00  0.00000000000E+00 -0.24537958549E+02  0.12738346719E+03  0.12499774519E+03 0.  0.
    9000005    1    3    3    0    0 -0.29008970726E+02 -0.53322382975E+02  0.28572308047E+01  0.60777962096E+02  0.10000000000E+01 0.  0.
    9000005    1    3    3    0    0  0.29008970726E+02  0.53322382975E+02 -0.27395189354E+02  0.66605505091E+02  0.10000000000E+01 0.  0.
<mgrwt>
<rscale>  0 0.12499775E+03</rscale>
<asrwt>0</asrwt>
<pdfrwt beam="1">  1        4 0.12855689E-01 0.12499775E+03</pdfrwt>
<pdfrwt beam="2">  1       -4 0.18990178E-01 0.12499775E+03</pdfrwt>
<totfact> 0.19707186E+03</totfact>
</mgrwt>
</event>
<event>
 5    1  0.1440092E-002  0.1250038E+03  0.7818608E-02  0.1235063E+00
         -4   -1    0    0    0  501 -0.00000000000E+00  0.00000000000E+00  0.14459366886E+03  0.14459924611E+03  0.12700000000E+01 0. -1.
          4   -1    0    0  501    0  0.00000000000E+00 -0.00000000000E+00 -0.26995956611E+02  0.27025813093E+02  0.12700000000E+01 0. -1.
         25    2    1    2    0    0  0.00000000000E+00  0.00000000000E+00  0.11759771225E+03  0.17162505920E+03  0.12500375602E+03 0.  0.
    9000005    1    3    3    0    0  0.52619678939E+02 -0.13411793588E+02  0.10126699348E+03  0.11491175217E+03  0.10000000000E+01 0.  0.
    9000005    1    3    3    0    0 -0.52619678939E+02  0.13411793588E+02  0.16330718776E+02  0.56713307033E+02  0.10000000000E+01 0.  0.
<mgrwt>
<rscale>  0 0.12500376E+03</rscale>
<asrwt>0</asrwt>
<pdfrwt beam="2">  1        4 0.67534184E-02 0.12500376E+03</pdfrwt>
<pdfrwt beam="1">  1       -4 0.36152846E-01 0.12500376E+03</pdfrwt>
<totfact> 0.17522471E+03</totfact>
</mgrwt>
</event>
<event>
 5    1  0.1440092E-002  0.1249979E+03  0.7818608E-02  0.1235073E+00
          4   -1    0    0  501    0  0.00000000000E+00  0.00000000000E+00  0.69147812486E+03  0.69147929113E+03  0.12700000000E+01 0. -1.
         -4   -1    0    0    0  501 -0.00000000000E+00 -0.00000000000E+00 -0.55763724336E+01  0.57191633582E+01  0.12700000000E+01 0. -1.
         25    2    1    2    0    0  0.00000000000E+00  0.00000000000E+00  0.68590175243E+03  0.69719845449E+03  0.12499788381E+03 0.  0.
    9000005    1    3    3    0    0  0.43976070739E+02  0.36937160139E+02  0.20554627282E+03  0.21342098975E+03  0.10000000000E+01 0.  0.
    9000005    1    3    3    0    0 -0.43976070739E+02 -0.36937160139E+02  0.48035547961E+03  0.48377746474E+03  0.10000000000E+01 0.  0.
<mgrwt>
<rscale>  0 0.12499788E+03</rscale>
<asrwt>0</asrwt>
<pdfrwt beam="1">  1        4 0.17288757E+00 0.12499788E+03</pdfrwt>
<pdfrwt beam="2">  1       -4 0.14120874E-02 0.12499788E+03</pdfrwt>
<totfact> 0.62360526E+02</totfact>
</mgrwt>
</event>
<event>
 5    1  0.1440092E-002  0.1250018E+03  0.7818608E-02  0.1235066E+00
         -4   -1    0    0    0  501 -0.00000000000E+00  0.00000000000E+00  0.21093805491E+02  0.21132002510E+02  0.12700000000E+01 0.  1.
          4   -1    0    0  501    0  0.00000000000E+00 -0.00000000000E+00 -0.18498226330E+03  0.18498662285E+03  0.12700000000E+01 0.  1.
         25    2    1    2    0    0  0.00000000000E+00  0.00000000000E+00 -0.16388845781E+03  0.20611862536E+03  0.12500184446E+03 0.  0.
    9000005    1    3    3    0    0  0.54099413918E+02 -0.10690093279E+02 -0.13042207020E+03  0.14160487659E+03  0.10000000000E+01 0.  0.
    9000005    1    3    3    0    0 -0.54099413918E+02  0.10690093279E+02 -0.33466387609E+02  0.64513748769E+02  0.10000000000E+01 0.  0.
<mgrwt>
<rscale>  0 0.12500184E+03</rscale>
<asrwt>0</asrwt>
<pdfrwt beam="2">  1        4 0.46250880E-01 0.12500184E+03</pdfrwt>
<pdfrwt beam="1">  1       -4 0.52787715E-02 0.12500184E+03</pdfrwt>
<totfact> 0.16079255E+03</totfact>
</mgrwt>
</event>
<event>
 5    1  0.1440092E-002  0.1249990E+03  0.7818608E-02  0.1235071E+00
          4   -1    0    0  501    0  0.00000000000E+00  0.00000000000E+00  0.62919932223E+03  0.62920060394E+03  0.12700000000E+01 0.  1.
         -4   -1    0    0    0  501 -0.00000000000E+00 -0.00000000000E+00 -0.61419370642E+01  0.62718650257E+01  0.12700000000E+01 0.  1.
         25    2    1    2    0    0  0.00000000000E+00  0.00000000000E+00  0.62305738517E+03  0.63547246896E+03  0.12499901440E+03 0.  0.
    9000005    1    3    3    0    0  0.36441517436E+02 -0.37149710345E+02  0.13563269705E+03  0.14527667976E+03  0.10000000000E+01 0.  0.
    9000005    1    3    3    0    0 -0.36441517436E+02  0.37149710345E+02  0.48742468811E+03  0.49019578920E+03  0.10000000000E+01 0.  0.
<mgrwt>
<rscale>  0 0.12499901E+03</rscale>
<asrwt>0</asrwt>
<pdfrwt beam="1">  1        4 0.15731623E+00 0.12499901E+03</pdfrwt>
<pdfrwt beam="2">  1       -4 0.15518855E-02 0.12499901E+03</pdfrwt>
<totfact> 0.69199635E+02</totfact>
</mgrwt>
</event>
<event>
 5    1  0.1440092E-002  0.1250016E+03  0.7818608E-02  0.1235067E+00
         -4   -1    0    0    0  501 -0.00000000000E+00  0.00000000000E+00  0.30768727105E+03  0.30768989204E+03  0.12700000000E+01 0.  1.
          4   -1    0    0  501    0  0.00000000000E+00 -0.00000000000E+00 -0.12661404422E+02  0.12724938583E+02  0.12700000000E+01 0.  1.
         25    2    1    2    0    0  0.00000000000E+00  0.00000000000E+00  0.29502586663E+03  0.32041483063E+03  0.12500160681E+03 0.  0.
    9000005    1    3    3    0    0  0.37565140760E+02  0.45884866385E+01  0.20038583318E+02  0.42833851465E+02  0.10000000000E+01 0.  0.
    9000005    1    3    3    0    0 -0.37565140760E+02 -0.45884866385E+01  0.27498728331E+03  0.27758097916E+03  0.10000000000E+01 0.  0.
<mgrwt>
<rscale>  0 0.12500161E+03</rscale>
<asrwt>0</asrwt>
<pdfrwt beam="2">  1        4 0.31736206E-02 0.12500161E+03</pdfrwt>
<pdfrwt beam="1">  1       -4 0.76930085E-01 0.12500161E+03</pdfrwt>
<totfact> 0.12417127E+03</totfact>
</mgrwt>
</event>
<event>
 5    1  0.1440092E-002  0.1250030E+03  0.7818608E-02  0.1235065E+00
          4   -1    0    0  501    0  0.00000000000E+00  0.00000000000E+00  0.22435999389E+02  0.22471915107E+02  0.12700000000E+01 0. -1.
         -4   -1    0    0    0  501 -0.00000000000E+00 -0.00000000000E+00 -0.17393709822E+03  0.17394173461E+03  0.12700000000E+01 0. -1.
         25    2    1    2    0    0  0.00000000000E+00  0.00000000000E+00 -0.15150109883E+03  0.19641364971E+03  0.12500295535E+03 0.  0.
    9000005    1    3    3    0    0 -0.60454560898E+02  0.12361837763E+02 -0.60206408004E+02  0.86217054757E+02  0.10000000000E+01 0.  0.
    9000005    1    3    3    0    0  0.60454560898E+02 -0.12361837763E+02 -0.91294690828E+02  0.11019659495E+03  0.10000000000E+01 0.  0.
<mgrwt>
<rscale>  0 0.12500296E+03</rscale>
<asrwt>0</asrwt>
<pdfrwt beam="1">  1        4 0.56140694E-02 0.12500296E+03</pdfrwt>
<pdfrwt beam="2">  1       -4 0.43489340E-01 0.12500296E+03</pdfrwt>
<totfact> 0.16465533E+03</totfact>
</mgrwt>
</event>
<event>
 5    1  0.1440092E-002  0.1249703E+03  0.7818608E-02  0.1235116E+00
         -4   -1    0    0    0  501 -0.00000000000E+00  0.00000000000E+00  0.32762372339E+03  0.32762618489E+03  0.12700000000E+01 0. -1.
          4   -1    0    0  501    0  0.00000000000E+00 -0.00000000000E+00 -0.11880959358E+02  0.11948644077E+02  0.12700000000E+01 0. -1.
         25    2    1    2    0    0  0.00000000000E+00  0.00000000000E+00  0.31574276403E+03  0.33957482897E+03  0.12497028219E+03 0.  0.
    9000005    1    3    3    0    0 -0.46025379337E+01  0.57356665298E+02  0.22400838235E+03  0.23128278313E+03  0.10000000000E+01 0.  0.
    9000005    1    3    3    0    0  0.46025379337E+01 -0.57356665298E+02  0.91734381680E+02  0.10829204584E+03  0.10000000000E+01 0.  0.
<mgrwt>
<rscale>  0 0.12497028E+03</rscale>
<asrwt>0</asrwt>
<pdfrwt beam="2">  1        4 0.29790080E-02 0.12497028E+03</pdfrwt>
<pdfrwt beam="1">  1       -4 0.81914703E-01 0.12497028E+03</pdfrwt>
<totfact> 0.11938266E+03</totfact>
</mgrwt>
</event>
<event>
 5    1  0.1440092E-002  0.1249993E+03  0.7818608E-02  0.1235070E+00
          4   -1    0    0  501    0  0.00000000000E+00  0.00000000000E+00  0.69380217137E+02  0.69391839794E+02  0.12700000000E+01 0.  1.
         -4   -1    0    0    0  501 -0.00000000000E+00 -0.00000000000E+00 -0.56277904816E+02  0.56292232772E+02  0.12700000000E+01 0.  1.
         25    2    1    2    0    0  0.00000000000E+00  0.00000000000E+00  0.13102312322E+02  0.12568407257E+03  0.12499926203E+03 0.  0.
    9000005    1    3    3    0    0 -0.47947972917E+02  0.38075809955E+02  0.19126813341E+02  0.64153023305E+02  0.10000000000E+01 0.  0.
    9000005    1    3    3    0    0  0.47947972917E+02 -0.38075809955E+02 -0.60245010188E+01  0.61531049261E+02  0.10000000000E+01 0.  0.
<mgrwt>
<rscale>  0 0.12499926E+03</rscale>
<asrwt>0</asrwt>
<pdfrwt beam="1">  1        4 0.17348298E-01 0.12499926E+03</pdfrwt>
<pdfrwt beam="2">  1       -4 0.14072720E-01 0.12499926E+03</pdfrwt>
<totfact> 0.19798344E+03</totfact>
</mgrwt>
</event>
<event>
 5    1  0.1440092E-002  0.1250013E+03  0.7818608E-02  0.1235067E+00
          4   -1    0    0  501    0  0.00000000000E+00  0.00000000000E+00  0.26039576344E+03  0.26039886044E+03  0.12700000000E+01 0. -1.
         -4   -1    0    0    0  501 -0.00000000000E+00 -0.00000000000E+00 -0.14971444465E+02  0.15025213788E+02  0.12700000000E+01 0. -1.
         25    2    1    2    0    0  0.00000000000E+00  0.00000000000E+00  0.24542431898E+03  0.27542407423E+03  0.12500129727E+03 0.  0.
    9000005    1    3    3    0    0 -0.40942524065E+02 -0.19408291111E+02  0.27881239758E+02  0.53210295725E+02  0.10000000000E+01 0.  0.
    9000005    1    3    3    0    0  0.40942524065E+02  0.19408291111E+02  0.21754307922E+03  0.22221377851E+03  0.10000000000E+01 0.  0.
<mgrwt>
<rscale>  0 0.12500130E+03</rscale>
<asrwt>0</asrwt>
<pdfrwt beam="1">  1        4 0.65106049E-01 0.12500130E+03</pdfrwt>
<pdfrwt beam="2">  1       -4 0.37499694E-02 0.12500130E+03</pdfrwt>
<totfact> 0.13688508E+03</totfact>
</mgrwt>
</event>
<event>
 5    1  0.1440092E-002  0.1250023E+03  0.7818608E-02  0.1235066E+00
          4   -1    0    0  501    0  0.00000000000E+00  0.00000000000E+00  0.63834240258E+02  0.63846872510E+02  0.12700000000E+01 0.  1.
         -4   -1    0    0    0  501 -0.00000000000E+00 -0.00000000000E+00 -0.61170663433E+02  0.61183845620E+02  0.12700000000E+01 0.  1.
         25    2    1    2    0    0  0.00000000000E+00  0.00000000000E+00  0.26635768244E+01  0.12503071813E+03  0.12500234332E+03 0.  0.
    9000005    1    3    3    0    0  0.49560843584E+02 -0.32481361180E+02  0.21187753412E+02  0.62938358220E+02  0.10000000000E+01 0.  0.
    9000005    1    3    3    0    0 -0.49560843584E+02  0.32481361180E+02 -0.18524176588E+02  0.62092359909E+02  0.10000000000E+01 0.  0.
<mgrwt>
<rscale>  0 0.12500234E+03</rscale>
<asrwt>0</asrwt>
<pdfrwt beam="1">  1        4 0.15961787E-01 0.12500234E+03</pdfrwt>
<pdfrwt beam="2">  1       -4 0.15295893E-01 0.12500234E+03</pdfrwt>
<totfact> 0.19832302E+03</totfact>
</mgrwt>
</event>
<event>
 5    1  0.1440092E-002  0.1249880E+03  0.7818608E-02  0.1235088E+00
         -4   -1    0    0    0  501 -0.00000000000E+00  0.00000000000E+00  0.10918755817E+03  0.10919494383E+03  0.12700000000E+01 0.  1.
          4   -1    0    0  501    0  0.00000000000E+00 -0.00000000000E+00 -0.35748830233E+02  0.35771381900E+02  0.12700000000E+01 0.  1.
         25    2    1    2    0    0  0.00000000000E+00  0.00000000000E+00  0.73438727932E+02  0.14496632573E+03  0.12498795476E+03 0.  0.
    9000005    1    3    3    0    0  0.40704112202E+02  0.44294759176E+02  0.17116766246E+02  0.62552650842E+02  0.10000000000E+01 0.  0.
    9000005    1    3    3    0    0 -0.40704112202E+02 -0.44294759176E+02  0.56321961686E+02  0.82413674889E+02  0.10000000000E+01 0.  0.
<mgrwt>
<rscale>  0 0.12498795E+03</rscale>
<asrwt>0</asrwt>
<pdfrwt beam="2">  1        4 0.89409498E-02 0.12498795E+03</pdfrwt>
<pdfrwt beam="1">  1       -4 0.27300632E-01 0.12498795E+03</pdfrwt>
<totfact> 0.18794322E+03</totfact>
</mgrwt>
</event>
<event>
 5    1  0.1440092E-002  0.1249935E+03  0.7818608E-02  0.1235079E+00
         -4   -1    0    0    0  501 -0.00000000000E+00  0.00000000000E+00  0.99237560580E+01  0.10004690615E+02  0.12700000000E+01 0.  1.
          4   -1    0    0  501    0  0.00000000000E+00 -0.00000000000E+00 -0.39190491786E+03  0.39190697563E+03  0.12700000000E+01 0.  1.
         25    2    1    2    0    0  0.00000000000E+00  0.00000000000E+00 -0.38198116181E+03  0.40191166624E+03  0.12499351778E+03 0.  0.
    9000005    1    3    3    0    0  0.33570991232E+02  0.33389627258E+02 -0.32211537954E+03  0.32557824927E+03  0.10000000000E+01 0.  0.
    9000005    1    3    3    0    0 -0.33570991232E+02 -0.33389627258E+02 -0.59865782268E+02  0.76333416977E+02  0.10000000000E+01 0.  0.
<mgrwt>
<rscale>  0 0.12499352E+03</rscale>
<asrwt>0</asrwt>
<pdfrwt beam="2">  1        4 0.97986552E-01 0.12499352E+03</pdfrwt>
<pdfrwt beam="1">  1       -4 0.24913144E-02 0.12499352E+03</pdfrwt>
<totfact> 0.10531487E+03</totfact>
</mgrwt>
</event>
<event>
 5    1  0.1440092E-002  0.1250018E+03  0.7818608E-02  0.1235067E+00
         -4   -1    0    0    0  501 -0.00000000000E+00  0.00000000000E+00  0.20614261547E+02  0.20653345471E+02  0.12700000000E+01 0.  1.
          4   -1    0    0  501    0  0.00000000000E+00 -0.00000000000E+00 -0.18927728688E+03  0.18928154751E+03  0.12700000000E+01 0.  1.
         25    2    1    2    0    0  0.00000000000E+00  0.00000000000E+00 -0.16866302533E+03  0.20993489298E+03  0.12500177270E+03 0.  0.
    9000005    1    3    3    0    0 -0.26871956367E+02 -0.55123727681E+02 -0.64133773620E+02  0.88740454760E+02  0.10000000000E+01 0.  0.
    9000005    1    3    3    0    0  0.26871956367E+02  0.55123727681E+02 -0.10452925171E+03  0.12119443822E+03  0.10000000000E+01 0.  0.
<mgrwt>
<rscale>  0 0.12500177E+03</rscale>
<asrwt>0</asrwt>
<pdfrwt beam="2">  1        4 0.47324735E-01 0.12500177E+03</pdfrwt>
<pdfrwt beam="1">  1       -4 0.51589840E-02 0.12500177E+03</pdfrwt>
<totfact> 0.15931162E+03</totfact>
</mgrwt>
</event>
<event>
 5    1  0.1440092E-002  0.1249989E+03  0.7818608E-02  0.1235071E+00
          4   -1    0    0  501    0  0.00000000000E+00  0.00000000000E+00  0.39360658475E+02  0.39381141877E+02  0.12700000000E+01 0.  1.
         -4   -1    0    0    0  501 -0.00000000000E+00 -0.00000000000E+00 -0.99190456479E+02  0.99198586464E+02  0.12700000000E+01 0.  1.
         25    2    1    2    0    0  0.00000000000E+00  0.00000000000E+00 -0.59829798004E+02  0.13857972834E+03  0.12499894551E+03 0.  0.
    9000005    1    3    3    0    0 -0.99128848464E+01  0.46193007821E+01 -0.98126716342E+02  0.98739332010E+02  0.10000000000E+01 0.  0.
    9000005    1    3    3    0    0  0.99128848464E+01 -0.46193007821E+01  0.38296918338E+02  0.39840396332E+02  0.10000000000E+01 0.  0.
<mgrwt>
<rscale>  0 0.12499895E+03</rscale>
<asrwt>0</asrwt>
<pdfrwt beam="1">  1        4 0.98437415E-02 0.12499895E+03</pdfrwt>
<pdfrwt beam="2">  1       -4 0.24801190E-01 0.12499895E+03</pdfrwt>
<totfact> 0.19113708E+03</totfact>
</mgrwt>
</event>
<event>
 5    1  0.1440092E-002  0.1250183E+03  0.7818608E-02  0.1235041E+00
         -4   -1    0    0    0  501 -0.00000000000E+00  0.00000000000E+00  0.11000358600E+02  0.11073427172E+02  0.12700000000E+01 0.  1.
          4   -1    0    0  501    0  0.00000000000E+00 -0.00000000000E+00 -0.35395595983E+03  0.35395823822E+03  0.12700000000E+01 0.  1.
         25    2    1    2    0    0  0.00000000000E+00  0.00000000000E+00 -0.34295560123E+03  0.36503166539E+03  0.12501828794E+03 0.  0.
    9000005    1    3    3    0    0  0.14975789165E+02  0.23209643577E+02 -0.33518168207E+03  0.33631937472E+03  0.10000000000E+01 0.  0.
    9000005    1    3    3    0    0 -0.14975789165E+02 -0.23209643577E+02 -0.77739191568E+01  0.28712290664E+02  0.10000000000E+01 0.  0.
<mgrwt>
<rscale>  0 0.12501829E+03</rscale>
<asrwt>0</asrwt>
<pdfrwt beam="2">  1        4 0.88498371E-01 0.12501829E+03</pdfrwt>
<pdfrwt beam="1">  1       -4 0.27595092E-02 0.12501829E+03</pdfrwt>
<totfact> 0.11322122E+03</totfact>
</mgrwt>
</event>
<event>
 5    1  0.1440092E-002  0.1250005E+03  0.7818608E-02  0.1235069E+00
         -4   -1    0    0    0  501 -0.00000000000E+00  0.00000000000E+00  0.27489964637E+03  0.27490257997E+03  0.12700000000E+01 0. -1.
          4   -1    0    0  501    0  0.00000000000E+00 -0.00000000000E+00 -0.14178448780E+02  0.14235213726E+02  0.12700000000E+01 0. -1.
         25    2    1    2    0    0  0.00000000000E+00  0.00000000000E+00  0.26072119759E+03  0.28913779369E+03  0.12500048348E+03 0.  0.
    9000005    1    3    3    0    0  0.17100847039E+02  0.18603604477E+02 -0.18453296133E+01  0.25356228236E+02  0.10000000000E+01 0.  0.
    9000005    1    3    3    0    0 -0.17100847039E+02 -0.18603604477E+02  0.26256652720E+03  0.26378156546E+03  0.10000000000E+01 0.  0.
<mgrwt>
<rscale>  0 0.12500048E+03</rscale>
<asrwt>0</asrwt>
<pdfrwt beam="2">  1        4 0.35520745E-02 0.12500048E+03</pdfrwt>
<pdfrwt beam="1">  1       -4 0.68732374E-01 0.12500048E+03</pdfrwt>
<totfact> 0.13280897E+03</totfact>
</mgrwt>
</event>
<event>
 5    1  0.1440092E-002  0.1250016E+03  0.7818608E-02  0.1235067E+00
          4   -1    0    0  501    0  0.00000000000E+00  0.00000000000E+00  0.15953942945E+03  0.15954448423E+03  0.12700000000E+01 0. -1.
         -4   -1    0    0    0  501 -0.00000000000E+00 -0.00000000000E+00 -0.24463246813E+02  0.24496190411E+02  0.12700000000E+01 0. -1.
         25    2    1    2    0    0  0.00000000000E+00  0.00000000000E+00  0.13507618263E+03  0.18404067464E+03  0.12500157922E+03 0.  0.
    9000005    1    3    3    0    0 -0.43711147066E+02  0.26656722219E+02  0.14778875831E+02  0.53297845999E+02  0.10000000000E+01 0.  0.
    9000005    1    3    3    0    0  0.43711147066E+02 -0.26656722219E+02  0.12029730680E+03  0.13074282864E+03  0.10000000000E+01 0.  0.
<mgrwt>
<rscale>  0 0.12500158E+03</rscale>
<asrwt>0</asrwt>
<pdfrwt beam="1">  1        4 0.39889606E-01 0.12500158E+03</pdfrwt>
<pdfrwt beam="2">  1       -4 0.61205616E-02 0.12500158E+03</pdfrwt>
<totfact> 0.16981053E+03</totfact>
</mgrwt>
</event>
<event>
 5    1  0.1440092E-002  0.1250002E+03  0.7818608E-02  0.1235069E+00
          4   -1    0    0  501    0  0.00000000000E+00  0.00000000000E+00  0.16160356436E+02  0.16210182607E+02  0.12700000000E+01 0. -1.
         -4   -1    0    0    0  501 -0.00000000000E+00 -0.00000000000E+00 -0.24129512686E+03  0.24129846901E+03  0.12700000000E+01 0. -1.
         25    2    1    2    0    0  0.00000000000E+00  0.00000000000E+00 -0.22513477042E+03  0.25750865161E+03  0.12500016321E+03 0.  0.
    9000005    1    3    3    0    0  0.18066472748E+02  0.41549960431E+02 -0.23901596718E+02  0.51235563577E+02  0.10000000000E+01 0.  0.
    9000005    1    3    3    0    0 -0.18066472748E+02 -0.41549960431E+02 -0.20123317370E+03  0.20627308804E+03  0.10000000000E+01 0.  0.
<mgrwt>
<rscale>  0 0.12500016E+03</rscale>
<asrwt>0</asrwt>
<pdfrwt beam="1">  1        4 0.40467359E-02 0.12500016E+03</pdfrwt>
<pdfrwt beam="2">  1       -4 0.60330416E-01 0.12500016E+03</pdfrwt>
<totfact> 0.14251450E+03</totfact>
</mgrwt>
</event>
<event>
 5    1  0.1440092E-002  0.1250021E+03  0.7818608E-02  0.1235066E+00
         -4   -1    0    0    0  501 -0.00000000000E+00  0.00000000000E+00  0.94370272492E+01  0.95220997318E+01  0.12700000000E+01 0.  1.
          4   -1    0    0  501    0  0.00000000000E+00 -0.00000000000E+00 -0.41199825003E+03  0.41200020743E+03  0.12700000000E+01 0.  1.
         25    2    1    2    0    0  0.00000000000E+00  0.00000000000E+00 -0.40256122278E+03  0.42152230717E+03  0.12500206940E+03 0.  0.
    9000005    1    3    3    0    0  0.20164633888E+02  0.39846607604E+02 -0.34869347352E+03  0.35154303161E+03  0.10000000000E+01 0.  0.
    9000005    1    3    3    0    0 -0.20164633888E+02 -0.39846607604E+02 -0.53867749260E+02  0.69979275558E+02  0.10000000000E+01 0.  0.
<mgrwt>
<rscale>  0 0.12500207E+03</rscale>
<asrwt>0</asrwt>
<pdfrwt beam="2">  1        4 0.10301038E+00 0.12500207E+03</pdfrwt>
<pdfrwt beam="1">  1       -4 0.23701369E-02 0.12500207E+03</pdfrwt>
<totfact> 0.10135742E+03</totfact>
</mgrwt>
</event>
<event>
 5    1  0.1440092E-002  0.1250008E+03  0.7818608E-02  0.1235068E+00
         -4   -1    0    0    0  501 -0.00000000000E+00  0.00000000000E+00  0.54088966494E+03  0.54089115591E+03  0.12700000000E+01 0. -1.
          4   -1    0    0  501    0  0.00000000000E+00 -0.00000000000E+00 -0.71646441925E+01  0.72763333077E+01  0.12700000000E+01 0. -1.
         25    2    1    2    0    0  0.00000000000E+00  0.00000000000E+00  0.53372502075E+03  0.54816748922E+03  0.12500079384E+03 0.  0.
    9000005    1    3    3    0    0  0.19047314473E+02 -0.21241301245E+02  0.23041267583E+02  0.36686415456E+02  0.10000000000E+01 0.  0.
    9000005    1    3    3    0    0 -0.19047314473E+02  0.21241301245E+02  0.51068375317E+03  0.51148107376E+03  0.10000000000E+01 0.  0.
<mgrwt>
<rscale>  0 0.12500079E+03</rscale>
<asrwt>0</asrwt>
<pdfrwt beam="2">  1        4 0.18053084E-02 0.12500079E+03</pdfrwt>
<pdfrwt beam="1">  1       -4 0.13523657E+00 0.12500079E+03</pdfrwt>
<totfact> 0.80421185E+02</totfact>
</mgrwt>
</event>
<event>
 5    1  0.1440092E-002  0.1250077E+03  0.7818608E-02  0.1235057E+00
          4   -1    0    0  501    0  0.00000000000E+00  0.00000000000E+00  0.95376370370E+02  0.95384825444E+02  0.12700000000E+01 0.  1.
         -4   -1    0    0    0  501 -0.00000000000E+00 -0.00000000000E+00 -0.40941105141E+02  0.40960798212E+02  0.12700000000E+01 0.  1.
         25    2    1    2    0    0  0.00000000000E+00  0.00000000000E+00  0.54435265229E+02  0.13634562366E+03  0.12500772372E+03 0.  0.
    9000005    1    3    3    0    0  0.61934619724E+02  0.50915315878E+00  0.36315409912E+02  0.71805051037E+02  0.10000000000E+01 0.  0.
    9000005    1    3    3    0    0 -0.61934619724E+02 -0.50915315878E+00  0.18119855317E+02  0.64540572619E+02  0.10000000000E+01 0.  0.
<mgrwt>
<rscale>  0 0.12500772E+03</rscale>
<asrwt>0</asrwt>
<pdfrwt beam="1">  1        4 0.23847611E-01 0.12500772E+03</pdfrwt>
<pdfrwt beam="2">  1       -4 0.10238795E-01 0.12500772E+03</pdfrwt>
<totfact> 0.19225421E+03</totfact>
</mgrwt>
</event>
<event>
 5    1  0.1440092E-002  0.1250009E+03  0.7818608E-02  0.1235068E+00
          4   -1    0    0  501    0  0.00000000000E+00  0.00000000000E+00  0.94606737343E+01  0.95455354751E+01  0.12700000000E+01 0. -1.
         -4   -1    0    0    0  501 -0.00000000000E+00 -0.00000000000E+00 -0.41097020863E+03  0.41097217094E+03  0.12700000000E+01 0. -1.
         25    2    1    2    0    0  0.00000000000E+00  0.00000000000E+00 -0.40150953490E+03  0.42051770641E+03  0.12500093916E+03 0.  0.
    9000005    1    3    3    0    0 -0.47549103953E+02 -0.95138710189E+01 -0.33336572890E+03  0.33687555601E+03  0.10000000000E+01 0.  0.
    9000005    1    3    3    0    0  0.47549103953E+02  0.95138710189E+01 -0.68143805995E+02  0.83642150403E+02  0.10000000000E+01 0.  0.
<mgrwt>
<rscale>  0 0.12500094E+03</rscale>
<asrwt>0</asrwt>
<pdfrwt beam="1">  1        4 0.23760228E-02 0.12500094E+03</pdfrwt>
<pdfrwt beam="2">  1       -4 0.10275335E+00 0.12500094E+03</pdfrwt>
<totfact> 0.10155725E+03</totfact>
</mgrwt>
</event>
<event>
 5    1  0.1440092E-002  0.1250045E+03  0.7818608E-02  0.1235062E+00
         -4   -1    0    0    0  501 -0.00000000000E+00  0.00000000000E+00  0.32380371744E+03  0.32380620799E+03  0.12700000000E+01 0.  1.
          4   -1    0    0  501    0  0.00000000000E+00 -0.00000000000E+00 -0.12028537479E+02  0.12095396392E+02  0.12700000000E+01 0.  1.
         25    2    1    2    0    0  0.00000000000E+00  0.00000000000E+00  0.31177517996E+03  0.33590160438E+03  0.12500449985E+03 0.  0.
    9000005    1    3    3    0    0  0.14852164382E+02 -0.12766237905E+02  0.31535763298E+03  0.31596677088E+03  0.10000000000E+01 0.  0.
    9000005    1    3    3    0    0 -0.14852164382E+02  0.12766237905E+02 -0.35824530192E+01  0.19934833501E+02  0.10000000000E+01 0.  0.
<mgrwt>
<rscale>  0 0.12500450E+03</rscale>
<asrwt>0</asrwt>
<pdfrwt beam="2">  1        4 0.30158032E-02 0.12500450E+03</pdfrwt>
<pdfrwt beam="1">  1       -4 0.80959593E-01 0.12500450E+03</pdfrwt>
<totfact> 0.12020095E+03</totfact>
</mgrwt>
</event>
<event>
 5    1  0.1440092E-002  0.1249974E+03  0.7818608E-02  0.1235073E+00
         -4   -1    0    0    0  501 -0.00000000000E+00  0.00000000000E+00  0.27764013881E+03  0.27764304345E+03  0.12700000000E+01 0. -1.
          4   -1    0    0  501    0  0.00000000000E+00 -0.00000000000E+00 -0.14037239270E+02  0.14094572939E+02  0.12700000000E+01 0. -1.
         25    2    1    2    0    0  0.00000000000E+00  0.00000000000E+00  0.26360289954E+03  0.29173761639E+03  0.12499739266E+03 0.  0.
    9000005    1    3    3    0    0  0.33812125588E+02  0.43472869856E+02  0.62883241507E+02  0.83596963537E+02  0.10000000000E+01 0.  0.
    9000005    1    3    3    0    0 -0.33812125588E+02 -0.43472869856E+02  0.20071965803E+03  0.20814065285E+03  0.10000000000E+01 0.  0.
<mgrwt>
<rscale>  0 0.12499739E+03</rscale>
<asrwt>0</asrwt>
<pdfrwt beam="2">  1        4 0.35168396E-02 0.12499739E+03</pdfrwt>
<pdfrwt beam="1">  1       -4 0.69417565E-01 0.12499739E+03</pdfrwt>
<totfact> 0.13206615E+03</totfact>
</mgrwt>
</event>
<event>
 5    1  0.1440092E-002  0.1249916E+03  0.7818608E-02  0.1235082E+00
          4   -1    0    0  501    0  0.00000000000E+00  0.00000000000E+00  0.61855373314E+02  0.61868409611E+02  0.12700000000E+01 0. -1.
         -4   -1    0    0    0  501 -0.00000000000E+00 -0.00000000000E+00 -0.63116795082E+02  0.63129570895E+02  0.12700000000E+01 0. -1.
         25    2    1    2    0    0  0.00000000000E+00  0.00000000000E+00 -0.12614217685E+01  0.12499798051E+03  0.12499161550E+03 0.  0.
    9000005    1    3    3    0    0 -0.54575553224E+02 -0.23765252566E+02 -0.19643458201E+02  0.62690858100E+02  0.10000000000E+01 0.  0.
    9000005    1    3    3    0    0  0.54575553224E+02  0.23765252566E+02  0.18382036432E+02  0.62307122406E+02  0.10000000000E+01 0.  0.
<mgrwt>
<rscale>  0 0.12499162E+03</rscale>
<asrwt>0</asrwt>
<pdfrwt beam="1">  1        4 0.15467070E-01 0.12499162E+03</pdfrwt>
<pdfrwt beam="2">  1       -4 0.15782425E-01 0.12499162E+03</pdfrwt>
<totfact> 0.19839057E+03</totfact>
</mgrwt>
</event>
<event>
 5    1  0.1440092E-002  0.1249975E+03  0.7818608E-02  0.1235073E+00
          4   -1    0    0  501    0  0.00000000000E+00  0.00000000000E+00  0.90839403034E+02  0.90848280356E+02  0.12700000000E+01 0. -1.
         -4   -1    0    0    0  501 -0.00000000000E+00 -0.00000000000E+00 -0.42979630916E+02  0.42998390361E+02  0.12700000000E+01 0. -1.
         25    2    1    2    0    0  0.00000000000E+00  0.00000000000E+00  0.47859772118E+02  0.13384667072E+03  0.12499749387E+03 0.  0.
    9000005    1    3    3    0    0  0.59225204550E+00 -0.56406238594E+02  0.52723693622E+02  0.77219184041E+02  0.10000000000E+01 0.  0.
    9000005    1    3    3    0    0 -0.59225204550E+00  0.56406238594E+02 -0.48639215035E+01  0.56627486676E+02  0.10000000000E+01 0.  0.
<mgrwt>
<rscale>  0 0.12499749E+03</rscale>
<asrwt>0</asrwt>
<pdfrwt beam="1">  1        4 0.22713305E-01 0.12499749E+03</pdfrwt>
<pdfrwt beam="2">  1       -4 0.10748362E-01 0.12499749E+03</pdfrwt>
<totfact> 0.19360851E+03</totfact>
</mgrwt>
</event>
<event>
 5    1  0.1440092E-002  0.1250039E+03  0.7818608E-02  0.1235063E+00
         -4   -1    0    0    0  501 -0.00000000000E+00  0.00000000000E+00  0.57224221291E+02  0.57238312365E+02  0.12700000000E+01 0. -1.
          4   -1    0    0  501    0  0.00000000000E+00 -0.00000000000E+00 -0.68238004767E+02  0.68249821938E+02  0.12700000000E+01 0. -1.
         25    2    1    2    0    0  0.00000000000E+00  0.00000000000E+00 -0.11013783476E+02  0.12548813430E+03  0.12500387364E+03 0.  0.
    9000005    1    3    3    0    0  0.74737634534E+01 -0.67615388194E+01 -0.67421721365E+02  0.68178178761E+02  0.10000000000E+01 0.  0.
    9000005    1    3    3    0    0 -0.74737634534E+01  0.67615388194E+01  0.56407937889E+02  0.57309955542E+02  0.10000000000E+01 0.  0.
<mgrwt>
<rscale>  0 0.12500387E+03</rscale>
<asrwt>0</asrwt>
<pdfrwt beam="2">  1        4 0.17062740E-01 0.12500387E+03</pdfrwt>
<pdfrwt beam="1">  1       -4 0.14309294E-01 0.12500387E+03</pdfrwt>
<totfact> 0.19806811E+03</totfact>
</mgrwt>
</event>
<event>
 5    1  0.1440092E-002  0.1250043E+03  0.7818608E-02  0.1235063E+00
         -4   -1    0    0    0  501 -0.00000000000E+00  0.00000000000E+00  0.16590244883E+02  0.16638783768E+02  0.12700000000E+01 0. -1.
          4   -1    0    0  501    0  0.00000000000E+00 -0.00000000000E+00 -0.23507645904E+03  0.23507988960E+03  0.12700000000E+01 0. -1.
         25    2    1    2    0    0  0.00000000000E+00  0.00000000000E+00 -0.21848621416E+03  0.25171867337E+03  0.12500425891E+03 0.  0.
    9000005    1    3    3    0    0  0.39130035771E+02  0.43481904082E+02 -0.15352945992E+03  0.16429890670E+03  0.10000000000E+01 0.  0.
    9000005    1    3    3    0    0 -0.39130035771E+02 -0.43481904082E+02 -0.64956754243E+02  0.87419766666E+02  0.10000000000E+01 0.  0.
<mgrwt>
<rscale>  0 0.12500426E+03</rscale>
<asrwt>0</asrwt>
<pdfrwt beam="2">  1        4 0.58775600E-01 0.12500426E+03</pdfrwt>
<pdfrwt beam="1">  1       -4 0.41540582E-02 0.12500426E+03</pdfrwt>
<totfact> 0.14439575E+03</totfact>
</mgrwt>
</event>
<event>
 5    1  0.1440092E-002  0.1249960E+03  0.7818608E-02  0.1235076E+00
          4   -1    0    0  501    0  0.00000000000E+00  0.00000000000E+00  0.21507598171E+02  0.21545061594E+02  0.12700000000E+01 0.  1.
         -4   -1    0    0    0  501 -0.00000000000E+00 -0.00000000000E+00 -0.18141252167E+03  0.18141696700E+03  0.12700000000E+01 0.  1.
         25    2    1    2    0    0  0.00000000000E+00  0.00000000000E+00 -0.15990492350E+03  0.20296202860E+03  0.12499600192E+03 0.  0.
    9000005    1    3    3    0    0  0.31570025463E+02  0.51531421757E+02 -0.54133018215E+02  0.81139001702E+02  0.10000000000E+01 0.  0.
    9000005    1    3    3    0    0 -0.31570025463E+02 -0.51531421757E+02 -0.10577190528E+03  0.12182302690E+03  0.10000000000E+01 0.  0.
<mgrwt>
<rscale>  0 0.12499600E+03</rscale>
<asrwt>0</asrwt>
<pdfrwt beam="1">  1        4 0.53821387E-02 0.12499600E+03</pdfrwt>
<pdfrwt beam="2">  1       -4 0.45358364E-01 0.12499600E+03</pdfrwt>
<totfact> 0.16205618E+03</totfact>
</mgrwt>
</event>
<event>
 5    1  0.1440092E-002  0.1249997E+03  0.7818608E-02  0.1235070E+00
          4   -1    0    0  501    0  0.00000000000E+00  0.00000000000E+00  0.88643752655E+02  0.88652849840E+02  0.12700000000E+01 0.  1.
         -4   -1    0    0    0  501 -0.00000000000E+00 -0.00000000000E+00 -0.44046087253E+02  0.44064392681E+02  0.12700000000E+01 0.  1.
         25    2    1    2    0    0  0.00000000000E+00  0.00000000000E+00  0.44597665401E+02  0.13271724252E+03  0.12499965881E+03 0.  0.
    9000005    1    3    3    0    0  0.59986745295E+02 -0.21041880323E+01  0.40761875701E+02  0.72562853645E+02  0.10000000000E+01 0.  0.
    9000005    1    3    3    0    0 -0.59986745295E+02  0.21041880323E+01  0.38357897000E+01  0.60154388876E+02  0.10000000000E+01 0.  0.
<mgrwt>
<rscale>  0 0.12499966E+03</rscale>
<asrwt>0</asrwt>
<pdfrwt beam="1">  1        4 0.22164363E-01 0.12499966E+03</pdfrwt>
<pdfrwt beam="2">  1       -4 0.11014947E-01 0.12499966E+03</pdfrwt>
<totfact> 0.19419539E+03</totfact>
</mgrwt>
</event>
<event>
 5    1  0.1440092E-002  0.1249996E+03  0.7818608E-02  0.1235070E+00
          4   -1    0    0  501    0  0.00000000000E+00  0.00000000000E+00  0.23770808892E+03  0.23771148150E+03  0.12700000000E+01 0.  1.
         -4   -1    0    0    0  501 -0.00000000000E+00 -0.00000000000E+00 -0.16404824423E+02  0.16453910306E+02  0.12700000000E+01 0.  1.
         25    2    1    2    0    0  0.00000000000E+00  0.00000000000E+00  0.22130326449E+03  0.25416539180E+03  0.12499964606E+03 0.  0.
    9000005    1    3    3    0    0  0.49046918426E+02 -0.38646730006E+02  0.10564702712E+03  0.12272515751E+03  0.10000000000E+01 0.  0.
    9000005    1    3    3    0    0 -0.49046918426E+02  0.38646730006E+02  0.11565623738E+03  0.13144023430E+03  0.10000000000E+01 0.  0.
<mgrwt>
<rscale>  0 0.12499965E+03</rscale>
<asrwt>0</asrwt>
<pdfrwt beam="1">  1        4 0.59433581E-01 0.12499965E+03</pdfrwt>
<pdfrwt beam="2">  1       -4 0.41077660E-02 0.12499965E+03</pdfrwt>
<totfact> 0.14360559E+03</totfact>
</mgrwt>
</event>
<event>
 5    1  0.1440092E-002  0.1249928E+03  0.7818608E-02  0.1235081E+00
         -4   -1    0    0    0  501 -0.00000000000E+00  0.00000000000E+00  0.20277612362E+03  0.20278010063E+03  0.12700000000E+01 0. -1.
          4   -1    0    0  501    0  0.00000000000E+00 -0.00000000000E+00 -0.19236528538E+02  0.19278405800E+02  0.12700000000E+01 0. -1.
         25    2    1    2    0    0  0.00000000000E+00  0.00000000000E+00  0.18353959509E+03  0.22205850643E+03  0.12499278905E+03 0.  0.
    9000005    1    3    3    0    0  0.24526767176E+01 -0.58802630564E+02  0.54460363547E+02  0.80191621645E+02  0.10000000000E+01 0.  0.
    9000005    1    3    3    0    0 -0.24526767176E+01  0.58802630564E+02  0.12907923154E+03  0.14186688479E+03  0.10000000000E+01 0.  0.
<mgrwt>
<rscale>  0 0.12499279E+03</rscale>
<asrwt>0</asrwt>
<pdfrwt beam="2">  1        4 0.48148639E-02 0.12499279E+03</pdfrwt>
<pdfrwt beam="1">  1       -4 0.50699763E-01 0.12499279E+03</pdfrwt>
<totfact> 0.15477866E+03</totfact>
</mgrwt>
</event>
<event>
 5    1  0.1440092E-002  0.1249997E+03  0.7818608E-02  0.1235070E+00
         -4   -1    0    0    0  501 -0.00000000000E+00  0.00000000000E+00  0.26705466713E+02  0.26735647596E+02  0.12700000000E+01 0. -1.
          4   -1    0    0  501    0  0.00000000000E+00 -0.00000000000E+00 -0.14615532143E+03  0.14616083909E+03  0.12700000000E+01 0. -1.
         25    2    1    2    0    0  0.00000000000E+00  0.00000000000E+00 -0.11944985472E+03  0.17289648668E+03  0.12499970926E+03 0.  0.
    9000005    1    3    3    0    0 -0.40822069026E+02 -0.46853968401E+02 -0.68847190494E+02  0.92750586593E+02  0.10000000000E+01 0.  0.
    9000005    1    3    3    0    0  0.40822069026E+02  0.46853968401E+02 -0.50602664224E+02  0.80145900089E+02  0.10000000000E+01 0.  0.
<mgrwt>
<rscale>  0 0.12499971E+03</rscale>
<asrwt>0</asrwt>
<pdfrwt beam="2">  1        4 0.36543290E-01 0.12499971E+03</pdfrwt>
<pdfrwt beam="1">  1       -4 0.66808294E-02 0.12499971E+03</pdfrwt>
<totfact> 0.17467307E+03</totfact>
</mgrwt>
</event>
<event>
 5    1  0.1440092E-002  0.1250112E+03  0.7818608E-02  0.1235052E+00
          4   -1    0    0  501    0  0.00000000000E+00  0.00000000000E+00  0.16166784857E+04  0.16166789845E+04  0.12700000000E+01 0. -1.
         -4   -1    0    0    0  501 -0.00000000000E+00 -0.00000000000E+00 -0.22492671803E+01  0.25830413950E+01  0.12700000000E+01 0. -1.
         25    2    1    2    0    0  0.00000000000E+00  0.00000000000E+00  0.16144292185E+04  0.16192620259E+04  0.12501122748E+03 0.  0.
    9000005    1    3    3    0    0 -0.19025826941E+01  0.62426387441E+02  0.77745644946E+03  0.77996166860E+03  0.10000000000E+01 0.  0.
    9000005    1    3    3    0    0  0.19025826941E+01 -0.62426387441E+02  0.83697276904E+03  0.83930035732E+03  0.10000000000E+01 0.  0.
<mgrwt>
<rscale>  0 0.12501123E+03</rscale>
<asrwt>0</asrwt>
<pdfrwt beam="1">  1        4 0.40421128E+00 0.12501123E+03</pdfrwt>
<pdfrwt beam="2">  1       -4 0.60410112E-03 0.12501123E+03</pdfrwt>
<totfact> 0.89888806E+01</totfact>
</mgrwt>
</event>
<event>
 4    1  0.1440092E-002  0.1260996E+03  0.7818608E-02  0.1233361E+00
         -4   -1    0    0    0  501 -0.00000000000E+00  0.00000000000E+00  0.43646404269E+01  0.45456557345E+01  0.12700000000E+01 0. -1.
          4   -1    0    0  501    0  0.00000000000E+00 -0.00000000000E+00 -0.89210728343E+03  0.89210818741E+03  0.12700000000E+01 0. -1.
    9000005    1    1    2    0    0 -0.50053613866E+01  0.98968155948E+01 -0.88515053194E+03  0.88522057409E+03  0.10000000000E+01 0.  0.
    9000005    1    1    2    0    0  0.50053613866E+01 -0.98968155948E+01 -0.25921110628E+01  0.11433269055E+02  0.10000000000E+01 0.  0.
<mgrwt>
<rscale>  0 0.12609962E+03</rscale>
<asrwt>0</asrwt>
<pdfrwt beam="2">  1        4 0.22304895E+00 0.12609962E+03</pdfrwt>
<pdfrwt beam="1">  1       -4 0.11139031E-02 0.12609962E+03</pdfrwt>
<totfact> 0.43441910E+02</totfact>
</mgrwt>
</event>
<event>
 5    1  0.1440092E-002  0.1250055E+03  0.7818608E-02  0.1235061E+00
          4   -1    0    0  501    0  0.00000000000E+00  0.00000000000E+00  0.79913182692E+02  0.79923273632E+02  0.12700000000E+01 0.  1.
         -4   -1    0    0    0  501 -0.00000000000E+00 -0.00000000000E+00 -0.48864031941E+02  0.48880533114E+02  0.12700000000E+01 0.  1.
         25    2    1    2    0    0  0.00000000000E+00  0.00000000000E+00  0.31049150752E+02  0.12880380675E+03  0.12500548336E+03 0.  0.
    9000005    1    3    3    0    0  0.40329126732E+02  0.33264755203E+02  0.50808467867E+02  0.72907357713E+02  0.10000000000E+01 0.  0.
    9000005    1    3    3    0    0 -0.40329126732E+02 -0.33264755203E+02 -0.19759317115E+02  0.55896449033E+02  0.10000000000E+01 0.  0.
<mgrwt>
<rscale>  0 0.12500548E+03</rscale>
<asrwt>0</asrwt>
<pdfrwt beam="1">  1        4 0.19981620E-01 0.12500548E+03</pdfrwt>
<pdfrwt beam="2">  1       -4 0.12219332E-01 0.12500548E+03</pdfrwt>
<totfact> 0.19626398E+03</totfact>
</mgrwt>
</event>
<event>
 5    1  0.1440092E-002  0.1250030E+03  0.7818608E-02  0.1235065E+00
         -4   -1    0    0    0  501 -0.00000000000E+00  0.00000000000E+00  0.11389756771E+04  0.11389763852E+04  0.12700000000E+01 0. -1.
          4   -1    0    0  501    0  0.00000000000E+00 -0.00000000000E+00 -0.33114808311E+01  0.35466611475E+01  0.12700000000E+01 0. -1.
         25    2    1    2    0    0  0.00000000000E+00  0.00000000000E+00  0.11356641963E+04  0.11425230463E+04  0.12500297849E+03 0.  0.
    9000005    1    3    3    0    0 -0.16329388991E+02  0.58087333364E+02  0.71652138112E+03  0.71905818738E+03  0.10000000000E+01 0.  0.
    9000005    1    3    3    0    0  0.16329388991E+02 -0.58087333364E+02  0.41914281517E+03  0.42346485893E+03  0.10000000000E+01 0.  0.
<mgrwt>
<rscale>  0 0.12500298E+03</rscale>
<asrwt>0</asrwt>
<pdfrwt beam="2">  1        4 0.85735716E-03 0.12500298E+03</pdfrwt>
<pdfrwt beam="1">  1       -4 0.28477310E+00 0.12500298E+03</pdfrwt>
<totfact> 0.28321649E+02</totfact>
</mgrwt>
</event>
<event>
 5    1  0.1440092E-002  0.1249941E+03  0.7818608E-02  0.1235078E+00
         -4   -1    0    0    0  501 -0.00000000000E+00  0.00000000000E+00  0.18417004125E+02  0.18460740531E+02  0.12700000000E+01 0.  1.
          4   -1    0    0  501    0  0.00000000000E+00 -0.00000000000E+00 -0.21178310619E+03  0.21178691406E+03  0.12700000000E+01 0.  1.
         25    2    1    2    0    0  0.00000000000E+00  0.00000000000E+00 -0.19336610207E+03  0.23024765459E+03  0.12499413193E+03 0.  0.
    9000005    1    3    3    0    0 -0.48996377508E+02 -0.31370921313E+02 -0.13869283959E+03  0.15040439976E+03  0.10000000000E+01 0.  0.
    9000005    1    3    3    0    0  0.48996377508E+02  0.31370921313E+02 -0.54673262478E+02  0.79843254837E+02  0.10000000000E+01 0.  0.
<mgrwt>
<rscale>  0 0.12499413E+03</rscale>
<asrwt>0</asrwt>
<pdfrwt beam="2">  1        4 0.52951712E-01 0.12499413E+03</pdfrwt>
<pdfrwt beam="1">  1       -4 0.46101947E-02 0.12499413E+03</pdfrwt>
<totfact> 0.15180521E+03</totfact>
</mgrwt>
</event>
<event>
 5    1  0.1440092E-002  0.1249998E+03  0.7818608E-02  0.1235070E+00
         -4   -1    0    0    0  501 -0.00000000000E+00  0.00000000000E+00  0.29739785633E+02  0.29766890155E+02  0.12700000000E+01 0.  1.
          4   -1    0    0  501    0  0.00000000000E+00 -0.00000000000E+00 -0.13125726182E+03  0.13126340572E+03  0.12700000000E+01 0.  1.
         25    2    1    2    0    0  0.00000000000E+00  0.00000000000E+00 -0.10151747619E+03  0.16103029587E+03  0.12499983287E+03 0.  0.
    9000005    1    3    3    0    0  0.19161025683E+02 -0.42294314358E+02 -0.10463885406E+03  0.11448250396E+03  0.10000000000E+01 0.  0.
    9000005    1    3    3    0    0 -0.19161025683E+02  0.42294314358E+02  0.31213778783E+01  0.46547791914E+02  0.10000000000E+01 0.  0.
<mgrwt>
<rscale>  0 0.12499983E+03</rscale>
<asrwt>0</asrwt>
<pdfrwt beam="2">  1        4 0.32818470E-01 0.12499983E+03</pdfrwt>
<pdfrwt beam="1">  1       -4 0.74391028E-02 0.12499983E+03</pdfrwt>
<totfact> 0.18009445E+03</totfact>
</mgrwt>
</event>
<event>
 5    1  0.1440092E-002  0.1249967E+03  0.7818608E-02  0.1235074E+00
         -4   -1    0    0    0  501 -0.00000000000E+00  0.00000000000E+00  0.82164756220E+01  0.83140466469E+01  0.12700000000E+01 0.  1.
          4   -1    0    0  501    0  0.00000000000E+00 -0.00000000000E+00 -0.47248704255E+03  0.47248874936E+03  0.12700000000E+01 0.  1.
         25    2    1    2    0    0  0.00000000000E+00  0.00000000000E+00 -0.46427056693E+03  0.48080279601E+03  0.12499667731E+03 0.  0.
    9000005    1    3    3    0    0 -0.42443891605E+02 -0.44511944252E+02 -0.18960635338E+03  0.19933480970E+03  0.10000000000E+01 0.  0.
    9000005    1    3    3    0    0  0.42443891605E+02  0.44511944252E+02 -0.27466421354E+03  0.28146798631E+03  0.10000000000E+01 0.  0.
<mgrwt>
<rscale>  0 0.12499668E+03</rscale>
<asrwt>0</asrwt>
<pdfrwt beam="2">  1        4 0.11813408E+00 0.12499668E+03</pdfrwt>
<pdfrwt beam="1">  1       -4 0.20665302E-02 0.12499668E+03</pdfrwt>
<totfact> 0.90743615E+02</totfact>
</mgrwt>
</event>
<event>
 5    1  0.1440092E-002  0.1250001E+03  0.7818608E-02  0.1235069E+00
         -4   -1    0    0    0  501 -0.00000000000E+00  0.00000000000E+00  0.78612563143E+02  0.78622821012E+02  0.12700000000E+01 0.  1.
          4   -1    0    0  501    0  0.00000000000E+00 -0.00000000000E+00 -0.49668385324E+02  0.49684619358E+02  0.12700000000E+01 0.  1.
         25    2    1    2    0    0  0.00000000000E+00  0.00000000000E+00  0.28944177819E+02  0.12830744037E+03  0.12500013530E+03 0.  0.
    9000005    1    3    3    0    0  0.57683170366E+02  0.23527113566E+02  0.94032921890E+01  0.63010277893E+02  0.10000000000E+01 0.  0.
    9000005    1    3    3    0    0 -0.57683170366E+02 -0.23527113566E+02  0.19540885630E+02  0.65297162476E+02  0.10000000000E+01 0.  0.
<mgrwt>
<rscale>  0 0.12500014E+03</rscale>
<asrwt>0</asrwt>
<pdfrwt beam="2">  1        4 0.12420408E-01 0.12500014E+03</pdfrwt>
<pdfrwt beam="1">  1       -4 0.19656452E-01 0.12500014E+03</pdfrwt>
<totfact> 0.19655761E+03</totfact>
</mgrwt>
</event>
<event>
 5    1  0.1440092E-002  0.1250030E+03  0.7818608E-02  0.1235065E+00
         -4   -1    0    0    0  501 -0.00000000000E+00  0.00000000000E+00  0.13657708360E+03  0.13658298820E+03  0.12700000000E+01 0. -1.
          4   -1    0    0  501    0  0.00000000000E+00 -0.00000000000E+00 -0.28581831846E+02  0.28610033409E+02  0.12700000000E+01 0. -1.
         25    2    1    2    0    0  0.00000000000E+00  0.00000000000E+00  0.10799525175E+03  0.16519302161E+03  0.12500303991E+03 0.  0.
    9000005    1    3    3    0    0 -0.29505772937E+02  0.41995796821E+02  0.68805341402E+01  0.51793622554E+02  0.10000000000E+01 0.  0.
    9000005    1    3    3    0    0  0.29505772937E+02 -0.41995796821E+02  0.10111471761E+03  0.11339939905E+03  0.10000000000E+01 0.  0.
<mgrwt>
<rscale>  0 0.12500304E+03</rscale>
<asrwt>0</asrwt>
<pdfrwt beam="2">  1        4 0.71497212E-02 0.12500304E+03</pdfrwt>
<pdfrwt beam="1">  1       -4 0.34148534E-01 0.12500304E+03</pdfrwt>
<totfact> 0.17814809E+03</totfact>
</mgrwt>
</event>
<event>
 5    1  0.1440092E-002  0.1249995E+03  0.7818608E-02  0.1235070E+00
         -4   -1    0    0    0  501 -0.00000000000E+00  0.00000000000E+00  0.87241520300E+02  0.87250763689E+02  0.12700000000E+01 0. -1.
          4   -1    0    0  501    0  0.00000000000E+00 -0.00000000000E+00 -0.44754139876E+02  0.44772155812E+02  0.12700000000E+01 0. -1.
         25    2    1    2    0    0  0.00000000000E+00  0.00000000000E+00  0.42487380424E+02  0.13202291950E+03  0.12499949511E+03 0.  0.
    9000005    1    3    3    0    0  0.58743182438E+02 -0.94968269034E+01  0.41401861507E+02  0.72498726474E+02  0.10000000000E+01 0.  0.
    9000005    1    3    3    0    0 -0.58743182438E+02  0.94968269034E+01  0.10855189174E+01  0.59524193027E+02  0.10000000000E+01 0.  0.
<mgrwt>
<rscale>  0 0.12499950E+03</rscale>
<asrwt>0</asrwt>
<pdfrwt beam="2">  1        4 0.11191942E-01 0.12499950E+03</pdfrwt>
<pdfrwt beam="1">  1       -4 0.21813787E-01 0.12499950E+03</pdfrwt>
<totfact> 0.19456465E+03</totfact>
</mgrwt>
</event>
<event>
 5    1  0.1440092E-002  0.1249999E+03  0.7818608E-02  0.1235070E+00
          4   -1    0    0  501    0  0.00000000000E+00  0.00000000000E+00  0.21901893927E+03  0.21902262134E+03  0.12700000000E+01 0. -1.
         -4   -1    0    0    0  501 -0.00000000000E+00 -0.00000000000E+00 -0.17808729935E+02  0.17853956477E+02  0.12700000000E+01 0. -1.
         25    2    1    2    0    0  0.00000000000E+00  0.00000000000E+00  0.20121020933E+03  0.23687657782E+03  0.12499985911E+03 0.  0.
    9000005    1    3    3    0    0 -0.46671142980E+02  0.11619839899E+02  0.17621654803E+03  0.18266496124E+03  0.10000000000E+01 0.  0.
    9000005    1    3    3    0    0  0.46671142980E+02 -0.11619839899E+02  0.24993661308E+02  0.54211616577E+02  0.10000000000E+01 0.  0.
<mgrwt>
<rscale>  0 0.12499986E+03</rscale>
<asrwt>0</asrwt>
<pdfrwt beam="1">  1        4 0.54760846E-01 0.12499986E+03</pdfrwt>
<pdfrwt beam="2">  1       -4 0.44582962E-02 0.12499986E+03</pdfrwt>
<totfact> 0.14944718E+03</totfact>
</mgrwt>
</event>
<event>
 5    1  0.1440092E-002  0.1249721E+03  0.7818608E-02  0.1235113E+00
         -4   -1    0    0    0  501 -0.00000000000E+00  0.00000000000E+00  0.66372218971E+03  0.66372340475E+03  0.12700000000E+01 0. -1.
          4   -1    0    0  501    0  0.00000000000E+00 -0.00000000000E+00 -0.58129651509E+01  0.59500809949E+01  0.12700000000E+01 0. -1.
         25    2    1    2    0    0  0.00000000000E+00  0.00000000000E+00  0.65790922456E+03  0.66967348574E+03  0.12497211589E+03 0.  0.
    9000005    1    3    3    0    0 -0.29613392132E+02  0.12285694211E+02  0.61630741628E+03  0.61714157422E+03  0.10000000000E+01 0.  0.
    9000005    1    3    3    0    0  0.29613392132E+02 -0.12285694211E+02  0.41601808279E+02  0.52531911520E+02  0.10000000000E+01 0.  0.
<mgrwt>
<rscale>  0 0.12497212E+03</rscale>
<asrwt>0</asrwt>
<pdfrwt beam="2">  1        4 0.14705325E-02 0.12497212E+03</pdfrwt>
<pdfrwt beam="1">  1       -4 0.16594785E+00 0.12497212E+03</pdfrwt>
<totfact> 0.65345310E+02</totfact>
</mgrwt>
</event>
<event>
 5    1  0.1440092E-002  0.1249932E+03  0.7818608E-02  0.1235080E+00
          4   -1    0    0  501    0  0.00000000000E+00  0.00000000000E+00  0.33036556949E+03  0.33036801056E+03  0.12700000000E+01 0. -1.
         -4   -1    0    0    0  501 -0.00000000000E+00 -0.00000000000E+00 -0.11786131810E+02  0.11854357977E+02  0.12700000000E+01 0. -1.
         25    2    1    2    0    0  0.00000000000E+00  0.00000000000E+00  0.31857943768E+03  0.34222236854E+03  0.12499316548E+03 0.  0.
    9000005    1    3    3    0    0 -0.48005166976E+01 -0.39527731994E+02  0.27432476623E+02  0.48363491715E+02  0.10000000000E+01 0.  0.
    9000005    1    3    3    0    0  0.48005166976E+01  0.39527731994E+02  0.29114696105E+03  0.29385887682E+03  0.10000000000E+01 0.  0.
<mgrwt>
<rscale>  0 0.12499317E+03</rscale>
<asrwt>0</asrwt>
<pdfrwt beam="1">  1        4 0.82600224E-01 0.12499317E+03</pdfrwt>
<pdfrwt beam="2">  1       -4 0.29553664E-02 0.12499317E+03</pdfrwt>
<totfact> 0.11866952E+03</totfact>
</mgrwt>
</event>
<event>
 5    1  0.1440092E-002  0.1249880E+03  0.7818608E-02  0.1235088E+00
          4   -1    0    0  501    0  0.00000000000E+00  0.00000000000E+00  0.94912885742E+02  0.94921382100E+02  0.12700000000E+01 0.  1.
         -4   -1    0    0    0  501 -0.00000000000E+00 -0.00000000000E+00 -0.41128093216E+02  0.41147696795E+02  0.12700000000E+01 0.  1.
         25    2    1    2    0    0  0.00000000000E+00  0.00000000000E+00  0.53784792526E+02  0.13606907890E+03  0.12498796072E+03 0.  0.
    9000005    1    3    3    0    0  0.28850849498E+02 -0.32493752178E+02  0.75776416315E+02  0.87357201861E+02  0.10000000000E+01 0.  0.
    9000005    1    3    3    0    0 -0.28850849498E+02  0.32493752178E+02 -0.21991623789E+02  0.48711877035E+02  0.10000000000E+01 0.  0.
<mgrwt>
<rscale>  0 0.12498796E+03</rscale>
<asrwt>0</asrwt>
<pdfrwt beam="1">  1        4 0.23731734E-01 0.12498796E+03</pdfrwt>
<pdfrwt beam="2">  1       -4 0.10285536E-01 0.12498796E+03</pdfrwt>
<totfact> 0.19248692E+03</totfact>
</mgrwt>
</event>
<event>
 5    1  0.1440092E-002  0.1250010E+03  0.7818608E-02  0.1235068E+00
          4   -1    0    0  501    0  0.00000000000E+00  0.00000000000E+00  0.46732560026E+03  0.46732732593E+03  0.12700000000E+01 0.  1.
         -4   -1    0    0    0  501 -0.00000000000E+00 -0.00000000000E+00 -0.83088828249E+01  0.84053812405E+01  0.12700000000E+01 0.  1.
         25    2    1    2    0    0  0.00000000000E+00  0.00000000000E+00  0.45901671743E+03  0.47573270717E+03  0.12500104713E+03 0.  0.
    9000005    1    3    3    0    0 -0.26315454591E+02 -0.35344722885E+02  0.39815269638E+03  0.40058497503E+03  0.10000000000E+01 0.  0.
    9000005    1    3    3    0    0  0.26315454591E+02  0.35344722885E+02  0.60864021052E+02  0.75147732134E+02  0.10000000000E+01 0.  0.
<mgrwt>
<rscale>  0 0.12500105E+03</rscale>
<asrwt>0</asrwt>
<pdfrwt beam="1">  1        4 0.11684368E+00 0.12500105E+03</pdfrwt>
<pdfrwt beam="2">  1       -4 0.20894988E-02 0.12500105E+03</pdfrwt>
<totfact> 0.91571080E+02</totfact>
</mgrwt>
</event>
<event>
 5    1  0.1440092E-002  0.1249997E+03  0.7818608E-02  0.1235070E+00
          4   -1    0    0  501    0  0.00000000000E+00  0.00000000000E+00  0.17160128031E+02  0.17207059424E+02  0.12700000000E+01 0.  1.
         -4   -1    0    0    0  501 -0.00000000000E+00 -0.00000000000E+00 -0.22727475085E+03  0.22727829917E+03  0.12700000000E+01 0.  1.
         25    2    1    2    0    0  0.00000000000E+00  0.00000000000E+00 -0.21011462282E+03  0.24448535859E+03  0.12499974338E+03 0.  0.
    9000005    1    3    3    0    0 -0.25009121835E+01 -0.54557417494E+02 -0.16446180446E+03  0.17329584961E+03  0.10000000000E+01 0.  0.
    9000005    1    3    3    0    0  0.25009121835E+01  0.54557417494E+02 -0.45652818355E+02  0.71189508982E+02  0.10000000000E+01 0.  0.
<mgrwt>
<rscale>  0 0.12499974E+03</rscale>
<asrwt>0</asrwt>
<pdfrwt beam="1">  1        4 0.42963427E-02 0.12499974E+03</pdfrwt>
<pdfrwt beam="2">  1       -4 0.56824988E-01 0.12499974E+03</pdfrwt>
<totfact> 0.14683254E+03</totfact>
</mgrwt>
</event>
<event>
 5    1  0.1440092E-002  0.1250015E+03  0.7818608E-02  0.1235067E+00
         -4   -1    0    0    0  501 -0.00000000000E+00  0.00000000000E+00  0.19821694173E+02  0.19862337725E+02  0.12700000000E+01 0.  1.
          4   -1    0    0  501    0  0.00000000000E+00 -0.00000000000E+00 -0.19682952455E+03  0.19683362170E+03  0.12700000000E+01 0.  1.
         25    2    1    2    0    0  0.00000000000E+00  0.00000000000E+00 -0.17700783037E+03  0.21669595943E+03  0.12500146727E+03 0.  0.
    9000005    1    3    3    0    0 -0.95229593040E+01  0.60730134697E+01 -0.19505396526E+03  0.19538325826E+03  0.10000000000E+01 0.  0.
    9000005    1    3    3    0    0  0.95229593040E+01 -0.60730134697E+01  0.18046134887E+02  0.21312701163E+02  0.10000000000E+01 0.  0.
<mgrwt>
<rscale>  0 0.12500147E+03</rscale>
<asrwt>0</asrwt>
<pdfrwt beam="2">  1        4 0.49212968E-01 0.12500147E+03</pdfrwt>
<pdfrwt beam="1">  1       -4 0.49610167E-02 0.12500147E+03</pdfrwt>
<totfact> 0.15674110E+03</totfact>
</mgrwt>
</event>
<event>
 5    1  0.1440092E-002  0.1249996E+03  0.7818608E-02  0.1235070E+00
          4   -1    0    0  501    0  0.00000000000E+00  0.00000000000E+00  0.35861107567E+03  0.35861332448E+03  0.12700000000E+01 0.  1.
         -4   -1    0    0    0  501 -0.00000000000E+00 -0.00000000000E+00 -0.10853343936E+02  0.10927395600E+02  0.12700000000E+01 0.  1.
         25    2    1    2    0    0  0.00000000000E+00  0.00000000000E+00  0.34775773173E+03  0.36954072008E+03  0.12499961526E+03 0.  0.
    9000005    1    3    3    0    0  0.60133978467E+02  0.10512724808E+02  0.21338917301E+03  0.22195168822E+03  0.10000000000E+01 0.  0.
    9000005    1    3    3    0    0 -0.60133978467E+02 -0.10512724808E+02  0.13436855873E+03  0.14758903185E+03  0.10000000000E+01 0.  0.
<mgrwt>
<rscale>  0 0.12499962E+03</rscale>
<asrwt>0</asrwt>
<pdfrwt beam="1">  1        4 0.89662307E-01 0.12499962E+03</pdfrwt>
<pdfrwt beam="2">  1       -4 0.27228735E-02 0.12499962E+03</pdfrwt>
<totfact> 0.11224852E+03</totfact>
</mgrwt>
</event>
<event>
 5    1  0.1440092E-002  0.1249945E+03  0.7818608E-02  0.1235078E+00
         -4   -1    0    0    0  501 -0.00000000000E+00  0.00000000000E+00  0.12717680197E+03  0.12718314298E+03  0.12700000000E+01 0. -1.
          4   -1    0    0  501    0  0.00000000000E+00 -0.00000000000E+00 -0.30692183210E+02  0.30718447392E+02  0.12700000000E+01 0. -1.
         25    2    1    2    0    0  0.00000000000E+00  0.00000000000E+00  0.96484618761E+02  0.15790159038E+03  0.12499452222E+03 0.  0.
    9000005    1    3    3    0    0  0.54043850017E+01  0.52584902907E+02  0.61444192989E+01  0.53227185531E+02  0.10000000000E+01 0.  0.
    9000005    1    3    3    0    0 -0.54043850017E+01 -0.52584902907E+02  0.90340199462E+02  0.10467440485E+03  0.10000000000E+01 0.  0.
<mgrwt>
<rscale>  0 0.12499452E+03</rscale>
<asrwt>0</asrwt>
<pdfrwt beam="2">  1        4 0.76771215E-02 0.12499452E+03</pdfrwt>
<pdfrwt beam="1">  1       -4 0.31798276E-01 0.12499452E+03</pdfrwt>
<totfact> 0.18159270E+03</totfact>
</mgrwt>
</event>
<event>
 5    1  0.1440092E-002  0.1250021E+03  0.7818608E-02  0.1235066E+00
         -4   -1    0    0    0  501 -0.00000000000E+00  0.00000000000E+00  0.13070520145E+03  0.13071137129E+03  0.12700000000E+01 0. -1.
          4   -1    0    0  501    0  0.00000000000E+00 -0.00000000000E+00 -0.29866595134E+02  0.29893584678E+02  0.12700000000E+01 0. -1.
         25    2    1    2    0    0  0.00000000000E+00  0.00000000000E+00  0.10083860631E+03  0.16060495597E+03  0.12500210942E+03 0.  0.
    9000005    1    3    3    0    0 -0.45537224817E+02 -0.34461290845E+02  0.17810166836E+02  0.59828266342E+02  0.10000000000E+01 0.  0.
    9000005    1    3    3    0    0  0.45537224817E+02  0.34461290845E+02  0.83028439477E+02  0.10077668963E+03  0.10000000000E+01 0.  0.
<mgrwt>
<rscale>  0 0.12500211E+03</rscale>
<asrwt>0</asrwt>
<pdfrwt beam="2">  1        4 0.74707939E-02 0.12500211E+03</pdfrwt>
<pdfrwt beam="1">  1       -4 0.32680445E-01 0.12500211E+03</pdfrwt>
<totfact> 0.18028437E+03</totfact>
</mgrwt>
</event>
<event>
 5    1  0.1440092E-002  0.1249989E+03  0.7818608E-02  0.1235071E+00
         -4   -1    0    0    0  501 -0.00000000000E+00  0.00000000000E+00  0.31251176576E+02  0.31276971359E+02  0.12700000000E+01 0.  1.
          4   -1    0    0  501    0  0.00000000000E+00 -0.00000000000E+00 -0.12491257384E+03  0.12491902979E+03  0.12700000000E+01 0.  1.
         25    2    1    2    0    0  0.00000000000E+00  0.00000000000E+00 -0.93661397264E+02  0.15619600115E+03  0.12499893374E+03 0.  0.
    9000005    1    3    3    0    0  0.59203323316E+02 -0.67093225378E+01 -0.23282360990E+02  0.63977471299E+02  0.10000000000E+01 0.  0.
    9000005    1    3    3    0    0 -0.59203323316E+02  0.67093225378E+01 -0.70379036275E+02  0.92218529849E+02  0.10000000000E+01 0.  0.
<mgrwt>
<rscale>  0 0.12499893E+03</rscale>
<asrwt>0</asrwt>
<pdfrwt beam="2">  1        4 0.31232174E-01 0.12499893E+03</pdfrwt>
<pdfrwt beam="1">  1       -4 0.78168258E-02 0.12499893E+03</pdfrwt>
<totfact> 0.18238711E+03</totfact>
</mgrwt>
</event>
<event>
 5    1  0.1440092E-002  0.1249997E+03  0.7818608E-02  0.1235070E+00
          4   -1    0    0  501    0  0.00000000000E+00  0.00000000000E+00  0.25091154044E+03  0.25091475450E+03  0.12700000000E+01 0. -1.
         -4   -1    0    0    0  501 -0.00000000000E+00 -0.00000000000E+00 -0.15538949463E+02  0.15590761700E+02  0.12700000000E+01 0. -1.
         25    2    1    2    0    0  0.00000000000E+00  0.00000000000E+00  0.23537259098E+03  0.26650551620E+03  0.12499973433E+03 0.  0.
    9000005    1    3    3    0    0 -0.15594541402E+02 -0.81321418946E+01 -0.10163970722E+02  0.20337840450E+02  0.10000000000E+01 0.  0.
    9000005    1    3    3    0    0  0.15594541402E+02  0.81321418946E+01  0.24553656170E+03  0.24616767575E+03  0.10000000000E+01 0.  0.
<mgrwt>
<rscale>  0 0.12499973E+03</rscale>
<asrwt>0</asrwt>
<pdfrwt beam="1">  1        4 0.62734763E-01 0.12499973E+03</pdfrwt>
<pdfrwt beam="2">  1       -4 0.38916157E-02 0.12499973E+03</pdfrwt>
<totfact> 0.13964693E+03</totfact>
</mgrwt>
</event>
<event>
 5    1  0.1440092E-002  0.1250033E+03  0.7818608E-02  0.1235064E+00
         -4   -1    0    0    0  501 -0.00000000000E+00  0.00000000000E+00  0.39713433702E+02  0.39733735243E+02  0.12700000000E+01 0. -1.
          4   -1    0    0  501    0  0.00000000000E+00 -0.00000000000E+00 -0.98316588987E+02  0.98324791228E+02  0.12700000000E+01 0. -1.
         25    2    1    2    0    0  0.00000000000E+00  0.00000000000E+00 -0.58603155285E+02  0.13805852647E+03  0.12500330764E+03 0.  0.
    9000005    1    3    3    0    0 -0.13389142631E+02 -0.60802193032E+02 -0.35277900245E+02  0.71566095769E+02  0.10000000000E+01 0.  0.
    9000005    1    3    3    0    0  0.13389142631E+02  0.60802193032E+02 -0.23325255040E+02  0.66492430702E+02  0.10000000000E+01 0.  0.
<mgrwt>
<rscale>  0 0.12500331E+03</rscale>
<asrwt>0</asrwt>
<pdfrwt beam="2">  1        4 0.24582710E-01 0.12500331E+03</pdfrwt>
<pdfrwt beam="1">  1       -4 0.99319216E-02 0.12500331E+03</pdfrwt>
<totfact> 0.19138633E+03</totfact>
</mgrwt>
</event>
<event>
 5    1  0.1440092E-002  0.1250016E+03  0.7818608E-02  0.1235067E+00
          4   -1    0    0  501    0  0.00000000000E+00  0.00000000000E+00  0.62326870265E+02  0.62339807964E+02  0.12700000000E+01 0.  1.
         -4   -1    0    0    0  501 -0.00000000000E+00 -0.00000000000E+00 -0.62649304277E+02  0.62662175404E+02  0.12700000000E+01 0.  1.
         25    2    1    2    0    0  0.00000000000E+00  0.00000000000E+00 -0.32243401211E+00  0.12500198337E+03  0.12500156752E+03 0.  0.
    9000005    1    3    3    0    0  0.53843084571E+02  0.42729443365E+01 -0.31593982315E+02  0.62582070339E+02  0.10000000000E+01 0.  0.
    9000005    1    3    3    0    0 -0.53843084571E+02 -0.42729443365E+01  0.31271548303E+02  0.62419913030E+02  0.10000000000E+01 0.  0.
<mgrwt>
<rscale>  0 0.12500157E+03</rscale>
<asrwt>0</asrwt>
<pdfrwt beam="1">  1        4 0.15584944E-01 0.12500157E+03</pdfrwt>
<pdfrwt beam="2">  1       -4 0.15665552E-01 0.12500157E+03</pdfrwt>
<totfact> 0.19834220E+03</totfact>
</mgrwt>
</event>
<event>
 5    1  0.1440092E-002  0.1249969E+03  0.7818608E-02  0.1235074E+00
          4   -1    0    0  501    0  0.00000000000E+00  0.00000000000E+00  0.30352096785E+03  0.30352362482E+03  0.12700000000E+01 0. -1.
         -4   -1    0    0    0  501 -0.00000000000E+00 -0.00000000000E+00 -0.12835086054E+02  0.12897764691E+02  0.12700000000E+01 0. -1.
         25    2    1    2    0    0  0.00000000000E+00  0.00000000000E+00  0.29068588179E+03  0.31642138951E+03  0.12499685542E+03 0.  0.
    9000005    1    3    3    0    0  0.55908169987E+02  0.19469524792E+02  0.94697312502E+02  0.11168422835E+03  0.10000000000E+01 0.  0.
    9000005    1    3    3    0    0 -0.55908169987E+02 -0.19469524792E+02  0.19598856929E+03  0.20473716116E+03  0.10000000000E+01 0.  0.
<mgrwt>
<rscale>  0 0.12499686E+03</rscale>
<asrwt>0</asrwt>
<pdfrwt beam="1">  1        4 0.75888411E-01 0.12499686E+03</pdfrwt>
<pdfrwt beam="2">  1       -4 0.32169384E-02 0.12499686E+03</pdfrwt>
<totfact> 0.12523885E+03</totfact>
</mgrwt>
</event>
<event>
 5    1  0.1440092E-002  0.1249996E+03  0.7818608E-02  0.1235070E+00
         -4   -1    0    0    0  501 -0.00000000000E+00  0.00000000000E+00  0.21986601646E+03  0.21986968434E+03  0.12700000000E+01 0.  1.
          4   -1    0    0  501    0  0.00000000000E+00 -0.00000000000E+00 -0.17739864087E+02  0.17785265750E+02  0.12700000000E+01 0.  1.
         25    2    1    2    0    0  0.00000000000E+00  0.00000000000E+00  0.20212615237E+03  0.23765495009E+03  0.12499957533E+03 0.  0.
    9000005    1    3    3    0    0  0.29007301904E+02 -0.52708937302E+02  0.13319176204E+03  0.14615300582E+03  0.10000000000E+01 0.  0.
    9000005    1    3    3    0    0 -0.29007301904E+02  0.52708937302E+02  0.68934390334E+02  0.91501944274E+02  0.10000000000E+01 0.  0.
<mgrwt>
<rscale>  0 0.12499958E+03</rscale>
<asrwt>0</asrwt>
<pdfrwt beam="2">  1        4 0.44410998E-02 0.12499958E+03</pdfrwt>
<pdfrwt beam="1">  1       -4 0.54972637E-01 0.12499958E+03</pdfrwt>
<totfact> 0.14917732E+03</totfact>
</mgrwt>
</event>
<event>
 5    1  0.1440092E-002  0.1249986E+03  0.7818608E-02  0.1235071E+00
         -4   -1    0    0    0  501 -0.00000000000E+00  0.00000000000E+00  0.65768389050E+02  0.65780649876E+02  0.12700000000E+01 0.  1.
          4   -1    0    0  501    0  0.00000000000E+00 -0.00000000000E+00 -0.59368136197E+02  0.59381718530E+02  0.12700000000E+01 0.  1.
         25    2    1    2    0    0  0.00000000000E+00  0.00000000000E+00  0.64002528520E+01  0.12516236841E+03  0.12499862091E+03 0.  0.
    9000005    1    3    3    0    0 -0.33278606899E+02  0.35495700402E+02  0.42465695550E+02  0.64589052654E+02  0.10000000000E+01 0.  0.
    9000005    1    3    3    0    0  0.33278606899E+02 -0.35495700402E+02 -0.36065442698E+02  0.60573315752E+02  0.10000000000E+01 0.  0.
<mgrwt>
<rscale>  0 0.12499862E+03</rscale>
<asrwt>0</asrwt>
<pdfrwt beam="2">  1        4 0.14845265E-01 0.12499862E+03</pdfrwt>
<pdfrwt beam="1">  1       -4 0.16445328E-01 0.12499862E+03</pdfrwt>
<totfact> 0.19826892E+03</totfact>
</mgrwt>
</event>
<event>
 5    1  0.1440092E-002  0.1249981E+03  0.7818608E-02  0.1235072E+00
         -4   -1    0    0    0  501 -0.00000000000E+00  0.00000000000E+00  0.39543366892E+03  0.39543570832E+03  0.12700000000E+01 0.  1.
          4   -1    0    0  501    0  0.00000000000E+00 -0.00000000000E+00 -0.98351963196E+01  0.99168536666E+01  0.12700000000E+01 0.  1.
         25    2    1    2    0    0  0.00000000000E+00  0.00000000000E+00  0.38559847260E+03  0.40535256198E+03  0.12499806974E+03 0.  0.
    9000005    1    3    3    0    0  0.17726309277E+02 -0.53106511404E+02  0.10277784045E+03  0.11704190738E+03  0.10000000000E+01 0.  0.
    9000005    1    3    3    0    0 -0.17726309277E+02  0.53106511404E+02  0.28282063215E+03  0.28831065461E+03  0.10000000000E+01 0.  0.
<mgrwt>
<rscale>  0 0.12499807E+03</rscale>
<asrwt>0</asrwt>
<pdfrwt beam="2">  1        4 0.24692612E-02 0.12499807E+03</pdfrwt>
<pdfrwt beam="1">  1       -4 0.98868877E-01 0.12499807E+03</pdfrwt>
<totfact> 0.10460230E+03</totfact>
</mgrwt>
</event>
<event>
 5    1  0.1440092E-002  0.1250029E+03  0.7818608E-02  0.1235065E+00
          4   -1    0    0  501    0  0.00000000000E+00  0.00000000000E+00  0.16574750620E+02  0.16623334747E+02  0.12700000000E+01 0. -1.
         -4   -1    0    0    0  501 -0.00000000000E+00 -0.00000000000E+00 -0.23529050215E+03  0.23529392959E+03  0.12700000000E+01 0. -1.
         25    2    1    2    0    0  0.00000000000E+00  0.00000000000E+00 -0.21871575153E+03  0.25191726434E+03  0.12500291238E+03 0.  0.
    9000005    1    3    3    0    0  0.60934765420E+02 -0.38974770812E+00 -0.13729961597E+03  0.15021778219E+03  0.10000000000E+01 0.  0.
    9000005    1    3    3    0    0 -0.60934765420E+02  0.38974770812E+00 -0.81416135567E+02  0.10169948216E+03  0.10000000000E+01 0.  0.
<mgrwt>
<rscale>  0 0.12500291E+03</rscale>
<asrwt>0</asrwt>
<pdfrwt beam="1">  1        4 0.41501899E-02 0.12500291E+03</pdfrwt>
<pdfrwt beam="2">  1       -4 0.58829116E-01 0.12500291E+03</pdfrwt>
<totfact> 0.14433459E+03</totfact>
</mgrwt>
</event>
<event>
 5    1  0.1440092E-002  0.1250006E+03  0.7818608E-02  0.1235068E+00
         -4   -1    0    0    0  501 -0.00000000000E+00  0.00000000000E+00  0.43705876225E+02  0.43724324083E+02  0.12700000000E+01 0. -1.
          4   -1    0    0  501    0  0.00000000000E+00 -0.00000000000E+00 -0.89334914692E+02  0.89343941502E+02  0.12700000000E+01 0. -1.
         25    2    1    2    0    0  0.00000000000E+00  0.00000000000E+00 -0.45629038468E+02  0.13306826559E+03  0.12500061662E+03 0.  0.
    9000005    1    3    3    0    0  0.62430114662E+02 -0.26540130657E+01 -0.21907760001E+02  0.66223205527E+02  0.10000000000E+01 0.  0.
    9000005    1    3    3    0    0 -0.62430114662E+02  0.26540130657E+01 -0.23721278466E+02  0.66845060058E+02  0.10000000000E+01 0.  0.
<mgrwt>
<rscale>  0 0.12500062E+03</rscale>
<asrwt>0</asrwt>
<pdfrwt beam="2">  1        4 0.22337163E-01 0.12500062E+03</pdfrwt>
<pdfrwt beam="1">  1       -4 0.10929904E-01 0.12500062E+03</pdfrwt>
<totfact> 0.19400525E+03</totfact>
</mgrwt>
</event>
<event>
 5    1  0.1440092E-002  0.1249987E+03  0.7818608E-02  0.1235071E+00
          4   -1    0    0  501    0  0.00000000000E+00  0.00000000000E+00  0.26281954493E+02  0.26312621154E+02  0.12700000000E+01 0.  1.
         -4   -1    0    0    0  501 -0.00000000000E+00 -0.00000000000E+00 -0.14850555078E+03  0.14851098112E+03  0.12700000000E+01 0.  1.
         25    2    1    2    0    0  0.00000000000E+00  0.00000000000E+00 -0.12222359629E+03  0.17482360227E+03  0.12499873768E+03 0.  0.
    9000005    1    3    3    0    0 -0.13026596744E+02 -0.40982856095E+01 -0.14640001077E+03  0.14703894491E+03  0.10000000000E+01 0.  0.
    9000005    1    3    3    0    0  0.13026596744E+02  0.40982856095E+01  0.24176414479E+02  0.27784657362E+02  0.10000000000E+01 0.  0.
<mgrwt>
<rscale>  0 0.12499874E+03</rscale>
<asrwt>0</asrwt>
<pdfrwt beam="1">  1        4 0.65750012E-02 0.12499874E+03</pdfrwt>
<pdfrwt beam="2">  1       -4 0.37130897E-01 0.12499874E+03</pdfrwt>
<totfact> 0.17382161E+03</totfact>
</mgrwt>
</event>
<event>
 5    1  0.1440092E-002  0.1249943E+03  0.7818608E-02  0.1235078E+00
          4   -1    0    0  501    0  0.00000000000E+00  0.00000000000E+00  0.46349916720E+02  0.46367312624E+02  0.12700000000E+01 0.  1.
         -4   -1    0    0    0  501 -0.00000000000E+00 -0.00000000000E+00 -0.84231756479E+02  0.84241330115E+02  0.12700000000E+01 0.  1.
         25    2    1    2    0    0  0.00000000000E+00  0.00000000000E+00 -0.37881839758E+02  0.13060864274E+03  0.12499433497E+03 0.  0.
    9000005    1    3    3    0    0  0.83416451449E+01 -0.29912561486E+02 -0.75603452999E+02  0.81738769771E+02  0.10000000000E+01 0.  0.
    9000005    1    3    3    0    0 -0.83416451449E+01  0.29912561486E+02  0.37721613240E+02  0.48869872967E+02  0.10000000000E+01 0.  0.
<mgrwt>
<rscale>  0 0.12499433E+03</rscale>
<asrwt>0</asrwt>
<pdfrwt beam="1">  1        4 0.11590851E-01 0.12499433E+03</pdfrwt>
<pdfrwt beam="2">  1       -4 0.21061310E-01 0.12499433E+03</pdfrwt>
<totfact> 0.19534301E+03</totfact>
</mgrwt>
</event>
<event>
 5    1  0.1440092E-002  0.1250003E+03  0.7818608E-02  0.1235069E+00
          4   -1    0    0  501    0  0.00000000000E+00  0.00000000000E+00  0.25233512947E+02  0.25265452215E+02  0.12700000000E+01 0. -1.
         -4   -1    0    0    0  501 -0.00000000000E+00 -0.00000000000E+00 -0.15467237995E+03  0.15467759378E+03  0.12700000000E+01 0. -1.
         25    2    1    2    0    0  0.00000000000E+00  0.00000000000E+00 -0.12943886700E+03  0.17994304600E+03  0.12500031805E+03 0.  0.
    9000005    1    3    3    0    0  0.29700915286E+02 -0.31953954722E+02 -0.30790430747E+00  0.43638221736E+02  0.10000000000E+01 0.  0.
    9000005    1    3    3    0    0 -0.29700915286E+02  0.31953954722E+02 -0.12913096269E+03  0.13630482426E+03  0.10000000000E+01 0.  0.
<mgrwt>
<rscale>  0 0.12500032E+03</rscale>
<asrwt>0</asrwt>
<pdfrwt beam="1">  1        4 0.63130228E-02 0.12500032E+03</pdfrwt>
<pdfrwt beam="2">  1       -4 0.38672736E-01 0.12500032E+03</pdfrwt>
<totfact> 0.17157553E+03</totfact>
</mgrwt>
</event>
<event>
 5    1  0.1440092E-002  0.1250022E+03  0.7818608E-02  0.1235066E+00
          4   -1    0    0  501    0  0.00000000000E+00  0.00000000000E+00  0.14223422329E+02  0.14280008500E+02  0.12700000000E+01 0.  1.
         -4   -1    0    0    0  501 -0.00000000000E+00 -0.00000000000E+00 -0.27404155916E+03  0.27404450195E+03  0.12700000000E+01 0.  1.
         25    2    1    2    0    0  0.00000000000E+00  0.00000000000E+00 -0.25981813683E+03  0.28832451045E+03  0.12500223637E+03 0.  0.
    9000005    1    3    3    0    0 -0.40832943884E+02  0.43877094689E+02 -0.17070712873E+03  0.18092664962E+03  0.10000000000E+01 0.  0.
    9000005    1    3    3    0    0  0.40832943884E+02 -0.43877094689E+02 -0.89111008103E+02  0.10739786082E+03  0.10000000000E+01 0.  0.
<mgrwt>
<rscale>  0 0.12500224E+03</rscale>
<asrwt>0</asrwt>
<pdfrwt beam="1">  1        4 0.35632976E-02 0.12500224E+03</pdfrwt>
<pdfrwt beam="2">  1       -4 0.68517814E-01 0.12500224E+03</pdfrwt>
<totfact> 0.13304029E+03</totfact>
</mgrwt>
</event>
<event>
 5    1  0.1440092E-002  0.1249982E+03  0.7818608E-02  0.1235072E+00
         -4   -1    0    0    0  501 -0.00000000000E+00  0.00000000000E+00  0.54431127713E+02  0.54445941668E+02  0.12700000000E+01 0.  1.
          4   -1    0    0  501    0  0.00000000000E+00 -0.00000000000E+00 -0.71732750175E+02  0.71743991719E+02  0.12700000000E+01 0.  1.
         25    2    1    2    0    0  0.00000000000E+00  0.00000000000E+00 -0.17301622462E+02  0.12618993339E+03  0.12499821258E+03 0.  0.
    9000005    1    3    3    0    0  0.23627949877E+02 -0.32189861870E+01 -0.66963925846E+02  0.71090148770E+02  0.10000000000E+01 0.  0.
    9000005    1    3    3    0    0 -0.23627949877E+02  0.32189861870E+01  0.49662303384E+02  0.55099784617E+02  0.10000000000E+01 0.  0.
<mgrwt>
<rscale>  0 0.12499821E+03</rscale>
<asrwt>0</asrwt>
<pdfrwt beam="2">  1        4 0.17936444E-01 0.12499821E+03</pdfrwt>
<pdfrwt beam="1">  1       -4 0.13611039E-01 0.12499821E+03</pdfrwt>
<totfact> 0.19771486E+03</totfact>
</mgrwt>
</event>
<event>
 5    1  0.1440092E-002  0.1249996E+03  0.7818608E-02  0.1235070E+00
         -4   -1    0    0    0  501 -0.00000000000E+00  0.00000000000E+00  0.23337106528E+03  0.23337452091E+03  0.12700000000E+01 0. -1.
          4   -1    0    0  501    0  0.00000000000E+00 -0.00000000000E+00 -0.16710576942E+02  0.16758767310E+02  0.12700000000E+01 0. -1.
         25    2    1    2    0    0  0.00000000000E+00  0.00000000000E+00  0.21666048833E+03  0.25013328822E+03  0.12499957867E+03 0.  0.
    9000005    1    3    3    0    0 -0.58328646272E+02  0.19291634331E+02  0.85442172499E+02  0.10524145083E+03  0.10000000000E+01 0.  0.
    9000005    1    3    3    0    0  0.58328646272E+02 -0.19291634331E+02  0.13121831583E+03  0.14489183739E+03  0.10000000000E+01 0.  0.
<mgrwt>
<rscale>  0 0.12499958E+03</rscale>
<asrwt>0</asrwt>
<pdfrwt beam="2">  1        4 0.41841000E-02 0.12499958E+03</pdfrwt>
<pdfrwt beam="1">  1       -4 0.58349222E-01 0.12499958E+03</pdfrwt>
<totfact> 0.14493695E+03</totfact>
</mgrwt>
</event>
<event>
 5    1  0.1440092E-002  0.1250463E+03  0.7818608E-02  0.1234997E+00
         -4   -1    0    0    0  501 -0.00000000000E+00  0.00000000000E+00  0.17718326206E+03  0.17718781351E+03  0.12700000000E+01 0. -1.
          4   -1    0    0  501    0  0.00000000000E+00 -0.00000000000E+00 -0.22039600893E+02  0.22076161522E+02  0.12700000000E+01 0. -1.
         25    2    1    2    0    0  0.00000000000E+00  0.00000000000E+00  0.15514366117E+03  0.19926397503E+03  0.12504629600E+03 0.  0.
    9000005    1    3    3    0    0  0.13746527024E+02  0.50559527217E+02  0.13191328293E+03  0.14194135061E+03  0.10000000000E+01 0.  0.
    9000005    1    3    3    0    0 -0.13746527024E+02 -0.50559527217E+02  0.23230378235E+02  0.57322624422E+02  0.10000000000E+01 0.  0.
<mgrwt>
<rscale>  0 0.12504630E+03</rscale>
<asrwt>0</asrwt>
<pdfrwt beam="2">  1        4 0.55150393E-02 0.12504630E+03</pdfrwt>
<pdfrwt beam="1">  1       -4 0.44300954E-01 0.12504630E+03</pdfrwt>
<totfact> 0.16334062E+03</totfact>
</mgrwt>
</event>
<event>
 5    1  0.1440092E-002  0.1249662E+03  0.7818608E-02  0.1235122E+00
         -4   -1    0    0    0  501 -0.00000000000E+00  0.00000000000E+00  0.13824680898E+03  0.13825264226E+03  0.12700000000E+01 0. -1.
          4   -1    0    0  501    0  0.00000000000E+00 -0.00000000000E+00 -0.28219656344E+02  0.28248219487E+02  0.12700000000E+01 0. -1.
         25    2    1    2    0    0  0.00000000000E+00  0.00000000000E+00  0.11002715263E+03  0.16650086175E+03  0.12496624603E+03 0.  0.
    9000005    1    3    3    0    0  0.49840522893E+02 -0.30424676590E+02  0.84608976155E+02  0.10280767245E+03  0.10000000000E+01 0.  0.
    9000005    1    3    3    0    0 -0.49840522893E+02  0.30424676590E+02  0.25418176477E+02  0.63693189300E+02  0.10000000000E+01 0.  0.
<mgrwt>
<rscale>  0 0.12496625E+03</rscale>
<asrwt>0</asrwt>
<pdfrwt beam="2">  1        4 0.70592137E-02 0.12496625E+03</pdfrwt>
<pdfrwt beam="1">  1       -4 0.34566002E-01 0.12496625E+03</pdfrwt>
<totfact> 0.17769963E+03</totfact>
</mgrwt>
</event>
<event>
 5    1  0.1440092E-002  0.1250002E+03  0.7818608E-02  0.1235069E+00
          4   -1    0    0  501    0  0.00000000000E+00  0.00000000000E+00  0.44431300592E+02  0.44449447379E+02  0.12700000000E+01 0. -1.
         -4   -1    0    0    0  501 -0.00000000000E+00 -0.00000000000E+00 -0.87876290192E+02  0.87885466818E+02  0.12700000000E+01 0. -1.
         25    2    1    2    0    0  0.00000000000E+00  0.00000000000E+00 -0.43444989599E+02  0.13233491420E+03  0.12500024958E+03 0.  0.
    9000005    1    3    3    0    0  0.79110333971E+01  0.24681509629E+02 -0.81923019540E+02  0.85931033378E+02  0.10000000000E+01 0.  0.
    9000005    1    3    3    0    0 -0.79110333971E+01 -0.24681509629E+02  0.38478029940E+02  0.46403880819E+02  0.10000000000E+01 0.  0.
<mgrwt>
<rscale>  0 0.12500025E+03</rscale>
<asrwt>0</asrwt>
<pdfrwt beam="1">  1        4 0.11111241E-01 0.12500025E+03</pdfrwt>
<pdfrwt beam="2">  1       -4 0.21972488E-01 0.12500025E+03</pdfrwt>
<totfact> 0.19439547E+03</totfact>
</mgrwt>
</event>
<event>
 5    1  0.1440092E-002  0.1249985E+03  0.7818608E-02  0.1235072E+00
         -4   -1    0    0    0  501 -0.00000000000E+00  0.00000000000E+00  0.76239978803E+02  0.76250555853E+02  0.12700000000E+01 0.  1.
          4   -1    0    0  501    0  0.00000000000E+00 -0.00000000000E+00 -0.51213006233E+02  0.51228750789E+02  0.12700000000E+01 0.  1.
         25    2    1    2    0    0  0.00000000000E+00  0.00000000000E+00  0.25026972570E+02  0.12747930664E+03  0.12499849706E+03 0.  0.
    9000005    1    3    3    0    0  0.13582766554E+02 -0.40200628023E+02 -0.34272630930E+02  0.54554516509E+02  0.10000000000E+01 0.  0.
    9000005    1    3    3    0    0 -0.13582766554E+02  0.40200628023E+02  0.59299603500E+02  0.72924790133E+02  0.10000000000E+01 0.  0.
<mgrwt>
<rscale>  0 0.12499850E+03</rscale>
<asrwt>0</asrwt>
<pdfrwt beam="2">  1        4 0.12806542E-01 0.12499850E+03</pdfrwt>
<pdfrwt beam="1">  1       -4 0.19063285E-01 0.12499850E+03</pdfrwt>
<totfact> 0.19701605E+03</totfact>
</mgrwt>
</event>
<event>
 5    1  0.1440092E-002  0.1249996E+03  0.7818608E-02  0.1235070E+00
          4   -1    0    0  501    0  0.00000000000E+00  0.00000000000E+00  0.24831344827E+02  0.24863800713E+02  0.12700000000E+01 0. -1.
         -4   -1    0    0    0  501 -0.00000000000E+00 -0.00000000000E+00 -0.15717238836E+03  0.15717751926E+03  0.12700000000E+01 0. -1.
         25    2    1    2    0    0  0.00000000000E+00  0.00000000000E+00 -0.13234104353E+03  0.18204131998E+03  0.12499956150E+03 0.  0.
    9000005    1    3    3    0    0 -0.54910051555E+02  0.29786772687E+02 -0.68632119038E+02  0.92810200692E+02  0.10000000000E+01 0.  0.
    9000005    1    3    3    0    0  0.54910051555E+02 -0.29786772687E+02 -0.63708924493E+02  0.89231119286E+02  0.10000000000E+01 0.  0.
<mgrwt>
<rscale>  0 0.12499956E+03</rscale>
<asrwt>0</asrwt>
<pdfrwt beam="1">  1        4 0.62125350E-02 0.12499956E+03</pdfrwt>
<pdfrwt beam="2">  1       -4 0.39297793E-01 0.12499956E+03</pdfrwt>
<totfact> 0.17067395E+03</totfact>
</mgrwt>
</event>
<event>
 5    1  0.1440092E-002  0.1249980E+03  0.7818608E-02  0.1235072E+00
         -4   -1    0    0    0  501 -0.00000000000E+00  0.00000000000E+00  0.53963004839E+03  0.53963154284E+03  0.12700000000E+01 0.  1.
          4   -1    0    0  501    0  0.00000000000E+00 -0.00000000000E+00 -0.71813065925E+01  0.72927405257E+01  0.12700000000E+01 0.  1.
         25    2    1    2    0    0  0.00000000000E+00  0.00000000000E+00  0.53244874180E+03  0.54692428337E+03  0.12499803635E+03 0.  0.
    9000005    1    3    3    0    0  0.36472109218E+02  0.13370391962E+02  0.48040519059E+03  0.48197419980E+03  0.10000000000E+01 0.  0.
    9000005    1    3    3    0    0 -0.36472109218E+02 -0.13370391962E+02  0.52043551212E+02  0.64950083563E+02  0.10000000000E+01 0.  0.
<mgrwt>
<rscale>  0 0.12499804E+03</rscale>
<asrwt>0</asrwt>
<pdfrwt beam="2">  1        4 0.18094429E-02 0.12499804E+03</pdfrwt>
<pdfrwt beam="1">  1       -4 0.13492161E+00 0.12499804E+03</pdfrwt>
<totfact> 0.80600491E+02</totfact>
</mgrwt>
</event>
<event>
 5    1  0.1440092E-002  0.1249987E+03  0.7818608E-02  0.1235071E+00
          4   -1    0    0  501    0  0.00000000000E+00  0.00000000000E+00  0.61212885032E+02  0.61226058128E+02  0.12700000000E+01 0. -1.
         -4   -1    0    0    0  501 -0.00000000000E+00 -0.00000000000E+00 -0.63786509663E+02  0.63799151366E+02  0.12700000000E+01 0. -1.
         25    2    1    2    0    0  0.00000000000E+00  0.00000000000E+00 -0.25736246315E+01  0.12502520949E+03  0.12499871785E+03 0.  0.
    9000005    1    3    3    0    0 -0.49879693826E+02  0.74411697599E+01 -0.38197411026E+02  0.63272403722E+02  0.10000000000E+01 0.  0.
    9000005    1    3    3    0    0  0.49879693826E+02 -0.74411697599E+01  0.35623786395E+02  0.61752805772E+02  0.10000000000E+01 0.  0.
<mgrwt>
<rscale>  0 0.12499872E+03</rscale>
<asrwt>0</asrwt>
<pdfrwt beam="1">  1        4 0.15306448E-01 0.12499872E+03</pdfrwt>
<pdfrwt beam="2">  1       -4 0.15949854E-01 0.12499872E+03</pdfrwt>
<totfact> 0.19834283E+03</totfact>
</mgrwt>
</event>
<event>
 5    1  0.1440092E-002  0.1249977E+03  0.7818608E-02  0.1235073E+00
          4   -1    0    0  501    0  0.00000000000E+00  0.00000000000E+00  0.21589120561E+02  0.21626442764E+02  0.12700000000E+01 0.  1.
         -4   -1    0    0    0  501 -0.00000000000E+00 -0.00000000000E+00 -0.18073360322E+03  0.18073806525E+03  0.12700000000E+01 0.  1.
         25    2    1    2    0    0  0.00000000000E+00  0.00000000000E+00 -0.15914448265E+03  0.20236450802E+03  0.12499771096E+03 0.  0.
    9000005    1    3    3    0    0  0.28375968203E+02  0.46199511878E+02 -0.29267128418E+02  0.61621061944E+02  0.10000000000E+01 0.  0.
    9000005    1    3    3    0    0 -0.28375968203E+02 -0.46199511878E+02 -0.12987735424E+03  0.14074344607E+03  0.10000000000E+01 0.  0.
<mgrwt>
<rscale>  0 0.12499771E+03</rscale>
<asrwt>0</asrwt>
<pdfrwt beam="1">  1        4 0.54025037E-02 0.12499771E+03</pdfrwt>
<pdfrwt beam="2">  1       -4 0.45188619E-01 0.12499771E+03</pdfrwt>
<totfact> 0.16228658E+03</totfact>
</mgrwt>
</event>
<event>
 5    1  0.1440092E-002  0.1249977E+03  0.7818608E-02  0.1235073E+00
          4   -1    0    0  501    0  0.00000000000E+00  0.00000000000E+00  0.12945274198E+03  0.12945897151E+03  0.12700000000E+01 0.  1.
         -4   -1    0    0    0  501 -0.00000000000E+00 -0.00000000000E+00 -0.30153680780E+02  0.30180413592E+02  0.12700000000E+01 0.  1.
         25    2    1    2    0    0  0.00000000000E+00  0.00000000000E+00  0.99299061196E+02  0.15963938511E+03  0.12499771887E+03 0.  0.
    9000005    1    3    3    0    0 -0.36169017249E+01  0.58169802656E+02  0.20855808749E+02  0.61909390868E+02  0.10000000000E+01 0.  0.
    9000005    1    3    3    0    0  0.36169017249E+01 -0.58169802656E+02  0.78443252447E+02  0.97729994237E+02  0.10000000000E+01 0.  0.
<mgrwt>
<rscale>  0 0.12499772E+03</rscale>
<asrwt>0</asrwt>
<pdfrwt beam="1">  1        4 0.32367305E-01 0.12499772E+03</pdfrwt>
<pdfrwt beam="2">  1       -4 0.75425406E-02 0.12499772E+03</pdfrwt>
<totfact> 0.18075697E+03</totfact>
</mgrwt>
</event>
<event>
 5    1  0.1440092E-002  0.1249992E+03  0.7818608E-02  0.1235071E+00
         -4   -1    0    0    0  501 -0.00000000000E+00  0.00000000000E+00  0.17060802834E+03  0.17061275519E+03  0.12700000000E+01 0.  1.
          4   -1    0    0  501    0  0.00000000000E+00 -0.00000000000E+00 -0.22873099147E+02  0.22908329589E+02  0.12700000000E+01 0.  1.
         25    2    1    2    0    0  0.00000000000E+00  0.00000000000E+00  0.14773492919E+03  0.19352108478E+03  0.12499920380E+03 0.  0.
    9000005    1    3    3    0    0 -0.95995695954E+01  0.61011641009E+02  0.88605942371E+02  0.10801196739E+03  0.10000000000E+01 0.  0.
    9000005    1    3    3    0    0  0.95995695954E+01 -0.61011641009E+02  0.59128986821E+02  0.85509117394E+02  0.10000000000E+01 0.  0.
<mgrwt>
<rscale>  0 0.12499920E+03</rscale>
<asrwt>0</asrwt>
<pdfrwt beam="2">  1        4 0.57232696E-02 0.12499920E+03</pdfrwt>
<pdfrwt beam="1">  1       -4 0.42657001E-01 0.12499920E+03</pdfrwt>
<totfact> 0.16585102E+03</totfact>
</mgrwt>
</event>
<event>
 5    1  0.1440092E-002  0.1250352E+03  0.7818608E-02  0.1235014E+00
          4   -1    0    0  501    0  0.00000000000E+00  0.00000000000E+00  0.31053969803E+01  0.33550544564E+01  0.12700000000E+01 0. -1.
         -4   -1    0    0    0  501 -0.00000000000E+00 -0.00000000000E+00 -0.12097128769E+04  0.12097135435E+04  0.12700000000E+01 0. -1.
         25    2    1    2    0    0  0.00000000000E+00  0.00000000000E+00 -0.12066074799E+04  0.12130685980E+04  0.12503524647E+03 0.  0.
    9000005    1    3    3    0    0  0.12008577829E+02  0.46213952478E+02 -0.99469920461E+03  0.99584508986E+03  0.10000000000E+01 0.  0.
    9000005    1    3    3    0    0 -0.12008577829E+02 -0.46213952478E+02 -0.21190827531E+03  0.21722350814E+03  0.10000000000E+01 0.  0.
<mgrwt>
<rscale>  0 0.12503525E+03</rscale>
<asrwt>0</asrwt>
<pdfrwt beam="1">  1        4 0.80764391E-03 0.12503525E+03</pdfrwt>
<pdfrwt beam="2">  1       -4 0.30245796E+00 0.12503525E+03</pdfrwt>
<totfact> 0.24506923E+02</totfact>
</mgrwt>
</event>
<event>
 5    1  0.1440092E-002  0.1249986E+03  0.7818608E-02  0.1235072E+00
         -4   -1    0    0    0  501 -0.00000000000E+00  0.00000000000E+00  0.11408209147E+03  0.11408916028E+03  0.12700000000E+01 0. -1.
          4   -1    0    0  501    0  0.00000000000E+00 -0.00000000000E+00 -0.34219999919E+02  0.34243558437E+02  0.12700000000E+01 0. -1.
         25    2    1    2    0    0  0.00000000000E+00  0.00000000000E+00  0.79862091547E+02  0.14833271872E+03  0.12499856709E+03 0.  0.
    9000005    1    3    3    0    0  0.13806826652E+02 -0.56825088217E+02  0.13785344367E+02  0.60089556766E+02  0.10000000000E+01 0.  0.
    9000005    1    3    3    0    0 -0.13806826652E+02  0.56825088217E+02  0.66076747180E+02  0.88243161950E+02  0.10000000000E+01 0.  0.
<mgrwt>
<rscale>  0 0.12499857E+03</rscale>
<asrwt>0</asrwt>
<pdfrwt beam="2">  1        4 0.85588285E-02 0.12499857E+03</pdfrwt>
<pdfrwt beam="1">  1       -4 0.28524351E-01 0.12499857E+03</pdfrwt>
<totfact> 0.18621687E+03</totfact>
</mgrwt>
</event>
<event>
 5    1  0.1440092E-002  0.1249946E+03  0.7818608E-02  0.1235078E+00
         -4   -1    0    0    0  501 -0.00000000000E+00  0.00000000000E+00  0.45160341317E+02  0.45178195271E+02  0.12700000000E+01 0. -1.
          4   -1    0    0  501    0  0.00000000000E+00 -0.00000000000E+00 -0.86450320287E+02  0.86459648262E+02  0.12700000000E+01 0. -1.
         25    2    1    2    0    0  0.00000000000E+00  0.00000000000E+00 -0.41289978969E+02  0.13163784353E+03  0.12499463783E+03 0.  0.
    9000005    1    3    3    0    0  0.60817139636E+02  0.14039727631E+02 -0.17472155878E+02  0.64823719860E+02  0.10000000000E+01 0.  0.
    9000005    1    3    3    0    0 -0.60817139636E+02 -0.14039727631E+02 -0.23817823091E+02  0.66814123673E+02  0.10000000000E+01 0.  0.
<mgrwt>
<rscale>  0 0.12499464E+03</rscale>
<asrwt>0</asrwt>
<pdfrwt beam="2">  1        4 0.21615978E-01 0.12499464E+03</pdfrwt>
<pdfrwt beam="1">  1       -4 0.11293483E-01 0.12499464E+03</pdfrwt>
<totfact> 0.19479169E+03</totfact>
</mgrwt>
</event>
<event>
 5    1  0.1440092E-002  0.1250021E+03  0.7818608E-02  0.1235066E+00
          4   -1    0    0  501    0  0.00000000000E+00  0.00000000000E+00  0.66974374003E+02  0.66986414094E+02  0.12700000000E+01 0. -1.
         -4   -1    0    0    0  501 -0.00000000000E+00 -0.00000000000E+00 -0.58302352369E+02  0.58316182932E+02  0.12700000000E+01 0. -1.
         25    2    1    2    0    0  0.00000000000E+00  0.00000000000E+00  0.86720216345E+01  0.12530259703E+03  0.12500214743E+03 0.  0.
    9000005    1    3    3    0    0 -0.86632130419E+00 -0.39936246121E+02 -0.43839153119E+02  0.59317161202E+02  0.10000000000E+01 0.  0.
    9000005    1    3    3    0    0  0.86632130419E+00  0.39936246121E+02  0.52511174753E+02  0.65985435824E+02  0.10000000000E+01 0.  0.
<mgrwt>
<rscale>  0 0.12500215E+03</rscale>
<asrwt>0</asrwt>
<pdfrwt beam="1">  1        4 0.16746827E-01 0.12500215E+03</pdfrwt>
<pdfrwt beam="2">  1       -4 0.14578822E-01 0.12500215E+03</pdfrwt>
<totfact> 0.19817658E+03</totfact>
</mgrwt>
</event>
<event>
 5    1  0.1440092E-002  0.1250359E+03  0.7818608E-02  0.1235013E+00
          4   -1    0    0  501    0  0.00000000000E+00  0.00000000000E+00  0.27461508136E+02  0.27490859010E+02  0.12700000000E+01 0. -1.
         -4   -1    0    0    0  501 -0.00000000000E+00 -0.00000000000E+00 -0.14221796131E+03  0.14222363172E+03  0.12700000000E+01 0. -1.
         25    2    1    2    0    0  0.00000000000E+00  0.00000000000E+00 -0.11475645318E+03  0.16971449073E+03  0.12503585413E+03 0.  0.
    9000005    1    3    3    0    0 -0.53460181886E+02  0.20389577111E+02 -0.23207942502E+02  0.61752202367E+02  0.10000000000E+01 0.  0.
    9000005    1    3    3    0    0  0.53460181886E+02 -0.20389577111E+02 -0.91548510676E+02  0.10796228836E+03  0.10000000000E+01 0.  0.
<mgrwt>
<rscale>  0 0.12503585E+03</rscale>
<asrwt>0</asrwt>
<pdfrwt beam="1">  1        4 0.68697551E-02 0.12503585E+03</pdfrwt>
<pdfrwt beam="2">  1       -4 0.35558866E-01 0.12503585E+03</pdfrwt>
<totfact> 0.17595284E+03</totfact>
</mgrwt>
</event>
<event>
 5    1  0.1440092E-002  0.1250047E+03  0.7818608E-02  0.1235062E+00
         -4   -1    0    0    0  501 -0.00000000000E+00  0.00000000000E+00  0.21449598182E+03  0.21449974153E+03  0.12700000000E+01 0.  1.
          4   -1    0    0  501    0  0.00000000000E+00 -0.00000000000E+00 -0.18186602927E+02  0.18230892079E+02  0.12700000000E+01 0.  1.
         25    2    1    2    0    0  0.00000000000E+00  0.00000000000E+00  0.19630937890E+03  0.23273063361E+03  0.12500470223E+03 0.  0.
    9000005    1    3    3    0    0 -0.32437429725E+02 -0.15758726047E+01  0.19756151120E+03  0.20021543629E+03  0.10000000000E+01 0.  0.
    9000005    1    3    3    0    0  0.32437429725E+02  0.15758726047E+01 -0.12521323034E+01  0.32515197323E+02  0.10000000000E+01 0.  0.
<mgrwt>
<rscale>  0 0.12500470E+03</rscale>
<asrwt>0</asrwt>
<pdfrwt beam="2">  1        4 0.45526570E-02 0.12500470E+03</pdfrwt>
<pdfrwt beam="1">  1       -4 0.53630000E-01 0.12500470E+03</pdfrwt>
<totfact> 0.15088594E+03</totfact>
</mgrwt>
</event>
<event>
 5    1  0.1440092E-002  0.1249981E+03  0.7818608E-02  0.1235072E+00
          4   -1    0    0  501    0  0.00000000000E+00  0.00000000000E+00  0.14176234659E+02  0.14233008435E+02  0.12700000000E+01 0. -1.
         -4   -1    0    0    0  501 -0.00000000000E+00 -0.00000000000E+00 -0.27493189129E+03  0.27493482455E+03  0.12700000000E+01 0. -1.
         25    2    1    2    0    0  0.00000000000E+00  0.00000000000E+00 -0.26075565663E+03  0.28916783298E+03  0.12499809265E+03 0.  0.
    9000005    1    3    3    0    0  0.79453174235E+01  0.15957953936E+01 -0.27372246584E+03  0.27384423116E+03  0.10000000000E+01 0.  0.
    9000005    1    3    3    0    0 -0.79453174235E+01 -0.15957953936E+01  0.12966809208E+02  0.15323601826E+02  0.10000000000E+01 0.  0.
<mgrwt>
<rscale>  0 0.12499809E+03</rscale>
<asrwt>0</asrwt>
<pdfrwt beam="1">  1        4 0.35515229E-02 0.12499809E+03</pdfrwt>
<pdfrwt beam="2">  1       -4 0.68740419E-01 0.12499809E+03</pdfrwt>
<totfact> 0.13280754E+03</totfact>
</mgrwt>
</event>
<event>
 5    1  0.1440092E-002  0.1250013E+03  0.7818608E-02  0.1235067E+00
         -4   -1    0    0    0  501 -0.00000000000E+00  0.00000000000E+00  0.22101151748E+02  0.22137610724E+02  0.12700000000E+01 0.  1.
          4   -1    0    0  501    0  0.00000000000E+00 -0.00000000000E+00 -0.17656336448E+03  0.17656793191E+03  0.12700000000E+01 0.  1.
         25    2    1    2    0    0  0.00000000000E+00  0.00000000000E+00 -0.15446221274E+03  0.19870554263E+03  0.12500127003E+03 0.  0.
    9000005    1    3    3    0    0 -0.10238594522E+02  0.44213494776E+02 -0.14552349154E+03  0.15243932737E+03  0.10000000000E+01 0.  0.
    9000005    1    3    3    0    0  0.10238594522E+02 -0.44213494776E+02 -0.89387211946E+01  0.46266215263E+02  0.10000000000E+01 0.  0.
<mgrwt>
<rscale>  0 0.12500127E+03</rscale>
<asrwt>0</asrwt>
<pdfrwt beam="2">  1        4 0.44145965E-01 0.12500127E+03</pdfrwt>
<pdfrwt beam="1">  1       -4 0.55304168E-02 0.12500127E+03</pdfrwt>
<totfact> 0.16373524E+03</totfact>
</mgrwt>
</event>
<event>
 5    1  0.1440092E-002  0.1249982E+03  0.7818608E-02  0.1235072E+00
          4   -1    0    0  501    0  0.00000000000E+00  0.00000000000E+00  0.62368235837E+02  0.62381164957E+02  0.12700000000E+01 0.  1.
         -4   -1    0    0    0  501 -0.00000000000E+00 -0.00000000000E+00 -0.62604347311E+02  0.62617227679E+02  0.12700000000E+01 0.  1.
         25    2    1    2    0    0  0.00000000000E+00  0.00000000000E+00 -0.23611147348E+00  0.12499839264E+03  0.12499816964E+03 0.  0.
    9000005    1    3    3    0    0 -0.13935439795E+02  0.27001746568E+01  0.60739658585E+02  0.62384241203E+02  0.10000000000E+01 0.  0.
    9000005    1    3    3    0    0  0.13935439795E+02 -0.27001746568E+01 -0.60975770059E+02  0.62614151433E+02  0.10000000000E+01 0.  0.
<mgrwt>
<rscale>  0 0.12499817E+03</rscale>
<asrwt>0</asrwt>
<pdfrwt beam="1">  1        4 0.15595285E-01 0.12499817E+03</pdfrwt>
<pdfrwt beam="2">  1       -4 0.15654313E-01 0.12499817E+03</pdfrwt>
<totfact> 0.19835992E+03</totfact>
</mgrwt>
</event>
<event>
 5    1  0.1440092E-002  0.1250037E+03  0.7818608E-02  0.1235063E+00
          4   -1    0    0  501    0  0.00000000000E+00  0.00000000000E+00  0.21284229816E+03  0.21284608708E+03  0.12700000000E+01 0.  1.
         -4   -1    0    0    0  501 -0.00000000000E+00 -0.00000000000E+00 -0.18327951339E+02  0.18371899746E+02  0.12700000000E+01 0.  1.
         25    2    1    2    0    0  0.00000000000E+00  0.00000000000E+00  0.19451434682E+03  0.23121798683E+03  0.12500370520E+03 0.  0.
    9000005    1    3    3    0    0 -0.50069732560E+02  0.42375424838E+01  0.28530665146E+02  0.57792159837E+02  0.10000000000E+01 0.  0.
    9000005    1    3    3    0    0  0.50069732560E+02 -0.42375424838E+01  0.16598368168E+03  0.17342582699E+03  0.10000000000E+01 0.  0.
<mgrwt>
<rscale>  0 0.12500371E+03</rscale>
<asrwt>0</asrwt>
<pdfrwt beam="1">  1        4 0.53216540E-01 0.12500371E+03</pdfrwt>
<pdfrwt beam="2">  1       -4 0.45879552E-02 0.12500371E+03</pdfrwt>
<totfact> 0.15142595E+03</totfact>
</mgrwt>
</event>
<event>
 5    1  0.1440092E-002  0.1250010E+03  0.7818608E-02  0.1235068E+00
         -4   -1    0    0    0  501 -0.00000000000E+00  0.00000000000E+00  0.54409468705E+02  0.54424288555E+02  0.12700000000E+01 0.  1.
          4   -1    0    0  501    0  0.00000000000E+00 -0.00000000000E+00 -0.71764476016E+02  0.71775712590E+02  0.12700000000E+01 0.  1.
         25    2    1    2    0    0  0.00000000000E+00  0.00000000000E+00 -0.17355007311E+02  0.12620000115E+03  0.12500097604E+03 0.  0.
    9000005    1    3    3    0    0 -0.34813844179E+02  0.36662794510E+02 -0.45760562584E+02  0.68199657886E+02  0.10000000000E+01 0.  0.
    9000005    1    3    3    0    0  0.34813844179E+02 -0.36662794510E+02  0.28405555272E+02  0.58000343259E+02  0.10000000000E+01 0.  0.
<mgrwt>
<rscale>  0 0.12500098E+03</rscale>
<asrwt>0</asrwt>
<pdfrwt beam="2">  1        4 0.17944376E-01 0.12500098E+03</pdfrwt>
<pdfrwt beam="1">  1       -4 0.13605624E-01 0.12500098E+03</pdfrwt>
<totfact> 0.19769665E+03</totfact>
</mgrwt>
</event>
<event>
 5    1  0.1440092E-002  0.1250002E+03  0.7818608E-02  0.1235069E+00
          4   -1    0    0  501    0  0.00000000000E+00  0.00000000000E+00  0.83229240897E+02  0.83238929836E+02  0.12700000000E+01 0. -1.
         -4   -1    0    0    0  501 -0.00000000000E+00 -0.00000000000E+00 -0.46912781438E+02  0.46929968701E+02  0.12700000000E+01 0. -1.
         25    2    1    2    0    0  0.00000000000E+00  0.00000000000E+00  0.36316459458E+02  0.13016889854E+03  0.12500022767E+03 0.  0.
    9000005    1    3    3    0    0  0.40013495652E+02 -0.92322737037E+01  0.67211745186E+02  0.78770130145E+02  0.10000000000E+01 0.  0.
    9000005    1    3    3    0    0 -0.40013495652E+02  0.92322737037E+01 -0.30895285728E+02  0.51398768392E+02  0.10000000000E+01 0.  0.
<mgrwt>
<rscale>  0 0.12500023E+03</rscale>
<asrwt>0</asrwt>
<pdfrwt beam="1">  1        4 0.20810670E-01 0.12500023E+03</pdfrwt>
<pdfrwt beam="2">  1       -4 0.11731555E-01 0.12500023E+03</pdfrwt>
<totfact> 0.19555203E+03</totfact>
</mgrwt>
</event>
<event>
 5    1  0.1440092E-002  0.1249902E+03  0.7818608E-02  0.1235085E+00
          4   -1    0    0  501    0  0.00000000000E+00  0.00000000000E+00  0.35780339207E+01  0.37967389609E+01  0.12700000000E+01 0. -1.
         -4   -1    0    0    0  501 -0.00000000000E+00 -0.00000000000E+00 -0.10589688541E+04  0.10589696156E+04  0.12700000000E+01 0. -1.
         25    2    1    2    0    0  0.00000000000E+00  0.00000000000E+00 -0.10553908202E+04  0.10627663546E+04  0.12499016424E+03 0.  0.
    9000005    1    3    3    0    0 -0.62079014453E+02  0.70324280725E+01 -0.53767021061E+03  0.54128875330E+03  0.10000000000E+01 0.  0.
    9000005    1    3    3    0    0  0.62079014453E+02 -0.70324280725E+01 -0.51772060956E+03  0.52147760129E+03  0.10000000000E+01 0.  0.
<mgrwt>
<rscale>  0 0.12499016E+03</rscale>
<asrwt>0</asrwt>
<pdfrwt beam="1">  1        4 0.92194543E-03 0.12499016E+03</pdfrwt>
<pdfrwt beam="2">  1       -4 0.26476861E+00 0.12499016E+03</pdfrwt>
<totfact> 0.33055704E+02</totfact>
</mgrwt>
</event>
<event>
 5    1  0.1440092E-002  0.1249981E+03  0.7818608E-02  0.1235072E+00
          4   -1    0    0  501    0  0.00000000000E+00  0.00000000000E+00  0.31868183134E+02  0.31893478898E+02  0.12700000000E+01 0. -1.
         -4   -1    0    0    0  501 -0.00000000000E+00 -0.00000000000E+00 -0.12249432374E+03  0.12250090714E+03  0.12700000000E+01 0. -1.
         25    2    1    2    0    0  0.00000000000E+00  0.00000000000E+00 -0.90626140610E+02  0.15439438604E+03  0.12499811630E+03 0.  0.
    9000005    1    3    3    0    0  0.17132311857E+02  0.40251320082E+02  0.98073417549E+01  0.44842712119E+02  0.10000000000E+01 0.  0.
    9000005    1    3    3    0    0 -0.17132311857E+02 -0.40251320082E+02 -0.10043348236E+03  0.10955167392E+03  0.10000000000E+01 0.  0.
<mgrwt>
<rscale>  0 0.12499812E+03</rscale>
<asrwt>0</asrwt>
<pdfrwt beam="1">  1        4 0.79710310E-02 0.12499812E+03</pdfrwt>
<pdfrwt beam="2">  1       -4 0.30627565E-01 0.12499812E+03</pdfrwt>
<totfact> 0.18325601E+03</totfact>
</mgrwt>
</event>
<event>
 5    1  0.1440092E-002  0.1249946E+03  0.7818608E-02  0.1235078E+00
         -4   -1    0    0    0  501 -0.00000000000E+00  0.00000000000E+00  0.47674482846E+02  0.47691395604E+02  0.12700000000E+01 0. -1.
          4   -1    0    0  501    0  0.00000000000E+00 -0.00000000000E+00 -0.81892457891E+02  0.81902304970E+02  0.12700000000E+01 0. -1.
         25    2    1    2    0    0  0.00000000000E+00  0.00000000000E+00 -0.34217975045E+02  0.12959370057E+03  0.12499462953E+03 0.  0.
    9000005    1    3    3    0    0 -0.12546989539E+01 -0.62208250792E+02 -0.23107504043E+02  0.66380701105E+02  0.10000000000E+01 0.  0.
    9000005    1    3    3    0    0  0.12546989539E+01  0.62208250792E+02 -0.11110471002E+02  0.63212999469E+02  0.10000000000E+01 0.  0.
<mgrwt>
<rscale>  0 0.12499463E+03</rscale>
<asrwt>0</asrwt>
<pdfrwt beam="2">  1        4 0.20476459E-01 0.12499463E+03</pdfrwt>
<pdfrwt beam="1">  1       -4 0.11921966E-01 0.12499463E+03</pdfrwt>
<totfact> 0.19588705E+03</totfact>
</mgrwt>
</event>
<event>
 5    1  0.1440092E-002  0.1249999E+03  0.7818608E-02  0.1235069E+00
         -4   -1    0    0    0  501 -0.00000000000E+00  0.00000000000E+00  0.18814467327E+03  0.18814895955E+03  0.12700000000E+01 0. -1.
          4   -1    0    0  501    0  0.00000000000E+00 -0.00000000000E+00 -0.20737983151E+02  0.20776834339E+02  0.12700000000E+01 0. -1.
         25    2    1    2    0    0  0.00000000000E+00  0.00000000000E+00  0.16740669012E+03  0.20892579389E+03  0.12499994982E+03 0.  0.
    9000005    1    3    3    0    0  0.95747553871E+01 -0.59759830362E+02  0.10972225140E+03  0.12531115560E+03  0.10000000000E+01 0.  0.
    9000005    1    3    3    0    0 -0.95747553871E+01  0.59759830362E+02  0.57684438712E+02  0.83614638283E+02  0.10000000000E+01 0.  0.
<mgrwt>
<rscale>  0 0.12499995E+03</rscale>
<asrwt>0</asrwt>
<pdfrwt beam="2">  1        4 0.51898880E-02 0.12499995E+03</pdfrwt>
<pdfrwt beam="1">  1       -4 0.47041560E-01 0.12499995E+03</pdfrwt>
<totfact> 0.15970789E+03</totfact>
</mgrwt>
</event>
<event>
 5    1  0.1440092E-002  0.1250006E+03  0.7818608E-02  0.1235068E+00
          4   -1    0    0  501    0  0.00000000000E+00  0.00000000000E+00  0.74210235487E+01  0.75289103136E+01  0.12700000000E+01 0. -1.
         -4   -1    0    0    0  501 -0.00000000000E+00 -0.00000000000E+00 -0.52247376197E+03  0.52247530549E+03  0.12700000000E+01 0. -1.
         25    2    1    2    0    0  0.00000000000E+00  0.00000000000E+00 -0.51505273842E+03  0.53000421580E+03  0.12500058166E+03 0.  0.
    9000005    1    3    3    0    0 -0.19013070528E+02  0.27734717200E+02 -0.48086586012E+03  0.48204116714E+03  0.10000000000E+01 0.  0.
    9000005    1    3    3    0    0  0.19013070528E+02 -0.27734717200E+02 -0.34186878300E+02  0.47963048662E+02  0.10000000000E+01 0.  0.
<mgrwt>
<rscale>  0 0.12500058E+03</rscale>
<asrwt>0</asrwt>
<pdfrwt beam="1">  1        4 0.18689364E-02 0.12500058E+03</pdfrwt>
<pdfrwt beam="2">  1       -4 0.13063200E+00 0.12500058E+03</pdfrwt>
<totfact> 0.83023259E+02</totfact>
</mgrwt>
</event>
<event>
 5    1  0.1440092E-002  0.1250061E+03  0.7818608E-02  0.1235060E+00
         -4   -1    0    0    0  501 -0.00000000000E+00  0.00000000000E+00  0.40377075932E+02  0.40397043961E+02  0.12700000000E+01 0.  1.
          4   -1    0    0  501    0  0.00000000000E+00 -0.00000000000E+00 -0.96705709455E+02  0.96714048313E+02  0.12700000000E+01 0.  1.
         25    2    1    2    0    0  0.00000000000E+00  0.00000000000E+00 -0.56328633523E+02  0.13711109227E+03  0.12500614653E+03 0.  0.
    9000005    1    3    3    0    0 -0.52831651124E+02 -0.17739338089E+02  0.28543322933E+01  0.55812316644E+02  0.10000000000E+01 0.  0.
    9000005    1    3    3    0    0  0.52831651124E+02  0.17739338089E+02 -0.59182965816E+02  0.81298775631E+02  0.10000000000E+01 0.  0.
<mgrwt>
<rscale>  0 0.12500615E+03</rscale>
<asrwt>0</asrwt>
<pdfrwt beam="2">  1        4 0.24179965E-01 0.12500615E+03</pdfrwt>
<pdfrwt beam="1">  1       -4 0.10097808E-01 0.12500615E+03</pdfrwt>
<totfact> 0.19186373E+03</totfact>
</mgrwt>
</event>
<event>
 5    1  0.1440092E-002  0.1249987E+03  0.7818608E-02  0.1235071E+00
          4   -1    0    0  501    0  0.00000000000E+00  0.00000000000E+00  0.54341664417E+03  0.54341812820E+03  0.12700000000E+01 0.  1.
         -4   -1    0    0    0  501 -0.00000000000E+00 -0.00000000000E+00 -0.71305680037E+01  0.72427826183E+01  0.12700000000E+01 0.  1.
         25    2    1    2    0    0  0.00000000000E+00  0.00000000000E+00  0.53628607617E+03  0.55066091082E+03  0.12499873287E+03 0.  0.
    9000005    1    3    3    0    0 -0.28023168210E+02  0.40843422430E+02  0.43599067668E+03  0.43879648274E+03  0.10000000000E+01 0.  0.
    9000005    1    3    3    0    0  0.28023168210E+02 -0.40843422430E+02  0.10029539948E+03  0.11186442808E+03  0.10000000000E+01 0.  0.
<mgrwt>
<rscale>  0 0.12499873E+03</rscale>
<asrwt>0</asrwt>
<pdfrwt beam="1">  1        4 0.13586833E+00 0.12499873E+03</pdfrwt>
<pdfrwt beam="2">  1       -4 0.17968548E-02 0.12499873E+03</pdfrwt>
<totfact> 0.80077062E+02</totfact>
</mgrwt>
</event>
<event>
 5    1  0.1440092E-002  0.1249962E+03  0.7818608E-02  0.1235075E+00
         -4   -1    0    0    0  501 -0.00000000000E+00  0.00000000000E+00  0.82531848302E+03  0.82531946016E+03  0.12700000000E+01 0. -1.
          4   -1    0    0  501    0  0.00000000000E+00 -0.00000000000E+00 -0.46465360834E+01  0.48169697502E+01  0.12700000000E+01 0. -1.
         25    2    1    2    0    0  0.00000000000E+00  0.00000000000E+00  0.82067194694E+03  0.83013642991E+03  0.12499619103E+03 0.  0.
    9000005    1    3    3    0    0  0.52739045902E+02  0.13534627882E+02  0.61399954321E+03  0.61640979241E+03  0.10000000000E+01 0.  0.
    9000005    1    3    3    0    0 -0.52739045902E+02 -0.13534627882E+02  0.20667240372E+03  0.21372663749E+03  0.10000000000E+01 0.  0.
<mgrwt>
<rscale>  0 0.12499619E+03</rscale>
<asrwt>0</asrwt>
<pdfrwt beam="2">  1        4 0.11830605E-02 0.12499619E+03</pdfrwt>
<pdfrwt beam="1">  1       -4 0.20635102E+00 0.12499619E+03</pdfrwt>
<totfact> 0.49884026E+02</totfact>
</mgrwt>
</event>
<event>
 5    1  0.1440092E-002  0.1250005E+03  0.7818608E-02  0.1235068E+00
         -4   -1    0    0    0  501 -0.00000000000E+00  0.00000000000E+00  0.13830530941E+03  0.13831114023E+03  0.12700000000E+01 0. -1.
          4   -1    0    0  501    0  0.00000000000E+00 -0.00000000000E+00 -0.28223203387E+02  0.28251762943E+02  0.12700000000E+01 0. -1.
         25    2    1    2    0    0  0.00000000000E+00  0.00000000000E+00  0.11008210602E+03  0.16656290317E+03  0.12500052258E+03 0.  0.
    9000005    1    3    3    0    0 -0.35673215684E+02  0.33258026319E+02  0.10710417707E+03  0.11769018386E+03  0.10000000000E+01 0.  0.
    9000005    1    3    3    0    0  0.35673215684E+02 -0.33258026319E+02  0.29779289553E+01  0.48872719309E+02  0.10000000000E+01 0.  0.
<mgrwt>
<rscale>  0 0.12500052E+03</rscale>
<asrwt>0</asrwt>
<pdfrwt beam="2">  1        4 0.70600998E-02 0.12500052E+03</pdfrwt>
<pdfrwt beam="1">  1       -4 0.34580625E-01 0.12500052E+03</pdfrwt>
<totfact> 0.17752983E+03</totfact>
</mgrwt>
</event>
<event>
 5    1  0.1440092E-002  0.1250010E+03  0.7818608E-02  0.1235068E+00
         -4   -1    0    0    0  501 -0.00000000000E+00  0.00000000000E+00  0.18598888567E+03  0.18599322164E+03  0.12700000000E+01 0. -1.
          4   -1    0    0  501    0  0.00000000000E+00 -0.00000000000E+00 -0.20979164235E+02  0.21017569603E+02  0.12700000000E+01 0. -1.
         25    2    1    2    0    0  0.00000000000E+00  0.00000000000E+00  0.16500972144E+03  0.20701079124E+03  0.12500103807E+03 0.  0.
    9000005    1    3    3    0    0  0.17094398832E+01 -0.29984198970E+02 -0.82524570920E+01  0.31162115150E+02  0.10000000000E+01 0.  0.
    9000005    1    3    3    0    0 -0.17094398832E+01  0.29984198970E+02  0.17326217853E+03  0.17584867609E+03  0.10000000000E+01 0.  0.
<mgrwt>
<rscale>  0 0.12500104E+03</rscale>
<asrwt>0</asrwt>
<pdfrwt beam="2">  1        4 0.52501338E-02 0.12500104E+03</pdfrwt>
<pdfrwt beam="1">  1       -4 0.46502564E-01 0.12500104E+03</pdfrwt>
<totfact> 0.16044731E+03</totfact>
</mgrwt>
</event>
<event>
 5    1  0.1440092E-002  0.1250001E+03  0.7818608E-02  0.1235069E+00
         -4   -1    0    0    0  501 -0.00000000000E+00  0.00000000000E+00  0.81818318022E+02  0.81828174023E+02  0.12700000000E+01 0.  1.
          4   -1    0    0  501    0  0.00000000000E+00 -0.00000000000E+00 -0.47721847896E+02  0.47738743874E+02  0.12700000000E+01 0.  1.
         25    2    1    2    0    0  0.00000000000E+00  0.00000000000E+00  0.34096470126E+02  0.12956691790E+03  0.12500006775E+03 0.  0.
    9000005    1    3    3    0    0  0.37892813919E+02  0.14711699039E+02 -0.32151200333E+02  0.51836272225E+02  0.10000000000E+01 0.  0.
    9000005    1    3    3    0    0 -0.37892813919E+02 -0.14711699039E+02  0.66247670458E+02  0.77730645671E+02  0.10000000000E+01 0.  0.
<mgrwt>
<rscale>  0 0.12500007E+03</rscale>
<asrwt>0</asrwt>
<pdfrwt beam="2">  1        4 0.11933806E-01 0.12500007E+03</pdfrwt>
<pdfrwt beam="1">  1       -4 0.20457923E-01 0.12500007E+03</pdfrwt>
<totfact> 0.19587662E+03</totfact>
</mgrwt>
</event>
<event>
 5    1  0.1440092E-002  0.1250016E+03  0.7818608E-02  0.1235067E+00
          4   -1    0    0  501    0  0.00000000000E+00  0.00000000000E+00  0.37529911143E+02  0.37551393188E+02  0.12700000000E+01 0.  1.
         -4   -1    0    0    0  501 -0.00000000000E+00 -0.00000000000E+00 -0.10403123809E+03  0.10403898980E+03  0.12700000000E+01 0.  1.
         25    2    1    2    0    0  0.00000000000E+00  0.00000000000E+00 -0.66501326945E+02  0.14159038299E+03  0.12500164026E+03 0.  0.
    9000005    1    3    3    0    0  0.54007412657E+02 -0.21506108091E+02 -0.59229943019E+02  0.82996984626E+02  0.10000000000E+01 0.  0.
    9000005    1    3    3    0    0 -0.54007412657E+02  0.21506108091E+02 -0.72713839260E+01  0.58593398359E+02  0.10000000000E+01 0.  0.
<mgrwt>
<rscale>  0 0.12500164E+03</rscale>
<asrwt>0</asrwt>
<pdfrwt beam="1">  1        4 0.93861322E-02 0.12500164E+03</pdfrwt>
<pdfrwt beam="2">  1       -4 0.26011463E-01 0.12500164E+03</pdfrwt>
<totfact> 0.18958549E+03</totfact>
</mgrwt>
</event>
<event>
 5    1  0.1440092E-002  0.1250023E+03  0.7818608E-02  0.1235066E+00
          4   -1    0    0  501    0  0.00000000000E+00  0.00000000000E+00  0.48859723199E+03  0.48859888253E+03  0.12700000000E+01 0.  1.
         -4   -1    0    0    0  501 -0.00000000000E+00 -0.00000000000E+00 -0.79430100237E+01  0.80438988207E+01  0.12700000000E+01 0.  1.
         25    2    1    2    0    0  0.00000000000E+00  0.00000000000E+00  0.48065422197E+03  0.49664278135E+03  0.12500228467E+03 0.  0.
    9000005    1    3    3    0    0  0.58921440150E+02  0.10175282671E+02  0.16813956197E+03  0.17845779553E+03  0.10000000000E+01 0.  0.
    9000005    1    3    3    0    0 -0.58921440150E+02 -0.10175282671E+02  0.31251466000E+03  0.31818498582E+03  0.10000000000E+01 0.  0.
<mgrwt>
<rscale>  0 0.12500228E+03</rscale>
<asrwt>0</asrwt>
<pdfrwt beam="1">  1        4 0.12216212E+00 0.12500228E+03</pdfrwt>
<pdfrwt beam="2">  1       -4 0.19985700E-02 0.12500228E+03</pdfrwt>
<totfact> 0.88138793E+02</totfact>
</mgrwt>
</event>
<event>
 5    1  0.1440092E-002  0.1249983E+03  0.7818608E-02  0.1235072E+00
         -4   -1    0    0    0  501 -0.00000000000E+00  0.00000000000E+00  0.29269902579E+03  0.29270178100E+03  0.12700000000E+01 0. -1.
          4   -1    0    0  501    0  0.00000000000E+00 -0.00000000000E+00 -0.13312219854E+02  0.13372662317E+02  0.12700000000E+01 0. -1.
         25    2    1    2    0    0  0.00000000000E+00  0.00000000000E+00  0.27938680594E+03  0.30607444332E+03  0.12499831006E+03 0.  0.
    9000005    1    3    3    0    0  0.59173310004E+02 -0.44322602801E+01  0.18767770563E+03  0.19683761515E+03  0.10000000000E+01 0.  0.
    9000005    1    3    3    0    0 -0.59173310004E+02  0.44322602801E+01  0.91709100315E+02  0.10923682817E+03  0.10000000000E+01 0.  0.
<mgrwt>
<rscale>  0 0.12499831E+03</rscale>
<asrwt>0</asrwt>
<pdfrwt beam="2">  1        4 0.33359546E-02 0.12499831E+03</pdfrwt>
<pdfrwt beam="1">  1       -4 0.73182658E-01 0.12499831E+03</pdfrwt>
<totfact> 0.12802996E+03</totfact>
</mgrwt>
</event>
<event>
 5    1  0.1440092E-002  0.1249949E+03  0.7818608E-02  0.1235077E+00
          4   -1    0    0  501    0  0.00000000000E+00  0.00000000000E+00  0.14929316129E+03  0.14929856298E+03  0.12700000000E+01 0. -1.
         -4   -1    0    0    0  501 -0.00000000000E+00 -0.00000000000E+00 -0.26141526728E+02  0.26172357931E+02  0.12700000000E+01 0. -1.
         25    2    1    2    0    0  0.00000000000E+00  0.00000000000E+00  0.12315163457E+03  0.17547092092E+03  0.12499487586E+03 0.  0.
    9000005    1    3    3    0    0  0.29212758655E+02 -0.54517347116E+02  0.49066536544E+02  0.78956009355E+02  0.10000000000E+01 0.  0.
    9000005    1    3    3    0    0 -0.29212758655E+02  0.54517347116E+02  0.74085098022E+02  0.96514911561E+02  0.10000000000E+01 0.  0.
<mgrwt>
<rscale>  0 0.12499488E+03</rscale>
<asrwt>0</asrwt>
<pdfrwt beam="1">  1        4 0.37327819E-01 0.12499488E+03</pdfrwt>
<pdfrwt beam="2">  1       -4 0.65399109E-02 0.12499488E+03</pdfrwt>
<totfact> 0.17355134E+03</totfact>
</mgrwt>
</event>
<event>
 5    1  0.1440092E-002  0.1249716E+03  0.7818608E-02  0.1235114E+00
         -4   -1    0    0    0  501 -0.00000000000E+00  0.00000000000E+00  0.40634771647E+03  0.40634970110E+03  0.12700000000E+01 0.  1.
          4   -1    0    0  501    0  0.00000000000E+00 -0.00000000000E+00 -0.95647231521E+01  0.96486698035E+01  0.12700000000E+01 0.  1.
         25    2    1    2    0    0  0.00000000000E+00  0.00000000000E+00  0.39678299332E+03  0.41599837090E+03  0.12497159999E+03 0.  0.
    9000005    1    3    3    0    0  0.71567359035E+01  0.28754358402E+02  0.38148578732E+03  0.38263616912E+03  0.10000000000E+01 0.  0.
    9000005    1    3    3    0    0 -0.71567359035E+01 -0.28754358402E+02  0.15297206000E+02  0.33362201776E+02  0.10000000000E+01 0.  0.
<mgrwt>
<rscale>  0 0.12497160E+03</rscale>
<asrwt>0</asrwt>
<pdfrwt beam="2">  1        4 0.24019226E-02 0.12497160E+03</pdfrwt>
<pdfrwt beam="1">  1       -4 0.10159765E+00 0.12497160E+03</pdfrwt>
<totfact> 0.10252027E+03</totfact>
</mgrwt>
</event>
<event>
 5    1  0.1440092E-002  0.1249996E+03  0.7818608E-02  0.1235070E+00
         -4   -1    0    0    0  501 -0.00000000000E+00  0.00000000000E+00  0.29704628289E+03  0.29704899777E+03  0.12700000000E+01 0.  1.
          4   -1    0    0  501    0  0.00000000000E+00 -0.00000000000E+00 -0.13116783035E+02  0.13178121914E+02  0.12700000000E+01 0.  1.
         25    2    1    2    0    0  0.00000000000E+00  0.00000000000E+00  0.28392949985E+03  0.31022711969E+03  0.12499961961E+03 0.  0.
    9000005    1    3    3    0    0  0.43002005087E+02  0.61216860052E+01  0.30459859010E+02  0.53060818803E+02  0.10000000000E+01 0.  0.
    9000005    1    3    3    0    0 -0.43002005087E+02 -0.61216860052E+01  0.25346964084E+03  0.25716630088E+03  0.10000000000E+01 0.  0.
<mgrwt>
<rscale>  0 0.12499962E+03</rscale>
<asrwt>0</asrwt>
<pdfrwt beam="2">  1        4 0.32872026E-02 0.12499962E+03</pdfrwt>
<pdfrwt beam="1">  1       -4 0.74269575E-01 0.12499962E+03</pdfrwt>
<totfact> 0.12689297E+03</totfact>
</mgrwt>
</event>
<event>
 5    1  0.1440092E-002  0.1249940E+03  0.7818608E-02  0.1235079E+00
          4   -1    0    0  501    0  0.00000000000E+00  0.00000000000E+00  0.26413587545E+03  0.26413892860E+03  0.12700000000E+01 0. -1.
         -4   -1    0    0    0  501 -0.00000000000E+00 -0.00000000000E+00 -0.14756961576E+02  0.14811509543E+02  0.12700000000E+01 0. -1.
         25    2    1    2    0    0  0.00000000000E+00  0.00000000000E+00  0.24937891388E+03  0.27895043814E+03  0.12499401687E+03 0.  0.
    9000005    1    3    3    0    0  0.18949222707E+02  0.25720104554E+02  0.48343689077E+01  0.32325963902E+02  0.10000000000E+01 0.  0.
    9000005    1    3    3    0    0 -0.18949222707E+02 -0.25720104554E+02  0.24454454497E+03  0.24662447424E+03  0.10000000000E+01 0.  0.
<mgrwt>
<rscale>  0 0.12499402E+03</rscale>
<asrwt>0</asrwt>
<pdfrwt beam="1">  1        4 0.66041172E-01 0.12499402E+03</pdfrwt>
<pdfrwt beam="2">  1       -4 0.36964404E-02 0.12499402E+03</pdfrwt>
<totfact> 0.13584080E+03</totfact>
</mgrwt>
</event>
<event>
 5    1  0.1440092E-002  0.1249979E+03  0.7818608E-02  0.1235073E+00
          4   -1    0    0  501    0  0.00000000000E+00  0.00000000000E+00  0.23865890689E+02  0.23899657705E+02  0.12700000000E+01 0. -1.
         -4   -1    0    0    0  501 -0.00000000000E+00 -0.00000000000E+00 -0.16351767678E+03  0.16352260859E+03  0.12700000000E+01 0. -1.
         25    2    1    2    0    0  0.00000000000E+00  0.00000000000E+00 -0.13965178609E+03  0.18742226629E+03  0.12499793816E+03 0.  0.
    9000005    1    3    3    0    0 -0.33004635285E+02 -0.42825723001E+02 -0.11680705969E+03  0.12871766660E+03  0.10000000000E+01 0.  0.
    9000005    1    3    3    0    0  0.33004635285E+02  0.42825723001E+02 -0.22844726397E+02  0.58704599692E+02  0.10000000000E+01 0.  0.
<mgrwt>
<rscale>  0 0.12499794E+03</rscale>
<asrwt>0</asrwt>
<pdfrwt beam="1">  1        4 0.59713105E-02 0.12499794E+03</pdfrwt>
<pdfrwt beam="2">  1       -4 0.40884253E-01 0.12499794E+03</pdfrwt>
<totfact> 0.16839183E+03</totfact>
</mgrwt>
</event>
<event>
 5    1  0.1440092E-002  0.1249993E+03  0.7818608E-02  0.1235070E+00
          4   -1    0    0  501    0  0.00000000000E+00  0.00000000000E+00  0.30749281595E+03  0.30749543860E+03  0.12700000000E+01 0.  1.
         -4   -1    0    0    0  501 -0.00000000000E+00 -0.00000000000E+00 -0.12668984282E+02  0.12732480620E+02  0.12700000000E+01 0.  1.
         25    2    1    2    0    0  0.00000000000E+00  0.00000000000E+00  0.29482383167E+03  0.32022791922E+03  0.12499931412E+03 0.  0.
    9000005    1    3    3    0    0 -0.18175621212E+02  0.31720937578E+02  0.27725022456E+03  0.27965203039E+03  0.10000000000E+01 0.  0.
    9000005    1    3    3    0    0  0.18175621212E+02 -0.31720937578E+02  0.17573607114E+02  0.40575888829E+02  0.10000000000E+01 0.  0.
<mgrwt>
<rscale>  0 0.12499931E+03</rscale>
<asrwt>0</asrwt>
<pdfrwt beam="1">  1        4 0.76881468E-01 0.12499931E+03</pdfrwt>
<pdfrwt beam="2">  1       -4 0.31755110E-02 0.12499931E+03</pdfrwt>
<totfact> 0.12422682E+03</totfact>
</mgrwt>
</event>
<event>
 5    1  0.1440092E-002  0.1250028E+03  0.7818608E-02  0.1235065E+00
         -4   -1    0    0    0  501 -0.00000000000E+00  0.00000000000E+00  0.27251652466E+02  0.27281229117E+02  0.12700000000E+01 0.  1.
          4   -1    0    0  501    0  0.00000000000E+00 -0.00000000000E+00 -0.14323627604E+03  0.14324190614E+03  0.12700000000E+01 0.  1.
         25    2    1    2    0    0  0.00000000000E+00  0.00000000000E+00 -0.11598462358E+03  0.17052313526E+03  0.12500282697E+03 0.  0.
    9000005    1    3    3    0    0 -0.26244302531E+02  0.37666441444E+02 -0.11583474286E+03  0.12460422095E+03  0.10000000000E+01 0.  0.
    9000005    1    3    3    0    0  0.26244302531E+02 -0.37666441444E+02 -0.14988071638E+00  0.45918914301E+02  0.10000000000E+01 0.  0.
<mgrwt>
<rscale>  0 0.12500283E+03</rscale>
<asrwt>0</asrwt>
<pdfrwt beam="2">  1        4 0.35813468E-01 0.12500283E+03</pdfrwt>
<pdfrwt beam="1">  1       -4 0.68173143E-02 0.12500283E+03</pdfrwt>
<totfact> 0.17572325E+03</totfact>
</mgrwt>
</event>
<event>
 5    1  0.1440092E-002  0.1250043E+03  0.7818608E-02  0.1235063E+00
         -4   -1    0    0    0  501 -0.00000000000E+00  0.00000000000E+00  0.11705152483E+03  0.11705841433E+03  0.12700000000E+01 0.  1.
          4   -1    0    0  501    0  0.00000000000E+00 -0.00000000000E+00 -0.33354403369E+02  0.33378572829E+02  0.12700000000E+01 0.  1.
         25    2    1    2    0    0  0.00000000000E+00  0.00000000000E+00  0.83697121463E+02  0.15043698716E+03  0.12500431578E+03 0.  0.
    9000005    1    3    3    0    0 -0.29834546559E+02 -0.42964990708E+02  0.83002989378E+02  0.98115171306E+02  0.10000000000E+01 0.  0.
    9000005    1    3    3    0    0  0.29834546559E+02  0.42964990708E+02  0.69413208547E+00  0.52321815854E+02  0.10000000000E+01 0.  0.
<mgrwt>
<rscale>  0 0.12500432E+03</rscale>
<asrwt>0</asrwt>
<pdfrwt beam="2">  1        4 0.83424833E-02 0.12500432E+03</pdfrwt>
<pdfrwt beam="1">  1       -4 0.29266763E-01 0.12500432E+03</pdfrwt>
<totfact> 0.18515455E+03</totfact>
</mgrwt>
</event>
<event>
 5    1  0.1440092E-002  0.1250030E+03  0.7818608E-02  0.1235065E+00
         -4   -1    0    0    0  501 -0.00000000000E+00  0.00000000000E+00  0.33697933882E+03  0.33698173199E+03  0.12700000000E+01 0.  1.
          4   -1    0    0  501    0  0.00000000000E+00 -0.00000000000E+00 -0.11555285013E+02  0.11624866095E+02  0.12700000000E+01 0.  1.
         25    2    1    2    0    0  0.00000000000E+00  0.00000000000E+00  0.32542405381E+03  0.34860659808E+03  0.12500298168E+03 0.  0.
    9000005    1    3    3    0    0  0.21959480746E+02 -0.19245096333E+02  0.86244858976E+01  0.30462670345E+02  0.10000000000E+01 0.  0.
    9000005    1    3    3    0    0 -0.21959480746E+02  0.19245096333E+02  0.31679956791E+03  0.31814392774E+03  0.10000000000E+01 0.  0.
<mgrwt>
<rscale>  0 0.12500298E+03</rscale>
<asrwt>0</asrwt>
<pdfrwt beam="2">  1        4 0.28978180E-02 0.12500298E+03</pdfrwt>
<pdfrwt beam="1">  1       -4 0.84253831E-01 0.12500298E+03</pdfrwt>
<totfact> 0.11709828E+03</totfact>
</mgrwt>
</event>
<event>
 5    1  0.1440092E-002  0.1250029E+03  0.7818608E-02  0.1235065E+00
         -4   -1    0    0    0  501 -0.00000000000E+00  0.00000000000E+00  0.37243169621E+02  0.37264816965E+02  0.12700000000E+01 0.  1.
          4   -1    0    0  501    0  0.00000000000E+00 -0.00000000000E+00 -0.10483396421E+03  0.10484165657E+03  0.12700000000E+01 0.  1.
         25    2    1    2    0    0  0.00000000000E+00  0.00000000000E+00 -0.67590794589E+02  0.14210647353E+03  0.12500293719E+03 0.  0.
    9000005    1    3    3    0    0  0.24350303941E+02 -0.26176951078E+02  0.24474662166E+02  0.43337964395E+02  0.10000000000E+01 0.  0.
    9000005    1    3    3    0    0 -0.24350303941E+02  0.26176951078E+02 -0.92065456755E+02  0.98768509138E+02  0.10000000000E+01 0.  0.
<mgrwt>
<rscale>  0 0.12500294E+03</rscale>
<asrwt>0</asrwt>
<pdfrwt beam="2">  1        4 0.26212158E-01 0.12500294E+03</pdfrwt>
<pdfrwt beam="1">  1       -4 0.93144601E-02 0.12500294E+03</pdfrwt>
<totfact> 0.18931796E+03</totfact>
</mgrwt>
</event>
<event>
 5    1  0.1440092E-002  0.1249996E+03  0.7818608E-02  0.1235070E+00
         -4   -1    0    0    0  501 -0.00000000000E+00  0.00000000000E+00  0.11033221920E+03  0.11033952825E+03  0.12700000000E+01 0. -1.
          4   -1    0    0  501    0  0.00000000000E+00 -0.00000000000E+00 -0.35384360091E+02  0.35407143898E+02  0.12700000000E+01 0. -1.
         25    2    1    2    0    0  0.00000000000E+00  0.00000000000E+00  0.74947859113E+02  0.14574667215E+03  0.12499964343E+03 0.  0.
    9000005    1    3    3    0    0  0.21077622723E+02  0.34344668956E+02 -0.18217849472E+02  0.44234743187E+02  0.10000000000E+01 0.  0.
    9000005    1    3    3    0    0 -0.21077622723E+02 -0.34344668956E+02  0.93165708585E+02  0.10151192896E+03  0.10000000000E+01 0.  0.
<mgrwt>
<rscale>  0 0.12499964E+03</rscale>
<asrwt>0</asrwt>
<pdfrwt beam="2">  1        4 0.88498517E-02 0.12499964E+03</pdfrwt>
<pdfrwt beam="1">  1       -4 0.27586816E-01 0.12499964E+03</pdfrwt>
<totfact> 0.18750069E+03</totfact>
</mgrwt>
</event>
<event>
 5    1  0.1440092E-002  0.1250009E+03  0.7818608E-02  0.1235068E+00
         -4   -1    0    0    0  501 -0.00000000000E+00  0.00000000000E+00  0.58743356667E+01  0.60100515410E+01  0.12700000000E+01 0.  1.
          4   -1    0    0  501    0  0.00000000000E+00 -0.00000000000E+00 -0.65724847724E+03  0.65724970425E+03  0.12700000000E+01 0.  1.
         25    2    1    2    0    0  0.00000000000E+00  0.00000000000E+00 -0.65137414158E+03  0.66325975579E+03  0.12500092535E+03 0.  0.
    9000005    1    3    3    0    0 -0.12422311495E+01 -0.62364699328E+02 -0.34582834547E+03  0.35141022096E+03  0.10000000000E+01 0.  0.
    9000005    1    3    3    0    0  0.12422311495E+01  0.62364699328E+02 -0.30554579610E+03  0.31184953484E+03  0.10000000000E+01 0.  0.
<mgrwt>
<rscale>  0 0.12500093E+03</rscale>
<asrwt>0</asrwt>
<pdfrwt beam="2">  1        4 0.16432899E+00 0.12500093E+03</pdfrwt>
<pdfrwt beam="1">  1       -4 0.14857040E-02 0.12500093E+03</pdfrwt>
<totfact> 0.66012674E+02</totfact>
</mgrwt>
</event>
<event>
 5    1  0.1440092E-002  0.1250066E+03  0.7818608E-02  0.1235059E+00
         -4   -1    0    0    0  501 -0.00000000000E+00  0.00000000000E+00  0.20891649444E+01  0.24448947145E+01  0.12700000000E+01 0. -1.
          4   -1    0    0  501    0  0.00000000000E+00 -0.00000000000E+00 -0.17228960854E+04  0.17228965535E+04  0.12700000000E+01 0. -1.
         25    2    1    2    0    0  0.00000000000E+00  0.00000000000E+00 -0.17208069205E+04  0.17253414482E+04  0.12500662128E+03 0.  0.
    9000005    1    3    3    0    0  0.50671183446E+02  0.11182960179E+02 -0.37969810876E+03  0.38322875835E+03  0.10000000000E+01 0.  0.
    9000005    1    3    3    0    0 -0.50671183446E+02 -0.11182960179E+02 -0.13411088117E+04  0.13421126899E+04  0.10000000000E+01 0.  0.
<mgrwt>
<rscale>  0 0.12500662E+03</rscale>
<asrwt>0</asrwt>
<pdfrwt beam="2">  1        4 0.43076405E+00 0.12500662E+03</pdfrwt>
<pdfrwt beam="1">  1       -4 0.56682188E-03 0.12500662E+03</pdfrwt>
<totfact> 0.65388533E+01</totfact>
</mgrwt>
</event>
<event>
 5    1  0.1440092E-002  0.1250010E+03  0.7818608E-02  0.1235068E+00
         -4   -1    0    0    0  501 -0.00000000000E+00  0.00000000000E+00  0.19851102695E+02  0.19891686158E+02  0.12700000000E+01 0. -1.
          4   -1    0    0  501    0  0.00000000000E+00 -0.00000000000E+00 -0.19653692744E+03  0.19654103069E+03  0.12700000000E+01 0. -1.
         25    2    1    2    0    0  0.00000000000E+00  0.00000000000E+00 -0.17668582474E+03  0.21643271685E+03  0.12500096103E+03 0.  0.
    9000005    1    3    3    0    0  0.45344807668E+02 -0.17136244532E+02 -0.20054718147E+02  0.52468983019E+02  0.10000000000E+01 0.  0.
    9000005    1    3    3    0    0 -0.45344807668E+02  0.17136244532E+02 -0.15663110659E+03  0.16396373383E+03  0.10000000000E+01 0.  0.
<mgrwt>
<rscale>  0 0.12500096E+03</rscale>
<asrwt>0</asrwt>
<pdfrwt beam="2">  1        4 0.49139812E-01 0.12500096E+03</pdfrwt>
<pdfrwt beam="1">  1       -4 0.49683621E-02 0.12500096E+03</pdfrwt>
<totfact> 0.15684183E+03</totfact>
</mgrwt>
</event>
<event>
 5    1  0.1440092E-002  0.1249992E+03  0.7818608E-02  0.1235071E+00
         -4   -1    0    0    0  501 -0.00000000000E+00  0.00000000000E+00  0.17163102936E+03  0.17163572804E+03  0.12700000000E+01 0. -1.
          4   -1    0    0  501    0  0.00000000000E+00 -0.00000000000E+00 -0.22736555112E+02  0.22771996802E+02  0.12700000000E+01 0. -1.
         25    2    1    2    0    0  0.00000000000E+00  0.00000000000E+00  0.14889447425E+03  0.19440772484E+03  0.12499919606E+03 0.  0.
    9000005    1    3    3    0    0  0.18175288273E+02 -0.46309758563E+02  0.13326581774E+03  0.14225228652E+03  0.10000000000E+01 0.  0.
    9000005    1    3    3    0    0 -0.18175288273E+02  0.46309758563E+02  0.15628656505E+02  0.52155438318E+02  0.10000000000E+01 0.  0.
<mgrwt>
<rscale>  0 0.12499920E+03</rscale>
<asrwt>0</asrwt>
<pdfrwt beam="2">  1        4 0.56891564E-02 0.12499920E+03</pdfrwt>
<pdfrwt beam="1">  1       -4 0.42912774E-01 0.12499920E+03</pdfrwt>
<totfact> 0.16548749E+03</totfact>
</mgrwt>
</event>
<event>
 5    1  0.1440092E-002  0.1249980E+03  0.7818608E-02  0.1235072E+00
         -4   -1    0    0    0  501 -0.00000000000E+00  0.00000000000E+00  0.21260314287E+03  0.21260693606E+03  0.12700000000E+01 0.  1.
          4   -1    0    0  501    0  0.00000000000E+00 -0.00000000000E+00 -0.18346951517E+02  0.18390854520E+02  0.12700000000E+01 0.  1.
         25    2    1    2    0    0  0.00000000000E+00  0.00000000000E+00  0.19425619135E+03  0.23099779058E+03  0.12499804547E+03 0.  0.
    9000005    1    3    3    0    0 -0.51736534759E+02  0.16952249838E+02  0.40436603948E+02  0.67824529061E+02  0.10000000000E+01 0.  0.
    9000005    1    3    3    0    0  0.51736534759E+02 -0.16952249838E+02  0.15381958741E+03  0.16317326151E+03  0.10000000000E+01 0.  0.
<mgrwt>
<rscale>  0 0.12499805E+03</rscale>
<asrwt>0</asrwt>
<pdfrwt beam="2">  1        4 0.45926998E-02 0.12499805E+03</pdfrwt>
<pdfrwt beam="1">  1       -4 0.53156748E-01 0.12499805E+03</pdfrwt>
<totfact> 0.15152406E+03</totfact>
</mgrwt>
</event>
<event>
 5    1  0.1440092E-002  0.1250006E+03  0.7818608E-02  0.1235068E+00
          4   -1    0    0  501    0  0.00000000000E+00  0.00000000000E+00  0.47175948823E+02  0.47193040243E+02  0.12700000000E+01 0.  1.
         -4   -1    0    0    0  501 -0.00000000000E+00 -0.00000000000E+00 -0.82765586049E+02  0.82775329259E+02  0.12700000000E+01 0.  1.
         25    2    1    2    0    0  0.00000000000E+00  0.00000000000E+00 -0.35589637225E+02  0.12996836950E+03  0.12500061917E+03 0.  0.
    9000005    1    3    3    0    0 -0.19323486909E+01  0.61939093320E+02 -0.94054844562E+01  0.62686907650E+02  0.10000000000E+01 0.  0.
    9000005    1    3    3    0    0  0.19323486909E+01 -0.61939093320E+02 -0.26184152769E+02  0.67281461853E+02  0.10000000000E+01 0.  0.
<mgrwt>
<rscale>  0 0.12500062E+03</rscale>
<asrwt>0</asrwt>
<pdfrwt beam="1">  1        4 0.11797342E-01 0.12500062E+03</pdfrwt>
<pdfrwt beam="2">  1       -4 0.20694751E-01 0.12500062E+03</pdfrwt>
<totfact> 0.19565800E+03</totfact>
</mgrwt>
</event>
<event>
 5    1  0.1440092E-002  0.1250026E+03  0.7818608E-02  0.1235065E+00
          4   -1    0    0  501    0  0.00000000000E+00  0.00000000000E+00  0.28906283086E+02  0.28934168414E+02  0.12700000000E+01 0. -1.
         -4   -1    0    0    0  501 -0.00000000000E+00 -0.00000000000E+00 -0.13504449720E+03  0.13505046881E+03  0.12700000000E+01 0. -1.
         25    2    1    2    0    0  0.00000000000E+00  0.00000000000E+00 -0.10613821412E+03  0.16398463722E+03  0.12500256297E+03 0.  0.
    9000005    1    3    3    0    0 -0.14973403770E+02  0.36584978971E+02  0.10426972492E+02  0.40894807276E+02  0.10000000000E+01 0.  0.
    9000005    1    3    3    0    0  0.14973403770E+02 -0.36584978971E+02 -0.11656518661E+03  0.12308982995E+03  0.10000000000E+01 0.  0.
<mgrwt>
<rscale>  0 0.12500256E+03</rscale>
<asrwt>0</asrwt>
<pdfrwt beam="1">  1        4 0.72308032E-02 0.12500256E+03</pdfrwt>
<pdfrwt beam="2">  1       -4 0.33765355E-01 0.12500256E+03</pdfrwt>
<totfact> 0.17870764E+03</totfact>
</mgrwt>
</event>
<event>
 5    1  0.1440092E-002  0.1250053E+03  0.7818608E-02  0.1235061E+00
         -4   -1    0    0    0  501 -0.00000000000E+00  0.00000000000E+00  0.79092847749E+01  0.80105983329E+01  0.12700000000E+01 0. -1.
          4   -1    0    0  501    0  0.00000000000E+00 -0.00000000000E+00 -0.49067819222E+03  0.49067983576E+03  0.12700000000E+01 0. -1.
         25    2    1    2    0    0  0.00000000000E+00  0.00000000000E+00 -0.48276890744E+03  0.49869043409E+03  0.12500532412E+03 0.  0.
    9000005    1    3    3    0    0  0.40658174367E+02 -0.23173092299E+02 -0.76150870640E+02  0.89386992615E+02  0.10000000000E+01 0.  0.
    9000005    1    3    3    0    0 -0.40658174367E+02  0.23173092299E+02 -0.40661803680E+03  0.40930344147E+03  0.10000000000E+01 0.  0.
<mgrwt>
<rscale>  0 0.12500532E+03</rscale>
<asrwt>0</asrwt>
<pdfrwt beam="2">  1        4 0.12268232E+00 0.12500532E+03</pdfrwt>
<pdfrwt beam="1">  1       -4 0.19901925E-02 0.12500532E+03</pdfrwt>
<totfact> 0.87805078E+02</totfact>
</mgrwt>
</event>
<event>
 5    1  0.1440092E-002  0.1250029E+03  0.7818608E-02  0.1235065E+00
         -4   -1    0    0    0  501 -0.00000000000E+00  0.00000000000E+00  0.10215347795E+04  0.10215355689E+04  0.12700000000E+01 0.  1.
          4   -1    0    0  501    0  0.00000000000E+00 -0.00000000000E+00 -0.37178223056E+01  0.39287533260E+01  0.12700000000E+01 0.  1.
         25    2    1    2    0    0  0.00000000000E+00  0.00000000000E+00  0.10178169572E+04  0.10254643223E+04  0.12500287159E+03 0.  0.
    9000005    1    3    3    0    0  0.59605495411E+00 -0.49069716892E+02  0.19148002584E+03  0.19767092020E+03  0.10000000000E+01 0.  0.
    9000005    1    3    3    0    0 -0.59605495411E+00  0.49069716892E+02  0.82633693136E+03  0.82779340208E+03  0.10000000000E+01 0.  0.
<mgrwt>
<rscale>  0 0.12500287E+03</rscale>
<asrwt>0</asrwt>
<pdfrwt beam="2">  1        4 0.95592029E-03 0.12500287E+03</pdfrwt>
<pdfrwt beam="1">  1       -4 0.25541025E+00 0.12500287E+03</pdfrwt>
<totfact> 0.35420415E+02</totfact>
</mgrwt>
</event>
<event>
 5    1  0.1440092E-002  0.1249959E+03  0.7818608E-02  0.1235076E+00
         -4   -1    0    0    0  501 -0.00000000000E+00  0.00000000000E+00  0.27886713518E+03  0.27887002705E+03  0.12700000000E+01 0. -1.
          4   -1    0    0  501    0  0.00000000000E+00 -0.00000000000E+00 -0.13974880423E+02  0.14032468879E+02  0.12700000000E+01 0. -1.
         25    2    1    2    0    0  0.00000000000E+00  0.00000000000E+00  0.26489225476E+03  0.29290249592E+03  0.12499586188E+03 0.  0.
    9000005    1    3    3    0    0 -0.38349743757E+02  0.81835710004E+01  0.24645947798E+03  0.24956151139E+03  0.10000000000E+01 0.  0.
    9000005    1    3    3    0    0  0.38349743757E+02 -0.81835710004E+01  0.18432776776E+02  0.43340984533E+02  0.10000000000E+01 0.  0.
<mgrwt>
<rscale>  0 0.12499586E+03</rscale>
<asrwt>0</asrwt>
<pdfrwt beam="2">  1        4 0.35012801E-02 0.12499586E+03</pdfrwt>
<pdfrwt beam="1">  1       -4 0.69724344E-01 0.12499586E+03</pdfrwt>
<totfact> 0.13173584E+03</totfact>
</mgrwt>
</event>
<event>
 5    1  0.1440092E-002  0.1250061E+03  0.7818608E-02  0.1235060E+00
          4   -1    0    0  501    0  0.00000000000E+00  0.00000000000E+00  0.96611921611E+01  0.97443077730E+01  0.12700000000E+01 0. -1.
         -4   -1    0    0    0  501 -0.00000000000E+00 -0.00000000000E+00 -0.40254732961E+03  0.40254933298E+03  0.12700000000E+01 0. -1.
         25    2    1    2    0    0  0.00000000000E+00  0.00000000000E+00 -0.39288613745E+03  0.41229364075E+03  0.12500611665E+03 0.  0.
    9000005    1    3    3    0    0 -0.29532799855E+01  0.32446972515E+02 -0.37233590030E+03  0.37376001732E+03  0.10000000000E+01 0.  0.
    9000005    1    3    3    0    0  0.29532799855E+01 -0.32446972515E+02 -0.20550237149E+02  0.38533623434E+02  0.10000000000E+01 0.  0.
<mgrwt>
<rscale>  0 0.12500612E+03</rscale>
<asrwt>0</asrwt>
<pdfrwt beam="1">  1        4 0.24259393E-02 0.12500612E+03</pdfrwt>
<pdfrwt beam="2">  1       -4 0.10064742E+00 0.12500612E+03</pdfrwt>
<totfact> 0.10318212E+03</totfact>
</mgrwt>
</event>
<event>
 5    1  0.1440092E-002  0.1249978E+03  0.7818608E-02  0.1235073E+00
         -4   -1    0    0    0  501 -0.00000000000E+00  0.00000000000E+00  0.39128289443E+03  0.39128495546E+03  0.12700000000E+01 0.  1.
          4   -1    0    0  501    0  0.00000000000E+00 -0.00000000000E+00 -0.99403479644E+01  0.10021148520E+02  0.12700000000E+01 0.  1.
         25    2    1    2    0    0  0.00000000000E+00  0.00000000000E+00  0.38134254646E+03  0.40130610398E+03  0.12499780538E+03 0.  0.
    9000005    1    3    3    0    0  0.18102653861E+02  0.45341795202E+02  0.31590272191E+03  0.31965467958E+03  0.10000000000E+01 0.  0.
    9000005    1    3    3    0    0 -0.18102653861E+02 -0.45341795202E+02  0.65439824553E+02  0.81651424400E+02  0.10000000000E+01 0.  0.
<mgrwt>
<rscale>  0 0.12499781E+03</rscale>
<asrwt>0</asrwt>
<pdfrwt beam="2">  1        4 0.24954446E-02 0.12499781E+03</pdfrwt>
<pdfrwt beam="1">  1       -4 0.97831085E-01 0.12499781E+03</pdfrwt>
<totfact> 0.10542872E+03</totfact>
</mgrwt>
</event>
<event>
 5    1  0.1440092E-002  0.1250006E+03  0.7818608E-02  0.1235068E+00
          4   -1    0    0  501    0  0.00000000000E+00  0.00000000000E+00  0.36825905353E+03  0.36826124342E+03  0.12700000000E+01 0. -1.
         -4   -1    0    0    0  501 -0.00000000000E+00 -0.00000000000E+00 -0.10567199953E+02  0.10643242685E+02  0.12700000000E+01 0. -1.
         25    2    1    2    0    0  0.00000000000E+00  0.00000000000E+00  0.35769185358E+03  0.37890448611E+03  0.12500058991E+03 0.  0.
    9000005    1    3    3    0    0 -0.36608549637E+02 -0.22138196279E+02  0.40767171411E+02  0.59103704671E+02  0.10000000000E+01 0.  0.
    9000005    1    3    3    0    0  0.36608549637E+02  0.22138196279E+02  0.31692468217E+03  0.31980078144E+03  0.10000000000E+01 0.  0.
<mgrwt>
<rscale>  0 0.12500059E+03</rscale>
<asrwt>0</asrwt>
<pdfrwt beam="1">  1        4 0.92074541E-01 0.12500059E+03</pdfrwt>
<pdfrwt beam="2">  1       -4 0.26515791E-02 0.12500059E+03</pdfrwt>
<totfact> 0.11016891E+03</totfact>
</mgrwt>
</event>
<event>
 5    1  0.1440092E-002  0.1250012E+03  0.7818608E-02  0.1235067E+00
          4   -1    0    0  501    0  0.00000000000E+00  0.00000000000E+00  0.11752991296E+03  0.11753677441E+03  0.12700000000E+01 0. -1.
         -4   -1    0    0    0  501 -0.00000000000E+00 -0.00000000000E+00 -0.33216890305E+02  0.33241159751E+02  0.12700000000E+01 0. -1.
         25    2    1    2    0    0  0.00000000000E+00  0.00000000000E+00  0.84313022651E+02  0.15077793416E+03  0.12500119856E+03 0.  0.
    9000005    1    3    3    0    0 -0.49104495755E+02  0.32349207238E+02  0.67675867701E+02  0.89659052980E+02  0.10000000000E+01 0.  0.
    9000005    1    3    3    0    0  0.49104495755E+02 -0.32349207238E+02  0.16637154950E+02  0.61118881184E+02  0.10000000000E+01 0.  0.
<mgrwt>
<rscale>  0 0.12500120E+03</rscale>
<asrwt>0</asrwt>
<pdfrwt beam="1">  1        4 0.29386369E-01 0.12500120E+03</pdfrwt>
<pdfrwt beam="2">  1       -4 0.83081140E-02 0.12500120E+03</pdfrwt>
<totfact> 0.18500080E+03</totfact>
</mgrwt>
</event>
<event>
 5    1  0.1440092E-002  0.1250008E+03  0.7818608E-02  0.1235068E+00
         -4   -1    0    0    0  501 -0.00000000000E+00  0.00000000000E+00  0.83494811480E+02  0.83504469606E+02  0.12700000000E+01 0.  1.
          4   -1    0    0  501    0  0.00000000000E+00 -0.00000000000E+00 -0.46763964130E+02  0.46781206068E+02  0.12700000000E+01 0.  1.
         25    2    1    2    0    0  0.00000000000E+00  0.00000000000E+00  0.36730847350E+02  0.13028567567E+03  0.12500080855E+03 0.  0.
    9000005    1    3    3    0    0  0.47461694179E+02  0.30175639627E+02 -0.10028184938E+02  0.57137957037E+02  0.10000000000E+01 0.  0.
    9000005    1    3    3    0    0 -0.47461694179E+02 -0.30175639627E+02  0.46759032288E+02  0.73147718637E+02  0.10000000000E+01 0.  0.
<mgrwt>
<rscale>  0 0.12500081E+03</rscale>
<asrwt>0</asrwt>
<pdfrwt beam="2">  1        4 0.11694354E-01 0.12500081E+03</pdfrwt>
<pdfrwt beam="1">  1       -4 0.20877065E-01 0.12500081E+03</pdfrwt>
<totfact> 0.19548668E+03</totfact>
</mgrwt>
</event>
<event>
 5    1  0.1440092E-002  0.1249988E+03  0.7818608E-02  0.1235071E+00
          4   -1    0    0  501    0  0.00000000000E+00  0.00000000000E+00  0.11908256992E+02  0.11975787431E+02  0.12700000000E+01 0. -1.
         -4   -1    0    0    0  501 -0.00000000000E+00 -0.00000000000E+00 -0.32702607340E+03  0.32702853940E+03  0.12700000000E+01 0. -1.
         25    2    1    2    0    0  0.00000000000E+00  0.00000000000E+00 -0.31511781641E+03  0.33900432683E+03  0.12499878157E+03 0.  0.
    9000005    1    3    3    0    0 -0.33016238419E+02  0.40308920384E+02 -0.25112669616E+03  0.25647709174E+03  0.10000000000E+01 0.  0.
    9000005    1    3    3    0    0  0.33016238419E+02 -0.40308920384E+02 -0.63991120249E+02  0.82527235096E+02  0.10000000000E+01 0.  0.
<mgrwt>
<rscale>  0 0.12499878E+03</rscale>
<asrwt>0</asrwt>
<pdfrwt beam="1">  1        4 0.29858149E-02 0.12499878E+03</pdfrwt>
<pdfrwt beam="2">  1       -4 0.81765238E-01 0.12499878E+03</pdfrwt>
<totfact> 0.11944588E+03</totfact>
</mgrwt>
</event>
<event>
 5    1  0.1440092E-002  0.1250004E+03  0.7818608E-02  0.1235069E+00
          4   -1    0    0  501    0  0.00000000000E+00  0.00000000000E+00  0.18359863640E+03  0.18360302881E+03  0.12700000000E+01 0. -1.
         -4   -1    0    0    0  501 -0.00000000000E+00 -0.00000000000E+00 -0.21252566485E+02  0.21290478675E+02  0.12700000000E+01 0. -1.
         25    2    1    2    0    0  0.00000000000E+00  0.00000000000E+00  0.16234606992E+03  0.20489350749E+03  0.12500041197E+03 0.  0.
    9000005    1    3    3    0    0 -0.34612828419E+02  0.27967083889E+00  0.16645808016E+03  0.17002181789E+03  0.10000000000E+01 0.  0.
    9000005    1    3    3    0    0  0.34612828419E+02 -0.27967083889E+00 -0.41120102479E+01  0.34871689595E+02  0.10000000000E+01 0.  0.
<mgrwt>
<rscale>  0 0.12500041E+03</rscale>
<asrwt>0</asrwt>
<pdfrwt beam="1">  1        4 0.45904947E-01 0.12500041E+03</pdfrwt>
<pdfrwt beam="2">  1       -4 0.53184297E-02 0.12500041E+03</pdfrwt>
<totfact> 0.16127802E+03</totfact>
</mgrwt>
</event>
<event>
 5    1  0.1440092E-002  0.1250027E+03  0.7818608E-02  0.1235065E+00
         -4   -1    0    0    0  501 -0.00000000000E+00  0.00000000000E+00  0.39165012665E+03  0.39165218576E+03  0.12700000000E+01 0. -1.
          4   -1    0    0  501    0  0.00000000000E+00 -0.00000000000E+00 -0.99317427042E+01  0.10012612703E+02  0.12700000000E+01 0. -1.
         25    2    1    2    0    0  0.00000000000E+00  0.00000000000E+00  0.38171838395E+03  0.40166479846E+03  0.12500274268E+03 0.  0.
    9000005    1    3    3    0    0 -0.22205294521E+01  0.60331898048E+02  0.13899208107E+03  0.15154097556E+03  0.10000000000E+01 0.  0.
    9000005    1    3    3    0    0  0.22205294521E+01 -0.60331898048E+02  0.24272630288E+03  0.25012382290E+03  0.10000000000E+01 0.  0.
<mgrwt>
<rscale>  0 0.12500274E+03</rscale>
<asrwt>0</asrwt>
<pdfrwt beam="2">  1        4 0.24933017E-02 0.12500274E+03</pdfrwt>
<pdfrwt beam="1">  1       -4 0.97922901E-01 0.12500274E+03</pdfrwt>
<totfact> 0.10534330E+03</totfact>
</mgrwt>
</event>
<event>
 5    1  0.1440092E-002  0.1250157E+03  0.7818608E-02  0.1235045E+00
         -4   -1    0    0    0  501 -0.00000000000E+00  0.00000000000E+00  0.44515158721E+02  0.44533271337E+02  0.12700000000E+01 0. -1.
          4   -1    0    0  501    0  0.00000000000E+00 -0.00000000000E+00 -0.87732500997E+02  0.87741692662E+02  0.12700000000E+01 0. -1.
         25    2    1    2    0    0  0.00000000000E+00  0.00000000000E+00 -0.43217342275E+02  0.13227496400E+03  0.12501570872E+03 0.  0.
    9000005    1    3    3    0    0  0.45176823444E+02 -0.24695606676E+02 -0.59097895961E+02  0.78386093618E+02  0.10000000000E+01 0.  0.
    9000005    1    3    3    0    0 -0.45176823444E+02  0.24695606676E+02  0.15880553686E+02  0.53888870381E+02  0.10000000000E+01 0.  0.
<mgrwt>
<rscale>  0 0.12501571E+03</rscale>
<asrwt>0</asrwt>
<pdfrwt beam="2">  1        4 0.21936538E-01 0.12501571E+03</pdfrwt>
<pdfrwt beam="1">  1       -4 0.11132203E-01 0.12501571E+03</pdfrwt>
<totfact> 0.19435717E+03</totfact>
</mgrwt>
</event>
<event>
 5    1  0.1440092E-002  0.1249555E+03  0.7818608E-02  0.1235139E+00
          4   -1    0    0  501    0  0.00000000000E+00  0.00000000000E+00  0.11404728998E+03  0.11405436095E+03  0.12700000000E+01 0.  1.
         -4   -1    0    0    0  501 -0.00000000000E+00 -0.00000000000E+00 -0.34206864081E+02  0.34230431640E+02  0.12700000000E+01 0.  1.
         25    2    1    2    0    0  0.00000000000E+00  0.00000000000E+00  0.79840425898E+02  0.14828479259E+03  0.12495553651E+03 0.  0.
    9000005    1    3    3    0    0 -0.36752866512E+02 -0.13559723243E+02 -0.17825078126E+02  0.43050815340E+02  0.10000000000E+01 0.  0.
    9000005    1    3    3    0    0  0.36752866512E+02  0.13559723243E+02  0.97665504024E+02  0.10523397725E+03  0.10000000000E+01 0.  0.
<mgrwt>
<rscale>  0 0.12495554E+03</rscale>
<asrwt>0</asrwt>
<pdfrwt beam="1">  1        4 0.28515652E-01 0.12495554E+03</pdfrwt>
<pdfrwt beam="2">  1       -4 0.85555459E-02 0.12495554E+03</pdfrwt>
<totfact> 0.18642728E+03</totfact>
</mgrwt>
</event>
<event>
 5    1  0.1440092E-002  0.1249968E+03  0.7818608E-02  0.1235074E+00
         -4   -1    0    0    0  501 -0.00000000000E+00  0.00000000000E+00  0.24179017579E+02  0.24212347906E+02  0.12700000000E+01 0. -1.
          4   -1    0    0  501    0  0.00000000000E+00 -0.00000000000E+00 -0.16140001009E+03  0.16140500661E+03  0.12700000000E+01 0. -1.
         25    2    1    2    0    0  0.00000000000E+00  0.00000000000E+00 -0.13722099251E+03  0.18561735451E+03  0.12499680600E+03 0.  0.
    9000005    1    3    3    0    0 -0.55933554344E+02  0.20417457720E+02 -0.40450101341E+02  0.71990595078E+02  0.10000000000E+01 0.  0.
    9000005    1    3    3    0    0  0.55933554344E+02 -0.20417457720E+02 -0.96770891173E+02  0.11362675943E+03  0.10000000000E+01 0.  0.
<mgrwt>
<rscale>  0 0.12499681E+03</rscale>
<asrwt>0</asrwt>
<pdfrwt beam="2">  1        4 0.40354790E-01 0.12499681E+03</pdfrwt>
<pdfrwt beam="1">  1       -4 0.60495457E-02 0.12499681E+03</pdfrwt>
<totfact> 0.16915871E+03</totfact>
</mgrwt>
</event>
<event>
 5    1  0.1440092E-002  0.1249988E+03  0.7818608E-02  0.1235071E+00
         -4   -1    0    0    0  501 -0.00000000000E+00  0.00000000000E+00  0.15168691522E+02  0.15221764106E+02  0.12700000000E+01 0.  1.
          4   -1    0    0  501    0  0.00000000000E+00 -0.00000000000E+00 -0.25701118677E+03  0.25701432455E+03  0.12700000000E+01 0.  1.
         25    2    1    2    0    0  0.00000000000E+00  0.00000000000E+00 -0.24184249525E+03  0.27223608866E+03  0.12499878183E+03 0.  0.
    9000005    1    3    3    0    0 -0.33048839372E+02  0.50051554217E+02 -0.15913037944E+03  0.17006134635E+03  0.10000000000E+01 0.  0.
    9000005    1    3    3    0    0  0.33048839372E+02 -0.50051554217E+02 -0.82712115811E+02  0.10217474231E+03  0.10000000000E+01 0.  0.
<mgrwt>
<rscale>  0 0.12499878E+03</rscale>
<asrwt>0</asrwt>
<pdfrwt beam="2">  1        4 0.64259809E-01 0.12499878E+03</pdfrwt>
<pdfrwt beam="1">  1       -4 0.37992000E-02 0.12499878E+03</pdfrwt>
<totfact> 0.13786879E+03</totfact>
</mgrwt>
</event>
<event>
 5    1  0.1440092E-002  0.1250207E+03  0.7818608E-02  0.1235037E+00
         -4   -1    0    0    0  501 -0.00000000000E+00  0.00000000000E+00  0.11666571132E+03  0.11667262360E+03  0.12700000000E+01 0.  1.
          4   -1    0    0  501    0  0.00000000000E+00 -0.00000000000E+00 -0.33473562639E+02  0.33497646122E+02  0.12700000000E+01 0.  1.
         25    2    1    2    0    0  0.00000000000E+00  0.00000000000E+00  0.83192148684E+02  0.15017026973E+03  0.12502070351E+03 0.  0.
    9000005    1    3    3    0    0  0.52971456368E+02 -0.24413879896E+01  0.81336401020E+02  0.97100698741E+02  0.10000000000E+01 0.  0.
    9000005    1    3    3    0    0 -0.52971456368E+02  0.24413879896E+01  0.18557476637E+01  0.53069570985E+02  0.10000000000E+01 0.  0.
<mgrwt>
<rscale>  0 0.12502070E+03</rscale>
<asrwt>0</asrwt>
<pdfrwt beam="2">  1        4 0.83722652E-02 0.12502070E+03</pdfrwt>
<pdfrwt beam="1">  1       -4 0.29170302E-01 0.12502070E+03</pdfrwt>
<totfact> 0.18521487E+03</totfact>
</mgrwt>
</event>
<event>
 5    1  0.1440092E-002  0.1250054E+03  0.7818608E-02  0.1235061E+00
          4   -1    0    0  501    0  0.00000000000E+00  0.00000000000E+00  0.13879695990E+02  0.13937677740E+02  0.12700000000E+01 0.  1.
         -4   -1    0    0    0  501 -0.00000000000E+00 -0.00000000000E+00 -0.28081470457E+03  0.28081757637E+03  0.12700000000E+01 0.  1.
         25    2    1    2    0    0  0.00000000000E+00  0.00000000000E+00 -0.26693500858E+03  0.29475525411E+03  0.12500544398E+03 0.  0.
    9000005    1    3    3    0    0 -0.40288335189E+01  0.22822374027E+02  0.33843780456E+01  0.23442403258E+02  0.10000000000E+01 0.  0.
    9000005    1    3    3    0    0  0.40288335189E+01 -0.22822374027E+02 -0.27031938662E+03  0.27131285086E+03  0.10000000000E+01 0.  0.
<mgrwt>
<rscale>  0 0.12500544E+03</rscale>
<asrwt>0</asrwt>
<pdfrwt beam="1">  1        4 0.34775316E-02 0.12500544E+03</pdfrwt>
<pdfrwt beam="2">  1       -4 0.70211264E-01 0.12500544E+03</pdfrwt>
<totfact> 0.13117698E+03</totfact>
</mgrwt>
</event>
<event>
 5    1  0.1440092E-002  0.1249986E+03  0.7818608E-02  0.1235071E+00
         -4   -1    0    0    0  501 -0.00000000000E+00  0.00000000000E+00  0.23716195114E+03  0.23716535153E+03  0.12700000000E+01 0. -1.
          4   -1    0    0  501    0  0.00000000000E+00 -0.00000000000E+00 -0.16442434979E+02  0.16491408916E+02  0.12700000000E+01 0. -1.
         25    2    1    2    0    0  0.00000000000E+00  0.00000000000E+00  0.22071951616E+03  0.25365676045E+03  0.12499858922E+03 0.  0.
    9000005    1    3    3    0    0  0.29150078963E+02 -0.86347691683E+01  0.22115299423E+03  0.22323515225E+03  0.10000000000E+01 0.  0.
    9000005    1    3    3    0    0 -0.29150078963E+02  0.86347691683E+01 -0.43347807258E+00  0.30421608199E+02  0.10000000000E+01 0.  0.
<mgrwt>
<rscale>  0 0.12499859E+03</rscale>
<asrwt>0</asrwt>
<pdfrwt beam="2">  1        4 0.41171555E-02 0.12499859E+03</pdfrwt>
<pdfrwt beam="1">  1       -4 0.59297035E-01 0.12499859E+03</pdfrwt>
<totfact> 0.14377595E+03</totfact>
</mgrwt>
</event>
<event>
 5    1  0.1440092E-002  0.1249845E+03  0.7818608E-02  0.1235093E+00
         -4   -1    0    0    0  501 -0.00000000000E+00  0.00000000000E+00  0.23024851121E+02  0.23059849721E+02  0.12700000000E+01 0.  1.
          4   -1    0    0  501    0  0.00000000000E+00 -0.00000000000E+00 -0.16944543911E+03  0.16945019839E+03  0.12700000000E+01 0.  1.
         25    2    1    2    0    0  0.00000000000E+00  0.00000000000E+00 -0.14642058799E+03  0.19251004811E+03  0.12498451919E+03 0.  0.
    9000005    1    3    3    0    0 -0.53620364708E+02  0.27862645523E+02 -0.48719886818E+02  0.77627945346E+02  0.10000000000E+01 0.  0.
    9000005    1    3    3    0    0  0.53620364708E+02 -0.27862645523E+02 -0.97700701172E+02  0.11488210277E+03  0.10000000000E+01 0.  0.
<mgrwt>
<rscale>  0 0.12498452E+03</rscale>
<asrwt>0</asrwt>
<pdfrwt beam="2">  1        4 0.42366326E-01 0.12498452E+03</pdfrwt>
<pdfrwt beam="1">  1       -4 0.57611830E-02 0.12498452E+03</pdfrwt>
<totfact> 0.16632368E+03</totfact>
</mgrwt>
</event>
<event>
 5    1  0.1440092E-002  0.1250006E+03  0.7818608E-02  0.1235068E+00
         -4   -1    0    0    0  501 -0.00000000000E+00  0.00000000000E+00  0.30335748069E+02  0.30362320579E+02  0.12700000000E+01 0.  1.
          4   -1    0    0  501    0  0.00000000000E+00 -0.00000000000E+00 -0.12868237386E+03  0.12868864069E+03  0.12700000000E+01 0.  1.
         25    2    1    2    0    0  0.00000000000E+00  0.00000000000E+00 -0.98346625791E+02  0.15905096127E+03  0.12500059790E+03 0.  0.
    9000005    1    3    3    0    0  0.26508482691E+01 -0.11942538310E+02  0.28803586686E+02  0.31309708140E+02  0.10000000000E+01 0.  0.
    9000005    1    3    3    0    0 -0.26508482691E+01  0.11942538310E+02 -0.12715021248E+03  0.12774125313E+03  0.10000000000E+01 0.  0.
<mgrwt>
<rscale>  0 0.12500060E+03</rscale>
<asrwt>0</asrwt>
<pdfrwt beam="2">  1        4 0.32174697E-01 0.12500060E+03</pdfrwt>
<pdfrwt beam="1">  1       -4 0.75880423E-02 0.12500060E+03</pdfrwt>
<totfact> 0.18102258E+03</totfact>
</mgrwt>
</event>
<event>
 5    1  0.1440092E-002  0.1249986E+03  0.7818608E-02  0.1235071E+00
         -4   -1    0    0    0  501 -0.00000000000E+00  0.00000000000E+00  0.69367693446E+02  0.69379318201E+02  0.12700000000E+01 0.  1.
          4   -1    0    0  501    0  0.00000000000E+00 -0.00000000000E+00 -0.56287464202E+02  0.56301789725E+02  0.12700000000E+01 0.  1.
         25    2    1    2    0    0  0.00000000000E+00  0.00000000000E+00  0.13080229244E+02  0.12568110793E+03  0.12499859396E+03 0.  0.
    9000005    1    3    3    0    0  0.21000735953E+02  0.47565142608E+01  0.65524789189E+02  0.68979368921E+02  0.10000000000E+01 0.  0.
    9000005    1    3    3    0    0 -0.21000735953E+02 -0.47565142608E+01 -0.52444559945E+02  0.56701739006E+02  0.10000000000E+01 0.  0.
<mgrwt>
<rscale>  0 0.12499859E+03</rscale>
<asrwt>0</asrwt>
<pdfrwt beam="2">  1        4 0.14075110E-01 0.12499859E+03</pdfrwt>
<pdfrwt beam="1">  1       -4 0.17345167E-01 0.12499859E+03</pdfrwt>
<totfact> 0.19798814E+03</totfact>
</mgrwt>
</event>
<event>
 5    1  0.1440092E-002  0.1250009E+03  0.7818608E-02  0.1235068E+00
          4   -1    0    0  501    0  0.00000000000E+00  0.00000000000E+00  0.36638754537E+03  0.36638974645E+03  0.12700000000E+01 0.  1.
         -4   -1    0    0    0  501 -0.00000000000E+00 -0.00000000000E+00 -0.10621612320E+02  0.10697268262E+02  0.12700000000E+01 0.  1.
         25    2    1    2    0    0  0.00000000000E+00  0.00000000000E+00  0.35576593305E+03  0.37708701471E+03  0.12500087017E+03 0.  0.
    9000005    1    3    3    0    0  0.19250687403E+02 -0.43625339563E+02  0.29973368432E+03  0.30350459755E+03  0.10000000000E+01 0.  0.
    9000005    1    3    3    0    0 -0.19250687403E+02  0.43625339563E+02  0.56032248729E+02  0.73582417160E+02  0.10000000000E+01 0.  0.
<mgrwt>
<rscale>  0 0.12500087E+03</rscale>
<asrwt>0</asrwt>
<pdfrwt beam="1">  1        4 0.91606621E-01 0.12500087E+03</pdfrwt>
<pdfrwt beam="2">  1       -4 0.26651351E-02 0.12500087E+03</pdfrwt>
<totfact> 0.11056691E+03</totfact>
</mgrwt>
</event>
<event>
 5    1  0.1440092E-002  0.1249921E+03  0.7818608E-02  0.1235082E+00
          4   -1    0    0  501    0  0.00000000000E+00  0.00000000000E+00  0.47840241590E+03  0.47840410161E+03  0.12700000000E+01 0.  1.
         -4   -1    0    0    0  501 -0.00000000000E+00 -0.00000000000E+00 -0.81130691039E+01  0.82118688668E+01  0.12700000000E+01 0.  1.
         25    2    1    2    0    0  0.00000000000E+00  0.00000000000E+00  0.47028934680E+03  0.48661597048E+03  0.12499213181E+03 0.  0.
    9000005    1    3    3    0    0 -0.49445996590E+02  0.39110325994E+00  0.86402098454E+02  0.99555924775E+02  0.10000000000E+01 0.  0.
    9000005    1    3    3    0    0  0.49445996590E+02 -0.39110325994E+00  0.38388724834E+03  0.38706004571E+03  0.10000000000E+01 0.  0.
<mgrwt>
<rscale>  0 0.12499213E+03</rscale>
<asrwt>0</asrwt>
<pdfrwt beam="1">  1        4 0.11961315E+00 0.12499213E+03</pdfrwt>
<pdfrwt beam="2">  1       -4 0.20408282E-02 0.12499213E+03</pdfrwt>
<totfact> 0.89790315E+02</totfact>
</mgrwt>
</event>
<event>
 5    1  0.1440092E-002  0.1249993E+03  0.7818608E-02  0.1235070E+00
         -4   -1    0    0    0  501 -0.00000000000E+00  0.00000000000E+00  0.72896878618E+02  0.72907940666E+02  0.12700000000E+01 0. -1.
          4   -1    0    0  501    0  0.00000000000E+00 -0.00000000000E+00 -0.53562700063E+02  0.53577754134E+02  0.12700000000E+01 0. -1.
         25    2    1    2    0    0  0.00000000000E+00  0.00000000000E+00  0.19334178554E+02  0.12648569480E+03  0.12499928211E+03 0.  0.
    9000005    1    3    3    0    0  0.48152641203E+02 -0.30948379015E+02 -0.15705491356E+02  0.59364479928E+02  0.10000000000E+01 0.  0.
    9000005    1    3    3    0    0 -0.48152641203E+02  0.30948379015E+02  0.35039669910E+02  0.67121214872E+02  0.10000000000E+01 0.  0.
<mgrwt>
<rscale>  0 0.12499928E+03</rscale>
<asrwt>0</asrwt>
<pdfrwt beam="2">  1        4 0.13393940E-01 0.12499928E+03</pdfrwt>
<pdfrwt beam="1">  1       -4 0.18227484E-01 0.12499928E+03</pdfrwt>
<totfact> 0.19755028E+03</totfact>
</mgrwt>
</event>
<event>
 5    1  0.1440092E-002  0.1250007E+03  0.7818608E-02  0.1235068E+00
          4   -1    0    0  501    0  0.00000000000E+00  0.00000000000E+00  0.63006204643E+01  0.64273414594E+01  0.12700000000E+01 0.  1.
         -4   -1    0    0    0  501 -0.00000000000E+00 -0.00000000000E+00 -0.61368554653E+03  0.61368686063E+03  0.12700000000E+01 0.  1.
         25    2    1    2    0    0  0.00000000000E+00  0.00000000000E+00 -0.60738492606E+03  0.62011420209E+03  0.12500070092E+03 0.  0.
    9000005    1    3    3    0    0  0.62105181563E+02 -0.56776042966E+01 -0.32353913147E+03  0.32949637078E+03  0.10000000000E+01 0.  0.
    9000005    1    3    3    0    0 -0.62105181563E+02  0.56776042966E+01 -0.28384579460E+03  0.29061783131E+03  0.10000000000E+01 0.  0.
<mgrwt>
<rscale>  0 0.12500070E+03</rscale>
<asrwt>0</asrwt>
<pdfrwt beam="1">  1        4 0.15911616E-02 0.12500070E+03</pdfrwt>
<pdfrwt beam="2">  1       -4 0.15343719E+00 0.12500070E+03</pdfrwt>
<totfact> 0.71027314E+02</totfact>
</mgrwt>
</event>
<event>
 5    1  0.1440092E-002  0.1250000E+03  0.7818608E-02  0.1235069E+00
         -4   -1    0    0    0  501 -0.00000000000E+00  0.00000000000E+00  0.11186720041E+03  0.11187440918E+03  0.12700000000E+01 0.  1.
          4   -1    0    0  501    0  0.00000000000E+00 -0.00000000000E+00 -0.34898744649E+02  0.34921845284E+02  0.12700000000E+01 0.  1.
         25    2    1    2    0    0  0.00000000000E+00  0.00000000000E+00  0.76968455766E+02  0.14679625446E+03  0.12499998856E+03 0.  0.
    9000005    1    3    3    0    0  0.27201920319E+02 -0.49793263778E+02  0.69241421330E+02  0.89524789944E+02  0.10000000000E+01 0.  0.
    9000005    1    3    3    0    0 -0.27201920319E+02  0.49793263778E+02  0.77270344361E+01  0.57271464517E+02  0.10000000000E+01 0.  0.
<mgrwt>
<rscale>  0 0.12499999E+03</rscale>
<asrwt>0</asrwt>
<pdfrwt beam="2">  1        4 0.87284750E-02 0.12499999E+03</pdfrwt>
<pdfrwt beam="1">  1       -4 0.27970588E-01 0.12499999E+03</pdfrwt>
<totfact> 0.18697444E+03</totfact>
</mgrwt>
</event>
<event>
 5    1  0.1440092E-002  0.1250027E+03  0.7818608E-02  0.1235065E+00
          4   -1    0    0  501    0  0.00000000000E+00  0.00000000000E+00  0.10790827328E+02  0.10865305077E+02  0.12700000000E+01 0.  1.
         -4   -1    0    0    0  501 -0.00000000000E+00 -0.00000000000E+00 -0.36069250839E+03  0.36069474422E+03  0.12700000000E+01 0.  1.
         25    2    1    2    0    0  0.00000000000E+00  0.00000000000E+00 -0.34990168106E+03  0.37156004930E+03  0.12500273527E+03 0.  0.
    9000005    1    3    3    0    0  0.28751525989E+02 -0.50320377695E+02 -0.24444628637E+03  0.25122455608E+03  0.10000000000E+01 0.  0.
    9000005    1    3    3    0    0 -0.28751525989E+02  0.50320377695E+02 -0.10545539469E+03  0.12033549322E+03  0.10000000000E+01 0.  0.
<mgrwt>
<rscale>  0 0.12500274E+03</rscale>
<asrwt>0</asrwt>
<pdfrwt beam="1">  1        4 0.27072972E-02 0.12500274E+03</pdfrwt>
<pdfrwt beam="2">  1       -4 0.90182676E-01 0.12500274E+03</pdfrwt>
<totfact> 0.11178781E+03</totfact>
</mgrwt>
</event>
<event>
 5    1  0.1440092E-002  0.1250125E+03  0.7818608E-02  0.1235050E+00
          4   -1    0    0  501    0  0.00000000000E+00  0.00000000000E+00  0.24927615575E+03  0.24927939090E+03  0.12700000000E+01 0.  1.
         -4   -1    0    0    0  501 -0.00000000000E+00 -0.00000000000E+00 -0.15644441241E+02  0.15695905254E+02  0.12700000000E+01 0.  1.
         25    2    1    2    0    0  0.00000000000E+00  0.00000000000E+00  0.23363171451E+03  0.26497529615E+03  0.12501251755E+03 0.  0.
    9000005    1    3    3    0    0 -0.49813364218E+02 -0.35654124450E+02  0.90559915120E+02  0.10933748704E+03  0.10000000000E+01 0.  0.
    9000005    1    3    3    0    0  0.49813364218E+02  0.35654124450E+02  0.14307179939E+03  0.15563780911E+03  0.10000000000E+01 0.  0.
<mgrwt>
<rscale>  0 0.12501252E+03</rscale>
<asrwt>0</asrwt>
<pdfrwt beam="1">  1        4 0.62325876E-01 0.12501252E+03</pdfrwt>
<pdfrwt beam="2">  1       -4 0.39179477E-02 0.12501252E+03</pdfrwt>
<totfact> 0.14008742E+03</totfact>
</mgrwt>
</event>
<event>
 5    1  0.1440092E-002  0.1249988E+03  0.7818608E-02  0.1235071E+00
          4   -1    0    0  501    0  0.00000000000E+00  0.00000000000E+00  0.70214968326E+03  0.70215083180E+03  0.12700000000E+01 0. -1.
         -4   -1    0    0    0  501 -0.00000000000E+00 -0.00000000000E+00 -0.54895169431E+01  0.56345094079E+01  0.12700000000E+01 0. -1.
         25    2    1    2    0    0  0.00000000000E+00  0.00000000000E+00  0.69666016631E+03  0.70778534121E+03  0.12499880760E+03 0.  0.
    9000005    1    3    3    0    0 -0.20535710891E+02 -0.58935768166E+02  0.33039264040E+03  0.33623717377E+03  0.10000000000E+01 0.  0.
    9000005    1    3    3    0    0  0.20535710891E+02  0.58935768166E+02  0.36626752591E+03  0.37154816744E+03  0.10000000000E+01 0.  0.
<mgrwt>
<rscale>  0 0.12499881E+03</rscale>
<asrwt>0</asrwt>
<pdfrwt beam="1">  1        4 0.17555571E+00 0.12499881E+03</pdfrwt>
<pdfrwt beam="2">  1       -4 0.13906467E-02 0.12499881E+03</pdfrwt>
<totfact> 0.61259743E+02</totfact>
</mgrwt>
</event>
<event>
 5    1  0.1440092E-002  0.1249989E+03  0.7818608E-02  0.1235071E+00
         -4   -1    0    0    0  501 -0.00000000000E+00  0.00000000000E+00  0.25183953817E+02  0.25215955858E+02  0.12700000000E+01 0. -1.
          4   -1    0    0  501    0  0.00000000000E+00 -0.00000000000E+00 -0.15497288395E+03  0.15497808767E+03  0.12700000000E+01 0. -1.
         25    2    1    2    0    0  0.00000000000E+00  0.00000000000E+00 -0.12978893013E+03  0.18019404353E+03  0.12499890775E+03 0.  0.
    9000005    1    3    3    0    0  0.54200800249E+02  0.25376128702E+02 -0.38966041824E+02  0.71421474858E+02  0.10000000000E+01 0.  0.
    9000005    1    3    3    0    0 -0.54200800249E+02 -0.25376128702E+02 -0.90822888306E+02  0.10877256867E+03  0.10000000000E+01 0.  0.
<mgrwt>
<rscale>  0 0.12499891E+03</rscale>
<asrwt>0</asrwt>
<pdfrwt beam="2">  1        4 0.38747869E-01 0.12499891E+03</pdfrwt>
<pdfrwt beam="1">  1       -4 0.63006396E-02 0.12499891E+03</pdfrwt>
<totfact> 0.17147253E+03</totfact>
</mgrwt>
</event>
<event>
 5    1  0.1440092E-002  0.1250043E+03  0.7818608E-02  0.1235063E+00
         -4   -1    0    0    0  501 -0.00000000000E+00  0.00000000000E+00  0.85431665766E+01  0.86370478264E+01  0.12700000000E+01 0. -1.
          4   -1    0    0  501    0  0.00000000000E+00 -0.00000000000E+00 -0.45467438130E+03  0.45467615498E+03  0.12700000000E+01 0. -1.
         25    2    1    2    0    0  0.00000000000E+00  0.00000000000E+00 -0.44613121472E+03  0.46331320281E+03  0.12500425252E+03 0.  0.
    9000005    1    3    3    0    0 -0.48218595413E+01  0.56890438259E+02 -0.31725020954E+03  0.32234836396E+03  0.10000000000E+01 0.  0.
    9000005    1    3    3    0    0  0.48218595413E+01 -0.56890438259E+02 -0.12888100518E+03  0.14096483885E+03  0.10000000000E+01 0.  0.
<mgrwt>
<rscale>  0 0.12500425E+03</rscale>
<asrwt>0</asrwt>
<pdfrwt beam="2">  1        4 0.11368047E+00 0.12500425E+03</pdfrwt>
<pdfrwt beam="1">  1       -4 0.21477500E-02 0.12500425E+03</pdfrwt>
<totfact> 0.93666000E+02</totfact>
</mgrwt>
</event>
<event>
 5    1  0.1440092E-002  0.1250028E+03  0.7818608E-02  0.1235065E+00
         -4   -1    0    0    0  501 -0.00000000000E+00  0.00000000000E+00  0.22639825407E+03  0.22640181613E+03  0.12700000000E+01 0.  1.
          4   -1    0    0  501    0  0.00000000000E+00 -0.00000000000E+00 -0.17227594117E+02  0.17274342218E+02  0.12700000000E+01 0.  1.
         25    2    1    2    0    0  0.00000000000E+00  0.00000000000E+00  0.20917065995E+03  0.24367615835E+03  0.12500282061E+03 0.  0.
    9000005    1    3    3    0    0  0.36577865996E+02 -0.37282567968E+02  0.37693516256E+02  0.64418408261E+02  0.10000000000E+01 0.  0.
    9000005    1    3    3    0    0 -0.36577865996E+02  0.37282567968E+02  0.17147714370E+03  0.17925775009E+03  0.10000000000E+01 0.  0.
<mgrwt>
<rscale>  0 0.12500282E+03</rscale>
<asrwt>0</asrwt>
<pdfrwt beam="2">  1        4 0.43131873E-02 0.12500282E+03</pdfrwt>
<pdfrwt beam="1">  1       -4 0.56605852E-01 0.12500282E+03</pdfrwt>
<totfact> 0.14709683E+03</totfact>
</mgrwt>
</event>
<event>
 5    1  0.1440092E-002  0.1249880E+03  0.7818608E-02  0.1235088E+00
         -4   -1    0    0    0  501 -0.00000000000E+00  0.00000000000E+00  0.39771280163E+02  0.39791552192E+02  0.12700000000E+01 0. -1.
          4   -1    0    0  501    0  0.00000000000E+00 -0.00000000000E+00 -0.98149555886E+02  0.98157772085E+02  0.12700000000E+01 0. -1.
         25    2    1    2    0    0  0.00000000000E+00  0.00000000000E+00 -0.58378275723E+02  0.13794932428E+03  0.12498797139E+03 0.  0.
    9000005    1    3    3    0    0 -0.64334755061E+01  0.11791153476E+02  0.38164445177E+02  0.40471542879E+02  0.10000000000E+01 0.  0.
    9000005    1    3    3    0    0  0.64334755061E+01 -0.11791153476E+02 -0.96542720899E+02  0.97477781397E+02  0.10000000000E+01 0.  0.
<mgrwt>
<rscale>  0 0.12498797E+03</rscale>
<asrwt>0</asrwt>
<pdfrwt beam="2">  1        4 0.24540950E-01 0.12498797E+03</pdfrwt>
<pdfrwt beam="1">  1       -4 0.99463813E-02 0.12498797E+03</pdfrwt>
<totfact> 0.19151120E+03</totfact>
</mgrwt>
</event>
<event>
 5    1  0.1440092E-002  0.1249992E+03  0.7818608E-02  0.1235070E+00
         -4   -1    0    0    0  501 -0.00000000000E+00  0.00000000000E+00  0.27759285340E+01  0.30526511799E+01  0.12700000000E+01 0.  1.
          4   -1    0    0  501    0  0.00000000000E+00 -0.00000000000E+00 -0.13400845407E+04  0.13400851424E+04  0.12700000000E+01 0.  1.
         25    2    1    2    0    0  0.00000000000E+00  0.00000000000E+00 -0.13373086121E+04  0.13431377936E+04  0.12499923444E+03 0.  0.
    9000005    1    3    3    0    0 -0.20495507116E+02  0.40208586857E+02 -0.11331148533E+04  0.11340136979E+04  0.10000000000E+01 0.  0.
    9000005    1    3    3    0    0  0.20495507116E+02 -0.40208586857E+02 -0.20419375882E+03  0.20912409572E+03  0.10000000000E+01 0.  0.
<mgrwt>
<rscale>  0 0.12499923E+03</rscale>
<asrwt>0</asrwt>
<pdfrwt beam="2">  1        4 0.33505369E+00 0.12499923E+03</pdfrwt>
<pdfrwt beam="1">  1       -4 0.72865228E-03 0.12499923E+03</pdfrwt>
<totfact> 0.18414028E+02</totfact>
</mgrwt>
</event>
<event>
 5    1  0.1440092E-002  0.1249976E+03  0.7818608E-02  0.1235073E+00
         -4   -1    0    0    0  501 -0.00000000000E+00  0.00000000000E+00  0.27824230342E+02  0.27853198993E+02  0.12700000000E+01 0. -1.
          4   -1    0    0  501    0  0.00000000000E+00 -0.00000000000E+00 -0.14027986165E+03  0.14028561040E+03  0.12700000000E+01 0. -1.
         25    2    1    2    0    0  0.00000000000E+00  0.00000000000E+00 -0.11245563131E+03  0.16813880939E+03  0.12499756082E+03 0.  0.
    9000005    1    3    3    0    0 -0.36938025347E+01  0.22447899957E+02  0.22062668079E+02  0.31706682457E+02  0.10000000000E+01 0.  0.
    9000005    1    3    3    0    0  0.36938025347E+01 -0.22447899957E+02 -0.13451829939E+03  0.13643212694E+03  0.10000000000E+01 0.  0.
<mgrwt>
<rscale>  0 0.12499756E+03</rscale>
<asrwt>0</asrwt>
<pdfrwt beam="2">  1        4 0.35074303E-01 0.12499756E+03</pdfrwt>
<pdfrwt beam="1">  1       -4 0.69603976E-02 0.12499756E+03</pdfrwt>
<totfact> 0.17682324E+03</totfact>
</mgrwt>
</event>
<event>
 5    1  0.1440092E-002  0.1249996E+03  0.7818608E-02  0.1235070E+00
         -4   -1    0    0    0  501 -0.00000000000E+00  0.00000000000E+00  0.16820122285E+02  0.16867999694E+02  0.12700000000E+01 0. -1.
          4   -1    0    0  501    0  0.00000000000E+00 -0.00000000000E+00 -0.23185558229E+03  0.23185906051E+03  0.12700000000E+01 0. -1.
         25    2    1    2    0    0  0.00000000000E+00  0.00000000000E+00 -0.21503546001E+03  0.24872706020E+03  0.12499960567E+03 0.  0.
    9000005    1    3    3    0    0  0.25173205848E+02  0.42451225747E+02 -0.18379385511E+03  0.19030758796E+03  0.10000000000E+01 0.  0.
    9000005    1    3    3    0    0 -0.25173205848E+02 -0.42451225747E+02 -0.31241604894E+02  0.58419472237E+02  0.10000000000E+01 0.  0.
<mgrwt>
<rscale>  0 0.12499961E+03</rscale>
<asrwt>0</asrwt>
<pdfrwt beam="2">  1        4 0.57970305E-01 0.12499961E+03</pdfrwt>
<pdfrwt beam="1">  1       -4 0.42114508E-02 0.12499961E+03</pdfrwt>
<totfact> 0.14540562E+03</totfact>
</mgrwt>
</event>
<event>
 5    1  0.1440092E-002  0.1250003E+03  0.7818608E-02  0.1235069E+00
          4   -1    0    0  501    0  0.00000000000E+00  0.00000000000E+00  0.30729931276E+02  0.30756163224E+02  0.12700000000E+01 0. -1.
         -4   -1    0    0    0  501 -0.00000000000E+00 -0.00000000000E+00 -0.12703254042E+03  0.12703888864E+03  0.12700000000E+01 0. -1.
         25    2    1    2    0    0  0.00000000000E+00  0.00000000000E+00 -0.96302609147E+02  0.15779505186E+03  0.12500034345E+03 0.  0.
    9000005    1    3    3    0    0  0.57567064111E+02 -0.11324741362E+02 -0.20987013037E+02  0.62319109056E+02  0.10000000000E+01 0.  0.
    9000005    1    3    3    0    0 -0.57567064111E+02  0.11324741362E+02 -0.75315596110E+02  0.95475942806E+02  0.10000000000E+01 0.  0.
<mgrwt>
<rscale>  0 0.12500034E+03</rscale>
<asrwt>0</asrwt>
<pdfrwt beam="1">  1        4 0.76865557E-02 0.12500034E+03</pdfrwt>
<pdfrwt beam="2">  1       -4 0.31762206E-01 0.12500034E+03</pdfrwt>
<totfact> 0.18161874E+03</totfact>
</mgrwt>
</event>
<event>
 5    1  0.1440092E-002  0.1250038E+03  0.7818608E-02  0.1235063E+00
         -4   -1    0    0    0  501 -0.00000000000E+00  0.00000000000E+00  0.49258432237E+02  0.49274801334E+02  0.12700000000E+01 0. -1.
          4   -1    0    0  501    0  0.00000000000E+00 -0.00000000000E+00 -0.79271314037E+02  0.79281486673E+02  0.12700000000E+01 0. -1.
         25    2    1    2    0    0  0.00000000000E+00  0.00000000000E+00 -0.30012881800E+02  0.12855628801E+03  0.12500378439E+03 0.  0.
    9000005    1    3    3    0    0 -0.55628218761E+02 -0.27664422199E+02 -0.21956268304E+02  0.65900657781E+02  0.10000000000E+01 0.  0.
    9000005    1    3    3    0    0  0.55628218761E+02  0.27664422199E+02 -0.80566134953E+01  0.62655630226E+02  0.10000000000E+01 0.  0.
<mgrwt>
<rscale>  0 0.12500378E+03</rscale>
<asrwt>0</asrwt>
<pdfrwt beam="2">  1        4 0.19821146E-01 0.12500378E+03</pdfrwt>
<pdfrwt beam="1">  1       -4 0.12317926E-01 0.12500378E+03</pdfrwt>
<totfact> 0.19640585E+03</totfact>
</mgrwt>
</event>
<event>
 5    1  0.1440092E-002  0.1249977E+03  0.7818608E-02  0.1235073E+00
          4   -1    0    0  501    0  0.00000000000E+00  0.00000000000E+00  0.39649338131E+02  0.39669672474E+02  0.12700000000E+01 0.  1.
         -4   -1    0    0    0  501 -0.00000000000E+00 -0.00000000000E+00 -0.98466578808E+02  0.98474768556E+02  0.12700000000E+01 0.  1.
         25    2    1    2    0    0  0.00000000000E+00  0.00000000000E+00 -0.58817240677E+02  0.13814444103E+03  0.12499767512E+03 0.  0.
    9000005    1    3    3    0    0  0.21314271028E+02  0.58412786390E+02 -0.36288546371E+02  0.72001460825E+02  0.10000000000E+01 0.  0.
    9000005    1    3    3    0    0 -0.21314271028E+02 -0.58412786390E+02 -0.22528694306E+02  0.66142980205E+02  0.10000000000E+01 0.  0.
<mgrwt>
<rscale>  0 0.12499768E+03</rscale>
<asrwt>0</asrwt>
<pdfrwt beam="1">  1        4 0.99159002E-02 0.12499768E+03</pdfrwt>
<pdfrwt beam="2">  1       -4 0.24620210E-01 0.12499768E+03</pdfrwt>
<totfact> 0.19136713E+03</totfact>
</mgrwt>
</event>
<event>
 5    1  0.1440092E-002  0.1249867E+03  0.7818608E-02  0.1235090E+00
         -4   -1    0    0    0  501 -0.00000000000E+00  0.00000000000E+00  0.30825784864E+01  0.33339451293E+01  0.12700000000E+01 0.  1.
          4   -1    0    0  501    0  0.00000000000E+00 -0.00000000000E+00 -0.12170494654E+04  0.12170501281E+04  0.12700000000E+01 0.  1.
         25    2    1    2    0    0  0.00000000000E+00  0.00000000000E+00 -0.12139668870E+04  0.12203840732E+04  0.12498673326E+03 0.  0.
    9000005    1    3    3    0    0 -0.48495415607E+02  0.23884115170E+02 -0.30098110308E+03  0.30579875850E+03  0.10000000000E+01 0.  0.
    9000005    1    3    3    0    0  0.48495415607E+02 -0.23884115170E+02 -0.91298578387E+03  0.91458531469E+03  0.10000000000E+01 0.  0.
<mgrwt>
<rscale>  0 0.12498673E+03</rscale>
<asrwt>0</asrwt>
<pdfrwt beam="2">  1        4 0.30429229E+00 0.12498673E+03</pdfrwt>
<pdfrwt beam="1">  1       -4 0.80215245E-03 0.12498673E+03</pdfrwt>
<totfact> 0.24159707E+02</totfact>
</mgrwt>
</event>
<event>
 4    1  0.1440092E-002  0.1343570E+03  0.7818608E-02  0.1221130E+00
          4   -1    0    0  501    0  0.00000000000E+00  0.00000000000E+00  0.11712373094E+02  0.11781026420E+02  0.12700000000E+01 0. -1.
         -4   -1    0    0    0  501 -0.00000000000E+00 -0.00000000000E+00 -0.38411919795E+03  0.38412129742E+03  0.12700000000E+01 0. -1.
    9000005    1    1    2    0    0 -0.56189500778E+02 -0.19723030627E+02 -0.27777219230E+03  0.28408563630E+03  0.10000000000E+01 0.  0.
    9000005    1    1    2    0    0  0.56189500778E+02  0.19723030627E+02 -0.94634632553E+02  0.11181668754E+03  0.10000000000E+01 0.  0.
<mgrwt>
<rscale>  0 0.13435701E+03</rscale>
<asrwt>0</asrwt>
<pdfrwt beam="1">  1        4 0.29369386E-02 0.13435701E+03</pdfrwt>
<pdfrwt beam="2">  1       -4 0.96038602E-01 0.13435701E+03</pdfrwt>
<totfact> 0.86658711E+02</totfact>
</mgrwt>
</event>
<event>
 5    1  0.1440092E-002  0.1249996E+03  0.7818608E-02  0.1235070E+00
         -4   -1    0    0    0  501 -0.00000000000E+00  0.00000000000E+00  0.20958926406E+03  0.20959311179E+03  0.12700000000E+01 0. -1.
          4   -1    0    0  501    0  0.00000000000E+00 -0.00000000000E+00 -0.18611867999E+02  0.18655147558E+02  0.12700000000E+01 0. -1.
         25    2    1    2    0    0  0.00000000000E+00  0.00000000000E+00  0.19097739606E+03  0.22824825935E+03  0.12499960835E+03 0.  0.
    9000005    1    3    3    0    0  0.16454709063E+02 -0.24666727377E+02  0.19593518780E+03  0.19816862191E+03  0.10000000000E+01 0.  0.
    9000005    1    3    3    0    0 -0.16454709063E+02  0.24666727377E+02 -0.49577917367E+01  0.30079637443E+02  0.10000000000E+01 0.  0.
<mgrwt>
<rscale>  0 0.12499961E+03</rscale>
<asrwt>0</asrwt>
<pdfrwt beam="2">  1        4 0.46588580E-02 0.12499961E+03</pdfrwt>
<pdfrwt beam="1">  1       -4 0.52403206E-01 0.12499961E+03</pdfrwt>
<totfact> 0.15250246E+03</totfact>
</mgrwt>
</event>
<event>
 5    1  0.1440092E-002  0.1250074E+03  0.7818608E-02  0.1235058E+00
          4   -1    0    0  501    0  0.00000000000E+00  0.00000000000E+00  0.33186317245E+03  0.33186560251E+03  0.12700000000E+01 0. -1.
         -4   -1    0    0    0  501 -0.00000000000E+00 -0.00000000000E+00 -0.11735315489E+02  0.11803835378E+02  0.12700000000E+01 0. -1.
         25    2    1    2    0    0  0.00000000000E+00  0.00000000000E+00  0.32012785696E+03  0.34366943789E+03  0.12500735073E+03 0.  0.
    9000005    1    3    3    0    0  0.47514502600E+02 -0.40160472089E+02  0.14374891460E+03  0.15663729417E+03  0.10000000000E+01 0.  0.
    9000005    1    3    3    0    0 -0.47514502600E+02  0.40160472089E+02  0.17637894237E+03  0.18703214372E+03  0.10000000000E+01 0.  0.
<mgrwt>
<rscale>  0 0.12500735E+03</rscale>
<asrwt>0</asrwt>
<pdfrwt beam="1">  1        4 0.82974655E-01 0.12500735E+03</pdfrwt>
<pdfrwt beam="2">  1       -4 0.29426978E-02 0.12500735E+03</pdfrwt>
<totfact> 0.11827778E+03</totfact>
</mgrwt>
</event>
<event>
 5    1  0.1440092E-002  0.1250069E+03  0.7818608E-02  0.1235059E+00
          4   -1    0    0  501    0  0.00000000000E+00  0.00000000000E+00  0.50146346610E+01  0.51729547440E+01  0.12700000000E+01 0.  1.
         -4   -1    0    0    0  501 -0.00000000000E+00 -0.00000000000E+00 -0.76679000548E+03  0.76679105720E+03  0.12700000000E+01 0.  1.
         25    2    1    2    0    0  0.00000000000E+00  0.00000000000E+00 -0.76177537082E+03  0.77196401195E+03  0.12500688042E+03 0.  0.
    9000005    1    3    3    0    0  0.39800218275E+02 -0.39870915083E+02 -0.54795778831E+03  0.55084706136E+03  0.10000000000E+01 0.  0.
    9000005    1    3    3    0    0 -0.39800218275E+02  0.39870915083E+02 -0.21381758252E+03  0.22111695059E+03  0.10000000000E+01 0.  0.
<mgrwt>
<rscale>  0 0.12500688E+03</rscale>
<asrwt>0</asrwt>
<pdfrwt beam="1">  1        4 0.12735828E-02 0.12500688E+03</pdfrwt>
<pdfrwt beam="2">  1       -4 0.19171703E+00 0.12500688E+03</pdfrwt>
<totfact> 0.55003360E+02</totfact>
</mgrwt>
</event>
<event>
 5    1  0.1440092E-002  0.1250061E+03  0.7818608E-02  0.1235060E+00
         -4   -1    0    0    0  501 -0.00000000000E+00  0.00000000000E+00  0.19807689303E+02  0.19848361532E+02  0.12700000000E+01 0.  1.
          4   -1    0    0  501    0  0.00000000000E+00 -0.00000000000E+00 -0.19698310520E+03  0.19698719916E+03  0.12700000000E+01 0.  1.
         25    2    1    2    0    0  0.00000000000E+00  0.00000000000E+00 -0.17717541590E+03  0.21683556069E+03  0.12500612938E+03 0.  0.
    9000005    1    3    3    0    0 -0.37464794775E+00 -0.27905897440E+02 -0.18558196706E+03  0.18767137760E+03  0.10000000000E+01 0.  0.
    9000005    1    3    3    0    0  0.37464794775E+00  0.27905897440E+02  0.84065511639E+01  0.29164183093E+02  0.10000000000E+01 0.  0.
<mgrwt>
<rscale>  0 0.12500613E+03</rscale>
<asrwt>0</asrwt>
<pdfrwt beam="2">  1        4 0.49251366E-01 0.12500613E+03</pdfrwt>
<pdfrwt beam="1">  1       -4 0.49575187E-02 0.12500613E+03</pdfrwt>
<totfact> 0.15667184E+03</totfact>
</mgrwt>
</event>
<event>
 5    1  0.1440092E-002  0.1249997E+03  0.7818608E-02  0.1235070E+00
         -4   -1    0    0    0  501 -0.00000000000E+00  0.00000000000E+00  0.24528576149E+02  0.24561432123E+02  0.12700000000E+01 0.  1.
          4   -1    0    0  501    0  0.00000000000E+00 -0.00000000000E+00 -0.15911025412E+03  0.15911532254E+03  0.12700000000E+01 0.  1.
         25    2    1    2    0    0  0.00000000000E+00  0.00000000000E+00 -0.13458167797E+03  0.18367675466E+03  0.12499968863E+03 0.  0.
    9000005    1    3    3    0    0  0.22833771571E+02 -0.13327573153E+02  0.15912791840E+02  0.30874297959E+02  0.10000000000E+01 0.  0.
    9000005    1    3    3    0    0 -0.22833771571E+02  0.13327573153E+02 -0.15049446981E+03  0.15280245670E+03  0.10000000000E+01 0.  0.
<mgrwt>
<rscale>  0 0.12499969E+03</rscale>
<asrwt>0</asrwt>
<pdfrwt beam="2">  1        4 0.39782301E-01 0.12499969E+03</pdfrwt>
<pdfrwt beam="1">  1       -4 0.61368850E-02 0.12499969E+03</pdfrwt>
<totfact> 0.16997334E+03</totfact>
</mgrwt>
</event>
<event>
 5    1  0.1440092E-002  0.1249960E+03  0.7818608E-02  0.1235075E+00
         -4   -1    0    0    0  501 -0.00000000000E+00  0.00000000000E+00  0.17436812961E+03  0.17437275454E+03  0.12700000000E+01 0. -1.
          4   -1    0    0  501    0  0.00000000000E+00 -0.00000000000E+00 -0.22377966962E+02  0.22413975670E+02  0.12700000000E+01 0. -1.
         25    2    1    2    0    0  0.00000000000E+00  0.00000000000E+00  0.15199016265E+03  0.19678673021E+03  0.12499603051E+03 0.  0.
    9000005    1    3    3    0    0 -0.55304043724E+02  0.31723743468E+01  0.12152603866E+03  0.13355964691E+03  0.10000000000E+01 0.  0.
    9000005    1    3    3    0    0  0.55304043724E+02 -0.31723743468E+01  0.30464123991E+02  0.63227083294E+02  0.10000000000E+01 0.  0.
<mgrwt>
<rscale>  0 0.12499603E+03</rscale>
<asrwt>0</asrwt>
<pdfrwt beam="2">  1        4 0.55995710E-02 0.12499603E+03</pdfrwt>
<pdfrwt beam="1">  1       -4 0.43597111E-01 0.12499603E+03</pdfrwt>
<totfact> 0.16453029E+03</totfact>
</mgrwt>
</event>
<event>
 5    1  0.1440092E-002  0.1249949E+03  0.7818608E-02  0.1235077E+00
          4   -1    0    0  501    0  0.00000000000E+00  0.00000000000E+00  0.14948972411E+02  0.15002822273E+02  0.12700000000E+01 0. -1.
         -4   -1    0    0    0  501 -0.00000000000E+00 -0.00000000000E+00 -0.26075905316E+03  0.26076214585E+03  0.12700000000E+01 0. -1.
         25    2    1    2    0    0  0.00000000000E+00  0.00000000000E+00 -0.24581008075E+03  0.27576496812E+03  0.12499488727E+03 0.  0.
    9000005    1    3    3    0    0 -0.32642545606E+02 -0.46413029706E+02 -0.65153502149E+02  0.86404189438E+02  0.10000000000E+01 0.  0.
    9000005    1    3    3    0    0  0.32642545606E+02  0.46413029706E+02 -0.18065657860E+03  0.18936077868E+03  0.10000000000E+01 0.  0.
<mgrwt>
<rscale>  0 0.12499489E+03</rscale>
<asrwt>0</asrwt>
<pdfrwt beam="1">  1        4 0.37443618E-02 0.12499489E+03</pdfrwt>
<pdfrwt beam="2">  1       -4 0.65196866E-01 0.12499489E+03</pdfrwt>
<totfact> 0.13680152E+03</totfact>
</mgrwt>
</event>
<event>
 5    1  0.1440092E-002  0.1250005E+03  0.7818608E-02  0.1235068E+00
         -4   -1    0    0    0  501 -0.00000000000E+00  0.00000000000E+00  0.40854169118E+02  0.40873904075E+02  0.12700000000E+01 0. -1.
          4   -1    0    0  501    0  0.00000000000E+00 -0.00000000000E+00 -0.95568216117E+02  0.95576654219E+02  0.12700000000E+01 0. -1.
         25    2    1    2    0    0  0.00000000000E+00  0.00000000000E+00 -0.54714046999E+02  0.13645055829E+03  0.12500051168E+03 0.  0.
    9000005    1    3    3    0    0 -0.31498931834E+02  0.27485323807E+02 -0.78062474961E+02  0.88557189027E+02  0.10000000000E+01 0.  0.
    9000005    1    3    3    0    0  0.31498931834E+02 -0.27485323807E+02  0.23348427962E+02  0.47893369267E+02  0.10000000000E+01 0.  0.
<mgrwt>
<rscale>  0 0.12500051E+03</rscale>
<asrwt>0</asrwt>
<pdfrwt beam="2">  1        4 0.23895575E-01 0.12500051E+03</pdfrwt>
<pdfrwt beam="1">  1       -4 0.10217064E-01 0.12500051E+03</pdfrwt>
<totfact> 0.19223196E+03</totfact>
</mgrwt>
</event>
<event>
 5    1  0.1440092E-002  0.1250022E+03  0.7818608E-02  0.1235066E+00
          4   -1    0    0  501    0  0.00000000000E+00  0.00000000000E+00  0.25761598946E+02  0.25792884295E+02  0.12700000000E+01 0.  1.
         -4   -1    0    0    0  501 -0.00000000000E+00 -0.00000000000E+00 -0.15151006269E+03  0.15151538534E+03  0.12700000000E+01 0.  1.
         25    2    1    2    0    0  0.00000000000E+00  0.00000000000E+00 -0.12574846374E+03  0.17730826964E+03  0.12500218537E+03 0.  0.
    9000005    1    3    3    0    0 -0.53176744385E+02  0.30509679260E+02 -0.80059040570E+02  0.10084174061E+03  0.10000000000E+01 0.  0.
    9000005    1    3    3    0    0  0.53176744385E+02 -0.30509679260E+02 -0.45689423171E+02  0.76466529029E+02  0.10000000000E+01 0.  0.
<mgrwt>
<rscale>  0 0.12500219E+03</rscale>
<asrwt>0</asrwt>
<pdfrwt beam="1">  1        4 0.64449762E-02 0.12500219E+03</pdfrwt>
<pdfrwt beam="2">  1       -4 0.37882089E-01 0.12500219E+03</pdfrwt>
<totfact> 0.17271488E+03</totfact>
</mgrwt>
</event>
<event>
 5    1  0.1440092E-002  0.1249997E+03  0.7818608E-02  0.1235070E+00
         -4   -1    0    0    0  501 -0.00000000000E+00  0.00000000000E+00  0.92438718069E+01  0.93307055458E+01  0.12700000000E+01 0.  1.
          4   -1    0    0  501    0  0.00000000000E+00 -0.00000000000E+00 -0.42051206972E+03  0.42051398750E+03  0.12700000000E+01 0.  1.
         25    2    1    2    0    0  0.00000000000E+00  0.00000000000E+00 -0.41126819791E+03  0.42984469304E+03  0.12499971809E+03 0.  0.
    9000005    1    3    3    0    0 -0.27480353556E+02 -0.10164545382E+02 -0.39544474104E+03  0.39652998755E+03  0.10000000000E+01 0.  0.
    9000005    1    3    3    0    0  0.27480353556E+02  0.10164545382E+02 -0.15823456877E+02  0.33314705491E+02  0.10000000000E+01 0.  0.
<mgrwt>
<rscale>  0 0.12499972E+03</rscale>
<asrwt>0</asrwt>
<pdfrwt beam="2">  1        4 0.10513905E+00 0.12499972E+03</pdfrwt>
<pdfrwt beam="1">  1       -4 0.23220633E-02 0.12499972E+03</pdfrwt>
<totfact> 0.99751877E+02</totfact>
</mgrwt>
</event>
<event>
 5    1  0.1440092E-002  0.1249984E+03  0.7818608E-02  0.1235072E+00
         -4   -1    0    0    0  501 -0.00000000000E+00  0.00000000000E+00  0.47821637311E+03  0.47821805947E+03  0.12700000000E+01 0.  1.
          4   -1    0    0  501    0  0.00000000000E+00 -0.00000000000E+00 -0.81170911900E+01  0.82158425853E+01  0.12700000000E+01 0.  1.
         25    2    1    2    0    0  0.00000000000E+00  0.00000000000E+00  0.47009928192E+03  0.48643390206E+03  0.12499842485E+03 0.  0.
    9000005    1    3    3    0    0 -0.21078160217E+02 -0.37524779261E+02  0.58735269846E+02  0.72823278014E+02  0.10000000000E+01 0.  0.
    9000005    1    3    3    0    0  0.21078160217E+02  0.37524779261E+02  0.41136401207E+03  0.41361062405E+03  0.10000000000E+01 0.  0.
<mgrwt>
<rscale>  0 0.12499842E+03</rscale>
<asrwt>0</asrwt>
<pdfrwt beam="2">  1        4 0.20418277E-02 0.12499842E+03</pdfrwt>
<pdfrwt beam="1">  1       -4 0.11956664E+00 0.12499842E+03</pdfrwt>
<totfact> 0.89807515E+02</totfact>
</mgrwt>
</event>
<event>
 5    1  0.1440092E-002  0.1249909E+03  0.7818608E-02  0.1235083E+00
         -4   -1    0    0    0  501 -0.00000000000E+00  0.00000000000E+00  0.17768839119E+03  0.17769292970E+03  0.12700000000E+01 0.  1.
          4   -1    0    0  501    0  0.00000000000E+00 -0.00000000000E+00 -0.21957348615E+02  0.21994045972E+02  0.12700000000E+01 0.  1.
         25    2    1    2    0    0  0.00000000000E+00  0.00000000000E+00  0.15573104258E+03  0.19968697567E+03  0.12499092219E+03 0.  0.
    9000005    1    3    3    0    0 -0.34584052969E+02 -0.36706269936E+01 -0.50742691878E+01  0.35160751273E+02  0.10000000000E+01 0.  0.
    9000005    1    3    3    0    0  0.34584052969E+02  0.36706269936E+01  0.16080531176E+03  0.16452622440E+03  0.10000000000E+01 0.  0.
<mgrwt>
<rscale>  0 0.12499092E+03</rscale>
<asrwt>0</asrwt>
<pdfrwt beam="2">  1        4 0.54944917E-02 0.12499092E+03</pdfrwt>
<pdfrwt beam="1">  1       -4 0.44427252E-01 0.12499092E+03</pdfrwt>
<totfact> 0.16338012E+03</totfact>
</mgrwt>
</event>
<event>
 5    1  0.1440092E-002  0.1249966E+03  0.7818608E-02  0.1235075E+00
          4   -1    0    0  501    0  0.00000000000E+00  0.00000000000E+00  0.10273598587E+02  0.10351798294E+02  0.12700000000E+01 0. -1.
         -4   -1    0    0    0  501 -0.00000000000E+00 -0.00000000000E+00 -0.37868069334E+03  0.37868282297E+03  0.12700000000E+01 0. -1.
         25    2    1    2    0    0  0.00000000000E+00  0.00000000000E+00 -0.36840709476E+03  0.38903462126E+03  0.12499659625E+03 0.  0.
    9000005    1    3    3    0    0 -0.47988962472E+02  0.37586714259E+02 -0.22702942529E+03  0.23507246023E+03  0.10000000000E+01 0.  0.
    9000005    1    3    3    0    0  0.47988962472E+02 -0.37586714259E+02 -0.14137766946E+03  0.15396216104E+03  0.10000000000E+01 0.  0.
<mgrwt>
<rscale>  0 0.12499660E+03</rscale>
<asrwt>0</asrwt>
<pdfrwt beam="1">  1        4 0.25784421E-02 0.12499660E+03</pdfrwt>
<pdfrwt beam="2">  1       -4 0.94680168E-01 0.12499660E+03</pdfrwt>
<totfact> 0.10799450E+03</totfact>
</mgrwt>
</event>
<event>
 5    1  0.1440092E-002  0.1250025E+03  0.7818608E-02  0.1235065E+00
          4   -1    0    0  501    0  0.00000000000E+00  0.00000000000E+00  0.29637387056E+02  0.29664585140E+02  0.12700000000E+01 0.  1.
         -4   -1    0    0    0  501 -0.00000000000E+00 -0.00000000000E+00 -0.13171600770E+03  0.13172213020E+03  0.12700000000E+01 0.  1.
         25    2    1    2    0    0  0.00000000000E+00  0.00000000000E+00 -0.10207862065E+03  0.16138671534E+03  0.12500250836E+03 0.  0.
    9000005    1    3    3    0    0 -0.38235700638E+02  0.52139091751E+01  0.12423641567E+02  0.40552441627E+02  0.10000000000E+01 0.  0.
    9000005    1    3    3    0    0  0.38235700638E+02 -0.52139091751E+01 -0.11450226221E+03  0.12083427372E+03  0.10000000000E+01 0.  0.
<mgrwt>
<rscale>  0 0.12500251E+03</rscale>
<asrwt>0</asrwt>
<pdfrwt beam="1">  1        4 0.74135122E-02 0.12500251E+03</pdfrwt>
<pdfrwt beam="2">  1       -4 0.32933165E-01 0.12500251E+03</pdfrwt>
<totfact> 0.17991640E+03</totfact>
</mgrwt>
</event>
<event>
 5    1  0.1440092E-002  0.1250006E+03  0.7818608E-02  0.1235068E+00
         -4   -1    0    0    0  501 -0.00000000000E+00  0.00000000000E+00  0.97970406837E+03  0.97970489152E+03  0.12700000000E+01 0.  1.
          4   -1    0    0  501    0  0.00000000000E+00 -0.00000000000E+00 -0.38852331977E+01  0.40875343424E+01  0.12700000000E+01 0.  1.
         25    2    1    2    0    0  0.00000000000E+00  0.00000000000E+00  0.97581883517E+03  0.98379242587E+03  0.12500055248E+03 0.  0.
    9000005    1    3    3    0    0  0.65771355649E+01 -0.61038151165E+02  0.39600194250E+03  0.40073364355E+03  0.10000000000E+01 0.  0.
    9000005    1    3    3    0    0 -0.65771355649E+01  0.61038151165E+02  0.57981689267E+03  0.58305878232E+03  0.10000000000E+01 0.  0.
<mgrwt>
<rscale>  0 0.12500055E+03</rscale>
<asrwt>0</asrwt>
<pdfrwt beam="2">  1        4 0.99669880E-03 0.12500055E+03</pdfrwt>
<pdfrwt beam="1">  1       -4 0.24495142E+00 0.12500055E+03</pdfrwt>
<totfact> 0.38209598E+02</totfact>
</mgrwt>
</event>
<event>
 5    1  0.1440092E-002  0.1249980E+03  0.7818608E-02  0.1235072E+00
          4   -1    0    0  501    0  0.00000000000E+00  0.00000000000E+00  0.10036375653E+03  0.10037179148E+03  0.12700000000E+01 0. -1.
         -4   -1    0    0    0  501 -0.00000000000E+00 -0.00000000000E+00 -0.38899747055E+02  0.38920473031E+02  0.12700000000E+01 0. -1.
         25    2    1    2    0    0  0.00000000000E+00  0.00000000000E+00  0.61464009474E+02  0.13929226451E+03  0.12499804195E+03 0.  0.
    9000005    1    3    3    0    0 -0.40918484302E+02  0.41764052093E+02  0.61511995873E+01  0.58799622968E+02  0.10000000000E+01 0.  0.
    9000005    1    3    3    0    0  0.40918484302E+02 -0.41764052093E+02  0.55312809886E+02  0.80492641541E+02  0.10000000000E+01 0.  0.
<mgrwt>
<rscale>  0 0.12499804E+03</rscale>
<asrwt>0</asrwt>
<pdfrwt beam="1">  1        4 0.25094534E-01 0.12499804E+03</pdfrwt>
<pdfrwt beam="2">  1       -4 0.97285320E-02 0.12499804E+03</pdfrwt>
<totfact> 0.19077478E+03</totfact>
</mgrwt>
</event>
<event>
 5    1  0.1440092E-002  0.1250014E+03  0.7818608E-02  0.1235067E+00
          4   -1    0    0  501    0  0.00000000000E+00  0.00000000000E+00  0.67877157491E+03  0.67877276301E+03  0.12700000000E+01 0.  1.
         -4   -1    0    0    0  501 -0.00000000000E+00 -0.00000000000E+00 -0.56837371747E+01  0.58238963136E+01  0.12700000000E+01 0.  1.
         25    2    1    2    0    0  0.00000000000E+00  0.00000000000E+00  0.67308783773E+03  0.68459665932E+03  0.12500139460E+03 0.  0.
    9000005    1    3    3    0    0  0.57704799508E+01  0.29006592781E+02  0.35043263444E+02  0.45866231330E+02  0.10000000000E+01 0.  0.
    9000005    1    3    3    0    0 -0.57704799508E+01 -0.29006592781E+02  0.63804457429E+03  0.63873042799E+03  0.10000000000E+01 0.  0.
<mgrwt>
<rscale>  0 0.12500139E+03</rscale>
<asrwt>0</asrwt>
<pdfrwt beam="1">  1        4 0.16971053E+00 0.12500139E+03</pdfrwt>
<pdfrwt beam="2">  1       -4 0.14386029E-02 0.12500139E+03</pdfrwt>
<totfact> 0.63685142E+02</totfact>
</mgrwt>
</event>
<event>
 5    1  0.1440092E-002  0.1249987E+03  0.7818608E-02  0.1235071E+00
          4   -1    0    0  501    0  0.00000000000E+00  0.00000000000E+00  0.84004580705E+02  0.84014180228E+02  0.12700000000E+01 0. -1.
         -4   -1    0    0    0  501 -0.00000000000E+00 -0.00000000000E+00 -0.46478554557E+02  0.46495902333E+02  0.12700000000E+01 0. -1.
         25    2    1    2    0    0  0.00000000000E+00  0.00000000000E+00  0.37526026147E+02  0.13051008256E+03  0.12499871604E+03 0.  0.
    9000005    1    3    3    0    0 -0.58254444717E+02  0.11447857852E+02 -0.16044234752E+01  0.59398720132E+02  0.10000000000E+01 0.  0.
    9000005    1    3    3    0    0  0.58254444717E+02 -0.11447857852E+02  0.39130449623E+02  0.71111362428E+02  0.10000000000E+01 0.  0.
<mgrwt>
<rscale>  0 0.12499872E+03</rscale>
<asrwt>0</asrwt>
<pdfrwt beam="1">  1        4 0.21004513E-01 0.12499872E+03</pdfrwt>
<pdfrwt beam="2">  1       -4 0.11623007E-01 0.12499872E+03</pdfrwt>
<totfact> 0.19537586E+03</totfact>
</mgrwt>
</event>
<event>
 5    1  0.1440092E-002  0.1250128E+03  0.7818608E-02  0.1235049E+00
         -4   -1    0    0    0  501 -0.00000000000E+00  0.00000000000E+00  0.39179773256E+03  0.39179979088E+03  0.12700000000E+01 0. -1.
          4   -1    0    0  501    0  0.00000000000E+00 -0.00000000000E+00 -0.99295787636E+01  0.10010466244E+02  0.12700000000E+01 0. -1.
         25    2    1    2    0    0  0.00000000000E+00  0.00000000000E+00  0.38186815379E+03  0.40181025713E+03  0.12501278275E+03 0.  0.
    9000005    1    3    3    0    0  0.57483868561E+02 -0.18684509385E+02  0.24201211425E+03  0.24944812984E+03  0.10000000000E+01 0.  0.
    9000005    1    3    3    0    0 -0.57483868561E+02  0.18684509385E+02  0.13985603954E+03  0.15236212729E+03  0.10000000000E+01 0.  0.
<mgrwt>
<rscale>  0 0.12501278E+03</rscale>
<asrwt>0</asrwt>
<pdfrwt beam="2">  1        4 0.24927628E-02 0.12501278E+03</pdfrwt>
<pdfrwt beam="1">  1       -4 0.97959804E-01 0.12501278E+03</pdfrwt>
<totfact> 0.10528941E+03</totfact>
</mgrwt>
</event>
<event>
 5    1  0.1440092E-002  0.1250076E+03  0.7818608E-02  0.1235057E+00
         -4   -1    0    0    0  501 -0.00000000000E+00  0.00000000000E+00  0.21449667518E+03  0.21450043488E+03  0.12700000000E+01 0. -1.
          4   -1    0    0  501    0  0.00000000000E+00 -0.00000000000E+00 -0.18187380637E+02  0.18231667900E+02  0.12700000000E+01 0. -1.
         25    2    1    2    0    0  0.00000000000E+00  0.00000000000E+00  0.19630929454E+03  0.23273210278E+03  0.12500756993E+03 0.  0.
    9000005    1    3    3    0    0  0.13059711387E+02  0.19009187592E+02  0.20629326081E+03  0.20758086311E+03  0.10000000000E+01 0.  0.
    9000005    1    3    3    0    0 -0.13059711387E+02 -0.19009187592E+02 -0.99839662668E+01  0.25151239668E+02  0.10000000000E+01 0.  0.
<mgrwt>
<rscale>  0 0.12500757E+03</rscale>
<asrwt>0</asrwt>
<pdfrwt beam="2">  1        4 0.45528511E-02 0.12500757E+03</pdfrwt>
<pdfrwt beam="1">  1       -4 0.53630174E-01 0.12500757E+03</pdfrwt>
<totfact> 0.15087544E+03</totfact>
</mgrwt>
</event>
<event>
 5    1  0.1440092E-002  0.1250056E+03  0.7818608E-02  0.1235060E+00
          4   -1    0    0  501    0  0.00000000000E+00  0.00000000000E+00  0.11748626088E+02  0.11817068797E+02  0.12700000000E+01 0.  1.
         -4   -1    0    0    0  501 -0.00000000000E+00 -0.00000000000E+00 -0.33148034197E+03  0.33148277484E+03  0.12700000000E+01 0.  1.
         25    2    1    2    0    0  0.00000000000E+00  0.00000000000E+00 -0.31973171588E+03  0.34329984363E+03  0.12500564986E+03 0.  0.
    9000005    1    3    3    0    0 -0.73599923998E+01  0.61791607489E+02 -0.14403461971E+03  0.15690552546E+03  0.10000000000E+01 0.  0.
    9000005    1    3    3    0    0  0.73599923998E+01 -0.61791607489E+02 -0.17569709617E+03  0.18639431818E+03  0.10000000000E+01 0.  0.
<mgrwt>
<rscale>  0 0.12500565E+03</rscale>
<asrwt>0</asrwt>
<pdfrwt beam="1">  1        4 0.29460171E-02 0.12500565E+03</pdfrwt>
<pdfrwt beam="2">  1       -4 0.82878914E-01 0.12500565E+03</pdfrwt>
<totfact> 0.11837248E+03</totfact>
</mgrwt>
</event>
<event>
 5    1  0.1440092E-002  0.1250002E+03  0.7818608E-02  0.1235069E+00
          4   -1    0    0  501    0  0.00000000000E+00  0.00000000000E+00  0.81387280445E+03  0.81387379533E+03  0.12700000000E+01 0.  1.
         -4   -1    0    0    0  501 -0.00000000000E+00 -0.00000000000E+00 -0.47145751476E+01  0.48826344142E+01  0.12700000000E+01 0.  1.
         25    2    1    2    0    0  0.00000000000E+00  0.00000000000E+00  0.80915822930E+03  0.81875642974E+03  0.12500020479E+03 0.  0.
    9000005    1    3    3    0    0 -0.14947818750E+02 -0.59948280752E+02  0.34312411074E+03  0.34864364187E+03  0.10000000000E+01 0.  0.
    9000005    1    3    3    0    0  0.14947818750E+02  0.59948280752E+02  0.46603411856E+03  0.47011278787E+03  0.10000000000E+01 0.  0.
<mgrwt>
<rscale>  0 0.12500020E+03</rscale>
<asrwt>0</asrwt>
<pdfrwt beam="1">  1        4 0.20348933E+00 0.12500020E+03</pdfrwt>
<pdfrwt beam="2">  1       -4 0.11997751E-02 0.12500020E+03</pdfrwt>
<totfact> 0.50846185E+02</totfact>
</mgrwt>
</event>
<event>
 5    1  0.1440092E-002  0.1250048E+03  0.7818608E-02  0.1235062E+00
         -4   -1    0    0    0  501 -0.00000000000E+00  0.00000000000E+00  0.59076455225E+03  0.59076591735E+03  0.12700000000E+01 0. -1.
          4   -1    0    0  501    0  0.00000000000E+00 -0.00000000000E+00 -0.65503416078E+01  0.66723215734E+01  0.12700000000E+01 0. -1.
         25    2    1    2    0    0  0.00000000000E+00  0.00000000000E+00  0.58421421064E+03  0.59743823892E+03  0.12500482152E+03 0.  0.
    9000005    1    3    3    0    0 -0.27243556555E+02  0.50254575724E+02  0.17140509598E+03  0.18068879513E+03  0.10000000000E+01 0.  0.
    9000005    1    3    3    0    0  0.27243556555E+02 -0.50254575724E+02  0.41280911466E+03  0.41674944379E+03  0.10000000000E+01 0.  0.
<mgrwt>
<rscale>  0 0.12500482E+03</rscale>
<asrwt>0</asrwt>
<pdfrwt beam="2">  1        4 0.16530036E-02 0.12500482E+03</pdfrwt>
<pdfrwt beam="1">  1       -4 0.14770655E+00 0.12500482E+03</pdfrwt>
<totfact> 0.73818106E+02</totfact>
</mgrwt>
</event>
<event>
 5    1  0.1440092E-002  0.1250040E+03  0.7818608E-02  0.1235063E+00
         -4   -1    0    0    0  501 -0.00000000000E+00  0.00000000000E+00  0.28654597378E+03  0.28654878815E+03  0.12700000000E+01 0.  1.
          4   -1    0    0  501    0  0.00000000000E+00 -0.00000000000E+00 -0.13600602402E+02  0.13659768874E+02  0.12700000000E+01 0.  1.
         25    2    1    2    0    0  0.00000000000E+00  0.00000000000E+00  0.27294537138E+03  0.30020855702E+03  0.12500400775E+03 0.  0.
    9000005    1    3    3    0    0  0.33098858695E+02 -0.50142954326E+02  0.17776680407E+03  0.18764830653E+03  0.10000000000E+01 0.  0.
    9000005    1    3    3    0    0 -0.33098858695E+02  0.50142954326E+02  0.95178567307E+02  0.11256025049E+03  0.10000000000E+01 0.  0.
<mgrwt>
<rscale>  0 0.12500401E+03</rscale>
<asrwt>0</asrwt>
<pdfrwt beam="2">  1        4 0.34078982E-02 0.12500401E+03</pdfrwt>
<pdfrwt beam="1">  1       -4 0.71644241E-01 0.12500401E+03</pdfrwt>
<totfact> 0.12964022E+03</totfact>
</mgrwt>
</event>
<event>
 5    1  0.1440092E-002  0.1250028E+03  0.7818608E-02  0.1235065E+00
          4   -1    0    0  501    0  0.00000000000E+00  0.00000000000E+00  0.72445826646E+03  0.72445937964E+03  0.12700000000E+01 0.  1.
         -4   -1    0    0    0  501 -0.00000000000E+00 -0.00000000000E+00 -0.53162874614E+01  0.54658770909E+01  0.12700000000E+01 0.  1.
         25    2    1    2    0    0  0.00000000000E+00  0.00000000000E+00  0.71914197900E+03  0.72992525673E+03  0.12500277777E+03 0.  0.
    9000005    1    3    3    0    0  0.35515385144E+02 -0.43533476792E+02  0.51937059258E+03  0.52240149178E+03  0.10000000000E+01 0.  0.
    9000005    1    3    3    0    0 -0.35515385144E+02  0.43533476792E+02  0.19977138642E+03  0.20752376494E+03  0.10000000000E+01 0.  0.
<mgrwt>
<rscale>  0 0.12500278E+03</rscale>
<asrwt>0</asrwt>
<pdfrwt beam="1">  1        4 0.18113338E+00 0.12500278E+03</pdfrwt>
<pdfrwt beam="2">  1       -4 0.13479099E-02 0.12500278E+03</pdfrwt>
<totfact> 0.59018406E+02</totfact>
</mgrwt>
</event>
<event>
 5    1  0.1440092E-002  0.1250028E+03  0.7818608E-02  0.1235065E+00
         -4   -1    0    0    0  501 -0.00000000000E+00  0.00000000000E+00  0.52174230687E+02  0.52189685262E+02  0.12700000000E+01 0. -1.
          4   -1    0    0  501    0  0.00000000000E+00 -0.00000000000E+00 -0.74840757379E+02  0.74851532149E+02  0.12700000000E+01 0. -1.
         25    2    1    2    0    0  0.00000000000E+00  0.00000000000E+00 -0.22666526692E+02  0.12704121741E+03  0.12500279793E+03 0.  0.
    9000005    1    3    3    0    0 -0.37011520396E+02  0.23882433478E+02 -0.56386756363E+02  0.71558993593E+02  0.10000000000E+01 0.  0.
    9000005    1    3    3    0    0  0.37011520396E+02 -0.23882433478E+02  0.33720229671E+02  0.55482223819E+02  0.10000000000E+01 0.  0.
<mgrwt>
<rscale>  0 0.12500280E+03</rscale>
<asrwt>0</asrwt>
<pdfrwt beam="2">  1        4 0.18713468E-01 0.12500280E+03</pdfrwt>
<pdfrwt beam="1">  1       -4 0.13046836E-01 0.12500280E+03</pdfrwt>
<totfact> 0.19723468E+03</totfact>
</mgrwt>
</event>
<event>
 5    1  0.1440092E-002  0.1250003E+03  0.7818608E-02  0.1235069E+00
         -4   -1    0    0    0  501 -0.00000000000E+00  0.00000000000E+00  0.12739254106E+03  0.12739887134E+03  0.12700000000E+01 0. -1.
          4   -1    0    0  501    0  0.00000000000E+00 -0.00000000000E+00 -0.30642986275E+02  0.30669292589E+02  0.12700000000E+01 0. -1.
         25    2    1    2    0    0  0.00000000000E+00  0.00000000000E+00  0.96749554788E+02  0.15806816393E+03  0.12500027238E+03 0.  0.
    9000005    1    3    3    0    0  0.94071128926E+01 -0.61588162014E+02  0.54527209129E+02  0.82799830970E+02  0.10000000000E+01 0.  0.
    9000005    1    3    3    0    0 -0.94071128926E+01  0.61588162014E+02  0.42222345658E+02  0.75268332957E+02  0.10000000000E+01 0.  0.
<mgrwt>
<rscale>  0 0.12500027E+03</rscale>
<asrwt>0</asrwt>
<pdfrwt beam="2">  1        4 0.76648262E-02 0.12500027E+03</pdfrwt>
<pdfrwt beam="1">  1       -4 0.31852215E-01 0.12500027E+03</pdfrwt>
<totfact> 0.18148935E+03</totfact>
</mgrwt>
</event>
<event>
 5    1  0.1440092E-002  0.1249991E+03  0.7818608E-02  0.1235071E+00
          4   -1    0    0  501    0  0.00000000000E+00  0.00000000000E+00  0.68953885232E+03  0.68954002187E+03  0.12700000000E+01 0.  1.
         -4   -1    0    0    0  501 -0.00000000000E+00 -0.00000000000E+00 -0.55925688217E+01  0.57349564972E+01  0.12700000000E+01 0.  1.
         25    2    1    2    0    0  0.00000000000E+00  0.00000000000E+00  0.68394628350E+03  0.69527497836E+03  0.12499910732E+03 0.  0.
    9000005    1    3    3    0    0  0.30524869524E+02  0.45354451222E+02  0.17359244563E+03  0.18200036012E+03  0.10000000000E+01 0.  0.
    9000005    1    3    3    0    0 -0.30524869524E+02 -0.45354451222E+02  0.51035383787E+03  0.51327461824E+03  0.10000000000E+01 0.  0.
<mgrwt>
<rscale>  0 0.12499911E+03</rscale>
<asrwt>0</asrwt>
<pdfrwt beam="1">  1        4 0.17240270E+00 0.12499911E+03</pdfrwt>
<pdfrwt beam="2">  1       -4 0.14160865E-02 0.12499911E+03</pdfrwt>
<totfact> 0.62559708E+02</totfact>
</mgrwt>
</event>
<event>
 5    1  0.1440092E-002  0.1250002E+03  0.7818608E-02  0.1235069E+00
          4   -1    0    0  501    0  0.00000000000E+00  0.00000000000E+00  0.45786322352E+02  0.45803932304E+02  0.12700000000E+01 0.  1.
         -4   -1    0    0    0  501 -0.00000000000E+00 -0.00000000000E+00 -0.85276373206E+02  0.85285829580E+02  0.12700000000E+01 0.  1.
         25    2    1    2    0    0  0.00000000000E+00  0.00000000000E+00 -0.39490050854E+02  0.13108976188E+03  0.12500024622E+03 0.  0.
    9000005    1    3    3    0    0  0.59198194027E+01 -0.19053274967E+02 -0.81851630625E+02  0.84254145208E+02  0.10000000000E+01 0.  0.
    9000005    1    3    3    0    0 -0.59198194027E+01  0.19053274967E+02  0.42361579771E+02  0.46835616676E+02  0.10000000000E+01 0.  0.
<mgrwt>
<rscale>  0 0.12500025E+03</rscale>
<asrwt>0</asrwt>
<pdfrwt beam="1">  1        4 0.11449964E-01 0.12500025E+03</pdfrwt>
<pdfrwt beam="2">  1       -4 0.21322476E-01 0.12500025E+03</pdfrwt>
<totfact> 0.19505864E+03</totfact>
</mgrwt>
</event>
<event>
 5    1  0.1440092E-002  0.1249938E+03  0.7818608E-02  0.1235079E+00
          4   -1    0    0  501    0  0.00000000000E+00  0.00000000000E+00  0.22271350063E+03  0.22271712162E+03  0.12700000000E+01 0. -1.
         -4   -1    0    0    0  501 -0.00000000000E+00 -0.00000000000E+00 -0.17510857011E+02  0.17556850892E+02  0.12700000000E+01 0. -1.
         25    2    1    2    0    0  0.00000000000E+00  0.00000000000E+00  0.20520264362E+03  0.24027397251E+03  0.12499382752E+03 0.  0.
    9000005    1    3    3    0    0  0.52835855293E+02 -0.33016002163E+02  0.93346309585E+02  0.11223287182E+03  0.10000000000E+01 0.  0.
    9000005    1    3    3    0    0 -0.52835855293E+02  0.33016002163E+02  0.11185633403E+03  0.12804110069E+03  0.10000000000E+01 0.  0.
<mgrwt>
<rscale>  0 0.12499383E+03</rscale>
<asrwt>0</asrwt>
<pdfrwt beam="1">  1        4 0.55684576E-01 0.12499383E+03</pdfrwt>
<pdfrwt beam="2">  1       -4 0.43839162E-02 0.12499383E+03</pdfrwt>
<totfact> 0.14829125E+03</totfact>
</mgrwt>
</event>
<event>
 5    1  0.1440092E-002  0.1249985E+03  0.7818608E-02  0.1235072E+00
          4   -1    0    0  501    0  0.00000000000E+00  0.00000000000E+00  0.77172673494E+02  0.77183122729E+02  0.12700000000E+01 0. -1.
         -4   -1    0    0    0  501 -0.00000000000E+00 -0.00000000000E+00 -0.50593932490E+02  0.50609869639E+02  0.12700000000E+01 0. -1.
         25    2    1    2    0    0  0.00000000000E+00  0.00000000000E+00  0.26578741004E+02  0.12779299237E+03  0.12499847769E+03 0.  0.
    9000005    1    3    3    0    0 -0.13096854859E+01 -0.62345433492E+02  0.91382380916E+01  0.63033132151E+02  0.10000000000E+01 0.  0.
    9000005    1    3    3    0    0  0.13096854859E+01  0.62345433492E+02  0.17440502912E+02  0.64759860216E+02  0.10000000000E+01 0.  0.
<mgrwt>
<rscale>  0 0.12499848E+03</rscale>
<asrwt>0</asrwt>
<pdfrwt beam="1">  1        4 0.19296467E-01 0.12499848E+03</pdfrwt>
<pdfrwt beam="2">  1       -4 0.12651781E-01 0.12499848E+03</pdfrwt>
<totfact> 0.19684504E+03</totfact>
</mgrwt>
</event>
<event>
 5    1  0.1440092E-002  0.1249967E+03  0.7818608E-02  0.1235074E+00
          4   -1    0    0  501    0  0.00000000000E+00  0.00000000000E+00  0.21863201208E+02  0.21900056326E+02  0.12700000000E+01 0.  1.
         -4   -1    0    0    0  501 -0.00000000000E+00 -0.00000000000E+00 -0.17846870356E+03  0.17847322223E+03  0.12700000000E+01 0.  1.
         25    2    1    2    0    0  0.00000000000E+00  0.00000000000E+00 -0.15660550235E+03  0.20037327855E+03  0.12499666951E+03 0.  0.
    9000005    1    3    3    0    0  0.57817164834E+02  0.20523509519E+02 -0.97337857888E+02  0.11506388474E+03  0.10000000000E+01 0.  0.
    9000005    1    3    3    0    0 -0.57817164834E+02 -0.20523509519E+02 -0.59267644467E+02  0.85309393815E+02  0.10000000000E+01 0.  0.
<mgrwt>
<rscale>  0 0.12499667E+03</rscale>
<asrwt>0</asrwt>
<pdfrwt beam="1">  1        4 0.54709726E-02 0.12499667E+03</pdfrwt>
<pdfrwt beam="2">  1       -4 0.44622343E-01 0.12499667E+03</pdfrwt>
<totfact> 0.16308362E+03</totfact>
</mgrwt>
</event>
<event>
 5    1  0.1440092E-002  0.1250000E+03  0.7818608E-02  0.1235069E+00
         -4   -1    0    0    0  501 -0.00000000000E+00  0.00000000000E+00  0.50010803696E+02  0.50026926613E+02  0.12700000000E+01 0.  1.
          4   -1    0    0  501    0  0.00000000000E+00 -0.00000000000E+00 -0.78074222344E+02  0.78084550935E+02  0.12700000000E+01 0.  1.
         25    2    1    2    0    0  0.00000000000E+00  0.00000000000E+00 -0.28063418648E+02  0.12811147755E+03  0.12499998085E+03 0.  0.
    9000005    1    3    3    0    0 -0.31541897737E+02  0.53864211178E+02 -0.10956308432E+02  0.63382057817E+02  0.10000000000E+01 0.  0.
    9000005    1    3    3    0    0  0.31541897737E+02 -0.53864211178E+02 -0.17107110216E+02  0.64729419730E+02  0.10000000000E+01 0.  0.
<mgrwt>
<rscale>  0 0.12499998E+03</rscale>
<asrwt>0</asrwt>
<pdfrwt beam="2">  1        4 0.19521862E-01 0.12499998E+03</pdfrwt>
<pdfrwt beam="1">  1       -4 0.12506007E-01 0.12499998E+03</pdfrwt>
<totfact> 0.19666479E+03</totfact>
</mgrwt>
</event>
<event>
 5    1  0.1440092E-002  0.1250010E+03  0.7818608E-02  0.1235068E+00
         -4   -1    0    0    0  501 -0.00000000000E+00  0.00000000000E+00  0.33137588624E+02  0.33161916106E+02  0.12700000000E+01 0. -1.
          4   -1    0    0  501    0  0.00000000000E+00 -0.00000000000E+00 -0.11781067859E+03  0.11781752369E+03  0.12700000000E+01 0. -1.
         25    2    1    2    0    0  0.00000000000E+00  0.00000000000E+00 -0.84673089965E+02  0.15097943980E+03  0.12500103631E+03 0.  0.
    9000005    1    3    3    0    0  0.16649468074E+02 -0.48893150359E+02  0.15368217524E+00  0.51660125410E+02  0.10000000000E+01 0.  0.
    9000005    1    3    3    0    0 -0.16649468074E+02  0.48893150359E+02 -0.84826772140E+02  0.99319314390E+02  0.10000000000E+01 0.  0.
<mgrwt>
<rscale>  0 0.12500104E+03</rscale>
<asrwt>0</asrwt>
<pdfrwt beam="2">  1        4 0.29456565E-01 0.12500104E+03</pdfrwt>
<pdfrwt beam="1">  1       -4 0.82882940E-02 0.12500104E+03</pdfrwt>
<totfact> 0.18490281E+03</totfact>
</mgrwt>
</event>
<event>
 5    1  0.1440092E-002  0.1249990E+03  0.7818608E-02  0.1235071E+00
          4   -1    0    0  501    0  0.00000000000E+00  0.00000000000E+00  0.23366486026E+02  0.23400973681E+02  0.12700000000E+01 0.  1.
         -4   -1    0    0    0  501 -0.00000000000E+00 -0.00000000000E+00 -0.16701039492E+03  0.16701522359E+03  0.12700000000E+01 0.  1.
         25    2    1    2    0    0  0.00000000000E+00  0.00000000000E+00 -0.14364390889E+03  0.19041619727E+03  0.12499902248E+03 0.  0.
    9000005    1    3    3    0    0 -0.59028018754E+02 -0.13698772780E+02 -0.95086004141E+02  0.11275775608E+03  0.10000000000E+01 0.  0.
    9000005    1    3    3    0    0  0.59028018754E+02  0.13698772780E+02 -0.48557904750E+02  0.77658441185E+02  0.10000000000E+01 0.  0.
<mgrwt>
<rscale>  0 0.12499902E+03</rscale>
<asrwt>0</asrwt>
<pdfrwt beam="1">  1        4 0.58465365E-02 0.12499902E+03</pdfrwt>
<pdfrwt beam="2">  1       -4 0.41757510E-01 0.12499902E+03</pdfrwt>
<totfact> 0.16713502E+03</totfact>
</mgrwt>
</event>
<event>
 5    1  0.1440092E-002  0.1250050E+03  0.7818608E-02  0.1235062E+00
         -4   -1    0    0    0  501 -0.00000000000E+00  0.00000000000E+00  0.14591212917E+02  0.14646378200E+02  0.12700000000E+01 0. -1.
          4   -1    0    0  501    0  0.00000000000E+00 -0.00000000000E+00 -0.26717187798E+03  0.26717489643E+03  0.12700000000E+01 0. -1.
         25    2    1    2    0    0  0.00000000000E+00  0.00000000000E+00 -0.25258066506E+03  0.28182127463E+03  0.12500495379E+03 0.  0.
    9000005    1    3    3    0    0 -0.49346410016E+02  0.25312463361E+02 -0.61348344153E+02  0.82706760988E+02  0.10000000000E+01 0.  0.
    9000005    1    3    3    0    0  0.49346410016E+02 -0.25312463361E+02 -0.19123232091E+03  0.19911451364E+03  0.10000000000E+01 0.  0.
<mgrwt>
<rscale>  0 0.12500495E+03</rscale>
<asrwt>0</asrwt>
<pdfrwt beam="2">  1        4 0.66800227E-01 0.12500495E+03</pdfrwt>
<pdfrwt beam="1">  1       -4 0.36550771E-02 0.12500495E+03</pdfrwt>
<totfact> 0.13494759E+03</totfact>
</mgrwt>
</event>
<event>
 5    1  0.1440092E-002  0.1250009E+03  0.7818608E-02  0.1235068E+00
         -4   -1    0    0    0  501 -0.00000000000E+00  0.00000000000E+00  0.15085487233E+03  0.15086021810E+03  0.12700000000E+01 0. -1.
          4   -1    0    0  501    0  0.00000000000E+00 -0.00000000000E+00 -0.25873104722E+02  0.25904255402E+02  0.12700000000E+01 0. -1.
         25    2    1    2    0    0  0.00000000000E+00  0.00000000000E+00  0.12498176761E+03  0.17676447350E+03  0.12500094743E+03 0.  0.
    9000005    1    3    3    0    0  0.57425272484E+02  0.17205231707E+02  0.37527731556E+02  0.70731976883E+02  0.10000000000E+01 0.  0.
    9000005    1    3    3    0    0 -0.57425272484E+02 -0.17205231707E+02  0.87454036052E+02  0.10603249662E+03  0.10000000000E+01 0.  0.
<mgrwt>
<rscale>  0 0.12500095E+03</rscale>
<asrwt>0</asrwt>
<pdfrwt beam="2">  1        4 0.64728383E-02 0.12500095E+03</pdfrwt>
<pdfrwt beam="1">  1       -4 0.37718280E-01 0.12500095E+03</pdfrwt>
<totfact> 0.17295807E+03</totfact>
</mgrwt>
</event>
<event>
 5    1  0.1440092E-002  0.1250000E+03  0.7818608E-02  0.1235069E+00
         -4   -1    0    0    0  501 -0.00000000000E+00  0.00000000000E+00  0.13307361369E+02  0.13367825799E+02  0.12700000000E+01 0.  1.
          4   -1    0    0  501    0  0.00000000000E+00 -0.00000000000E+00 -0.29281340911E+03  0.29281616324E+03  0.12700000000E+01 0.  1.
         25    2    1    2    0    0  0.00000000000E+00  0.00000000000E+00 -0.27950604774E+03  0.30618398904E+03  0.12500001768E+03 0.  0.
    9000005    1    3    3    0    0  0.20792423009E+02 -0.54932116160E+02 -0.87481687216E+02  0.10537508168E+03  0.10000000000E+01 0.  0.
    9000005    1    3    3    0    0 -0.20792423009E+02  0.54932116160E+02 -0.19202436052E+03  0.20080890736E+03  0.10000000000E+01 0.  0.
<mgrwt>
<rscale>  0 0.12500002E+03</rscale>
<asrwt>0</asrwt>
<pdfrwt beam="2">  1        4 0.73211234E-01 0.12500002E+03</pdfrwt>
<pdfrwt beam="1">  1       -4 0.33347436E-02 0.12500002E+03</pdfrwt>
<totfact> 0.12799488E+03</totfact>
</mgrwt>
</event>
<event>
 5    1  0.1440092E-002  0.1249937E+03  0.7818608E-02  0.1235079E+00
         -4   -1    0    0    0  501 -0.00000000000E+00  0.00000000000E+00  0.39999288704E+03  0.39999490319E+03  0.12700000000E+01 0. -1.
          4   -1    0    0  501    0  0.00000000000E+00 -0.00000000000E+00 -0.97214635215E+01  0.98040681862E+01  0.12700000000E+01 0. -1.
         25    2    1    2    0    0  0.00000000000E+00  0.00000000000E+00  0.39027142352E+03  0.40979897138E+03  0.12499365156E+03 0.  0.
    9000005    1    3    3    0    0 -0.48014327408E+02  0.80311107468E+01  0.32358571131E+03  0.32722864627E+03  0.10000000000E+01 0.  0.
    9000005    1    3    3    0    0  0.48014327408E+02 -0.80311107468E+01  0.66685712210E+02  0.82570325113E+02  0.10000000000E+01 0.  0.
<mgrwt>
<rscale>  0 0.12499365E+03</rscale>
<asrwt>0</asrwt>
<pdfrwt beam="2">  1        4 0.24409437E-02 0.12499365E+03</pdfrwt>
<pdfrwt beam="1">  1       -4 0.10000879E+00 0.12499365E+03</pdfrwt>
<totfact> 0.10371591E+03</totfact>
</mgrwt>
</event>
<event>
 5    1  0.1440092E-002  0.1250156E+03  0.7818608E-02  0.1235045E+00
         -4   -1    0    0    0  501 -0.00000000000E+00  0.00000000000E+00  0.24518757813E+03  0.24519086722E+03  0.12700000000E+01 0. -1.
          4   -1    0    0  501    0  0.00000000000E+00 -0.00000000000E+00 -0.15906939283E+02  0.15957556747E+02  0.12700000000E+01 0. -1.
         25    2    1    2    0    0  0.00000000000E+00  0.00000000000E+00  0.22928063884E+03  0.26114842397E+03  0.12501555100E+03 0.  0.
    9000005    1    3    3    0    0 -0.17782919130E+02 -0.38442642143E+02  0.21064359744E+03  0.21486226772E+03  0.10000000000E+01 0.  0.
    9000005    1    3    3    0    0  0.17782919130E+02  0.38442642143E+02  0.18637041405E+02  0.46286156246E+02  0.10000000000E+01 0.  0.
<mgrwt>
<rscale>  0 0.12501555E+03</rscale>
<asrwt>0</asrwt>
<pdfrwt beam="2">  1        4 0.39834732E-02 0.12501555E+03</pdfrwt>
<pdfrwt beam="1">  1       -4 0.61303632E-01 0.12501555E+03</pdfrwt>
<totfact> 0.14129298E+03</totfact>
</mgrwt>
</event>
<event>
 5    1  0.1440092E-002  0.1250016E+03  0.7818608E-02  0.1235067E+00
         -4   -1    0    0    0  501 -0.00000000000E+00  0.00000000000E+00  0.24195924749E+03  0.24196258046E+03  0.12700000000E+01 0. -1.
          4   -1    0    0  501    0  0.00000000000E+00 -0.00000000000E+00 -0.16116232989E+02  0.16166195154E+02  0.12700000000E+01 0. -1.
         25    2    1    2    0    0  0.00000000000E+00  0.00000000000E+00  0.22584301450E+03  0.25812877562E+03  0.12500159040E+03 0.  0.
    9000005    1    3    3    0    0 -0.35506390539E+02 -0.14040036633E+02  0.21508230461E+03  0.21844730292E+03  0.10000000000E+01 0.  0.
    9000005    1    3    3    0    0  0.35506390539E+02  0.14040036633E+02  0.10760709886E+02  0.39681472692E+02  0.10000000000E+01 0.  0.
<mgrwt>
<rscale>  0 0.12500159E+03</rscale>
<asrwt>0</asrwt>
<pdfrwt beam="2">  1        4 0.40357201E-02 0.12500159E+03</pdfrwt>
<pdfrwt beam="1">  1       -4 0.60496474E-01 0.12500159E+03</pdfrwt>
<totfact> 0.14230916E+03</totfact>
</mgrwt>
</event>
<event>
 5    1  0.1440092E-002  0.1250075E+03  0.7818608E-02  0.1235058E+00
          4   -1    0    0  501    0  0.00000000000E+00  0.00000000000E+00  0.86231478578E+02  0.86240830224E+02  0.12700000000E+01 0. -1.
         -4   -1    0    0    0  501 -0.00000000000E+00 -0.00000000000E+00 -0.45284288099E+02  0.45302093204E+02  0.12700000000E+01 0. -1.
         25    2    1    2    0    0  0.00000000000E+00  0.00000000000E+00  0.40947190479E+02  0.13154292343E+03  0.12500747296E+03 0.  0.
    9000005    1    3    3    0    0  0.23526161522E+02 -0.53086321963E+02  0.44791959154E+02  0.73341376183E+02  0.10000000000E+01 0.  0.
    9000005    1    3    3    0    0 -0.23526161522E+02  0.53086321963E+02 -0.38447686750E+01  0.58201547245E+02  0.10000000000E+01 0.  0.
<mgrwt>
<rscale>  0 0.12500747E+03</rscale>
<asrwt>0</asrwt>
<pdfrwt beam="1">  1        4 0.21561264E-01 0.12500747E+03</pdfrwt>
<pdfrwt beam="2">  1       -4 0.11324467E-01 0.12500747E+03</pdfrwt>
<totfact> 0.19478393E+03</totfact>
</mgrwt>
</event>
<event>
 5    1  0.1440092E-002  0.1250038E+03  0.7818608E-02  0.1235063E+00
         -4   -1    0    0    0  501 -0.00000000000E+00  0.00000000000E+00  0.23511398802E+03  0.23511741804E+03  0.12700000000E+01 0. -1.
          4   -1    0    0  501    0  0.00000000000E+00 -0.00000000000E+00 -0.16587470946E+02  0.16636017925E+02  0.12700000000E+01 0. -1.
         25    2    1    2    0    0  0.00000000000E+00  0.00000000000E+00  0.21852651708E+03  0.25175343596E+03  0.12500381535E+03 0.  0.
    9000005    1    3    3    0    0  0.53016722783E+01 -0.60903345661E+02  0.83146597827E+02  0.10320698606E+03  0.10000000000E+01 0.  0.
    9000005    1    3    3    0    0 -0.53016722783E+01  0.60903345661E+02  0.13537991925E+03  0.14854644990E+03  0.10000000000E+01 0.  0.
<mgrwt>
<rscale>  0 0.12500382E+03</rscale>
<asrwt>0</asrwt>
<pdfrwt beam="2">  1        4 0.41533648E-02 0.12500382E+03</pdfrwt>
<pdfrwt beam="1">  1       -4 0.58784995E-01 0.12500382E+03</pdfrwt>
<totfact> 0.14438572E+03</totfact>
</mgrwt>
</event>
<event>
 5    1  0.1440092E-002  0.1250030E+03  0.7818608E-02  0.1235065E+00
         -4   -1    0    0    0  501 -0.00000000000E+00  0.00000000000E+00  0.11908995121E+03  0.11909672279E+03  0.12700000000E+01 0.  1.
          4   -1    0    0  501    0  0.00000000000E+00 -0.00000000000E+00 -0.32782394302E+02  0.32806985174E+02  0.12700000000E+01 0.  1.
         25    2    1    2    0    0  0.00000000000E+00  0.00000000000E+00  0.86307556909E+02  0.15190370797E+03  0.12500296842E+03 0.  0.
    9000005    1    3    3    0    0  0.25703608559E+02 -0.37951224026E+02 -0.84667249863E+01  0.46622487385E+02  0.10000000000E+01 0.  0.
    9000005    1    3    3    0    0 -0.25703608559E+02  0.37951224026E+02  0.94774281896E+02  0.10528122058E+03  0.10000000000E+01 0.  0.
<mgrwt>
<rscale>  0 0.12500297E+03</rscale>
<asrwt>0</asrwt>
<pdfrwt beam="2">  1        4 0.81995190E-02 0.12500297E+03</pdfrwt>
<pdfrwt beam="1">  1       -4 0.29776408E-01 0.12500297E+03</pdfrwt>
<totfact> 0.18444296E+03</totfact>
</mgrwt>
</event>
<event>
 5    1  0.1440092E-002  0.1249997E+03  0.7818608E-02  0.1235070E+00
         -4   -1    0    0    0  501 -0.00000000000E+00  0.00000000000E+00  0.89262191318E+03  0.89262281665E+03  0.12700000000E+01 0.  1.
          4   -1    0    0  501    0  0.00000000000E+00 -0.00000000000E+00 -0.42830632309E+01  0.44673852128E+01  0.12700000000E+01 0.  1.
         25    2    1    2    0    0  0.00000000000E+00  0.00000000000E+00  0.88833884995E+03  0.89709020186E+03  0.12499967174E+03 0.  0.
    9000005    1    3    3    0    0 -0.61230412932E+02  0.46340002996E+01  0.36090931965E+03  0.36609721992E+03  0.10000000000E+01 0.  0.
    9000005    1    3    3    0    0  0.61230412932E+02 -0.46340002996E+01  0.52742953031E+03  0.53099298194E+03  0.10000000000E+01 0.  0.
<mgrwt>
<rscale>  0 0.12499967E+03</rscale>
<asrwt>0</asrwt>
<pdfrwt beam="2">  1        4 0.10939186E-02 0.12499967E+03</pdfrwt>
<pdfrwt beam="1">  1       -4 0.22317870E+00 0.12499967E+03</pdfrwt>
<totfact> 0.44497530E+02</totfact>
</mgrwt>
</event>
<event>
 5    1  0.1440092E-002  0.1249872E+03  0.7818608E-02  0.1235089E+00
          4   -1    0    0  501    0  0.00000000000E+00  0.00000000000E+00  0.51618903380E+01  0.53158265455E+01  0.12700000000E+01 0.  1.
         -4   -1    0    0    0  501 -0.00000000000E+00 -0.00000000000E+00 -0.74532268593E+03  0.74532376795E+03  0.12700000000E+01 0.  1.
         25    2    1    2    0    0  0.00000000000E+00  0.00000000000E+00 -0.74016079559E+03  0.75063959449E+03  0.12498718928E+03 0.  0.
    9000005    1    3    3    0    0  0.33834838074E+02 -0.49925491217E+01 -0.56012895707E+02  0.65636623159E+02  0.10000000000E+01 0.  0.
    9000005    1    3    3    0    0 -0.33834838074E+02  0.49925491217E+01 -0.68414789989E+03  0.68500297133E+03  0.10000000000E+01 0.  0.
<mgrwt>
<rscale>  0 0.12498719E+03</rscale>
<asrwt>0</asrwt>
<pdfrwt beam="1">  1        4 0.13098524E-02 0.12498719E+03</pdfrwt>
<pdfrwt beam="2">  1       -4 0.18634969E+00 0.12498719E+03</pdfrwt>
<totfact> 0.57025861E+02</totfact>
</mgrwt>
</event>
<event>
 5    1  0.1440092E-002  0.1250021E+03  0.7818608E-02  0.1235066E+00
          4   -1    0    0  501    0  0.00000000000E+00  0.00000000000E+00  0.18099638136E+03  0.18100083692E+03  0.12700000000E+01 0.  1.
         -4   -1    0    0    0  501 -0.00000000000E+00 -0.00000000000E+00 -0.21559247756E+02  0.21596621583E+02  0.12700000000E+01 0.  1.
         25    2    1    2    0    0  0.00000000000E+00  0.00000000000E+00  0.15943713361E+03  0.20259745851E+03  0.12500212246E+03 0.  0.
    9000005    1    3    3    0    0  0.40343789263E+02  0.47195122945E+02  0.68214457879E+02  0.92245396772E+02  0.10000000000E+01 0.  0.
    9000005    1    3    3    0    0 -0.40343789263E+02 -0.47195122945E+02  0.91222675730E+02  0.11035206173E+03  0.10000000000E+01 0.  0.
<mgrwt>
<rscale>  0 0.12500212E+03</rscale>
<asrwt>0</asrwt>
<pdfrwt beam="1">  1        4 0.45254324E-01 0.12500212E+03</pdfrwt>
<pdfrwt beam="2">  1       -4 0.53950407E-02 0.12500212E+03</pdfrwt>
<totfact> 0.16217765E+03</totfact>
</mgrwt>
</event>
<event>
 5    1  0.1440092E-002  0.1250007E+03  0.7818608E-02  0.1235068E+00
          4   -1    0    0  501    0  0.00000000000E+00  0.00000000000E+00  0.77443123105E+01  0.78477559316E+01  0.12700000000E+01 0.  1.
         -4   -1    0    0    0  501 -0.00000000000E+00 -0.00000000000E+00 -0.50095778882E+03  0.50095939864E+03  0.12700000000E+01 0.  1.
         25    2    1    2    0    0  0.00000000000E+00  0.00000000000E+00 -0.49321347651E+03  0.50880715457E+03  0.12500074850E+03 0.  0.
    9000005    1    3    3    0    0  0.29568898399E+02  0.40996910547E+02 -0.97036725906E+02  0.10941751506E+03  0.10000000000E+01 0.  0.
    9000005    1    3    3    0    0 -0.29568898399E+02 -0.40996910547E+02 -0.39617675061E+03  0.39938963951E+03  0.10000000000E+01 0.  0.
<mgrwt>
<rscale>  0 0.12500075E+03</rscale>
<asrwt>0</asrwt>
<pdfrwt beam="1">  1        4 0.19492115E-02 0.12500075E+03</pdfrwt>
<pdfrwt beam="2">  1       -4 0.12525247E+00 0.12500075E+03</pdfrwt>
<totfact> 0.86221502E+02</totfact>
</mgrwt>
</event>
<event>
 5    1  0.1440092E-002  0.1250058E+03  0.7818608E-02  0.1235060E+00
          4   -1    0    0  501    0  0.00000000000E+00  0.00000000000E+00  0.82845176567E+02  0.82854910418E+02  0.12700000000E+01 0. -1.
         -4   -1    0    0    0  501 -0.00000000000E+00 -0.00000000000E+00 -0.47134514191E+02  0.47151620630E+02  0.12700000000E+01 0. -1.
         25    2    1    2    0    0  0.00000000000E+00  0.00000000000E+00  0.35710662376E+02  0.13000653105E+03  0.12500578670E+03 0.  0.
    9000005    1    3    3    0    0  0.64109608810E+01  0.17952661781E+02  0.79752730311E+02  0.82005466138E+02  0.10000000000E+01 0.  0.
    9000005    1    3    3    0    0 -0.64109608810E+01 -0.17952661781E+02 -0.44042067936E+02  0.48001064910E+02  0.10000000000E+01 0.  0.
<mgrwt>
<rscale>  0 0.12500579E+03</rscale>
<asrwt>0</asrwt>
<pdfrwt beam="1">  1        4 0.20714649E-01 0.12500579E+03</pdfrwt>
<pdfrwt beam="2">  1       -4 0.11786984E-01 0.12500579E+03</pdfrwt>
<totfact> 0.19561389E+03</totfact>
</mgrwt>
</event>
<event>
 5    1  0.1440092E-002  0.1250033E+03  0.7818608E-02  0.1235064E+00
         -4   -1    0    0    0  501 -0.00000000000E+00  0.00000000000E+00  0.13144941172E+02  0.13206149266E+02  0.12700000000E+01 0. -1.
          4   -1    0    0  501    0  0.00000000000E+00 -0.00000000000E+00 -0.29643043116E+03  0.29643315169E+03  0.12700000000E+01 0. -1.
         25    2    1    2    0    0  0.00000000000E+00  0.00000000000E+00 -0.28328548999E+03  0.30963930095E+03  0.12500331138E+03 0.  0.
    9000005    1    3    3    0    0  0.20331035325E+02 -0.41520771011E+02 -0.24580055652E+03  0.25011245272E+03  0.10000000000E+01 0.  0.
    9000005    1    3    3    0    0 -0.20331035325E+02  0.41520771011E+02 -0.37484933473E+02  0.59526848231E+02  0.10000000000E+01 0.  0.
<mgrwt>
<rscale>  0 0.12500331E+03</rscale>
<asrwt>0</asrwt>
<pdfrwt beam="2">  1        4 0.74115577E-01 0.12500331E+03</pdfrwt>
<pdfrwt beam="1">  1       -4 0.32942273E-02 0.12500331E+03</pdfrwt>
<totfact> 0.12704172E+03</totfact>
</mgrwt>
</event>
<event>
 5    1  0.1440092E-002  0.1249922E+03  0.7818608E-02  0.1235081E+00
         -4   -1    0    0    0  501 -0.00000000000E+00  0.00000000000E+00  0.86601436993E+02  0.86610748693E+02  0.12700000000E+01 0. -1.
          4   -1    0    0  501    0  0.00000000000E+00 -0.00000000000E+00 -0.45079764561E+02  0.45097650414E+02  0.12700000000E+01 0. -1.
         25    2    1    2    0    0  0.00000000000E+00  0.00000000000E+00  0.41521672432E+02  0.13170839911E+03  0.12499221221E+03 0.  0.
    9000005    1    3    3    0    0 -0.71022097629E+01  0.52080478985E+02 -0.14847626504E+02  0.54628469571E+02  0.10000000000E+01 0.  0.
    9000005    1    3    3    0    0  0.71022097629E+01 -0.52080478985E+02  0.56369298936E+02  0.77079929537E+02  0.10000000000E+01 0.  0.
<mgrwt>
<rscale>  0 0.12499221E+03</rscale>
<asrwt>0</asrwt>
<pdfrwt beam="2">  1        4 0.11273341E-01 0.12499221E+03</pdfrwt>
<pdfrwt beam="1">  1       -4 0.21653759E-01 0.12499221E+03</pdfrwt>
<totfact> 0.19476513E+03</totfact>
</mgrwt>
</event>
<event>
 5    1  0.1440092E-002  0.1249974E+03  0.7818608E-02  0.1235073E+00
         -4   -1    0    0    0  501 -0.00000000000E+00  0.00000000000E+00  0.37317485637E+03  0.37317701742E+03  0.12700000000E+01 0. -1.
          4   -1    0    0  501    0  0.00000000000E+00 -0.00000000000E+00 -0.10426453913E+02  0.10503515659E+02  0.12700000000E+01 0. -1.
         25    2    1    2    0    0  0.00000000000E+00  0.00000000000E+00  0.36274840246E+03  0.38368053308E+03  0.12499739187E+03 0.  0.
    9000005    1    3    3    0    0  0.48103127376E+02  0.38573365120E+02  0.21256735864E+03  0.22133164555E+03  0.10000000000E+01 0.  0.
    9000005    1    3    3    0    0 -0.48103127376E+02 -0.38573365120E+02  0.15018104382E+03  0.16234888753E+03  0.10000000000E+01 0.  0.
<mgrwt>
<rscale>  0 0.12499739E+03</rscale>
<asrwt>0</asrwt>
<pdfrwt beam="2">  1        4 0.26165164E-02 0.12499739E+03</pdfrwt>
<pdfrwt beam="1">  1       -4 0.93303615E-01 0.12499739E+03</pdfrwt>
<totfact> 0.10913908E+03</totfact>
</mgrwt>
</event>
<event>
 5    1  0.1440092E-002  0.1249999E+03  0.7818608E-02  0.1235069E+00
         -4   -1    0    0    0  501 -0.00000000000E+00  0.00000000000E+00  0.42617755967E+03  0.42617945195E+03  0.12700000000E+01 0. -1.
          4   -1    0    0  501    0  0.00000000000E+00 -0.00000000000E+00 -0.91198579228E+01  0.92078612355E+01  0.12700000000E+01 0. -1.
         25    2    1    2    0    0  0.00000000000E+00  0.00000000000E+00  0.41705770175E+03  0.43538731319E+03  0.12499994359E+03 0.  0.
    9000005    1    3    3    0    0  0.26058824446E+02 -0.43794168447E+02  0.33451190913E+03  0.33837288437E+03  0.10000000000E+01 0.  0.
    9000005    1    3    3    0    0 -0.26058824446E+02  0.43794168447E+02  0.82545792610E+02  0.97014428819E+02  0.10000000000E+01 0.  0.
<mgrwt>
<rscale>  0 0.12499994E+03</rscale>
<asrwt>0</asrwt>
<pdfrwt beam="2">  1        4 0.22912014E-02 0.12499994E+03</pdfrwt>
<pdfrwt beam="1">  1       -4 0.10655563E+00 0.12499994E+03</pdfrwt>
<totfact> 0.98701041E+02</totfact>
</mgrwt>
</event>
<event>
 5    1  0.1440092E-002  0.1250006E+03  0.7818608E-02  0.1235068E+00
          4   -1    0    0  501    0  0.00000000000E+00  0.00000000000E+00  0.53364280504E+02  0.53379390534E+02  0.12700000000E+01 0. -1.
         -4   -1    0    0    0  501 -0.00000000000E+00 -0.00000000000E+00 -0.73169407566E+02  0.73180428419E+02  0.12700000000E+01 0. -1.
         25    2    1    2    0    0  0.00000000000E+00  0.00000000000E+00 -0.19805127062E+02  0.12655981895E+03  0.12500057886E+03 0.  0.
    9000005    1    3    3    0    0  0.50155115751E+02  0.13888610227E+02  0.25124599331E+02  0.57798569373E+02  0.10000000000E+01 0.  0.
    9000005    1    3    3    0    0 -0.50155115751E+02 -0.13888610227E+02 -0.44929726392E+02  0.68761249580E+02  0.10000000000E+01 0.  0.
<mgrwt>
<rscale>  0 0.12500058E+03</rscale>
<asrwt>0</asrwt>
<pdfrwt beam="1">  1        4 0.13344337E-01 0.12500058E+03</pdfrwt>
<pdfrwt beam="2">  1       -4 0.18295618E-01 0.12500058E+03</pdfrwt>
<totfact> 0.19750431E+03</totfact>
</mgrwt>
</event>
<event>
 5    1  0.1440092E-002  0.1250040E+03  0.7818608E-02  0.1235063E+00
          4   -1    0    0  501    0  0.00000000000E+00  0.00000000000E+00  0.17148340721E+02  0.17195304286E+02  0.12700000000E+01 0. -1.
         -4   -1    0    0    0  501 -0.00000000000E+00 -0.00000000000E+00 -0.22744603606E+03  0.22744958170E+03  0.12700000000E+01 0. -1.
         25    2    1    2    0    0  0.00000000000E+00  0.00000000000E+00 -0.21029769533E+03  0.24464488599E+03  0.12500399825E+03 0.  0.
    9000005    1    3    3    0    0  0.64474261604E+01  0.11273972019E+02  0.14487680209E+02  0.19482418408E+02  0.10000000000E+01 0.  0.
    9000005    1    3    3    0    0 -0.64474261604E+01 -0.11273972019E+02 -0.22478537554E+03  0.22516246758E+03  0.10000000000E+01 0.  0.
<mgrwt>
<rscale>  0 0.12500400E+03</rscale>
<asrwt>0</asrwt>
<pdfrwt beam="1">  1        4 0.42933995E-02 0.12500400E+03</pdfrwt>
<pdfrwt beam="2">  1       -4 0.56867813E-01 0.12500400E+03</pdfrwt>
<totfact> 0.14676410E+03</totfact>
</mgrwt>
</event>
<event>
 5    1  0.1440092E-002  0.1250010E+03  0.7818608E-02  0.1235068E+00
         -4   -1    0    0    0  501 -0.00000000000E+00  0.00000000000E+00  0.46840385929E+01  0.48531554209E+01  0.12700000000E+01 0.  1.
          4   -1    0    0  501    0  0.00000000000E+00 -0.00000000000E+00 -0.81900438075E+03  0.81900536542E+03  0.12700000000E+01 0.  1.
         25    2    1    2    0    0  0.00000000000E+00  0.00000000000E+00 -0.81432034215E+03  0.82385852084E+03  0.12500097085E+03 0.  0.
    9000005    1    3    3    0    0  0.16852670368E+02  0.48987636017E+02 -0.63750990304E+03  0.63961213048E+03  0.10000000000E+01 0.  0.
    9000005    1    3    3    0    0 -0.16852670368E+02 -0.48987636017E+02 -0.17681043912E+03  0.18424639036E+03  0.10000000000E+01 0.  0.
<mgrwt>
<rscale>  0 0.12500097E+03</rscale>
<asrwt>0</asrwt>
<pdfrwt beam="2">  1        4 0.20477188E+00 0.12500097E+03</pdfrwt>
<pdfrwt beam="1">  1       -4 0.11922751E-02 0.12500097E+03</pdfrwt>
<totfact> 0.50409940E+02</totfact>
</mgrwt>
</event>
<event>
 4    1  0.1440092E-002  0.1252619E+03  0.7818608E-02  0.1234660E+00
         -4   -1    0    0    0  501 -0.00000000000E+00  0.00000000000E+00  0.31566270179E+01  0.34025276090E+01  0.12700000000E+01 0.  1.
          4   -1    0    0  501    0  0.00000000000E+00 -0.00000000000E+00 -0.11958343761E+04  0.11958350505E+04  0.12700000000E+01 0.  1.
    9000005    1    1    2    0    0  0.56380106521E+02 -0.11259836759E+02 -0.83398200257E+03  0.83596200927E+03  0.10000000000E+01 0.  0.
    9000005    1    1    2    0    0 -0.56380106521E+02  0.11259836759E+02 -0.35869574649E+03  0.36327556879E+03  0.10000000000E+01 0.  0.
<mgrwt>
<rscale>  0 0.12526195E+03</rscale>
<asrwt>0</asrwt>
<pdfrwt beam="2">  1        4 0.29898792E+00 0.12526195E+03</pdfrwt>
<pdfrwt beam="1">  1       -4 0.81998273E-03 0.12526195E+03</pdfrwt>
<totfact> 0.25093875E+02</totfact>
</mgrwt>
</event>
<event>
 5    1  0.1440092E-002  0.1250019E+03  0.7818608E-02  0.1235066E+00
         -4   -1    0    0    0  501 -0.00000000000E+00  0.00000000000E+00  0.10285490543E+04  0.10285498384E+04  0.12700000000E+01 0.  1.
          4   -1    0    0  501    0  0.00000000000E+00 -0.00000000000E+00 -0.36909660017E+01  0.39033485657E+01  0.12700000000E+01 0.  1.
         25    2    1    2    0    0  0.00000000000E+00  0.00000000000E+00  0.10248580883E+04  0.10324531870E+04  0.12500192820E+03 0.  0.
    9000005    1    3    3    0    0  0.30214012771E+02  0.53982660649E+02  0.43931671773E+03  0.44365210773E+03  0.10000000000E+01 0.  0.
    9000005    1    3    3    0    0 -0.30214012771E+02 -0.53982660649E+02  0.58554137060E+03  0.58880107923E+03  0.10000000000E+01 0.  0.
<mgrwt>
<rscale>  0 0.12500193E+03</rscale>
<asrwt>0</asrwt>
<pdfrwt beam="2">  1        4 0.94938670E-03 0.12500193E+03</pdfrwt>
<pdfrwt beam="1">  1       -4 0.25716408E+00 0.12500193E+03</pdfrwt>
<totfact> 0.34967677E+02</totfact>
</mgrwt>
</event>
<event>
 5    1  0.1440092E-002  0.1250600E+03  0.7818608E-02  0.1234975E+00
          4   -1    0    0  501    0  0.00000000000E+00  0.00000000000E+00  0.39276085337E+02  0.39296612823E+02  0.12700000000E+01 0. -1.
         -4   -1    0    0    0  501 -0.00000000000E+00 -0.00000000000E+00 -0.99501171748E+02  0.99509276348E+02  0.12700000000E+01 0. -1.
         25    2    1    2    0    0  0.00000000000E+00  0.00000000000E+00 -0.60225086411E+02  0.13880588917E+03  0.12506004092E+03 0.  0.
    9000005    1    3    3    0    0 -0.30615208057E+02  0.10138003063E+02  0.29337141880E+02  0.43608920695E+02  0.10000000000E+01 0.  0.
    9000005    1    3    3    0    0  0.30615208057E+02 -0.10138003063E+02 -0.89562228291E+02  0.95196968476E+02  0.10000000000E+01 0.  0.
<mgrwt>
<rscale>  0 0.12506004E+03</rscale>
<asrwt>0</asrwt>
<pdfrwt beam="1">  1        4 0.98226005E-02 0.12506004E+03</pdfrwt>
<pdfrwt beam="2">  1       -4 0.24878871E-01 0.12506004E+03</pdfrwt>
<totfact> 0.19074875E+03</totfact>
</mgrwt>
</event>
<event>
 5    1  0.1440092E-002  0.1249980E+03  0.7818608E-02  0.1235072E+00
          4   -1    0    0  501    0  0.00000000000E+00  0.00000000000E+00  0.80039640511E+02  0.80049715509E+02  0.12700000000E+01 0.  1.
         -4   -1    0    0    0  501 -0.00000000000E+00 -0.00000000000E+00 -0.48780988194E+02  0.48797517449E+02  0.12700000000E+01 0.  1.
         25    2    1    2    0    0  0.00000000000E+00  0.00000000000E+00  0.31258652316E+02  0.12884723296E+03  0.12499802437E+03 0.  0.
    9000005    1    3    3    0    0  0.61858484214E+02  0.88409739563E+01  0.16352084424E+02  0.64598959394E+02  0.10000000000E+01 0.  0.
    9000005    1    3    3    0    0 -0.61858484214E+02 -0.88409739563E+01  0.14906567892E+02  0.64248273565E+02  0.10000000000E+01 0.  0.
<mgrwt>
<rscale>  0 0.12499802E+03</rscale>
<asrwt>0</asrwt>
<pdfrwt beam="1">  1        4 0.20013235E-01 0.12499802E+03</pdfrwt>
<pdfrwt beam="2">  1       -4 0.12198573E-01 0.12499802E+03</pdfrwt>
<totfact> 0.19627465E+03</totfact>
</mgrwt>
</event>
<event>
 5    1  0.1440092E-002  0.1250050E+03  0.7818608E-02  0.1235061E+00
          4   -1    0    0  501    0  0.00000000000E+00  0.00000000000E+00  0.12785529944E+02  0.12848450333E+02  0.12700000000E+01 0.  1.
         -4   -1    0    0    0  501 -0.00000000000E+00 -0.00000000000E+00 -0.30473128868E+03  0.30473393510E+03  0.12700000000E+01 0.  1.
         25    2    1    2    0    0  0.00000000000E+00  0.00000000000E+00 -0.29194575874E+03  0.31758238543E+03  0.12500498187E+03 0.  0.
    9000005    1    3    3    0    0 -0.15485580900E+02 -0.51791256564E+02 -0.66302026817E+02  0.85551716712E+02  0.10000000000E+01 0.  0.
    9000005    1    3    3    0    0  0.15485580900E+02  0.51791256564E+02 -0.22564373192E+03  0.23203066872E+03  0.10000000000E+01 0.  0.
<mgrwt>
<rscale>  0 0.12500498E+03</rscale>
<asrwt>0</asrwt>
<pdfrwt beam="1">  1        4 0.32045793E-02 0.12500498E+03</pdfrwt>
<pdfrwt beam="2">  1       -4 0.76190994E-01 0.12500498E+03</pdfrwt>
<totfact> 0.12490779E+03</totfact>
</mgrwt>
</event>
<event>
 5    1  0.1440092E-002  0.1250068E+03  0.7818608E-02  0.1235059E+00
          4   -1    0    0  501    0  0.00000000000E+00  0.00000000000E+00  0.10144784270E+03  0.10145579179E+03  0.12700000000E+01 0. -1.
         -4   -1    0    0    0  501 -0.00000000000E+00 -0.00000000000E+00 -0.38489280137E+02  0.38510227024E+02  0.12700000000E+01 0. -1.
         25    2    1    2    0    0  0.00000000000E+00  0.00000000000E+00  0.62958562563E+02  0.13996601882E+03  0.12500682311E+03 0.  0.
    9000005    1    3    3    0    0  0.26256168832E+02 -0.15776142383E+02  0.92471886688E+02  0.97418288313E+02  0.10000000000E+01 0.  0.
    9000005    1    3    3    0    0 -0.26256168832E+02  0.15776142383E+02 -0.29513324125E+02  0.42547730505E+02  0.10000000000E+01 0.  0.
<mgrwt>
<rscale>  0 0.12500682E+03</rscale>
<asrwt>0</asrwt>
<pdfrwt beam="1">  1        4 0.25365573E-01 0.12500682E+03</pdfrwt>
<pdfrwt beam="2">  1       -4 0.96259321E-02 0.12500682E+03</pdfrwt>
<totfact> 0.19039051E+03</totfact>
</mgrwt>
</event>
<event>
 5    1  0.1440092E-002  0.1249994E+03  0.7818608E-02  0.1235070E+00
          4   -1    0    0  501    0  0.00000000000E+00  0.00000000000E+00  0.18146685780E+03  0.18147130181E+03  0.12700000000E+01 0. -1.
         -4   -1    0    0    0  501 -0.00000000000E+00 -0.00000000000E+00 -0.21502325374E+02  0.21539797968E+02  0.12700000000E+01 0. -1.
         25    2    1    2    0    0  0.00000000000E+00  0.00000000000E+00  0.15996453243E+03  0.20301109978E+03  0.12499941999E+03 0.  0.
    9000005    1    3    3    0    0  0.50560452352E+02 -0.58075449955E+01  0.21084936552E+02  0.55096837208E+02  0.10000000000E+01 0.  0.
    9000005    1    3    3    0    0 -0.50560452352E+02  0.58075449955E+01  0.13887959588E+03  0.14791426257E+03  0.10000000000E+01 0.  0.
<mgrwt>
<rscale>  0 0.12499942E+03</rscale>
<asrwt>0</asrwt>
<pdfrwt beam="1">  1        4 0.45371955E-01 0.12499942E+03</pdfrwt>
<pdfrwt beam="2">  1       -4 0.53808209E-02 0.12499942E+03</pdfrwt>
<totfact> 0.16202395E+03</totfact>
</mgrwt>
</event>
<event>
 5    1  0.1440092E-002  0.1250034E+03  0.7818608E-02  0.1235064E+00
         -4   -1    0    0    0  501 -0.00000000000E+00  0.00000000000E+00  0.41791968592E+01  0.43679041184E+01  0.12700000000E+01 0.  1.
          4   -1    0    0  501    0  0.00000000000E+00 -0.00000000000E+00 -0.91391250510E+03  0.91391338752E+03  0.12700000000E+01 0.  1.
         25    2    1    2    0    0  0.00000000000E+00  0.00000000000E+00 -0.90973330824E+03  0.91828129163E+03  0.12500335372E+03 0.  0.
    9000005    1    3    3    0    0 -0.17450531024E+02 -0.54138205103E+02 -0.26471972776E+03  0.27076373567E+03  0.10000000000E+01 0.  0.
    9000005    1    3    3    0    0  0.17450531024E+02  0.54138205103E+02 -0.64501358048E+03  0.64751755597E+03  0.10000000000E+01 0.  0.
<mgrwt>
<rscale>  0 0.12500335E+03</rscale>
<asrwt>0</asrwt>
<pdfrwt beam="2">  1        4 0.22850116E+00 0.12500335E+03</pdfrwt>
<pdfrwt beam="1">  1       -4 0.10685011E-02 0.12500335E+03</pdfrwt>
<totfact> 0.42893836E+02</totfact>
</mgrwt>
</event>
<event>
 5    1  0.1440092E-002  0.1250053E+03  0.7818608E-02  0.1235061E+00
          4   -1    0    0  501    0  0.00000000000E+00  0.00000000000E+00  0.72023590563E+02  0.72034786719E+02  0.12700000000E+01 0. -1.
         -4   -1    0    0    0  501 -0.00000000000E+00 -0.00000000000E+00 -0.54217439784E+02  0.54232312109E+02  0.12700000000E+01 0. -1.
         25    2    1    2    0    0  0.00000000000E+00  0.00000000000E+00  0.17806150780E+02  0.12626709883E+03  0.12500528485E+03 0.  0.
    9000005    1    3    3    0    0 -0.24845413076E+02  0.15167163206E+02 -0.46956524088E+02  0.55256244399E+02  0.10000000000E+01 0.  0.
    9000005    1    3    3    0    0  0.24845413076E+02 -0.15167163206E+02  0.64762674868E+02  0.71010854429E+02  0.10000000000E+01 0.  0.
<mgrwt>
<rscale>  0 0.12500528E+03</rscale>
<asrwt>0</asrwt>
<pdfrwt beam="1">  1        4 0.18009156E-01 0.12500528E+03</pdfrwt>
<pdfrwt beam="2">  1       -4 0.13557619E-01 0.12500528E+03</pdfrwt>
<totfact> 0.19764050E+03</totfact>
</mgrwt>
</event>
<event>
 5    1  0.1440092E-002  0.1250009E+03  0.7818608E-02  0.1235068E+00
         -4   -1    0    0    0  501 -0.00000000000E+00  0.00000000000E+00  0.32569704290E+02  0.32594455625E+02  0.12700000000E+01 0. -1.
          4   -1    0    0  501    0  0.00000000000E+00 -0.00000000000E+00 -0.11986312768E+03  0.11986985558E+03  0.12700000000E+01 0. -1.
         25    2    1    2    0    0  0.00000000000E+00  0.00000000000E+00 -0.87293423388E+02  0.15246431120E+03  0.12500089769E+03 0.  0.
    9000005    1    3    3    0    0 -0.48945132347E+01 -0.60318335064E+02 -0.62661931905E+02  0.87119317690E+02  0.10000000000E+01 0.  0.
    9000005    1    3    3    0    0  0.48945132347E+01  0.60318335064E+02 -0.24631491483E+02  0.65344993514E+02  0.10000000000E+01 0.  0.
<mgrwt>
<rscale>  0 0.12500090E+03</rscale>
<asrwt>0</asrwt>
<pdfrwt beam="2">  1        4 0.29969716E-01 0.12500090E+03</pdfrwt>
<pdfrwt beam="1">  1       -4 0.81463613E-02 0.12500090E+03</pdfrwt>
<totfact> 0.18417886E+03</totfact>
</mgrwt>
</event>
<event>
 5    1  0.1440092E-002  0.1250000E+03  0.7818608E-02  0.1235069E+00
         -4   -1    0    0    0  501 -0.00000000000E+00  0.00000000000E+00  0.32387360536E+01  0.34788376256E+01  0.12700000000E+01 0. -1.
          4   -1    0    0  501    0  0.00000000000E+00 -0.00000000000E+00 -0.11627537912E+04  0.11627544847E+04  0.12700000000E+01 0. -1.
         25    2    1    2    0    0  0.00000000000E+00  0.00000000000E+00 -0.11595150551E+04  0.11662333223E+04  0.12499999661E+03 0.  0.
    9000005    1    3    3    0    0 -0.50401844141E+02  0.36602927797E+02 -0.53298746090E+03  0.53661602072E+03  0.10000000000E+01 0.  0.
    9000005    1    3    3    0    0  0.50401844141E+02 -0.36602927797E+02 -0.62652759420E+03  0.62961730162E+03  0.10000000000E+01 0.  0.
<mgrwt>
<rscale>  0 0.12500000E+03</rscale>
<asrwt>0</asrwt>
<pdfrwt beam="2">  1        4 0.29071717E+00 0.12500000E+03</pdfrwt>
<pdfrwt beam="1">  1       -4 0.83978739E-03 0.12500000E+03</pdfrwt>
<totfact> 0.27008046E+02</totfact>
</mgrwt>
</event>
<event>
 5    1  0.1440092E-002  0.1249922E+03  0.7818608E-02  0.1235082E+00
         -4   -1    0    0    0  501 -0.00000000000E+00  0.00000000000E+00  0.12026889260E+02  0.12093757285E+02  0.12700000000E+01 0.  1.
          4   -1    0    0  501    0  0.00000000000E+00 -0.00000000000E+00 -0.32378387856E+03  0.32378636925E+03  0.12700000000E+01 0.  1.
         25    2    1    2    0    0  0.00000000000E+00  0.00000000000E+00 -0.31175698930E+03  0.33588012654E+03  0.12499215586E+03 0.  0.
    9000005    1    3    3    0    0  0.38482713585E+02  0.22112258508E+02 -0.27408177387E+03  0.27765390325E+03  0.10000000000E+01 0.  0.
    9000005    1    3    3    0    0 -0.38482713585E+02 -0.22112258508E+02 -0.37675215430E+02  0.58226223292E+02  0.10000000000E+01 0.  0.
<mgrwt>
<rscale>  0 0.12499216E+03</rscale>
<asrwt>0</asrwt>
<pdfrwt beam="2">  1        4 0.80954611E-01 0.12499216E+03</pdfrwt>
<pdfrwt beam="1">  1       -4 0.30153932E-02 0.12499216E+03</pdfrwt>
<totfact> 0.12024025E+03</totfact>
</mgrwt>
</event>
<event>
 5    1  0.1440092E-002  0.1249973E+03  0.7818608E-02  0.1235073E+00
         -4   -1    0    0    0  501 -0.00000000000E+00  0.00000000000E+00  0.13515777877E+03  0.13516374537E+03  0.12700000000E+01 0.  1.
          4   -1    0    0  501    0  0.00000000000E+00 -0.00000000000E+00 -0.28879618907E+02  0.28907529957E+02  0.12700000000E+01 0.  1.
         25    2    1    2    0    0  0.00000000000E+00  0.00000000000E+00  0.10627815986E+03  0.16407127532E+03  0.12499734446E+03 0.  0.
    9000005    1    3    3    0    0 -0.65902130196E+01 -0.37539957781E+02  0.11814124714E+03  0.12414118419E+03  0.10000000000E+01 0.  0.
    9000005    1    3    3    0    0  0.65902130196E+01  0.37539957781E+02 -0.11863087276E+02  0.39930091129E+02  0.10000000000E+01 0.  0.
<mgrwt>
<rscale>  0 0.12499734E+03</rscale>
<asrwt>0</asrwt>
<pdfrwt beam="2">  1        4 0.72241396E-02 0.12499734E+03</pdfrwt>
<pdfrwt beam="1">  1       -4 0.33793679E-01 0.12499734E+03</pdfrwt>
<totfact> 0.17868923E+03</totfact>
</mgrwt>
</event>
<event>
 5    1  0.1440092E-002  0.1250018E+03  0.7818608E-02  0.1235066E+00
         -4   -1    0    0    0  501 -0.00000000000E+00  0.00000000000E+00  0.80551799551E+02  0.80561810500E+02  0.12700000000E+01 0. -1.
          4   -1    0    0  501    0  0.00000000000E+00 -0.00000000000E+00 -0.48473710719E+02  0.48490344718E+02  0.12700000000E+01 0. -1.
         25    2    1    2    0    0  0.00000000000E+00  0.00000000000E+00  0.32078088832E+02  0.12905215522E+03  0.12500181992E+03 0.  0.
    9000005    1    3    3    0    0  0.16617075431E+02 -0.50050280209E+02 -0.18576556514E+02  0.55921786423E+02  0.10000000000E+01 0.  0.
    9000005    1    3    3    0    0 -0.16617075431E+02  0.50050280209E+02  0.50654645346E+02  0.73130368795E+02  0.10000000000E+01 0.  0.
<mgrwt>
<rscale>  0 0.12500182E+03</rscale>
<asrwt>0</asrwt>
<pdfrwt beam="2">  1        4 0.12121758E-01 0.12500182E+03</pdfrwt>
<pdfrwt beam="1">  1       -4 0.20141280E-01 0.12500182E+03</pdfrwt>
<totfact> 0.19614643E+03</totfact>
</mgrwt>
</event>
<event>
 5    1  0.1440092E-002  0.1249997E+03  0.7818608E-02  0.1235070E+00
         -4   -1    0    0    0  501 -0.00000000000E+00  0.00000000000E+00  0.12120060498E+02  0.12186417294E+02  0.12700000000E+01 0. -1.
          4   -1    0    0  501    0  0.00000000000E+00 -0.00000000000E+00 -0.32134734494E+03  0.32134985452E+03  0.12700000000E+01 0. -1.
         25    2    1    2    0    0  0.00000000000E+00  0.00000000000E+00 -0.30922728445E+03  0.33353627182E+03  0.12499972469E+03 0.  0.
    9000005    1    3    3    0    0  0.55318109899E+02 -0.23349365171E+02 -0.20082577645E+03  0.20961221010E+03  0.10000000000E+01 0.  0.
    9000005    1    3    3    0    0 -0.55318109899E+02  0.23349365171E+02 -0.10840150800E+03  0.12392406172E+03  0.10000000000E+01 0.  0.
<mgrwt>
<rscale>  0 0.12499972E+03</rscale>
<asrwt>0</asrwt>
<pdfrwt beam="2">  1        4 0.80345417E-01 0.12499972E+03</pdfrwt>
<pdfrwt beam="1">  1       -4 0.30386245E-02 0.12499972E+03</pdfrwt>
<totfact> 0.12080677E+03</totfact>
</mgrwt>
</event>
<event>
 5    1  0.1440092E-002  0.1249989E+03  0.7818608E-02  0.1235071E+00
          4   -1    0    0  501    0  0.00000000000E+00  0.00000000000E+00  0.62823011213E+01  0.64093843213E+01  0.12700000000E+01 0. -1.
         -4   -1    0    0    0  501 -0.00000000000E+00 -0.00000000000E+00 -0.61542189862E+03  0.61542320902E+03  0.12700000000E+01 0. -1.
         25    2    1    2    0    0  0.00000000000E+00  0.00000000000E+00 -0.60913959750E+03  0.62183259334E+03  0.12499889960E+03 0.  0.
    9000005    1    3    3    0    0  0.43312777064E+02  0.24584992026E+02 -0.49234514257E+03  0.49485872520E+03  0.10000000000E+01 0.  0.
    9000005    1    3    3    0    0 -0.43312777064E+02 -0.24584992026E+02 -0.11679445493E+03  0.12697386814E+03  0.10000000000E+01 0.  0.
<mgrwt>
<rscale>  0 0.12499890E+03</rscale>
<asrwt>0</asrwt>
<pdfrwt beam="1">  1        4 0.15866266E-02 0.12499890E+03</pdfrwt>
<pdfrwt beam="2">  1       -4 0.15387132E+00 0.12499890E+03</pdfrwt>
<totfact> 0.70823807E+02</totfact>
</mgrwt>
</event>
<event>
 5    1  0.1440092E-002  0.1250362E+03  0.7818608E-02  0.1235013E+00
          4   -1    0    0  501    0  0.00000000000E+00  0.00000000000E+00  0.32593794645E+03  0.32594042069E+03  0.12700000000E+01 0.  1.
         -4   -1    0    0    0  501 -0.00000000000E+00 -0.00000000000E+00 -0.11955428582E+02  0.12022694064E+02  0.12700000000E+01 0.  1.
         25    2    1    2    0    0  0.00000000000E+00  0.00000000000E+00  0.31398251787E+03  0.33796311475E+03  0.12503617638E+03 0.  0.
    9000005    1    3    3    0    0  0.48346959198E+02 -0.31409347791E+01  0.50226928614E+02  0.69792824079E+02  0.10000000000E+01 0.  0.
    9000005    1    3    3    0    0 -0.48346959198E+02  0.31409347791E+01  0.26375558926E+03  0.26817029067E+03  0.10000000000E+01 0.  0.
<mgrwt>
<rscale>  0 0.12503618E+03</rscale>
<asrwt>0</asrwt>
<pdfrwt beam="1">  1        4 0.81493203E-01 0.12503618E+03</pdfrwt>
<pdfrwt beam="2">  1       -4 0.29975746E-02 0.12503618E+03</pdfrwt>
<totfact> 0.11960144E+03</totfact>
</mgrwt>
</event>
<event>
 5    1  0.1440092E-002  0.1250008E+03  0.7818608E-02  0.1235068E+00
         -4   -1    0    0    0  501 -0.00000000000E+00  0.00000000000E+00  0.98066212955E+02  0.98074436135E+02  0.12700000000E+01 0.  1.
          4   -1    0    0  501    0  0.00000000000E+00 -0.00000000000E+00 -0.39813243793E+02  0.39833494465E+02  0.12700000000E+01 0.  1.
         25    2    1    2    0    0  0.00000000000E+00  0.00000000000E+00  0.58252969162E+02  0.13790793060E+03  0.12500075562E+03 0.  0.
    9000005    1    3    3    0    0 -0.34722946435E+02  0.49852095084E+02  0.45280169452E+02  0.75777359013E+02  0.10000000000E+01 0.  0.
    9000005    1    3    3    0    0  0.34722946435E+02 -0.49852095084E+02  0.12972799710E+02  0.62130571587E+02  0.10000000000E+01 0.  0.
<mgrwt>
<rscale>  0 0.12500076E+03</rscale>
<asrwt>0</asrwt>
<pdfrwt beam="2">  1        4 0.99568702E-02 0.12500076E+03</pdfrwt>
<pdfrwt beam="1">  1       -4 0.24520112E-01 0.12500076E+03</pdfrwt>
<totfact> 0.19147548E+03</totfact>
</mgrwt>
</event>
<event>
 5    1  0.1440092E-002  0.1250056E+03  0.7818608E-02  0.1235061E+00
         -4   -1    0    0    0  501 -0.00000000000E+00  0.00000000000E+00  0.70832728056E+02  0.70844112415E+02  0.12700000000E+01 0. -1.
          4   -1    0    0  501    0  0.00000000000E+00 -0.00000000000E+00 -0.55129341491E+02  0.55143967877E+02  0.12700000000E+01 0. -1.
         25    2    1    2    0    0  0.00000000000E+00  0.00000000000E+00  0.15703386566E+02  0.12598808029E+03  0.12500559998E+03 0.  0.
    9000005    1    3    3    0    0  0.37541049092E+02  0.46646941993E+02 -0.10186808020E+02  0.60745688093E+02  0.10000000000E+01 0.  0.
    9000005    1    3    3    0    0 -0.37541049092E+02 -0.46646941993E+02  0.25890194585E+02  0.65242392199E+02  0.10000000000E+01 0.  0.
<mgrwt>
<rscale>  0 0.12500560E+03</rscale>
<asrwt>0</asrwt>
<pdfrwt beam="2">  1        4 0.13785587E-01 0.12500560E+03</pdfrwt>
<pdfrwt beam="1">  1       -4 0.17711433E-01 0.12500560E+03</pdfrwt>
<totfact> 0.19778973E+03</totfact>
</mgrwt>
</event>
<event>
 5    1  0.1440092E-002  0.1250016E+03  0.7818608E-02  0.1235067E+00
         -4   -1    0    0    0  501 -0.00000000000E+00  0.00000000000E+00  0.13166687702E+02  0.13227795169E+02  0.12700000000E+01 0.  1.
          4   -1    0    0  501    0  0.00000000000E+00 -0.00000000000E+00 -0.29593493308E+03  0.29593765816E+03  0.12700000000E+01 0.  1.
         25    2    1    2    0    0  0.00000000000E+00  0.00000000000E+00 -0.28276824538E+03  0.30916545333E+03  0.12500158774E+03 0.  0.
    9000005    1    3    3    0    0  0.12827604813E+02 -0.17509777353E+02  0.35560657350E+01  0.22017841668E+02  0.10000000000E+01 0.  0.
    9000005    1    3    3    0    0 -0.12827604813E+02  0.17509777353E+02 -0.28632431111E+03  0.28714761166E+03  0.10000000000E+01 0.  0.
<mgrwt>
<rscale>  0 0.12500159E+03</rscale>
<asrwt>0</asrwt>
<pdfrwt beam="2">  1        4 0.73991691E-01 0.12500159E+03</pdfrwt>
<pdfrwt beam="1">  1       -4 0.32996520E-02 0.12500159E+03</pdfrwt>
<totfact> 0.12717550E+03</totfact>
</mgrwt>
</event>
<event>
 5    1  0.1440092E-002  0.1250005E+03  0.7818608E-02  0.1235069E+00
         -4   -1    0    0    0  501 -0.00000000000E+00  0.00000000000E+00  0.41188434113E+02  0.41208008987E+02  0.12700000000E+01 0. -1.
          4   -1    0    0  501    0  0.00000000000E+00 -0.00000000000E+00 -0.94792864958E+02  0.94801372073E+02  0.12700000000E+01 0. -1.
         25    2    1    2    0    0  0.00000000000E+00  0.00000000000E+00 -0.53604430845E+02  0.13600938106E+03  0.12500046692E+03 0.  0.
    9000005    1    3    3    0    0  0.19852953441E+02  0.49695648963E+02 -0.61916440745E+02  0.81844015790E+02  0.10000000000E+01 0.  0.
    9000005    1    3    3    0    0 -0.19852953441E+02 -0.49695648963E+02  0.83120099000E+01  0.54165365269E+02  0.10000000000E+01 0.  0.
<mgrwt>
<rscale>  0 0.12500047E+03</rscale>
<asrwt>0</asrwt>
<pdfrwt beam="2">  1        4 0.23701726E-01 0.12500047E+03</pdfrwt>
<pdfrwt beam="1">  1       -4 0.10300619E-01 0.12500047E+03</pdfrwt>
<totfact> 0.19246187E+03</totfact>
</mgrwt>
</event>
<event>
 5    1  0.1440092E-002  0.1250034E+03  0.7818608E-02  0.1235064E+00
          4   -1    0    0  501    0  0.00000000000E+00  0.00000000000E+00  0.58599885973E+01  0.59960292161E+01  0.12700000000E+01 0.  1.
         -4   -1    0    0    0  501 -0.00000000000E+00 -0.00000000000E+00 -0.65884772113E+03  0.65884894516E+03  0.12700000000E+01 0.  1.
         25    2    1    2    0    0  0.00000000000E+00  0.00000000000E+00 -0.65298773253E+03  0.66484497438E+03  0.12500344441E+03 0.  0.
    9000005    1    3    3    0    0 -0.60961213647E+02  0.19718207128E+01 -0.39889494951E+03  0.40353232633E+03  0.10000000000E+01 0.  0.
    9000005    1    3    3    0    0  0.60961213647E+02 -0.19718207128E+01 -0.25409278302E+03  0.26131264805E+03  0.10000000000E+01 0.  0.
<mgrwt>
<rscale>  0 0.12500344E+03</rscale>
<asrwt>0</asrwt>
<pdfrwt beam="1">  1        4 0.14821575E-02 0.12500344E+03</pdfrwt>
<pdfrwt beam="2">  1       -4 0.16472884E+00 0.12500344E+03</pdfrwt>
<totfact> 0.65832640E+02</totfact>
</mgrwt>
</event>
<event>
 5    1  0.1440092E-002  0.1249988E+03  0.7818608E-02  0.1235071E+00
          4   -1    0    0  501    0  0.00000000000E+00  0.00000000000E+00  0.13019875509E+03  0.13020494893E+03  0.12700000000E+01 0.  1.
         -4   -1    0    0    0  501 -0.00000000000E+00 -0.00000000000E+00 -0.29981275494E+02  0.30008161894E+02  0.12700000000E+01 0.  1.
         25    2    1    2    0    0  0.00000000000E+00  0.00000000000E+00  0.10021747959E+03  0.16021311082E+03  0.12499879065E+03 0.  0.
    9000005    1    3    3    0    0 -0.54178893485E+02  0.28778320623E+02  0.65362262180E+02  0.89648031514E+02  0.10000000000E+01 0.  0.
    9000005    1    3    3    0    0  0.54178893485E+02 -0.28778320623E+02  0.34855217412E+02  0.70565079309E+02  0.10000000000E+01 0.  0.
<mgrwt>
<rscale>  0 0.12499879E+03</rscale>
<asrwt>0</asrwt>
<pdfrwt beam="1">  1        4 0.32553823E-01 0.12499879E+03</pdfrwt>
<pdfrwt beam="2">  1       -4 0.74994541E-02 0.12499879E+03</pdfrwt>
<totfact> 0.18048237E+03</totfact>
</mgrwt>
</event>
<event>
 5    1  0.1440092E-002  0.1250056E+03  0.7818608E-02  0.1235061E+00
         -4   -1    0    0    0  501 -0.00000000000E+00  0.00000000000E+00  0.10017242317E+02  0.10097427576E+02  0.12700000000E+01 0. -1.
          4   -1    0    0  501    0  0.00000000000E+00 -0.00000000000E+00 -0.38835141972E+03  0.38835349632E+03  0.12700000000E+01 0. -1.
         25    2    1    2    0    0  0.00000000000E+00  0.00000000000E+00 -0.37833417741E+03  0.39845092389E+03  0.12500555570E+03 0.  0.
    9000005    1    3    3    0    0 -0.45280071244E+02  0.39420687829E+02 -0.24449710138E+03  0.25176200680E+03  0.10000000000E+01 0.  0.
    9000005    1    3    3    0    0  0.45280071244E+02 -0.39420687829E+02 -0.13383707602E+03  0.14668891710E+03  0.10000000000E+01 0.  0.
<mgrwt>
<rscale>  0 0.12500556E+03</rscale>
<asrwt>0</asrwt>
<pdfrwt beam="2">  1        4 0.97098087E-01 0.12500556E+03</pdfrwt>
<pdfrwt beam="1">  1       -4 0.25145946E-02 0.12500556E+03</pdfrwt>
<totfact> 0.10599841E+03</totfact>
</mgrwt>
</event>
<event>
 5    1  0.1440092E-002  0.1249953E+03  0.7818608E-02  0.1235077E+00
          4   -1    0    0  501    0  0.00000000000E+00  0.00000000000E+00  0.52016107468E+03  0.52016262506E+03  0.12700000000E+01 0. -1.
         -4   -1    0    0    0  501 -0.00000000000E+00 -0.00000000000E+00 -0.74538549696E+01  0.75612732994E+01  0.12700000000E+01 0. -1.
         25    2    1    2    0    0  0.00000000000E+00  0.00000000000E+00  0.51270721971E+03  0.52772389836E+03  0.12499527895E+03 0.  0.
    9000005    1    3    3    0    0 -0.35118315922E+02 -0.50972005708E+02  0.29255261094E+03  0.29903088744E+03  0.10000000000E+01 0.  0.
    9000005    1    3    3    0    0  0.35118315922E+02  0.50972005708E+02  0.22015460878E+03  0.22869301092E+03  0.10000000000E+01 0.  0.
<mgrwt>
<rscale>  0 0.12499528E+03</rscale>
<asrwt>0</asrwt>
<pdfrwt beam="1">  1        4 0.13005389E+00 0.12499528E+03</pdfrwt>
<pdfrwt beam="2">  1       -4 0.18770849E-02 0.12499528E+03</pdfrwt>
<totfact> 0.83368615E+02</totfact>
</mgrwt>
</event>
<event>
 5    1  0.1440092E-002  0.1249968E+03  0.7818608E-02  0.1235074E+00
          4   -1    0    0  501    0  0.00000000000E+00  0.00000000000E+00  0.13136165239E+03  0.13136779141E+03  0.12700000000E+01 0.  1.
         -4   -1    0    0    0  501 -0.00000000000E+00 -0.00000000000E+00 -0.29714683155E+02  0.29741810553E+02  0.12700000000E+01 0.  1.
         25    2    1    2    0    0  0.00000000000E+00  0.00000000000E+00  0.10164696924E+03  0.16110960196E+03  0.12499678991E+03 0.  0.
    9000005    1    3    3    0    0 -0.27029086413E+02  0.21914275166E+02 -0.16078792262E+02  0.38344941374E+02  0.10000000000E+01 0.  0.
    9000005    1    3    3    0    0  0.27029086413E+02 -0.21914275166E+02  0.11772576150E+03  0.12276466059E+03  0.10000000000E+01 0.  0.
<mgrwt>
<rscale>  0 0.12499679E+03</rscale>
<asrwt>0</asrwt>
<pdfrwt beam="1">  1        4 0.32844571E-01 0.12499679E+03</pdfrwt>
<pdfrwt beam="2">  1       -4 0.74328291E-02 0.12499679E+03</pdfrwt>
<totfact> 0.18007003E+03</totfact>
</mgrwt>
</event>
<event>
 5    1  0.1440092E-002  0.1249962E+03  0.7818608E-02  0.1235075E+00
         -4   -1    0    0    0  501 -0.00000000000E+00  0.00000000000E+00  0.11503151559E+02  0.11573046090E+02  0.12700000000E+01 0.  1.
          4   -1    0    0  501    0  0.00000000000E+00 -0.00000000000E+00 -0.33846050886E+03  0.33846289155E+03  0.12700000000E+01 0.  1.
         25    2    1    2    0    0  0.00000000000E+00  0.00000000000E+00 -0.32695735730E+03  0.35003593764E+03  0.12499617653E+03 0.  0.
    9000005    1    3    3    0    0  0.34777480907E+02  0.51626536751E+02 -0.17887781880E+03  0.18940181238E+03  0.10000000000E+01 0.  0.
    9000005    1    3    3    0    0 -0.34777480907E+02 -0.51626536751E+02 -0.14807953850E+03  0.16063412526E+03  0.10000000000E+01 0.  0.
<mgrwt>
<rscale>  0 0.12499618E+03</rscale>
<asrwt>0</asrwt>
<pdfrwt beam="2">  1        4 0.84624129E-01 0.12499618E+03</pdfrwt>
<pdfrwt beam="1">  1       -4 0.28848237E-02 0.12499618E+03</pdfrwt>
<totfact> 0.11677485E+03</totfact>
</mgrwt>
</event>
<event>
 5    1  0.1440092E-002  0.1250001E+03  0.7818608E-02  0.1235069E+00
          4   -1    0    0  501    0  0.00000000000E+00  0.00000000000E+00  0.53663458815E+03  0.53663609094E+03  0.12700000000E+01 0.  1.
         -4   -1    0    0    0  501 -0.00000000000E+00 -0.00000000000E+00 -0.72222494649E+01  0.73330612526E+01  0.12700000000E+01 0.  1.
         25    2    1    2    0    0  0.00000000000E+00  0.00000000000E+00  0.52941233868E+03  0.54396915219E+03  0.12500005674E+03 0.  0.
    9000005    1    3    3    0    0  0.16795147232E+01  0.59212913436E+02  0.35133374981E+03  0.35629397082E+03  0.10000000000E+01 0.  0.
    9000005    1    3    3    0    0 -0.16795147232E+01 -0.59212913436E+02  0.17807858887E+03  0.18767518137E+03  0.10000000000E+01 0.  0.
<mgrwt>
<rscale>  0 0.12500006E+03</rscale>
<asrwt>0</asrwt>
<pdfrwt beam="1">  1        4 0.13417269E+00 0.12500006E+03</pdfrwt>
<pdfrwt beam="2">  1       -4 0.18196017E-02 0.12500006E+03</pdfrwt>
<totfact> 0.81013195E+02</totfact>
</mgrwt>
</event>
<event>
 5    1  0.1440092E-002  0.1250039E+03  0.7818608E-02  0.1235063E+00
         -4   -1    0    0    0  501 -0.00000000000E+00  0.00000000000E+00  0.42670407247E+03  0.42670596242E+03  0.12700000000E+01 0. -1.
          4   -1    0    0  501    0  0.00000000000E+00 -0.00000000000E+00 -0.91090795365E+01  0.91971859828E+01  0.12700000000E+01 0. -1.
         25    2    1    2    0    0  0.00000000000E+00  0.00000000000E+00  0.41759499293E+03  0.43590314840E+03  0.12500390659E+03 0.  0.
    9000005    1    3    3    0    0  0.58371899181E+02 -0.75883195072E-01  0.28663207000E+03  0.29251705578E+03  0.10000000000E+01 0.  0.
    9000005    1    3    3    0    0 -0.58371899181E+02  0.75883195072E-01  0.13096292293E+03  0.14338609262E+03  0.10000000000E+01 0.  0.
<mgrwt>
<rscale>  0 0.12500391E+03</rscale>
<asrwt>0</asrwt>
<pdfrwt beam="2">  1        4 0.22885196E-02 0.12500391E+03</pdfrwt>
<pdfrwt beam="1">  1       -4 0.10668726E+00 0.12500391E+03</pdfrwt>
<totfact> 0.98595331E+02</totfact>
</mgrwt>
</event>
<event>
 5    1  0.1440092E-002  0.1250025E+03  0.7818608E-02  0.1235065E+00
          4   -1    0    0  501    0  0.00000000000E+00  0.00000000000E+00  0.10768324542E+03  0.10769073425E+03  0.12700000000E+01 0. -1.
         -4   -1    0    0    0  501 -0.00000000000E+00 -0.00000000000E+00 -0.36256966608E+02  0.36279202412E+02  0.12700000000E+01 0. -1.
         25    2    1    2    0    0  0.00000000000E+00  0.00000000000E+00  0.71426278808E+02  0.14396993666E+03  0.12500251741E+03 0.  0.
    9000005    1    3    3    0    0 -0.45602304919E+02  0.37789028624E+01  0.84733788583E+02  0.96305063462E+02  0.10000000000E+01 0.  0.
    9000005    1    3    3    0    0  0.45602304919E+02 -0.37789028624E+01 -0.13307509776E+02  0.47664873200E+02  0.10000000000E+01 0.  0.
<mgrwt>
<rscale>  0 0.12500252E+03</rscale>
<asrwt>0</asrwt>
<pdfrwt beam="1">  1        4 0.26924527E-01 0.12500252E+03</pdfrwt>
<pdfrwt beam="2">  1       -4 0.90679573E-02 0.12500252E+03</pdfrwt>
<totfact> 0.18837949E+03</totfact>
</mgrwt>
</event>
<event>
 5    1  0.1440092E-002  0.1250006E+03  0.7818608E-02  0.1235068E+00
         -4   -1    0    0    0  501 -0.00000000000E+00  0.00000000000E+00  0.18633573183E+02  0.18676802445E+02  0.12700000000E+01 0. -1.
          4   -1    0    0  501    0  0.00000000000E+00 -0.00000000000E+00 -0.20934910692E+03  0.20935295906E+03  0.12700000000E+01 0. -1.
         25    2    1    2    0    0  0.00000000000E+00  0.00000000000E+00 -0.19071553374E+03  0.22802976151E+03  0.12500062930E+03 0.  0.
    9000005    1    3    3    0    0  0.35939277964E+02  0.24058881936E+02 -0.17764702899E+03  0.18283853098E+03  0.10000000000E+01 0.  0.
    9000005    1    3    3    0    0 -0.35939277964E+02 -0.24058881936E+02 -0.13068504747E+02  0.45191230531E+02  0.10000000000E+01 0.  0.
<mgrwt>
<rscale>  0 0.12500063E+03</rscale>
<asrwt>0</asrwt>
<pdfrwt beam="2">  1        4 0.52343155E-01 0.12500063E+03</pdfrwt>
<pdfrwt beam="1">  1       -4 0.46642791E-02 0.12500063E+03</pdfrwt>
<totfact> 0.15257749E+03</totfact>
</mgrwt>
</event>
<event>
 5    1  0.1440092E-002  0.1249976E+03  0.7818608E-02  0.1235073E+00
         -4   -1    0    0    0  501 -0.00000000000E+00  0.00000000000E+00  0.11648930783E+03  0.11649623058E+03  0.12700000000E+01 0.  1.
          4   -1    0    0  501    0  0.00000000000E+00 -0.00000000000E+00 -0.33511860804E+02  0.33535916784E+02  0.12700000000E+01 0.  1.
         25    2    1    2    0    0  0.00000000000E+00  0.00000000000E+00  0.82977447026E+02  0.15003214736E+03  0.12499755408E+03 0.  0.
    9000005    1    3    3    0    0  0.40860337663E+02  0.44756254911E+02  0.59786906166E+02  0.85136148001E+02  0.10000000000E+01 0.  0.
    9000005    1    3    3    0    0 -0.40860337663E+02 -0.44756254911E+02  0.23190540859E+02  0.64895999360E+02  0.10000000000E+01 0.  0.
<mgrwt>
<rscale>  0 0.12499755E+03</rscale>
<asrwt>0</asrwt>
<pdfrwt beam="2">  1        4 0.83818376E-02 0.12499755E+03</pdfrwt>
<pdfrwt beam="1">  1       -4 0.29126199E-01 0.12499755E+03</pdfrwt>
<totfact> 0.18538255E+03</totfact>
</mgrwt>
</event>
<event>
 5    1  0.1440092E-002  0.1249995E+03  0.7818608E-02  0.1235070E+00
          4   -1    0    0  501    0  0.00000000000E+00  0.00000000000E+00  0.22005160303E+03  0.22005526782E+03  0.12700000000E+01 0.  1.
         -4   -1    0    0    0  501 -0.00000000000E+00 -0.00000000000E+00 -0.17724847729E+02  0.17770287759E+02  0.12700000000E+01 0.  1.
         25    2    1    2    0    0  0.00000000000E+00  0.00000000000E+00  0.20232675530E+03  0.23782555558E+03  0.12499951590E+03 0.  0.
    9000005    1    3    3    0    0 -0.25201264195E+02  0.56272856132E+02  0.12051787713E+03  0.13537834673E+03  0.10000000000E+01 0.  0.
    9000005    1    3    3    0    0  0.25201264195E+02 -0.56272856132E+02  0.81808878165E+02  0.10244720885E+03  0.10000000000E+01 0.  0.
<mgrwt>
<rscale>  0 0.12499952E+03</rscale>
<asrwt>0</asrwt>
<pdfrwt beam="1">  1        4 0.55019039E-01 0.12499952E+03</pdfrwt>
<pdfrwt beam="2">  1       -4 0.44373501E-02 0.12499952E+03</pdfrwt>
<totfact> 0.14911827E+03</totfact>
</mgrwt>
</event>
<event>
 5    1  0.1440092E-002  0.1250012E+03  0.7818608E-02  0.1235067E+00
         -4   -1    0    0    0  501 -0.00000000000E+00  0.00000000000E+00  0.66275188290E+02  0.66287355377E+02  0.12700000000E+01 0. -1.
          4   -1    0    0  501    0  0.00000000000E+00 -0.00000000000E+00 -0.58916571915E+02  0.58930258324E+02  0.12700000000E+01 0. -1.
         25    2    1    2    0    0  0.00000000000E+00  0.00000000000E+00  0.73586163752E+01  0.12521761370E+03  0.12500120618E+03 0.  0.
    9000005    1    3    3    0    0 -0.25504680231E+02 -0.46347899748E+02 -0.29645519550E+02  0.60650419242E+02  0.10000000000E+01 0.  0.
    9000005    1    3    3    0    0  0.25504680231E+02  0.46347899748E+02  0.37004135926E+02  0.64567194459E+02  0.10000000000E+01 0.  0.
<mgrwt>
<rscale>  0 0.12500121E+03</rscale>
<asrwt>0</asrwt>
<pdfrwt beam="2">  1        4 0.14732375E-01 0.12500121E+03</pdfrwt>
<pdfrwt beam="1">  1       -4 0.16572029E-01 0.12500121E+03</pdfrwt>
<totfact> 0.19822699E+03</totfact>
</mgrwt>
</event>
<event>
 5    1  0.1440092E-002  0.1249906E+03  0.7818608E-02  0.1235084E+00
          4   -1    0    0  501    0  0.00000000000E+00  0.00000000000E+00  0.16554810621E+02  0.16603453096E+02  0.12700000000E+01 0. -1.
         -4   -1    0    0    0  501 -0.00000000000E+00 -0.00000000000E+00 -0.23552675190E+03  0.23553017591E+03  0.12700000000E+01 0. -1.
         25    2    1    2    0    0  0.00000000000E+00  0.00000000000E+00 -0.21897194128E+03  0.25213362900E+03  0.12499062287E+03 0.  0.
    9000005    1    3    3    0    0 -0.52128928869E+02  0.29694258303E+02 -0.74228458515E+02  0.95446520391E+02  0.10000000000E+01 0.  0.
    9000005    1    3    3    0    0  0.52128928869E+02 -0.29694258303E+02 -0.14474348277E+03  0.15668710861E+03  0.10000000000E+01 0.  0.
<mgrwt>
<rscale>  0 0.12499062E+03</rscale>
<asrwt>0</asrwt>
<pdfrwt beam="1">  1        4 0.41452117E-02 0.12499062E+03</pdfrwt>
<pdfrwt beam="2">  1       -4 0.58888186E-01 0.12499062E+03</pdfrwt>
<totfact> 0.14430392E+03</totfact>
</mgrwt>
</event>
<event>
 5    1  0.1440092E-002  0.1249999E+03  0.7818608E-02  0.1235069E+00
         -4   -1    0    0    0  501 -0.00000000000E+00  0.00000000000E+00  0.65578688586E+01  0.66797113685E+01  0.12700000000E+01 0. -1.
          4   -1    0    0  501    0  0.00000000000E+00 -0.00000000000E+00 -0.59005259892E+03  0.59005396566E+03  0.12700000000E+01 0. -1.
         25    2    1    2    0    0  0.00000000000E+00  0.00000000000E+00 -0.58349473006E+03  0.59673367703E+03  0.12499992517E+03 0.  0.
    9000005    1    3    3    0    0  0.18096992376E+02 -0.14696757567E+02 -0.56853932448E+03  0.56901797801E+03  0.10000000000E+01 0.  0.
    9000005    1    3    3    0    0 -0.18096992376E+02  0.14696757567E+02 -0.14955405577E+02  0.27715699017E+02  0.10000000000E+01 0.  0.
<mgrwt>
<rscale>  0 0.12499993E+03</rscale>
<asrwt>0</asrwt>
<pdfrwt beam="2">  1        4 0.14752837E+00 0.12499993E+03</pdfrwt>
<pdfrwt beam="1">  1       -4 0.16548704E-02 0.12499993E+03</pdfrwt>
<totfact> 0.73915615E+02</totfact>
</mgrwt>
</event>
<event>
 5    1  0.1440092E-002  0.1249868E+03  0.7818608E-02  0.1235090E+00
          4   -1    0    0  501    0  0.00000000000E+00  0.00000000000E+00  0.17406316456E+02  0.17452585841E+02  0.12700000000E+01 0.  1.
         -4   -1    0    0    0  501 -0.00000000000E+00 -0.00000000000E+00 -0.22402223484E+03  0.22402583468E+03  0.12700000000E+01 0.  1.
         25    2    1    2    0    0  0.00000000000E+00  0.00000000000E+00 -0.20661591839E+03  0.24147842052E+03  0.12498675868E+03 0.  0.
    9000005    1    3    3    0    0 -0.17332243116E+02  0.16307874045E+01  0.12635797748E+02  0.21534379576E+02  0.10000000000E+01 0.  0.
    9000005    1    3    3    0    0  0.17332243116E+02 -0.16307874045E+01 -0.21925171614E+03  0.21994404095E+03  0.10000000000E+01 0.  0.
<mgrwt>
<rscale>  0 0.12498676E+03</rscale>
<asrwt>0</asrwt>
<pdfrwt beam="1">  1        4 0.43578135E-02 0.12498676E+03</pdfrwt>
<pdfrwt beam="2">  1       -4 0.56011783E-01 0.12498676E+03</pdfrwt>
<totfact> 0.14790163E+03</totfact>
</mgrwt>
</event>
<event>
 5    1  0.1440092E-002  0.1249998E+03  0.7818608E-02  0.1235070E+00
          4   -1    0    0  501    0  0.00000000000E+00  0.00000000000E+00  0.62729501587E+03  0.62729630146E+03  0.12700000000E+01 0.  1.
         -4   -1    0    0    0  501 -0.00000000000E+00 -0.00000000000E+00 -0.61610583638E+01  0.62905914000E+01  0.12700000000E+01 0.  1.
         25    2    1    2    0    0  0.00000000000E+00  0.00000000000E+00  0.62113395750E+03  0.63358689286E+03  0.12499983059E+03 0.  0.
    9000005    1    3    3    0    0  0.92108382688E+01 -0.61069953126E+02  0.35888229066E+03  0.36415913728E+03  0.10000000000E+01 0.  0.
    9000005    1    3    3    0    0 -0.92108382688E+01  0.61069953126E+02  0.26225166684E+03  0.26942775558E+03  0.10000000000E+01 0.  0.
<mgrwt>
<rscale>  0 0.12499983E+03</rscale>
<asrwt>0</asrwt>
<pdfrwt beam="1">  1        4 0.15684006E+00 0.12499983E+03</pdfrwt>
<pdfrwt beam="2">  1       -4 0.15566174E-02 0.12499983E+03</pdfrwt>
<totfact> 0.69421053E+02</totfact>
</mgrwt>
</event>
<event>
 5    1  0.1440092E-002  0.1250006E+03  0.7818608E-02  0.1235068E+00
         -4   -1    0    0    0  501 -0.00000000000E+00  0.00000000000E+00  0.22013025592E+02  0.22049630285E+02  0.12700000000E+01 0.  1.
          4   -1    0    0  501    0  0.00000000000E+00 -0.00000000000E+00 -0.17726702376E+03  0.17727157306E+03  0.12700000000E+01 0.  1.
         25    2    1    2    0    0  0.00000000000E+00  0.00000000000E+00 -0.15525399817E+03  0.19932120334E+03  0.12500055261E+03 0.  0.
    9000005    1    3    3    0    0 -0.48325451403E+02  0.13843397914E+02 -0.18428219262E+02  0.53549866333E+02  0.10000000000E+01 0.  0.
    9000005    1    3    3    0    0  0.48325451403E+02 -0.13843397914E+02 -0.13682577891E+03  0.14577133701E+03  0.10000000000E+01 0.  0.
<mgrwt>
<rscale>  0 0.12500055E+03</rscale>
<asrwt>0</asrwt>
<pdfrwt beam="2">  1        4 0.44321896E-01 0.12500055E+03</pdfrwt>
<pdfrwt beam="1">  1       -4 0.55084012E-02 0.12500055E+03</pdfrwt>
<totfact> 0.16349049E+03</totfact>
</mgrwt>
</event>
<event>
 5    1  0.1440092E-002  0.1249997E+03  0.7818608E-02  0.1235070E+00
         -4   -1    0    0    0  501 -0.00000000000E+00  0.00000000000E+00  0.66920506266E+03  0.66920626774E+03  0.12700000000E+01 0. -1.
          4   -1    0    0  501    0  0.00000000000E+00 -0.00000000000E+00 -0.57668145805E+01  0.59050021512E+01  0.12700000000E+01 0. -1.
         25    2    1    2    0    0  0.00000000000E+00  0.00000000000E+00  0.66343824808E+03  0.67511126990E+03  0.12499967091E+03 0.  0.
    9000005    1    3    3    0    0 -0.16441853727E+02 -0.16274874502E+02  0.18186351803E+02  0.29444005942E+02  0.10000000000E+01 0.  0.
    9000005    1    3    3    0    0  0.16441853727E+02  0.16274874502E+02  0.64525189628E+03  0.64566726395E+03  0.10000000000E+01 0.  0.
<mgrwt>
<rscale>  0 0.12499967E+03</rscale>
<asrwt>0</asrwt>
<pdfrwt beam="2">  1        4 0.14591278E-02 0.12499967E+03</pdfrwt>
<pdfrwt beam="1">  1       -4 0.16731869E+00 0.12499967E+03</pdfrwt>
<totfact> 0.64709892E+02</totfact>
</mgrwt>
</event>
<event>
 5    1  0.1440092E-002  0.1249887E+03  0.7818608E-02  0.1235087E+00
          4   -1    0    0  501    0  0.00000000000E+00  0.00000000000E+00  0.52946405014E+03  0.52946557328E+03  0.12700000000E+01 0. -1.
         -4   -1    0    0    0  501 -0.00000000000E+00 -0.00000000000E+00 -0.73201950205E+01  0.74295460923E+01  0.12700000000E+01 0. -1.
         25    2    1    2    0    0  0.00000000000E+00  0.00000000000E+00  0.52214385512E+03  0.53689511937E+03  0.12498865456E+03 0.  0.
    9000005    1    3    3    0    0 -0.34282802894E+02 -0.52110512533E+02  0.24515817174E+03  0.25297103641E+03  0.10000000000E+01 0.  0.
    9000005    1    3    3    0    0  0.34282802894E+02  0.52110512533E+02  0.27698568338E+03  0.28392408296E+03  0.10000000000E+01 0.  0.
<mgrwt>
<rscale>  0 0.12498865E+03</rscale>
<asrwt>0</asrwt>
<pdfrwt beam="1">  1        4 0.13237986E+00 0.12498865E+03</pdfrwt>
<pdfrwt beam="2">  1       -4 0.18439083E-02 0.12498865E+03</pdfrwt>
<totfact> 0.82043969E+02</totfact>
</mgrwt>
</event>
<event>
 5    1  0.1440092E-002  0.1249997E+03  0.7818608E-02  0.1235070E+00
         -4   -1    0    0    0  501 -0.00000000000E+00  0.00000000000E+00  0.12355105943E+03  0.12355758652E+03  0.12700000000E+01 0.  1.
          4   -1    0    0  501    0  0.00000000000E+00 -0.00000000000E+00 -0.31596195492E+02  0.31621708834E+02  0.12700000000E+01 0.  1.
         25    2    1    2    0    0  0.00000000000E+00  0.00000000000E+00  0.91954863943E+02  0.15517929536E+03  0.12499966682E+03 0.  0.
    9000005    1    3    3    0    0 -0.48323050958E+02 -0.34118348881E+02  0.20961609852E+02  0.62765978618E+02  0.10000000000E+01 0.  0.
    9000005    1    3    3    0    0  0.48323050958E+02  0.34118348881E+02  0.70993254092E+02  0.92413316739E+02  0.10000000000E+01 0.  0.
<mgrwt>
<rscale>  0 0.12499967E+03</rscale>
<asrwt>0</asrwt>
<pdfrwt beam="2">  1        4 0.79030540E-02 0.12499967E+03</pdfrwt>
<pdfrwt beam="1">  1       -4 0.30891770E-01 0.12499967E+03</pdfrwt>
<totfact> 0.18287153E+03</totfact>
</mgrwt>
</event>
<event>
 5    1  0.1440092E-002  0.1250092E+03  0.7818608E-02  0.1235055E+00
          4   -1    0    0  501    0  0.00000000000E+00  0.00000000000E+00  0.35116701993E+03  0.35116931641E+03  0.12700000000E+01 0. -1.
         -4   -1    0    0    0  501 -0.00000000000E+00 -0.00000000000E+00 -0.11086674766E+02  0.11159178167E+02  0.12700000000E+01 0. -1.
         25    2    1    2    0    0  0.00000000000E+00  0.00000000000E+00  0.34008034517E+03  0.36232849458E+03  0.12500918692E+03 0.  0.
    9000005    1    3    3    0    0 -0.49591593422E+02  0.40496780642E+01  0.60431861726E+02  0.78286243634E+02  0.10000000000E+01 0.  0.
    9000005    1    3    3    0    0  0.49591593422E+02 -0.40496780642E+01  0.27964848344E+03  0.28404225094E+03  0.10000000000E+01 0.  0.
<mgrwt>
<rscale>  0 0.12500919E+03</rscale>
<asrwt>0</asrwt>
<pdfrwt beam="1">  1        4 0.87801099E-01 0.12500919E+03</pdfrwt>
<pdfrwt beam="2">  1       -4 0.27810189E-02 0.12500919E+03</pdfrwt>
<totfact> 0.11386319E+03</totfact>
</mgrwt>
</event>
<event>
 5    1  0.1440092E-002  0.1250006E+03  0.7818608E-02  0.1235068E+00
          4   -1    0    0  501    0  0.00000000000E+00  0.00000000000E+00  0.24307693874E+02  0.24340848002E+02  0.12700000000E+01 0. -1.
         -4   -1    0    0    0  501 -0.00000000000E+00 -0.00000000000E+00 -0.16055652964E+03  0.16056155241E+03  0.12700000000E+01 0. -1.
         25    2    1    2    0    0  0.00000000000E+00  0.00000000000E+00 -0.13624883577E+03  0.18490240041E+03  0.12500060971E+03 0.  0.
    9000005    1    3    3    0    0 -0.15124203766E+01 -0.59350005494E+02 -0.96981472068E+02  0.11371506713E+03  0.10000000000E+01 0.  0.
    9000005    1    3    3    0    0  0.15124203766E+01  0.59350005494E+02 -0.39267363702E+02  0.71187333281E+02  0.10000000000E+01 0.  0.
<mgrwt>
<rscale>  0 0.12500061E+03</rscale>
<asrwt>0</asrwt>
<pdfrwt beam="1">  1        4 0.60816960E-02 0.12500061E+03</pdfrwt>
<pdfrwt beam="2">  1       -4 0.40143901E-01 0.12500061E+03</pdfrwt>
<totfact> 0.16944734E+03</totfact>
</mgrwt>
</event>
<event>
 5    1  0.1440092E-002  0.1250006E+03  0.7818608E-02  0.1235068E+00
          4   -1    0    0  501    0  0.00000000000E+00  0.00000000000E+00  0.10165702985E+03  0.10166496259E+03  0.12700000000E+01 0. -1.
         -4   -1    0    0    0  501 -0.00000000000E+00 -0.00000000000E+00 -0.38406221059E+02  0.38427213222E+02  0.12700000000E+01 0. -1.
         25    2    1    2    0    0  0.00000000000E+00  0.00000000000E+00  0.63250808789E+02  0.14009217581E+03  0.12500061164E+03 0.  0.
    9000005    1    3    3    0    0  0.54266707055E+02 -0.22108461791E+02  0.72864547535E+01  0.59057192621E+02  0.10000000000E+01 0.  0.
    9000005    1    3    3    0    0 -0.54266707055E+02  0.22108461791E+02  0.55964354036E+02  0.81034983186E+02  0.10000000000E+01 0.  0.
<mgrwt>
<rscale>  0 0.12500061E+03</rscale>
<asrwt>0</asrwt>
<pdfrwt beam="1">  1        4 0.25417873E-01 0.12500061E+03</pdfrwt>
<pdfrwt beam="2">  1       -4 0.96051709E-02 0.12500061E+03</pdfrwt>
<totfact> 0.19035356E+03</totfact>
</mgrwt>
</event>
<event>
 5    1  0.1440092E-002  0.1249995E+03  0.7818608E-02  0.1235070E+00
          4   -1    0    0  501    0  0.00000000000E+00  0.00000000000E+00  0.51568992685E+03  0.51569149068E+03  0.12700000000E+01 0.  1.
         -4   -1    0    0    0  501 -0.00000000000E+00 -0.00000000000E+00 -0.75199262006E+01  0.76264139714E+01  0.12700000000E+01 0.  1.
         25    2    1    2    0    0  0.00000000000E+00  0.00000000000E+00  0.50817000065E+03  0.52331790465E+03  0.12499951905E+03 0.  0.
    9000005    1    3    3    0    0 -0.22246559772E+02 -0.27771936163E+02  0.46915479579E+03  0.47050336053E+03  0.10000000000E+01 0.  0.
    9000005    1    3    3    0    0  0.22246559772E+02  0.27771936163E+02  0.39015204867E+02  0.52814544121E+02  0.10000000000E+01 0.  0.
<mgrwt>
<rscale>  0 0.12499952E+03</rscale>
<asrwt>0</asrwt>
<pdfrwt beam="1">  1        4 0.12893599E+00 0.12499952E+03</pdfrwt>
<pdfrwt beam="2">  1       -4 0.18934879E-02 0.12499952E+03</pdfrwt>
<totfact> 0.84014493E+02</totfact>
</mgrwt>
</event>
<event>
 5    1  0.1440092E-002  0.1250159E+03  0.7818608E-02  0.1235044E+00
          4   -1    0    0  501    0  0.00000000000E+00  0.00000000000E+00  0.12119285288E+03  0.12119950697E+03  0.12700000000E+01 0. -1.
         -4   -1    0    0    0  501 -0.00000000000E+00 -0.00000000000E+00 -0.32219831409E+02  0.32244851311E+02  0.12700000000E+01 0. -1.
         25    2    1    2    0    0  0.00000000000E+00  0.00000000000E+00  0.88973021469E+02  0.15344435828E+03  0.12501588914E+03 0.  0.
    9000005    1    3    3    0    0 -0.24814627229E+02 -0.31351444355E+01 -0.25815143959E+02  0.35958538802E+02  0.10000000000E+01 0.  0.
    9000005    1    3    3    0    0  0.24814627229E+02  0.31351444355E+01  0.11478816543E+03  0.11748581947E+03  0.10000000000E+01 0.  0.
<mgrwt>
<rscale>  0 0.12501589E+03</rscale>
<asrwt>0</asrwt>
<pdfrwt beam="1">  1        4 0.30302172E-01 0.12501589E+03</pdfrwt>
<pdfrwt beam="2">  1       -4 0.80589172E-02 0.12501589E+03</pdfrwt>
<totfact> 0.18363920E+03</totfact>
</mgrwt>
</event>
<event>
 5    1  0.1440092E-002  0.1249884E+03  0.7818608E-02  0.1235087E+00
          4   -1    0    0  501    0  0.00000000000E+00  0.00000000000E+00  0.90460765323E+03  0.90460854472E+03  0.12700000000E+01 0. -1.
         -4   -1    0    0    0  501 -0.00000000000E+00 -0.00000000000E+00 -0.42230606607E+01  0.44098913075E+01  0.12700000000E+01 0. -1.
         25    2    1    2    0    0  0.00000000000E+00  0.00000000000E+00  0.90038459257E+03  0.90901843603E+03  0.12498840948E+03 0.  0.
    9000005    1    3    3    0    0  0.55935245085E+02  0.20566487324E+02  0.58679625587E+03  0.58981571524E+03  0.10000000000E+01 0.  0.
    9000005    1    3    3    0    0 -0.55935245085E+02 -0.20566487324E+02  0.31358833670E+03  0.31920272078E+03  0.10000000000E+01 0.  0.
<mgrwt>
<rscale>  0 0.12498841E+03</rscale>
<asrwt>0</asrwt>
<pdfrwt beam="1">  1        4 0.22617541E+00 0.12498841E+03</pdfrwt>
<pdfrwt beam="2">  1       -4 0.10792303E-02 0.12498841E+03</pdfrwt>
<totfact> 0.43602096E+02</totfact>
</mgrwt>
</event>
<event>
 5    1  0.1440092E-002  0.1250008E+03  0.7818608E-02  0.1235068E+00
         -4   -1    0    0    0  501 -0.00000000000E+00  0.00000000000E+00  0.90130257925E+03  0.90130347401E+03  0.12700000000E+01 0.  1.
          4   -1    0    0  501    0  0.00000000000E+00 -0.00000000000E+00 -0.42401087806E+01  0.44262198852E+01  0.12700000000E+01 0.  1.
         25    2    1    2    0    0  0.00000000000E+00  0.00000000000E+00  0.89706247047E+03  0.90572969389E+03  0.12500080991E+03 0.  0.
    9000005    1    3    3    0    0  0.47371077502E+02 -0.30808593503E+02  0.64188827699E+03  0.64437159198E+03  0.10000000000E+01 0.  0.
    9000005    1    3    3    0    0 -0.47371077502E+02  0.30808593503E+02  0.25517419348E+03  0.26135810191E+03  0.10000000000E+01 0.  0.
<mgrwt>
<rscale>  0 0.12500081E+03</rscale>
<asrwt>0</asrwt>
<pdfrwt beam="2">  1        4 0.10834030E-02 0.12500081E+03</pdfrwt>
<pdfrwt beam="1">  1       -4 0.22534901E+00 0.12500081E+03</pdfrwt>
<totfact> 0.43838329E+02</totfact>
</mgrwt>
</event>
<event>
 5    1  0.1440092E-002  0.1250048E+03  0.7818608E-02  0.1235062E+00
          4   -1    0    0  501    0  0.00000000000E+00  0.00000000000E+00  0.81585547001E+03  0.81585645848E+03  0.12700000000E+01 0.  1.
         -4   -1    0    0    0  501 -0.00000000000E+00 -0.00000000000E+00 -0.47030676985E+01  0.48715239686E+01  0.12700000000E+01 0.  1.
         25    2    1    2    0    0  0.00000000000E+00  0.00000000000E+00  0.81115240231E+03  0.82072798245E+03  0.12500480551E+03 0.  0.
    9000005    1    3    3    0    0  0.52436742890E+02 -0.17471373736E+01  0.18264765299E+03  0.19003639030E+03  0.10000000000E+01 0.  0.
    9000005    1    3    3    0    0 -0.52436742890E+02  0.17471373736E+01  0.62850474932E+03  0.63069159215E+03  0.10000000000E+01 0.  0.
<mgrwt>
<rscale>  0 0.12500481E+03</rscale>
<asrwt>0</asrwt>
<pdfrwt beam="1">  1        4 0.20398502E+00 0.12500481E+03</pdfrwt>
<pdfrwt beam="2">  1       -4 0.11969477E-02 0.12500481E+03</pdfrwt>
<totfact> 0.50672211E+02</totfact>
</mgrwt>
</event>
<event>
 5    1  0.1440092E-002  0.1249992E+03  0.7818608E-02  0.1235071E+00
         -4   -1    0    0    0  501 -0.00000000000E+00  0.00000000000E+00  0.21220450307E+02  0.21258419773E+02  0.12700000000E+01 0.  1.
          4   -1    0    0  501    0  0.00000000000E+00 -0.00000000000E+00 -0.18387250794E+03  0.18387689380E+03  0.12700000000E+01 0.  1.
         25    2    1    2    0    0  0.00000000000E+00  0.00000000000E+00 -0.16265205763E+03  0.20513531358E+03  0.12499922010E+03 0.  0.
    9000005    1    3    3    0    0  0.33353796657E+01 -0.28633519302E+02 -0.17231715686E+03  0.17471464087E+03  0.10000000000E+01 0.  0.
    9000005    1    3    3    0    0 -0.33353796657E+01  0.28633519302E+02  0.96650992278E+01  0.30420672712E+02  0.10000000000E+01 0.  0.
<mgrwt>
<rscale>  0 0.12499922E+03</rscale>
<asrwt>0</asrwt>
<pdfrwt beam="2">  1        4 0.45973417E-01 0.12499922E+03</pdfrwt>
<pdfrwt beam="1">  1       -4 0.53104075E-02 0.12499922E+03</pdfrwt>
<totfact> 0.16118751E+03</totfact>
</mgrwt>
</event>
<event>
 5    1  0.1440092E-002  0.1249996E+03  0.7818608E-02  0.1235070E+00
         -4   -1    0    0    0  501 -0.00000000000E+00  0.00000000000E+00  0.31555405637E+03  0.31555661203E+03  0.12700000000E+01 0. -1.
          4   -1    0    0  501    0  0.00000000000E+00 -0.00000000000E+00 -0.12343748448E+02  0.12408909128E+02  0.12700000000E+01 0. -1.
         25    2    1    2    0    0  0.00000000000E+00  0.00000000000E+00  0.30321030793E+03  0.32796552115E+03  0.12499956893E+03 0.  0.
    9000005    1    3    3    0    0  0.56769832989E+02 -0.25104758484E+02  0.13265601895E+03  0.14646392798E+03  0.10000000000E+01 0.  0.
    9000005    1    3    3    0    0 -0.56769832989E+02  0.25104758484E+02  0.17055428897E+03  0.18150159317E+03  0.10000000000E+01 0.  0.
<mgrwt>
<rscale>  0 0.12499957E+03</rscale>
<asrwt>0</asrwt>
<pdfrwt beam="2">  1        4 0.30944018E-02 0.12499957E+03</pdfrwt>
<pdfrwt beam="1">  1       -4 0.78896975E-01 0.12499957E+03</pdfrwt>
<totfact> 0.12222069E+03</totfact>
</mgrwt>
</event>
<event>
 5    1  0.1440092E-002  0.1249998E+03  0.7818608E-02  0.1235070E+00
          4   -1    0    0  501    0  0.00000000000E+00  0.00000000000E+00  0.12321415925E+02  0.12386694086E+02  0.12700000000E+01 0.  1.
         -4   -1    0    0    0  501 -0.00000000000E+00 -0.00000000000E+00 -0.31612400145E+03  0.31612655250E+03  0.12700000000E+01 0.  1.
         25    2    1    2    0    0  0.00000000000E+00  0.00000000000E+00 -0.30380258553E+03  0.32851324659E+03  0.12499976883E+03 0.  0.
    9000005    1    3    3    0    0  0.37122642937E+02 -0.44406281826E+02 -0.21382814304E+03  0.22152535575E+03  0.10000000000E+01 0.  0.
    9000005    1    3    3    0    0 -0.37122642937E+02  0.44406281826E+02 -0.89974442488E+02  0.10698789083E+03  0.10000000000E+01 0.  0.
<mgrwt>
<rscale>  0 0.12499977E+03</rscale>
<asrwt>0</asrwt>
<pdfrwt beam="1">  1        4 0.30888337E-02 0.12499977E+03</pdfrwt>
<pdfrwt beam="2">  1       -4 0.79039452E-01 0.12499977E+03</pdfrwt>
<totfact> 0.12208007E+03</totfact>
</mgrwt>
</event>
<event>
 5    1  0.1440092E-002  0.1249987E+03  0.7818608E-02  0.1235071E+00
          4   -1    0    0  501    0  0.00000000000E+00  0.00000000000E+00  0.12380024095E+03  0.12380675490E+03  0.12700000000E+01 0.  1.
         -4   -1    0    0    0  501 -0.00000000000E+00 -0.00000000000E+00 -0.31532085177E+02  0.31557650350E+02  0.12700000000E+01 0.  1.
         25    2    1    2    0    0  0.00000000000E+00  0.00000000000E+00  0.92268155776E+02  0.15536440525E+03  0.12499874339E+03 0.  0.
    9000005    1    3    3    0    0 -0.29881376009E+02 -0.87070330486E+01  0.11348725744E+03  0.11768205750E+03  0.10000000000E+01 0.  0.
    9000005    1    3    3    0    0  0.29881376009E+02  0.87070330486E+01 -0.21219101664E+02  0.37682347752E+02  0.10000000000E+01 0.  0.
<mgrwt>
<rscale>  0 0.12499874E+03</rscale>
<asrwt>0</asrwt>
<pdfrwt beam="1">  1        4 0.30954070E-01 0.12499874E+03</pdfrwt>
<pdfrwt beam="2">  1       -4 0.78870313E-02 0.12499874E+03</pdfrwt>
<totfact> 0.18278653E+03</totfact>
</mgrwt>
</event>
<event>
 5    1  0.1440092E-002  0.1249998E+03  0.7818608E-02  0.1235070E+00
          4   -1    0    0  501    0  0.00000000000E+00  0.00000000000E+00  0.42308534246E+02  0.42327591121E+02  0.12700000000E+01 0. -1.
         -4   -1    0    0    0  501 -0.00000000000E+00 -0.00000000000E+00 -0.92283161206E+02  0.92291899656E+02  0.12700000000E+01 0. -1.
         25    2    1    2    0    0  0.00000000000E+00  0.00000000000E+00 -0.49974626959E+02  0.13461949078E+03  0.12499977583E+03 0.  0.
    9000005    1    3    3    0    0 -0.29808846035E+02 -0.30469173131E+02  0.24227400317E+02  0.49039828093E+02  0.10000000000E+01 0.  0.
    9000005    1    3    3    0    0  0.29808846035E+02  0.30469173131E+02 -0.74202027276E+02  0.85579662684E+02  0.10000000000E+01 0.  0.
<mgrwt>
<rscale>  0 0.12499978E+03</rscale>
<asrwt>0</asrwt>
<pdfrwt beam="1">  1        4 0.10580608E-01 0.12499978E+03</pdfrwt>
<pdfrwt beam="2">  1       -4 0.23074264E-01 0.12499978E+03</pdfrwt>
<totfact> 0.19319187E+03</totfact>
</mgrwt>
</event>
<event>
 5    1  0.1440092E-002  0.1249970E+03  0.7818608E-02  0.1235074E+00
          4   -1    0    0  501    0  0.00000000000E+00  0.00000000000E+00  0.26146840681E+02  0.26177665625E+02  0.12700000000E+01 0. -1.
         -4   -1    0    0    0  501 -0.00000000000E+00 -0.00000000000E+00 -0.14926797589E+03  0.14927337849E+03  0.12700000000E+01 0. -1.
         25    2    1    2    0    0  0.00000000000E+00  0.00000000000E+00 -0.12312113521E+03  0.17545104412E+03  0.12499701975E+03 0.  0.
    9000005    1    3    3    0    0  0.20081738986E+02  0.48617432565E+02 -0.10891414110E+03  0.12095545098E+03  0.10000000000E+01 0.  0.
    9000005    1    3    3    0    0 -0.20081738986E+02 -0.48617432565E+02 -0.14206994108E+02  0.54495593138E+02  0.10000000000E+01 0.  0.
<mgrwt>
<rscale>  0 0.12499702E+03</rscale>
<asrwt>0</asrwt>
<pdfrwt beam="1">  1        4 0.65412390E-02 0.12499702E+03</pdfrwt>
<pdfrwt beam="2">  1       -4 0.37321520E-01 0.12499702E+03</pdfrwt>
<totfact> 0.17355148E+03</totfact>
</mgrwt>
</event>
<event>
 5    1  0.1440092E-002  0.1249888E+03  0.7818608E-02  0.1235087E+00
         -4   -1    0    0    0  501 -0.00000000000E+00  0.00000000000E+00  0.36431912405E+03  0.36432133763E+03  0.12700000000E+01 0. -1.
          4   -1    0    0  501    0  0.00000000000E+00 -0.00000000000E+00 -0.10680272465E+02  0.10755515791E+02  0.12700000000E+01 0. -1.
         25    2    1    2    0    0  0.00000000000E+00  0.00000000000E+00  0.35363885159E+03  0.37507685342E+03  0.12498883397E+03 0.  0.
    9000005    1    3    3    0    0  0.41022864935E+02  0.47096222561E+02  0.18253098767E+03  0.19292353689E+03  0.10000000000E+01 0.  0.
    9000005    1    3    3    0    0 -0.41022864935E+02 -0.47096222561E+02  0.17110786392E+03  0.18215331653E+03  0.10000000000E+01 0.  0.
<mgrwt>
<rscale>  0 0.12498883E+03</rscale>
<asrwt>0</asrwt>
<pdfrwt beam="2">  1        4 0.26797503E-02 0.12498883E+03</pdfrwt>
<pdfrwt beam="1">  1       -4 0.91089461E-01 0.12498883E+03</pdfrwt>
<totfact> 0.11104084E+03</totfact>
</mgrwt>
</event>
<event>
 5    1  0.1440092E-002  0.1249988E+03  0.7818608E-02  0.1235071E+00
          4   -1    0    0  501    0  0.00000000000E+00  0.00000000000E+00  0.46582030907E+03  0.46582204032E+03  0.12700000000E+01 0.  1.
         -4   -1    0    0    0  501 -0.00000000000E+00 -0.00000000000E+00 -0.83357407497E+01  0.84319317980E+01  0.12700000000E+01 0.  1.
         25    2    1    2    0    0  0.00000000000E+00  0.00000000000E+00  0.45748456832E+03  0.47425397212E+03  0.12499879924E+03 0.  0.
    9000005    1    3    3    0    0  0.60358689022E+02 -0.11174204451E+02  0.27317352313E+03  0.27998715672E+03  0.10000000000E+01 0.  0.
    9000005    1    3    3    0    0 -0.60358689022E+02  0.11174204451E+02  0.18431104519E+03  0.19426681540E+03  0.10000000000E+01 0.  0.
<mgrwt>
<rscale>  0 0.12499880E+03</rscale>
<asrwt>0</asrwt>
<pdfrwt beam="1">  1        4 0.11646731E+00 0.12499880E+03</pdfrwt>
<pdfrwt beam="2">  1       -4 0.20961755E-02 0.12499880E+03</pdfrwt>
<totfact> 0.91822022E+02</totfact>
</mgrwt>
</event>
<event>
 5    1  0.1440092E-002  0.1249972E+03  0.7818608E-02  0.1235074E+00
         -4   -1    0    0    0  501 -0.00000000000E+00  0.00000000000E+00  0.26268029689E+02  0.26298712587E+02  0.12700000000E+01 0. -1.
          4   -1    0    0  501    0  0.00000000000E+00 -0.00000000000E+00 -0.14858050481E+03  0.14858593241E+03  0.12700000000E+01 0. -1.
         25    2    1    2    0    0  0.00000000000E+00  0.00000000000E+00 -0.12231247512E+03  0.17488464499E+03  0.12499718991E+03 0.  0.
    9000005    1    3    3    0    0 -0.53305743831E+01 -0.59634150821E+02 -0.36111513233E+02  0.69926306605E+02  0.10000000000E+01 0.  0.
    9000005    1    3    3    0    0  0.53305743831E+01  0.59634150821E+02 -0.86200961886E+02  0.10495833839E+03  0.10000000000E+01 0.  0.
<mgrwt>
<rscale>  0 0.12499719E+03</rscale>
<asrwt>0</asrwt>
<pdfrwt beam="2">  1        4 0.37149638E-01 0.12499719E+03</pdfrwt>
<pdfrwt beam="1">  1       -4 0.65715216E-02 0.12499719E+03</pdfrwt>
<totfact> 0.17380086E+03</totfact>
</mgrwt>
</event>
<event>
 5    1  0.1440092E-002  0.1249833E+03  0.7818608E-02  0.1235095E+00
         -4   -1    0    0    0  501 -0.00000000000E+00  0.00000000000E+00  0.43086489813E+02  0.43105202753E+02  0.12700000000E+01 0. -1.
          4   -1    0    0  501    0  0.00000000000E+00 -0.00000000000E+00 -0.90593631813E+02  0.90602533216E+02  0.12700000000E+01 0. -1.
         25    2    1    2    0    0  0.00000000000E+00  0.00000000000E+00 -0.47507142000E+02  0.13370773597E+03  0.12498331935E+03 0.  0.
    9000005    1    3    3    0    0  0.55222429341E+01  0.18304209299E+02 -0.87392726413E+02  0.89465232773E+02  0.10000000000E+01 0.  0.
    9000005    1    3    3    0    0 -0.55222429341E+01 -0.18304209299E+02  0.39885584413E+02  0.44242503196E+02  0.10000000000E+01 0.  0.
<mgrwt>
<rscale>  0 0.12498332E+03</rscale>
<asrwt>0</asrwt>
<pdfrwt beam="2">  1        4 0.22651859E-01 0.12498332E+03</pdfrwt>
<pdfrwt beam="1">  1       -4 0.10775074E-01 0.12498332E+03</pdfrwt>
<totfact> 0.19374580E+03</totfact>
</mgrwt>
</event>
<event>
 5    1  0.1440092E-002  0.1249964E+03  0.7818608E-02  0.1235075E+00
          4   -1    0    0  501    0  0.00000000000E+00  0.00000000000E+00  0.25890675970E+02  0.25921805535E+02  0.12700000000E+01 0.  1.
         -4   -1    0    0    0  501 -0.00000000000E+00 -0.00000000000E+00 -0.15074158573E+03  0.15074693551E+03  0.12700000000E+01 0.  1.
         25    2    1    2    0    0  0.00000000000E+00  0.00000000000E+00 -0.12485090976E+03  0.17666874105E+03  0.12499637754E+03 0.  0.
    9000005    1    3    3    0    0  0.19646700572E+02  0.41000117606E+02 -0.12302055884E+03  0.13115662539E+03  0.10000000000E+01 0.  0.
    9000005    1    3    3    0    0 -0.19646700572E+02 -0.41000117606E+02 -0.18303509153E+01  0.45512115656E+02  0.10000000000E+01 0.  0.
<mgrwt>
<rscale>  0 0.12499638E+03</rscale>
<asrwt>0</asrwt>
<pdfrwt beam="1">  1        4 0.64772293E-02 0.12499638E+03</pdfrwt>
<pdfrwt beam="2">  1       -4 0.37689954E-01 0.12499638E+03</pdfrwt>
<totfact> 0.17301840E+03</totfact>
</mgrwt>
</event>
<event>
 5    1  0.1440092E-002  0.1249983E+03  0.7818608E-02  0.1235072E+00
          4   -1    0    0  501    0  0.00000000000E+00  0.00000000000E+00  0.81770572969E+03  0.81770671592E+03  0.12700000000E+01 0. -1.
         -4   -1    0    0    0  501 -0.00000000000E+00 -0.00000000000E+00 -0.46915398155E+01  0.48603956465E+01  0.12700000000E+01 0. -1.
         25    2    1    2    0    0  0.00000000000E+00  0.00000000000E+00  0.81301418987E+03  0.82256711157E+03  0.12499832039E+03 0.  0.
    9000005    1    3    3    0    0 -0.50073294765E+02  0.22178344112E+02  0.60457530607E+03  0.60705149247E+03  0.10000000000E+01 0.  0.
    9000005    1    3    3    0    0  0.50073294765E+02 -0.22178344112E+02  0.20843888380E+03  0.21551561910E+03  0.10000000000E+01 0.  0.
<mgrwt>
<rscale>  0 0.12499832E+03</rscale>
<asrwt>0</asrwt>
<pdfrwt beam="1">  1        4 0.20444766E+00 0.12499832E+03</pdfrwt>
<pdfrwt beam="2">  1       -4 0.11941152E-02 0.12499832E+03</pdfrwt>
<totfact> 0.50522712E+02</totfact>
</mgrwt>
</event>
<event>
 5    1  0.1440092E-002  0.1250045E+03  0.7818608E-02  0.1235062E+00
         -4   -1    0    0    0  501 -0.00000000000E+00  0.00000000000E+00  0.11341617020E+03  0.11342328051E+03  0.12700000000E+01 0. -1.
          4   -1    0    0  501    0  0.00000000000E+00 -0.00000000000E+00 -0.34424335315E+02  0.34447754091E+02  0.12700000000E+01 0. -1.
         25    2    1    2    0    0  0.00000000000E+00  0.00000000000E+00  0.78991834882E+02  0.14787103460E+03  0.12500453150E+03 0.  0.
    9000005    1    3    3    0    0  0.13189983635E+01  0.12897237539E+02 -0.32821902441E+02  0.35303764285E+02  0.10000000000E+01 0.  0.
    9000005    1    3    3    0    0 -0.13189983635E+01 -0.12897237539E+02  0.11181373732E+03  0.11256727032E+03  0.10000000000E+01 0.  0.
<mgrwt>
<rscale>  0 0.12500453E+03</rscale>
<asrwt>0</asrwt>
<pdfrwt beam="2">  1        4 0.86099001E-02 0.12500453E+03</pdfrwt>
<pdfrwt beam="1">  1       -4 0.28357858E-01 0.12500453E+03</pdfrwt>
<totfact> 0.18641993E+03</totfact>
</mgrwt>
</event>
<event>
 5    1  0.1440092E-002  0.1249927E+03  0.7818608E-02  0.1235081E+00
          4   -1    0    0  501    0  0.00000000000E+00  0.00000000000E+00  0.13514282168E+02  0.13573824903E+02  0.12700000000E+01 0.  1.
         -4   -1    0    0    0  501 -0.00000000000E+00 -0.00000000000E+00 -0.28831584960E+03  0.28831864669E+03  0.12700000000E+01 0.  1.
         25    2    1    2    0    0  0.00000000000E+00  0.00000000000E+00 -0.27480156743E+03  0.30189247160E+03  0.12499265156E+03 0.  0.
    9000005    1    3    3    0    0 -0.39062824638E+02 -0.46811954523E+02 -0.17047580603E+03  0.18105320708E+03  0.10000000000E+01 0.  0.
    9000005    1    3    3    0    0  0.39062824638E+02  0.46811954523E+02 -0.10432576141E+03  0.12083926451E+03  0.10000000000E+01 0.  0.
<mgrwt>
<rscale>  0 0.12499265E+03</rscale>
<asrwt>0</asrwt>
<pdfrwt beam="1">  1        4 0.33863640E-02 0.12499265E+03</pdfrwt>
<pdfrwt beam="2">  1       -4 0.72086735E-01 0.12499265E+03</pdfrwt>
<totfact> 0.12920358E+03</totfact>
</mgrwt>
</event>
<event>
 5    1  0.1440092E-002  0.1250015E+03  0.7818608E-02  0.1235067E+00
          4   -1    0    0  501    0  0.00000000000E+00  0.00000000000E+00  0.12875470488E+03  0.12876096819E+03  0.12700000000E+01 0. -1.
         -4   -1    0    0    0  501 -0.00000000000E+00 -0.00000000000E+00 -0.30319110706E+02  0.30345697784E+02  0.12700000000E+01 0. -1.
         25    2    1    2    0    0  0.00000000000E+00  0.00000000000E+00  0.98435594174E+02  0.15910666597E+03  0.12500145982E+03 0.  0.
    9000005    1    3    3    0    0 -0.50450601730E+02  0.15915012249E+02  0.91563172164E+02  0.10575143179E+03  0.10000000000E+01 0.  0.
    9000005    1    3    3    0    0  0.50450601730E+02 -0.15915012249E+02  0.68724220097E+01  0.53355234177E+02  0.10000000000E+01 0.  0.
<mgrwt>
<rscale>  0 0.12500146E+03</rscale>
<asrwt>0</asrwt>
<pdfrwt beam="1">  1        4 0.32192782E-01 0.12500146E+03</pdfrwt>
<pdfrwt beam="2">  1       -4 0.75838841E-02 0.12500146E+03</pdfrwt>
<totfact> 0.18099263E+03</totfact>
</mgrwt>
</event>
<event>
 5    1  0.1440092E-002  0.1250024E+03  0.7818608E-02  0.1235066E+00
         -4   -1    0    0    0  501 -0.00000000000E+00  0.00000000000E+00  0.14880267511E+02  0.14934365109E+02  0.12700000000E+01 0.  1.
          4   -1    0    0  501    0  0.00000000000E+00 -0.00000000000E+00 -0.26199021073E+03  0.26199328888E+03  0.12700000000E+01 0.  1.
         25    2    1    2    0    0  0.00000000000E+00  0.00000000000E+00 -0.24710994322E+03  0.27692765399E+03  0.12500240600E+03 0.  0.
    9000005    1    3    3    0    0 -0.33929783347E+02  0.51900373917E+02 -0.14078961554E+03  0.15384276016E+03  0.10000000000E+01 0.  0.
    9000005    1    3    3    0    0  0.33929783347E+02 -0.51900373917E+02 -0.10632032769E+03  0.12308489383E+03  0.10000000000E+01 0.  0.
<mgrwt>
<rscale>  0 0.12500241E+03</rscale>
<asrwt>0</asrwt>
<pdfrwt beam="2">  1        4 0.65504685E-01 0.12500241E+03</pdfrwt>
<pdfrwt beam="1">  1       -4 0.37272147E-02 0.12500241E+03</pdfrwt>
<totfact> 0.13642512E+03</totfact>
</mgrwt>
</event>
<event>
 5    1  0.1440092E-002  0.1249993E+03  0.7818608E-02  0.1235070E+00
          4   -1    0    0  501    0  0.00000000000E+00  0.00000000000E+00  0.35612809551E+02  0.35635447298E+02  0.12700000000E+01 0.  1.
         -4   -1    0    0    0  501 -0.00000000000E+00 -0.00000000000E+00 -0.10962418431E+03  0.10963154056E+03  0.12700000000E+01 0.  1.
         25    2    1    2    0    0  0.00000000000E+00  0.00000000000E+00 -0.74011374758E+02  0.14526698786E+03  0.12499925667E+03 0.  0.
    9000005    1    3    3    0    0  0.25604812676E+01 -0.20483916012E+02  0.31541596672E+02  0.37709669849E+02  0.10000000000E+01 0.  0.
    9000005    1    3    3    0    0 -0.25604812676E+01  0.20483916012E+02 -0.10555297143E+03  0.10755731801E+03  0.10000000000E+01 0.  0.
<mgrwt>
<rscale>  0 0.12499926E+03</rscale>
<asrwt>0</asrwt>
<pdfrwt beam="1">  1        4 0.89069519E-02 0.12499926E+03</pdfrwt>
<pdfrwt beam="2">  1       -4 0.27409795E-01 0.12499926E+03</pdfrwt>
<totfact> 0.18774298E+03</totfact>
</mgrwt>
</event>
<event>
 5    1  0.1440092E-002  0.1249903E+03  0.7818608E-02  0.1235084E+00
          4   -1    0    0  501    0  0.00000000000E+00  0.00000000000E+00  0.10025391190E+03  0.10026195565E+03  0.12700000000E+01 0.  1.
         -4   -1    0    0    0  501 -0.00000000000E+00 -0.00000000000E+00 -0.38937560226E+02  0.38958266085E+02  0.12700000000E+01 0.  1.
         25    2    1    2    0    0  0.00000000000E+00  0.00000000000E+00  0.61316351672E+02  0.13922022173E+03  0.12499030025E+03 0.  0.
    9000005    1    3    3    0    0 -0.57173497539E+02 -0.24148132817E+02  0.38744334084E+02  0.73171473697E+02  0.10000000000E+01 0.  0.
    9000005    1    3    3    0    0  0.57173497539E+02  0.24148132817E+02  0.22572017588E+02  0.66048748038E+02  0.10000000000E+01 0.  0.
<mgrwt>
<rscale>  0 0.12499030E+03</rscale>
<asrwt>0</asrwt>
<pdfrwt beam="1">  1        4 0.25067072E-01 0.12499030E+03</pdfrwt>
<pdfrwt beam="2">  1       -4 0.97379838E-02 0.12499030E+03</pdfrwt>
<totfact> 0.19084622E+03</totfact>
</mgrwt>
</event>
<event>
 5    1  0.1440092E-002  0.1249992E+03  0.7818608E-02  0.1235071E+00
         -4   -1    0    0    0  501 -0.00000000000E+00  0.00000000000E+00  0.51596708966E+02  0.51612336473E+02  0.12700000000E+01 0. -1.
          4   -1    0    0  501    0  0.00000000000E+00 -0.00000000000E+00 -0.75673939529E+02  0.75684595684E+02  0.12700000000E+01 0. -1.
         25    2    1    2    0    0  0.00000000000E+00  0.00000000000E+00 -0.24077230563E+02  0.12729693216E+03  0.12499918362E+03 0.  0.
    9000005    1    3    3    0    0  0.26755321727E+02 -0.42738106569E+02  0.25556184514E+02  0.56537700349E+02  0.10000000000E+01 0.  0.
    9000005    1    3    3    0    0 -0.26755321727E+02  0.42738106569E+02 -0.49633415077E+02  0.70759231808E+02  0.10000000000E+01 0.  0.
<mgrwt>
<rscale>  0 0.12499918E+03</rscale>
<asrwt>0</asrwt>
<pdfrwt beam="2">  1        4 0.18921770E-01 0.12499918E+03</pdfrwt>
<pdfrwt beam="1">  1       -4 0.12902463E-01 0.12499918E+03</pdfrwt>
<totfact> 0.19711254E+03</totfact>
</mgrwt>
</event>
<event>
 5    1  0.1440092E-002  0.1250021E+03  0.7818608E-02  0.1235066E+00
         -4   -1    0    0    0  501 -0.00000000000E+00  0.00000000000E+00  0.11210673002E+03  0.11211392338E+03  0.12700000000E+01 0.  1.
          4   -1    0    0  501    0  0.00000000000E+00 -0.00000000000E+00 -0.34825316283E+02  0.34848465594E+02  0.12700000000E+01 0.  1.
         25    2    1    2    0    0  0.00000000000E+00  0.00000000000E+00  0.77281413740E+02  0.14696238898E+03  0.12500210744E+03 0.  0.
    9000005    1    3    3    0    0  0.56350233014E+02 -0.18920509071E+02  0.15963584586E+02  0.61556238166E+02  0.10000000000E+01 0.  0.
    9000005    1    3    3    0    0 -0.56350233014E+02  0.18920509071E+02  0.61317829154E+02  0.85406150811E+02  0.10000000000E+01 0.  0.
<mgrwt>
<rscale>  0 0.12500211E+03</rscale>
<asrwt>0</asrwt>
<pdfrwt beam="2">  1        4 0.87101220E-02 0.12500211E+03</pdfrwt>
<pdfrwt beam="1">  1       -4 0.28030475E-01 0.12500211E+03</pdfrwt>
<totfact> 0.18688239E+03</totfact>
</mgrwt>
</event>
<event>
 5    1  0.1440092E-002  0.1250056E+03  0.7818608E-02  0.1235061E+00
          4   -1    0    0  501    0  0.00000000000E+00  0.00000000000E+00  0.22871932226E+03  0.22872284817E+03  0.12700000000E+01 0. -1.
         -4   -1    0    0    0  501 -0.00000000000E+00 -0.00000000000E+00 -0.17053040259E+02  0.17100265556E+02  0.12700000000E+01 0. -1.
         25    2    1    2    0    0  0.00000000000E+00  0.00000000000E+00  0.21166628200E+03  0.24582311373E+03  0.12500555310E+03 0.  0.
    9000005    1    3    3    0    0  0.36012018125E+02 -0.16615406598E+02  0.20081028812E+03  0.20469174141E+03  0.10000000000E+01 0.  0.
    9000005    1    3    3    0    0 -0.36012018125E+02  0.16615406598E+02  0.10855993884E+02  0.41131372322E+02  0.10000000000E+01 0.  0.
<mgrwt>
<rscale>  0 0.12500555E+03</rscale>
<asrwt>0</asrwt>
<pdfrwt beam="1">  1        4 0.57186174E-01 0.12500555E+03</pdfrwt>
<pdfrwt beam="2">  1       -4 0.42696040E-02 0.12500555E+03</pdfrwt>
<totfact> 0.14636055E+03</totfact>
</mgrwt>
</event>
<event>
 5    1  0.1440092E-002  0.1249990E+03  0.7818608E-02  0.1235071E+00
          4   -1    0    0  501    0  0.00000000000E+00  0.00000000000E+00  0.63704319993E+03  0.63704446586E+03  0.12700000000E+01 0. -1.
         -4   -1    0    0    0  501 -0.00000000000E+00 -0.00000000000E+00 -0.60647054660E+01  0.61962530927E+01  0.12700000000E+01 0. -1.
         25    2    1    2    0    0  0.00000000000E+00  0.00000000000E+00  0.63097849447E+03  0.64324071895E+03  0.12499904814E+03 0.  0.
    9000005    1    3    3    0    0  0.90528272489E+00 -0.48140201955E+02  0.52048293971E+03  0.52270621683E+03  0.10000000000E+01 0.  0.
    9000005    1    3    3    0    0 -0.90528272489E+00  0.48140201955E+02  0.11049555475E+03  0.12053450212E+03  0.10000000000E+01 0.  0.
<mgrwt>
<rscale>  0 0.12499905E+03</rscale>
<asrwt>0</asrwt>
<pdfrwt beam="1">  1        4 0.15927737E+00 0.12499905E+03</pdfrwt>
<pdfrwt beam="2">  1       -4 0.15327783E-02 0.12499905E+03</pdfrwt>
<totfact> 0.68291169E+02</totfact>
</mgrwt>
</event>
<event>
 5    1  0.1440092E-002  0.1250052E+03  0.7818608E-02  0.1235061E+00
         -4   -1    0    0    0  501 -0.00000000000E+00  0.00000000000E+00  0.31809989253E+03  0.31810242773E+03  0.12700000000E+01 0. -1.
          4   -1    0    0  501    0  0.00000000000E+00 -0.00000000000E+00 -0.12245548160E+02  0.12311228604E+02  0.12700000000E+01 0. -1.
         25    2    1    2    0    0  0.00000000000E+00  0.00000000000E+00  0.30585434437E+03  0.33041365633E+03  0.12500521718E+03 0.  0.
    9000005    1    3    3    0    0  0.42917683652E+02  0.37099329937E+02  0.22222175792E+03  0.22935081762E+03  0.10000000000E+01 0.  0.
    9000005    1    3    3    0    0 -0.42917683652E+02 -0.37099329937E+02  0.83632586456E+02  0.10106283871E+03  0.10000000000E+01 0.  0.
<mgrwt>
<rscale>  0 0.12500522E+03</rscale>
<asrwt>0</asrwt>
<pdfrwt beam="2">  1        4 0.30699139E-02 0.12500522E+03</pdfrwt>
<pdfrwt beam="1">  1       -4 0.79533502E-01 0.12500522E+03</pdfrwt>
<totfact> 0.12158072E+03</totfact>
</mgrwt>
</event>
<event>
 5    1  0.1440092E-002  0.1249987E+03  0.7818608E-02  0.1235071E+00
          4   -1    0    0  501    0  0.00000000000E+00  0.00000000000E+00  0.22255945646E+02  0.22292151458E+02  0.12700000000E+01 0. -1.
         -4   -1    0    0    0  501 -0.00000000000E+00 -0.00000000000E+00 -0.17533003666E+03  0.17533463621E+03  0.12700000000E+01 0. -1.
         25    2    1    2    0    0  0.00000000000E+00  0.00000000000E+00 -0.15307409101E+03  0.19762678767E+03  0.12499867945E+03 0.  0.
    9000005    1    3    3    0    0 -0.39795320139E+02  0.46636796537E+02 -0.57400092500E+02  0.83990647784E+02  0.10000000000E+01 0.  0.
    9000005    1    3    3    0    0  0.39795320139E+02 -0.46636796537E+02 -0.95673998511E+02  0.11363613988E+03  0.10000000000E+01 0.  0.
<mgrwt>
<rscale>  0 0.12499868E+03</rscale>
<asrwt>0</asrwt>
<pdfrwt beam="1">  1        4 0.55690876E-02 0.12499868E+03</pdfrwt>
<pdfrwt beam="2">  1       -4 0.43837606E-01 0.12499868E+03</pdfrwt>
<totfact> 0.16418013E+03</totfact>
</mgrwt>
</event>
<event>
 5    1  0.1440092E-002  0.1250041E+03  0.7818608E-02  0.1235063E+00
          4   -1    0    0  501    0  0.00000000000E+00  0.00000000000E+00  0.96852305002E+02  0.96860631240E+02  0.12700000000E+01 0.  1.
         -4   -1    0    0    0  501 -0.00000000000E+00 -0.00000000000E+00 -0.40314638451E+02  0.40334637391E+02  0.12700000000E+01 0.  1.
         25    2    1    2    0    0  0.00000000000E+00  0.00000000000E+00  0.56537666550E+02  0.13719526863E+03  0.12500413591E+03 0.  0.
    9000005    1    3    3    0    0 -0.31060900793E+02  0.36176723628E+02 -0.16068678579E+02  0.50326308446E+02  0.10000000000E+01 0.  0.
    9000005    1    3    3    0    0  0.31060900793E+02 -0.36176723628E+02  0.72606345129E+02  0.86868960185E+02  0.10000000000E+01 0.  0.
<mgrwt>
<rscale>  0 0.12500414E+03</rscale>
<asrwt>0</asrwt>
<pdfrwt beam="1">  1        4 0.24216617E-01 0.12500414E+03</pdfrwt>
<pdfrwt beam="2">  1       -4 0.10082200E-01 0.12500414E+03</pdfrwt>
<totfact> 0.19182909E+03</totfact>
</mgrwt>
</event>
<event>
 5    1  0.1440092E-002  0.1249988E+03  0.7818608E-02  0.1235071E+00
          4   -1    0    0  501    0  0.00000000000E+00  0.00000000000E+00  0.37384904002E+03  0.37385119717E+03  0.12700000000E+01 0.  1.
         -4   -1    0    0    0  501 -0.00000000000E+00 -0.00000000000E+00 -0.10407753294E+02  0.10484952486E+02  0.12700000000E+01 0.  1.
         25    2    1    2    0    0  0.00000000000E+00  0.00000000000E+00  0.36344128672E+03  0.38433614965E+03  0.12499882813E+03 0.  0.
    9000005    1    3    3    0    0 -0.92971522568E+00 -0.33015750192E+02  0.34483356877E+03  0.34641318433E+03  0.10000000000E+01 0.  0.
    9000005    1    3    3    0    0  0.92971522568E+00  0.33015750192E+02  0.18607717959E+02  0.37922965322E+02  0.10000000000E+01 0.  0.
<mgrwt>
<rscale>  0 0.12499883E+03</rscale>
<asrwt>0</asrwt>
<pdfrwt beam="1">  1        4 0.93472184E-01 0.12499883E+03</pdfrwt>
<pdfrwt beam="2">  1       -4 0.26118577E-02 0.12499883E+03</pdfrwt>
<totfact> 0.10899416E+03</totfact>
</mgrwt>
</event>
<event>
 5    1  0.1440092E-002  0.1250050E+03  0.7818608E-02  0.1235061E+00
         -4   -1    0    0    0  501 -0.00000000000E+00  0.00000000000E+00  0.23500027861E+02  0.23534319822E+02  0.12700000000E+01 0.  1.
          4   -1    0    0  501    0  0.00000000000E+00 -0.00000000000E+00 -0.16607867648E+03  0.16608353225E+03  0.12700000000E+01 0.  1.
         25    2    1    2    0    0  0.00000000000E+00  0.00000000000E+00 -0.14257864862E+03  0.18961785207E+03  0.12500503501E+03 0.  0.
    9000005    1    3    3    0    0 -0.33511524749E+02 -0.43056136659E+02 -0.11751594308E+03  0.12956793613E+03  0.10000000000E+01 0.  0.
    9000005    1    3    3    0    0  0.33511524749E+02  0.43056136659E+02 -0.25062705547E+02  0.60049915939E+02  0.10000000000E+01 0.  0.
<mgrwt>
<rscale>  0 0.12500504E+03</rscale>
<asrwt>0</asrwt>
<pdfrwt beam="2">  1        4 0.41524559E-01 0.12500504E+03</pdfrwt>
<pdfrwt beam="1">  1       -4 0.58799009E-02 0.12500504E+03</pdfrwt>
<totfact> 0.16744426E+03</totfact>
</mgrwt>
</event>
<event>
 5    1  0.1440092E-002  0.1249978E+03  0.7818608E-02  0.1235073E+00
         -4   -1    0    0    0  501 -0.00000000000E+00  0.00000000000E+00  0.17943224628E+03  0.17943674068E+03  0.12700000000E+01 0.  1.
          4   -1    0    0  501    0  0.00000000000E+00 -0.00000000000E+00 -0.21745994796E+02  0.21783048218E+02  0.12700000000E+01 0.  1.
         25    2    1    2    0    0  0.00000000000E+00  0.00000000000E+00  0.15768625148E+03  0.20121978890E+03  0.12499779813E+03 0.  0.
    9000005    1    3    3    0    0  0.37441246275E+02  0.44564929523E+02  0.42232155654E+02  0.71919641526E+02  0.10000000000E+01 0.  0.
    9000005    1    3    3    0    0 -0.37441246275E+02 -0.44564929523E+02  0.11545409583E+03  0.12930014737E+03  0.10000000000E+01 0.  0.
<mgrwt>
<rscale>  0 0.12499780E+03</rscale>
<asrwt>0</asrwt>
<pdfrwt beam="2">  1        4 0.54416923E-02 0.12499780E+03</pdfrwt>
<pdfrwt beam="1">  1       -4 0.44863254E-01 0.12499780E+03</pdfrwt>
<totfact> 0.16274144E+03</totfact>
</mgrwt>
</event>
<event>
 5    1  0.1440092E-002  0.1250002E+03  0.7818608E-02  0.1235069E+00
         -4   -1    0    0    0  501 -0.00000000000E+00  0.00000000000E+00  0.39197269901E+02  0.39217838641E+02  0.12700000000E+01 0. -1.
          4   -1    0    0  501    0  0.00000000000E+00 -0.00000000000E+00 -0.99605729037E+02  0.99613825130E+02  0.12700000000E+01 0. -1.
         25    2    1    2    0    0  0.00000000000E+00  0.00000000000E+00 -0.60408459136E+02  0.13883166377E+03  0.12500019572E+03 0.  0.
    9000005    1    3    3    0    0  0.31573249079E+02 -0.53928909149E+02 -0.30487245676E+02  0.69538977906E+02  0.10000000000E+01 0.  0.
    9000005    1    3    3    0    0 -0.31573249079E+02  0.53928909149E+02 -0.29921213461E+02  0.69292685865E+02  0.10000000000E+01 0.  0.
<mgrwt>
<rscale>  0 0.12500020E+03</rscale>
<asrwt>0</asrwt>
<pdfrwt beam="2">  1        4 0.24905015E-01 0.12500020E+03</pdfrwt>
<pdfrwt beam="1">  1       -4 0.98029008E-02 0.12500020E+03</pdfrwt>
<totfact> 0.19100185E+03</totfact>
</mgrwt>
</event>
<event>
 5    1  0.1440092E-002  0.1250001E+03  0.7818608E-02  0.1235069E+00
         -4   -1    0    0    0  501 -0.00000000000E+00  0.00000000000E+00  0.18622155926E+03  0.18622588980E+03  0.12700000000E+01 0.  1.
          4   -1    0    0  501    0  0.00000000000E+00 -0.00000000000E+00 -0.20952586801E+02  0.20991040795E+02  0.12700000000E+01 0.  1.
         25    2    1    2    0    0  0.00000000000E+00  0.00000000000E+00  0.16526897246E+03  0.20721693060E+03  0.12500009228E+03 0.  0.
    9000005    1    3    3    0    0 -0.33941711494E+02  0.52421990643E+02  0.78872165335E+02  0.10060776981E+03  0.10000000000E+01 0.  0.
    9000005    1    3    3    0    0  0.33941711494E+02 -0.52421990643E+02  0.86396807124E+02  0.10660916079E+03  0.10000000000E+01 0.  0.
<mgrwt>
<rscale>  0 0.12500009E+03</rscale>
<asrwt>0</asrwt>
<pdfrwt beam="2">  1        4 0.52434949E-02 0.12500009E+03</pdfrwt>
<pdfrwt beam="1">  1       -4 0.46560737E-01 0.12500009E+03</pdfrwt>
<totfact> 0.16037052E+03</totfact>
</mgrwt>
</event>
<event>
 5    1  0.1440092E-002  0.1249967E+03  0.7818608E-02  0.1235074E+00
         -4   -1    0    0    0  501 -0.00000000000E+00  0.00000000000E+00  0.23008776850E+03  0.23009127344E+03  0.12700000000E+01 0.  1.
          4   -1    0    0  501    0  0.00000000000E+00 -0.00000000000E+00 -0.16948920376E+02  0.16996434976E+02  0.12700000000E+01 0.  1.
         25    2    1    2    0    0  0.00000000000E+00  0.00000000000E+00  0.21313884813E+03  0.24708770842E+03  0.12499666824E+03 0.  0.
    9000005    1    3    3    0    0  0.88942367986E+01 -0.58127575198E+02  0.64770565430E+02  0.87487991134E+02  0.10000000000E+01 0.  0.
    9000005    1    3    3    0    0 -0.88942367986E+01  0.58127575198E+02  0.14836828270E+03  0.15959971728E+03  0.10000000000E+01 0.  0.
<mgrwt>
<rscale>  0 0.12499667E+03</rscale>
<asrwt>0</asrwt>
<pdfrwt beam="2">  1        4 0.42436075E-02 0.12499667E+03</pdfrwt>
<pdfrwt beam="1">  1       -4 0.57528320E-01 0.12499667E+03</pdfrwt>
<totfact> 0.14596473E+03</totfact>
</mgrwt>
</event>
<event>
 5    1  0.1440092E-002  0.1249961E+03  0.7818608E-02  0.1235075E+00
         -4   -1    0    0    0  501 -0.00000000000E+00  0.00000000000E+00  0.22074866660E+03  0.22075231982E+03  0.12700000000E+01 0.  1.
          4   -1    0    0  501    0  0.00000000000E+00 -0.00000000000E+00 -0.17667768184E+02  0.17713354640E+02  0.12700000000E+01 0.  1.
         25    2    1    2    0    0  0.00000000000E+00  0.00000000000E+00  0.20308089841E+03  0.23846567446E+03  0.12499610632E+03 0.  0.
    9000005    1    3    3    0    0  0.13405460366E+02  0.11336955282E+02  0.21595623506E+03  0.21667101418E+03  0.10000000000E+01 0.  0.
    9000005    1    3    3    0    0 -0.13405460366E+02 -0.11336955282E+02 -0.12875336652E+02  0.21794660277E+02  0.10000000000E+01 0.  0.
<mgrwt>
<rscale>  0 0.12499611E+03</rscale>
<asrwt>0</asrwt>
<pdfrwt beam="2">  1        4 0.44230970E-02 0.12499611E+03</pdfrwt>
<pdfrwt beam="1">  1       -4 0.55193322E-01 0.12499611E+03</pdfrwt>
<totfact> 0.14890794E+03</totfact>
</mgrwt>
</event>
<event>
 5    1  0.1440092E-002  0.1250002E+03  0.7818608E-02  0.1235069E+00
          4   -1    0    0  501    0  0.00000000000E+00  0.00000000000E+00  0.50703725423E+02  0.50719628072E+02  0.12700000000E+01 0. -1.
         -4   -1    0    0    0  501 -0.00000000000E+00 -0.00000000000E+00 -0.77007663936E+02  0.77018135559E+02  0.12700000000E+01 0. -1.
         25    2    1    2    0    0  0.00000000000E+00  0.00000000000E+00 -0.26303938514E+02  0.12773776363E+03  0.12500015630E+03 0.  0.
    9000005    1    3    3    0    0  0.59517157065E+02 -0.18501507570E+02 -0.85068705517E+01  0.62912356609E+02  0.10000000000E+01 0.  0.
    9000005    1    3    3    0    0 -0.59517157065E+02  0.18501507570E+02 -0.17797067962E+02  0.64825407022E+02  0.10000000000E+01 0.  0.
<mgrwt>
<rscale>  0 0.12500016E+03</rscale>
<asrwt>0</asrwt>
<pdfrwt beam="1">  1        4 0.12679228E-01 0.12500016E+03</pdfrwt>
<pdfrwt beam="2">  1       -4 0.19255213E-01 0.12500016E+03</pdfrwt>
<totfact> 0.19686743E+03</totfact>
</mgrwt>
</event>
<event>
 5    1  0.1440092E-002  0.1249983E+03  0.7818608E-02  0.1235072E+00
         -4   -1    0    0    0  501 -0.00000000000E+00  0.00000000000E+00  0.60927417465E+01  0.62236968106E+01  0.12700000000E+01 0. -1.
          4   -1    0    0  501    0  0.00000000000E+00 -0.00000000000E+00 -0.63416587553E+03  0.63416714720E+03  0.12700000000E+01 0. -1.
         25    2    1    2    0    0  0.00000000000E+00  0.00000000000E+00 -0.62807313379E+03  0.64039084401E+03  0.12499828683E+03 0.  0.
    9000005    1    3    3    0    0  0.57434767834E+02  0.14820438246E+02 -0.41478850212E+03  0.41900942643E+03  0.10000000000E+01 0.  0.
    9000005    1    3    3    0    0 -0.57434767834E+02 -0.14820438246E+02 -0.21328463167E+03  0.22138141759E+03  0.10000000000E+01 0.  0.
<mgrwt>
<rscale>  0 0.12499829E+03</rscale>
<asrwt>0</asrwt>
<pdfrwt beam="2">  1        4 0.15855777E+00 0.12499829E+03</pdfrwt>
<pdfrwt beam="1">  1       -4 0.15397159E-02 0.12499829E+03</pdfrwt>
<totfact> 0.68624033E+02</totfact>
</mgrwt>
</event>
<event>
 5    1  0.1440092E-002  0.1250008E+03  0.7818608E-02  0.1235068E+00
         -4   -1    0    0    0  501 -0.00000000000E+00  0.00000000000E+00  0.19022043399E+03  0.19022467350E+03  0.12700000000E+01 0.  1.
          4   -1    0    0  501    0  0.00000000000E+00 -0.00000000000E+00 -0.20511534392E+02  0.20550813685E+02  0.12700000000E+01 0.  1.
         25    2    1    2    0    0  0.00000000000E+00  0.00000000000E+00  0.16970889960E+03  0.21077548718E+03  0.12500078158E+03 0.  0.
    9000005    1    3    3    0    0  0.55615026003E+01  0.25888254587E+02 -0.10593132519E+02  0.28536756881E+02  0.10000000000E+01 0.  0.
    9000005    1    3    3    0    0 -0.55615026003E+01 -0.25888254587E+02  0.18030203211E+03  0.18223873030E+03  0.10000000000E+01 0.  0.
<mgrwt>
<rscale>  0 0.12500078E+03</rscale>
<asrwt>0</asrwt>
<pdfrwt beam="2">  1        4 0.51333234E-02 0.12500078E+03</pdfrwt>
<pdfrwt beam="1">  1       -4 0.47560549E-01 0.12500078E+03</pdfrwt>
<totfact> 0.15899191E+03</totfact>
</mgrwt>
</event>
<event>
 5    1  0.1440092E-002  0.1250600E+03  0.7818608E-02  0.1234975E+00
          4   -1    0    0  501    0  0.00000000000E+00  0.00000000000E+00  0.13455923412E+02  0.13515723246E+02  0.12700000000E+01 0.  1.
         -4   -1    0    0    0  501 -0.00000000000E+00 -0.00000000000E+00 -0.28987311206E+03  0.28987589413E+03  0.12700000000E+01 0.  1.
         25    2    1    2    0    0  0.00000000000E+00  0.00000000000E+00 -0.27641718865E+03  0.30339161737E+03  0.12506003083E+03 0.  0.
    9000005    1    3    3    0    0  0.30522078509E+02 -0.22806793866E+02 -0.17951634117E+02  0.42130847255E+02  0.10000000000E+01 0.  0.
    9000005    1    3    3    0    0 -0.30522078509E+02  0.22806793866E+02 -0.25846555453E+03  0.26126077012E+03  0.10000000000E+01 0.  0.
<mgrwt>
<rscale>  0 0.12506003E+03</rscale>
<asrwt>0</asrwt>
<pdfrwt beam="1">  1        4 0.33718045E-02 0.12506003E+03</pdfrwt>
<pdfrwt beam="2">  1       -4 0.72476080E-01 0.12506003E+03</pdfrwt>
<totfact> 0.12858842E+03</totfact>
</mgrwt>
</event>
<event>
 5    1  0.1440092E-002  0.1250004E+03  0.7818608E-02  0.1235069E+00
         -4   -1    0    0    0  501 -0.00000000000E+00  0.00000000000E+00  0.15433170581E+03  0.15433693116E+03  0.12700000000E+01 0.  1.
          4   -1    0    0  501    0  0.00000000000E+00 -0.00000000000E+00 -0.25289335161E+02  0.25321204017E+02  0.12700000000E+01 0.  1.
         25    2    1    2    0    0  0.00000000000E+00  0.00000000000E+00  0.12904237065E+03  0.17965813518E+03  0.12500044844E+03 0.  0.
    9000005    1    3    3    0    0  0.51810096096E+02 -0.30355938598E+02  0.89394875902E+02  0.10769499943E+03  0.10000000000E+01 0.  0.
    9000005    1    3    3    0    0 -0.51810096096E+02  0.30355938598E+02  0.39647494752E+02  0.71963135742E+02  0.10000000000E+01 0.  0.
<mgrwt>
<rscale>  0 0.12500045E+03</rscale>
<asrwt>0</asrwt>
<pdfrwt beam="2">  1        4 0.63269707E-02 0.12500045E+03</pdfrwt>
<pdfrwt beam="1">  1       -4 0.38587562E-01 0.12500045E+03</pdfrwt>
<totfact> 0.17169843E+03</totfact>
</mgrwt>
</event>
<event>
 5    1  0.1440092E-002  0.1250004E+03  0.7818608E-02  0.1235069E+00
         -4   -1    0    0    0  501 -0.00000000000E+00  0.00000000000E+00  0.49905141174E+01  0.51495758229E+01  0.12700000000E+01 0. -1.
          4   -1    0    0  501    0  0.00000000000E+00 -0.00000000000E+00 -0.77030252032E+03  0.77030356725E+03  0.12700000000E+01 0. -1.
         25    2    1    2    0    0  0.00000000000E+00  0.00000000000E+00 -0.76531200621E+03  0.77545314307E+03  0.12500044103E+03 0.  0.
    9000005    1    3    3    0    0  0.26215614289E+02 -0.26935598388E+02 -0.72941915316E+02  0.82062828997E+02  0.10000000000E+01 0.  0.
    9000005    1    3    3    0    0 -0.26215614289E+02  0.26935598388E+02 -0.69237009089E+03  0.69339031408E+03  0.10000000000E+01 0.  0.
<mgrwt>
<rscale>  0 0.12500044E+03</rscale>
<asrwt>0</asrwt>
<pdfrwt beam="2">  1        4 0.19259524E+00 0.12500044E+03</pdfrwt>
<pdfrwt beam="1">  1       -4 0.12676447E-02 0.12500044E+03</pdfrwt>
<totfact> 0.54689901E+02</totfact>
</mgrwt>
</event>
<event>
 5    1  0.1440092E-002  0.1250009E+03  0.7818608E-02  0.1235068E+00
         -4   -1    0    0    0  501 -0.00000000000E+00  0.00000000000E+00  0.41846418780E+02  0.41865686005E+02  0.12700000000E+01 0.  1.
          4   -1    0    0  501    0  0.00000000000E+00 -0.00000000000E+00 -0.93303551483E+02  0.93312194376E+02  0.12700000000E+01 0.  1.
         25    2    1    2    0    0  0.00000000000E+00  0.00000000000E+00 -0.51457132703E+02  0.13517788038E+03  0.12500089135E+03 0.  0.
    9000005    1    3    3    0    0 -0.58263536644E+02 -0.16459637836E+02 -0.89842081492E+01  0.61214993066E+02  0.10000000000E+01 0.  0.
    9000005    1    3    3    0    0  0.58263536644E+02  0.16459637836E+02 -0.42472924554E+02  0.73962887316E+02  0.10000000000E+01 0.  0.
<mgrwt>
<rscale>  0 0.12500089E+03</rscale>
<asrwt>0</asrwt>
<pdfrwt beam="2">  1        4 0.23329376E-01 0.12500089E+03</pdfrwt>
<pdfrwt beam="1">  1       -4 0.10465094E-01 0.12500089E+03</pdfrwt>
<totfact> 0.19289423E+03</totfact>
</mgrwt>
</event>
<event>
 5    1  0.1440092E-002  0.1249980E+03  0.7818608E-02  0.1235072E+00
          4   -1    0    0  501    0  0.00000000000E+00  0.00000000000E+00  0.24370320628E+02  0.24403389672E+02  0.12700000000E+01 0. -1.
         -4   -1    0    0    0  501 -0.00000000000E+00 -0.00000000000E+00 -0.16013777154E+03  0.16014280743E+03  0.12700000000E+01 0. -1.
         25    2    1    2    0    0  0.00000000000E+00  0.00000000000E+00 -0.13576745091E+03  0.18454619711E+03  0.12499799254E+03 0.  0.
    9000005    1    3    3    0    0  0.20352516868E+02  0.58559503901E+02 -0.79479203567E+02  0.10080369160E+03  0.10000000000E+01 0.  0.
    9000005    1    3    3    0    0 -0.20352516868E+02 -0.58559503901E+02 -0.56288247342E+02  0.83742505509E+02  0.10000000000E+01 0.  0.
<mgrwt>
<rscale>  0 0.12499799E+03</rscale>
<asrwt>0</asrwt>
<pdfrwt beam="1">  1        4 0.60973437E-02 0.12499799E+03</pdfrwt>
<pdfrwt beam="2">  1       -4 0.40039203E-01 0.12499799E+03</pdfrwt>
<totfact> 0.16960917E+03</totfact>
</mgrwt>
</event>
<event>
 5    1  0.1440092E-002  0.1249991E+03  0.7818608E-02  0.1235071E+00
          4   -1    0    0  501    0  0.00000000000E+00  0.00000000000E+00  0.26396301650E+02  0.26426835618E+02  0.12700000000E+01 0.  1.
         -4   -1    0    0    0  501 -0.00000000000E+00 -0.00000000000E+00 -0.14786371878E+03  0.14786917268E+03  0.12700000000E+01 0.  1.
         25    2    1    2    0    0  0.00000000000E+00  0.00000000000E+00 -0.12146741713E+03  0.17429600830E+03  0.12499906034E+03 0.  0.
    9000005    1    3    3    0    0  0.32198533396E+02 -0.46772918755E+02 -0.97114426149E+02  0.11250183664E+03  0.10000000000E+01 0.  0.
    9000005    1    3    3    0    0 -0.32198533396E+02  0.46772918755E+02 -0.24352990979E+02  0.61794171661E+02  0.10000000000E+01 0.  0.
<mgrwt>
<rscale>  0 0.12499906E+03</rscale>
<asrwt>0</asrwt>
<pdfrwt beam="1">  1        4 0.66035743E-02 0.12499906E+03</pdfrwt>
<pdfrwt beam="2">  1       -4 0.36970426E-01 0.12499906E+03</pdfrwt>
<totfact> 0.17405381E+03</totfact>
</mgrwt>
</event>
<event>
 5    1  0.1440092E-002  0.1249963E+03  0.7818608E-02  0.1235075E+00
         -4   -1    0    0    0  501 -0.00000000000E+00  0.00000000000E+00  0.28522925052E+02  0.28551184800E+02  0.12700000000E+01 0. -1.
          4   -1    0    0  501    0  0.00000000000E+00 -0.00000000000E+00 -0.13684414998E+03  0.13685004306E+03  0.12700000000E+01 0. -1.
         25    2    1    2    0    0  0.00000000000E+00  0.00000000000E+00 -0.10832122493E+03  0.16540122786E+03  0.12499631357E+03 0.  0.
    9000005    1    3    3    0    0  0.38808198479E+02 -0.21022799902E+02 -0.11269826424E+03  0.12103690821E+03  0.10000000000E+01 0.  0.
    9000005    1    3    3    0    0 -0.38808198479E+02  0.21022799902E+02  0.43770393114E+01  0.44364319650E+02  0.10000000000E+01 0.  0.
<mgrwt>
<rscale>  0 0.12499631E+03</rscale>
<asrwt>0</asrwt>
<pdfrwt beam="2">  1        4 0.34215305E-01 0.12499631E+03</pdfrwt>
<pdfrwt beam="1">  1       -4 0.71350007E-02 0.12499631E+03</pdfrwt>
<totfact> 0.17808013E+03</totfact>
</mgrwt>
</event>
<event>
 5    1  0.1440092E-002  0.1250000E+03  0.7818608E-02  0.1235069E+00
          4   -1    0    0  501    0  0.00000000000E+00  0.00000000000E+00  0.15307237841E+02  0.15359831715E+02  0.12700000000E+01 0.  1.
         -4   -1    0    0    0  501 -0.00000000000E+00 -0.00000000000E+00 -0.25469787228E+03  0.25470103856E+03  0.12700000000E+01 0.  1.
         25    2    1    2    0    0  0.00000000000E+00  0.00000000000E+00 -0.23939063443E+03  0.27006087027E+03  0.12499999119E+03 0.  0.
    9000005    1    3    3    0    0  0.59526982477E+01 -0.56614751150E+02 -0.63998948940E+02  0.85659384364E+02  0.10000000000E+01 0.  0.
    9000005    1    3    3    0    0 -0.59526982477E+01  0.56614751150E+02 -0.17539168549E+03  0.18440148591E+03  0.10000000000E+01 0.  0.
<mgrwt>
<rscale>  0 0.12499999E+03</rscale>
<asrwt>0</asrwt>
<pdfrwt beam="1">  1        4 0.38337803E-02 0.12499999E+03</pdfrwt>
<pdfrwt beam="2">  1       -4 0.63681424E-01 0.12499999E+03</pdfrwt>
<totfact> 0.13853691E+03</totfact>
</mgrwt>
</event>
<event>
 4    1  0.1440092E-002  0.1251432E+03  0.7818608E-02  0.1234846E+00
          4   -1    0    0  501    0  0.00000000000E+00  0.00000000000E+00  0.84469834416E+02  0.84479381072E+02  0.12700000000E+01 0. -1.
         -4   -1    0    0    0  501 -0.00000000000E+00 -0.00000000000E+00 -0.46329456841E+02  0.46346860424E+02  0.12700000000E+01 0. -1.
    9000005    1    1    2    0    0 -0.26429955737E+02  0.36029289649E+02  0.64848654251E+02  0.78759127922E+02  0.10000000000E+01 0.  0.
    9000005    1    1    2    0    0  0.26429955737E+02 -0.36029289649E+02 -0.26708276675E+02  0.52067113574E+02  0.10000000000E+01 0.  0.
<mgrwt>
<rscale>  0 0.12514319E+03</rscale>
<asrwt>0</asrwt>
<pdfrwt beam="1">  1        4 0.21120827E-01 0.12514319E+03</pdfrwt>
<pdfrwt beam="2">  1       -4 0.11585733E-01 0.12514319E+03</pdfrwt>
<totfact> 0.19454973E+03</totfact>
</mgrwt>
</event>
<event>
 5    1  0.1440092E-002  0.1249999E+03  0.7818608E-02  0.1235069E+00
         -4   -1    0    0    0  501 -0.00000000000E+00  0.00000000000E+00  0.23828651050E+03  0.23828989484E+03  0.12700000000E+01 0. -1.
          4   -1    0    0  501    0  0.00000000000E+00 -0.00000000000E+00 -0.16364948519E+02  0.16414153649E+02  0.12700000000E+01 0. -1.
         25    2    1    2    0    0  0.00000000000E+00  0.00000000000E+00  0.22192156198E+03  0.25470404849E+03  0.12499989059E+03 0.  0.
    9000005    1    3    3    0    0  0.42432927971E+02  0.15270186397E+02  0.22810758048E+02  0.50547627555E+02  0.10000000000E+01 0.  0.
    9000005    1    3    3    0    0 -0.42432927971E+02 -0.15270186397E+02  0.19911080393E+03  0.20415642094E+03  0.10000000000E+01 0.  0.
<mgrwt>
<rscale>  0 0.12499989E+03</rscale>
<asrwt>0</asrwt>
<pdfrwt beam="2">  1        4 0.40978108E-02 0.12499989E+03</pdfrwt>
<pdfrwt beam="1">  1       -4 0.59578201E-01 0.12499989E+03</pdfrwt>
<totfact> 0.14342839E+03</totfact>
</mgrwt>
</event>
<event>
 5    1  0.1440092E-002  0.1249959E+03  0.7818608E-02  0.1235076E+00
         -4   -1    0    0    0  501 -0.00000000000E+00  0.00000000000E+00  0.31530626384E+02  0.31556192739E+02  0.12700000000E+01 0. -1.
          4   -1    0    0  501    0  0.00000000000E+00 -0.00000000000E+00 -0.12380036983E+03  0.12380688377E+03  0.12700000000E+01 0. -1.
         25    2    1    2    0    0  0.00000000000E+00  0.00000000000E+00 -0.92269743442E+02  0.15536307651E+03  0.12499591988E+03 0.  0.
    9000005    1    3    3    0    0 -0.60849537512E+02  0.13986765302E+02 -0.49351958174E+02  0.79592157872E+02  0.10000000000E+01 0.  0.
    9000005    1    3    3    0    0  0.60849537512E+02 -0.13986765302E+02 -0.42917785268E+02  0.75770918638E+02  0.10000000000E+01 0.  0.
<mgrwt>
<rscale>  0 0.12499592E+03</rscale>
<asrwt>0</asrwt>
<pdfrwt beam="2">  1        4 0.30954101E-01 0.12499592E+03</pdfrwt>
<pdfrwt beam="1">  1       -4 0.78866669E-02 0.12499592E+03</pdfrwt>
<totfact> 0.18279918E+03</totfact>
</mgrwt>
</event>
<event>
 5    1  0.1440092E-002  0.1249970E+03  0.7818608E-02  0.1235074E+00
          4   -1    0    0  501    0  0.00000000000E+00  0.00000000000E+00  0.30485140995E+02  0.30511583398E+02  0.12700000000E+01 0.  1.
         -4   -1    0    0    0  501 -0.00000000000E+00 -0.00000000000E+00 -0.12804491283E+03  0.12805121086E+03  0.12700000000E+01 0.  1.
         25    2    1    2    0    0  0.00000000000E+00  0.00000000000E+00 -0.97559771840E+02  0.15856279426E+03  0.12499700253E+03 0.  0.
    9000005    1    3    3    0    0 -0.52620062823E+02  0.69610074214E+01 -0.90617166529E+02  0.10502284278E+03  0.10000000000E+01 0.  0.
    9000005    1    3    3    0    0  0.52620062823E+02 -0.69610074214E+01 -0.69426053106E+01  0.53539951478E+02  0.10000000000E+01 0.  0.
<mgrwt>
<rscale>  0 0.12499700E+03</rscale>
<asrwt>0</asrwt>
<pdfrwt beam="1">  1        4 0.76253781E-02 0.12499700E+03</pdfrwt>
<pdfrwt beam="2">  1       -4 0.32015319E-01 0.12499700E+03</pdfrwt>
<totfact> 0.18126865E+03</totfact>
</mgrwt>
</event>
<event>
 5    1  0.1440092E-002  0.1250361E+03  0.7818608E-02  0.1235013E+00
          4   -1    0    0  501    0  0.00000000000E+00  0.00000000000E+00  0.21954756299E+02  0.21991457981E+02  0.12700000000E+01 0.  1.
         -4   -1    0    0    0  501 -0.00000000000E+00 -0.00000000000E+00 -0.17783772114E+03  0.17784225583E+03  0.12700000000E+01 0.  1.
         25    2    1    2    0    0  0.00000000000E+00  0.00000000000E+00 -0.15588296484E+03  0.19983371381E+03  0.12503605260E+03 0.  0.
    9000005    1    3    3    0    0 -0.52650996814E+02  0.33686184923E+02 -0.79196958827E+02  0.10089620809E+03  0.10000000000E+01 0.  0.
    9000005    1    3    3    0    0  0.52650996814E+02 -0.33686184923E+02 -0.76686006012E+02  0.98937505721E+02  0.10000000000E+01 0.  0.
<mgrwt>
<rscale>  0 0.12503605E+03</rscale>
<asrwt>0</asrwt>
<pdfrwt beam="1">  1        4 0.54938442E-02 0.12503605E+03</pdfrwt>
<pdfrwt beam="2">  1       -4 0.44464580E-01 0.12503605E+03</pdfrwt>
<totfact> 0.16315097E+03</totfact>
</mgrwt>
</event>
<event>
 5    1  0.1440092E-002  0.1249954E+03  0.7818608E-02  0.1235076E+00
         -4   -1    0    0    0  501 -0.00000000000E+00  0.00000000000E+00  0.27918419820E+03  0.27918708678E+03  0.12700000000E+01 0. -1.
          4   -1    0    0  501    0  0.00000000000E+00 -0.00000000000E+00 -0.13958843146E+02  0.14016497493E+02  0.12700000000E+01 0. -1.
         25    2    1    2    0    0  0.00000000000E+00  0.00000000000E+00  0.26522535506E+03  0.29320358428E+03  0.12499541138E+03 0.  0.
    9000005    1    3    3    0    0  0.54459910072E+02  0.26217107815E+02  0.16983087592E+03  0.18026853570E+03  0.10000000000E+01 0.  0.
    9000005    1    3    3    0    0 -0.54459910072E+02 -0.26217107815E+02  0.95394479139E+02  0.11293504858E+03  0.10000000000E+01 0.  0.
<mgrwt>
<rscale>  0 0.12499541E+03</rscale>
<asrwt>0</asrwt>
<pdfrwt beam="2">  1        4 0.34972786E-02 0.12499541E+03</pdfrwt>
<pdfrwt beam="1">  1       -4 0.69803618E-01 0.12499541E+03</pdfrwt>
<totfact> 0.13165083E+03</totfact>
</mgrwt>
</event>
<event>
 5    1  0.1440092E-002  0.1249989E+03  0.7818608E-02  0.1235071E+00
         -4   -1    0    0    0  501 -0.00000000000E+00  0.00000000000E+00  0.29990992646E+03  0.29991261542E+03  0.12700000000E+01 0. -1.
          4   -1    0    0  501    0  0.00000000000E+00 -0.00000000000E+00 -0.12990808360E+02  0.13052739247E+02  0.12700000000E+01 0. -1.
         25    2    1    2    0    0  0.00000000000E+00  0.00000000000E+00  0.28691911810E+03  0.31296535467E+03  0.12499893156E+03 0.  0.
    9000005    1    3    3    0    0 -0.37284157078E+02 -0.49284729277E+02  0.16669051647E+03  0.17778026097E+03  0.10000000000E+01 0.  0.
    9000005    1    3    3    0    0  0.37284157078E+02  0.49284729277E+02  0.12022860163E+03  0.13518509370E+03  0.10000000000E+01 0.  0.
<mgrwt>
<rscale>  0 0.12499893E+03</rscale>
<asrwt>0</asrwt>
<pdfrwt beam="2">  1        4 0.32557798E-02 0.12499893E+03</pdfrwt>
<pdfrwt beam="1">  1       -4 0.74985555E-01 0.12499893E+03</pdfrwt>
<totfact> 0.12615612E+03</totfact>
</mgrwt>
</event>
<event>
 5    1  0.1440092E-002  0.1249962E+03  0.7818608E-02  0.1235075E+00
         -4   -1    0    0    0  501 -0.00000000000E+00  0.00000000000E+00  0.37809978410E+02  0.37831301423E+02  0.12700000000E+01 0.  1.
          4   -1    0    0  501    0  0.00000000000E+00 -0.00000000000E+00 -0.10325202948E+03  0.10325983968E+03  0.12700000000E+01 0.  1.
         25    2    1    2    0    0  0.00000000000E+00  0.00000000000E+00 -0.65442051068E+02  0.14109114110E+03  0.12499619214E+03 0.  0.
    9000005    1    3    3    0    0 -0.46448870644E+02  0.39697150928E+02 -0.17932472869E+02  0.63686222679E+02  0.10000000000E+01 0.  0.
    9000005    1    3    3    0    0  0.46448870644E+02 -0.39697150928E+02 -0.47509578199E+02  0.77404918426E+02  0.10000000000E+01 0.  0.
<mgrwt>
<rscale>  0 0.12499619E+03</rscale>
<asrwt>0</asrwt>
<pdfrwt beam="2">  1        4 0.25816648E-01 0.12499619E+03</pdfrwt>
<pdfrwt beam="1">  1       -4 0.94561365E-02 0.12499619E+03</pdfrwt>
<totfact> 0.18986345E+03</totfact>
</mgrwt>
</event>
<event>
 5    1  0.1440092E-002  0.1250046E+03  0.7818608E-02  0.1235062E+00
          4   -1    0    0  501    0  0.00000000000E+00  0.00000000000E+00  0.62597104910E+01  0.63872431792E+01  0.12700000000E+01 0. -1.
         -4   -1    0    0    0  501 -0.00000000000E+00 -0.00000000000E+00 -0.61765504023E+03  0.61765634589E+03  0.12700000000E+01 0. -1.
         25    2    1    2    0    0  0.00000000000E+00  0.00000000000E+00 -0.61139532974E+03  0.62404358907E+03  0.12500460726E+03 0.  0.
    9000005    1    3    3    0    0 -0.46158411929E+02  0.32785435214E+01 -0.51537988133E+03  0.51745412349E+03  0.10000000000E+01 0.  0.
    9000005    1    3    3    0    0  0.46158411929E+02 -0.32785435214E+01 -0.96015448412E+02  0.10658946558E+03  0.10000000000E+01 0.  0.
<mgrwt>
<rscale>  0 0.12500461E+03</rscale>
<asrwt>0</asrwt>
<pdfrwt beam="1">  1        4 0.15810345E-02 0.12500461E+03</pdfrwt>
<pdfrwt beam="2">  1       -4 0.15442966E+00 0.12500461E+03</pdfrwt>
<totfact> 0.70550234E+02</totfact>
</mgrwt>
</event>
<event>
 5    1  0.1440092E-002  0.1249996E+03  0.7818608E-02  0.1235070E+00
         -4   -1    0    0    0  501 -0.00000000000E+00  0.00000000000E+00  0.53914536485E+03  0.53914686064E+03  0.12700000000E+01 0.  1.
          4   -1    0    0  501    0  0.00000000000E+00 -0.00000000000E+00 -0.71880428901E+01  0.72993739862E+01  0.12700000000E+01 0.  1.
         25    2    1    2    0    0  0.00000000000E+00  0.00000000000E+00  0.53195732196E+03  0.54644623463E+03  0.12499957981E+03 0.  0.
    9000005    1    3    3    0    0 -0.22239215862E+02  0.28135994668E+02  0.48969989145E+03  0.49101242409E+03  0.10000000000E+01 0.  0.
    9000005    1    3    3    0    0  0.22239215862E+02 -0.28135994668E+02  0.42257430508E+02  0.55433810542E+02  0.10000000000E+01 0.  0.
<mgrwt>
<rscale>  0 0.12499958E+03</rscale>
<asrwt>0</asrwt>
<pdfrwt beam="2">  1        4 0.18111142E-02 0.12499958E+03</pdfrwt>
<pdfrwt beam="1">  1       -4 0.13480044E+00 0.12499958E+03</pdfrwt>
<totfact> 0.80664821E+02</totfact>
</mgrwt>
</event>
<event>
 5    1  0.1440092E-002  0.1250010E+03  0.7818608E-02  0.1235068E+00
          4   -1    0    0  501    0  0.00000000000E+00  0.00000000000E+00  0.78687904997E+02  0.78698153046E+02  0.12700000000E+01 0. -1.
         -4   -1    0    0    0  501 -0.00000000000E+00 -0.00000000000E+00 -0.49621529019E+02  0.49637778377E+02  0.12700000000E+01 0. -1.
         25    2    1    2    0    0  0.00000000000E+00  0.00000000000E+00  0.29066375977E+02  0.12833593142E+03  0.12500102832E+03 0.  0.
    9000005    1    3    3    0    0  0.64593166177E+01 -0.59794885984E+02 -0.28950656641E+01  0.60220698818E+02  0.10000000000E+01 0.  0.
    9000005    1    3    3    0    0 -0.64593166177E+01  0.59794885984E+02  0.31961441641E+02  0.68115232605E+02  0.10000000000E+01 0.  0.
<mgrwt>
<rscale>  0 0.12500103E+03</rscale>
<asrwt>0</asrwt>
<pdfrwt beam="1">  1        4 0.19675288E-01 0.12500103E+03</pdfrwt>
<pdfrwt beam="2">  1       -4 0.12408694E-01 0.12500103E+03</pdfrwt>
<totfact> 0.19653804E+03</totfact>
</mgrwt>
</event>
<event>
 5    1  0.1440092E-002  0.1249955E+03  0.7818608E-02  0.1235076E+00
         -4   -1    0    0    0  501 -0.00000000000E+00  0.00000000000E+00  0.39678739490E+02  0.39699058773E+02  0.12700000000E+01 0. -1.
          4   -1    0    0  501    0  0.00000000000E+00 -0.00000000000E+00 -0.98390147954E+02  0.98398344064E+02  0.12700000000E+01 0. -1.
         25    2    1    2    0    0  0.00000000000E+00  0.00000000000E+00 -0.58711408465E+02  0.13809740284E+03  0.12499545266E+03 0.  0.
    9000005    1    3    3    0    0 -0.32999746613E+02 -0.44085042443E+01  0.29069791508E+02  0.44209399052E+02  0.10000000000E+01 0.  0.
    9000005    1    3    3    0    0  0.32999746613E+02  0.44085042443E+01 -0.87781199972E+02  0.93888003785E+02  0.10000000000E+01 0.  0.
<mgrwt>
<rscale>  0 0.12499545E+03</rscale>
<asrwt>0</asrwt>
<pdfrwt beam="2">  1        4 0.24601101E-01 0.12499545E+03</pdfrwt>
<pdfrwt beam="1">  1       -4 0.99232495E-02 0.12499545E+03</pdfrwt>
<totfact> 0.19140133E+03</totfact>
</mgrwt>
</event>
<event>
 5    1  0.1440092E-002  0.1249980E+03  0.7818608E-02  0.1235072E+00
          4   -1    0    0  501    0  0.00000000000E+00  0.00000000000E+00  0.92120781440E+01  0.92992087691E+01  0.12700000000E+01 0.  1.
         -4   -1    0    0    0  501 -0.00000000000E+00 -0.00000000000E+00 -0.42193789610E+03  0.42193980740E+03  0.12700000000E+01 0.  1.
         25    2    1    2    0    0  0.00000000000E+00  0.00000000000E+00 -0.41272581796E+03  0.43123901617E+03  0.12499795301E+03 0.  0.
    9000005    1    3    3    0    0 -0.35716378258E+02  0.50561686520E+02 -0.17689075681E+03  0.18741260274E+03  0.10000000000E+01 0.  0.
    9000005    1    3    3    0    0  0.35716378258E+02 -0.50561686520E+02 -0.23583506115E+03  0.24382641343E+03  0.10000000000E+01 0.  0.
<mgrwt>
<rscale>  0 0.12499795E+03</rscale>
<asrwt>0</asrwt>
<pdfrwt beam="1">  1        4 0.23141512E-02 0.12499795E+03</pdfrwt>
<pdfrwt beam="2">  1       -4 0.10549554E+00 0.12499795E+03</pdfrwt>
<totfact> 0.99489964E+02</totfact>
</mgrwt>
</event>
<event>
 5    1  0.1440092E-002  0.1249998E+03  0.7818608E-02  0.1235070E+00
          4   -1    0    0  501    0  0.00000000000E+00  0.00000000000E+00  0.54478162189E+02  0.54492963358E+02  0.12700000000E+01 0.  1.
         -4   -1    0    0    0  501 -0.00000000000E+00 -0.00000000000E+00 -0.71672601438E+02  0.71683852414E+02  0.12700000000E+01 0.  1.
         25    2    1    2    0    0  0.00000000000E+00  0.00000000000E+00 -0.17194439249E+02  0.12617681577E+03  0.12499976039E+03 0.  0.
    9000005    1    3    3    0    0 -0.57380547862E+02  0.10151586288E+02  0.14190858273E+02  0.59983017893E+02  0.10000000000E+01 0.  0.
    9000005    1    3    3    0    0  0.57380547862E+02 -0.10151586288E+02 -0.31385297522E+02  0.66193797879E+02  0.10000000000E+01 0.  0.
<mgrwt>
<rscale>  0 0.12499976E+03</rscale>
<asrwt>0</asrwt>
<pdfrwt beam="1">  1        4 0.13622797E-01 0.12499976E+03</pdfrwt>
<pdfrwt beam="2">  1       -4 0.17921407E-01 0.12499976E+03</pdfrwt>
<totfact> 0.19771479E+03</totfact>
</mgrwt>
</event>
<event>
 5    1  0.1440092E-002  0.1249908E+03  0.7818608E-02  0.1235084E+00
         -4   -1    0    0    0  501 -0.00000000000E+00  0.00000000000E+00  0.25070832565E+02  0.25102978817E+02  0.12700000000E+01 0.  1.
          4   -1    0    0  501    0  0.00000000000E+00 -0.00000000000E+00 -0.15565094722E+03  0.15565612828E+03  0.12700000000E+01 0.  1.
         25    2    1    2    0    0  0.00000000000E+00  0.00000000000E+00 -0.13058011466E+03  0.18075910710E+03  0.12499075348E+03 0.  0.
    9000005    1    3    3    0    0  0.26417119803E+02  0.49056752634E+02 -0.10620040972E+03  0.11993313230E+03  0.10000000000E+01 0.  0.
    9000005    1    3    3    0    0 -0.26417119803E+02 -0.49056752634E+02 -0.24379704935E+02  0.60825974800E+02  0.10000000000E+01 0.  0.
<mgrwt>
<rscale>  0 0.12499075E+03</rscale>
<asrwt>0</asrwt>
<pdfrwt beam="2">  1        4 0.38917400E-01 0.12499075E+03</pdfrwt>
<pdfrwt beam="1">  1       -4 0.62723745E-02 0.12499075E+03</pdfrwt>
<totfact> 0.17126078E+03</totfact>
</mgrwt>
</event>
<event>
 5    1  0.1440092E-002  0.1249982E+03  0.7818608E-02  0.1235072E+00
          4   -1    0    0  501    0  0.00000000000E+00  0.00000000000E+00  0.25598568619E+02  0.25630052972E+02  0.12700000000E+01 0.  1.
         -4   -1    0    0    0  501 -0.00000000000E+00 -0.00000000000E+00 -0.15246422148E+03  0.15246951082E+03  0.12700000000E+01 0.  1.
         25    2    1    2    0    0  0.00000000000E+00  0.00000000000E+00 -0.12686565286E+03  0.17809956380E+03  0.12499824298E+03 0.  0.
    9000005    1    3    3    0    0  0.31206507236E+02 -0.84217905780E+01 -0.13963544012E+03  0.14333118568E+03  0.10000000000E+01 0.  0.
    9000005    1    3    3    0    0 -0.31206507236E+02  0.84217905780E+01  0.12769787260E+02  0.34768378119E+02  0.10000000000E+01 0.  0.
<mgrwt>
<rscale>  0 0.12499824E+03</rscale>
<asrwt>0</asrwt>
<pdfrwt beam="1">  1        4 0.64042393E-02 0.12499824E+03</pdfrwt>
<pdfrwt beam="2">  1       -4 0.38120650E-01 0.12499824E+03</pdfrwt>
<totfact> 0.17238494E+03</totfact>
</mgrwt>
</event>
<event>
 5    1  0.1440092E-002  0.1249749E+03  0.7818608E-02  0.1235108E+00
          4   -1    0    0  501    0  0.00000000000E+00  0.00000000000E+00  0.91967860890E+01  0.92840602306E+01  0.12700000000E+01 0.  1.
         -4   -1    0    0    0  501 -0.00000000000E+00 -0.00000000000E+00 -0.42247710875E+03  0.42247901761E+03  0.12700000000E+01 0.  1.
         25    2    1    2    0    0  0.00000000000E+00  0.00000000000E+00 -0.41328032266E+03  0.43176307784E+03  0.12497491862E+03 0.  0.
    9000005    1    3    3    0    0 -0.49166648395E+02  0.36766129835E+02 -0.16656227973E+03  0.17751929655E+03  0.10000000000E+01 0.  0.
    9000005    1    3    3    0    0  0.49166648395E+02 -0.36766129835E+02 -0.24671804293E+03  0.25424378129E+03  0.10000000000E+01 0.  0.
<mgrwt>
<rscale>  0 0.12497492E+03</rscale>
<asrwt>0</asrwt>
<pdfrwt beam="1">  1        4 0.23103458E-02 0.12497492E+03</pdfrwt>
<pdfrwt beam="2">  1       -4 0.10563036E+00 0.12497492E+03</pdfrwt>
<totfact> 0.99442388E+02</totfact>
</mgrwt>
</event>
<event>
 5    1  0.1440092E-002  0.1250024E+03  0.7818608E-02  0.1235066E+00
          4   -1    0    0  501    0  0.00000000000E+00  0.00000000000E+00  0.36658988807E+02  0.36680980908E+02  0.12700000000E+01 0.  1.
         -4   -1    0    0    0  501 -0.00000000000E+00 -0.00000000000E+00 -0.10650275036E+03  0.10651032219E+03  0.12700000000E+01 0.  1.
         25    2    1    2    0    0  0.00000000000E+00  0.00000000000E+00 -0.69843761548E+02  0.14319130310E+03  0.12500239300E+03 0.  0.
    9000005    1    3    3    0    0 -0.45461719885E+02 -0.29797718783E+02 -0.70242340896E+02  0.88823749494E+02  0.10000000000E+01 0.  0.
    9000005    1    3    3    0    0  0.45461719885E+02  0.29797718783E+02  0.39857934789E+00  0.54367553605E+02  0.10000000000E+01 0.  0.
<mgrwt>
<rscale>  0 0.12500239E+03</rscale>
<asrwt>0</asrwt>
<pdfrwt beam="1">  1        4 0.91684429E-02 0.12500239E+03</pdfrwt>
<pdfrwt beam="2">  1       -4 0.26629382E-01 0.12500239E+03</pdfrwt>
<totfact> 0.18877200E+03</totfact>
</mgrwt>
</event>
<event>
 5    1  0.1440092E-002  0.1250040E+03  0.7818608E-02  0.1235063E+00
          4   -1    0    0  501    0  0.00000000000E+00  0.00000000000E+00  0.93108822544E+02  0.93117483512E+02  0.12700000000E+01 0. -1.
         -4   -1    0    0    0  501 -0.00000000000E+00 -0.00000000000E+00 -0.41936077129E+02  0.41955303180E+02  0.12700000000E+01 0. -1.
         25    2    1    2    0    0  0.00000000000E+00  0.00000000000E+00  0.51172745416E+02  0.13507278669E+03  0.12500403126E+03 0.  0.
    9000005    1    3    3    0    0  0.34084916164E+02 -0.44759014665E+02 -0.38146671359E+01  0.56397717942E+02  0.10000000000E+01 0.  0.
    9000005    1    3    3    0    0 -0.34084916164E+02  0.44759014665E+02  0.54987412551E+02  0.78675068750E+02  0.10000000000E+01 0.  0.
<mgrwt>
<rscale>  0 0.12500403E+03</rscale>
<asrwt>0</asrwt>
<pdfrwt beam="1">  1        4 0.23280691E-01 0.12500403E+03</pdfrwt>
<pdfrwt beam="2">  1       -4 0.10487505E-01 0.12500403E+03</pdfrwt>
<totfact> 0.19293510E+03</totfact>
</mgrwt>
</event>
<event>
 5    1  0.1440092E-002  0.1250003E+03  0.7818608E-02  0.1235069E+00
          4   -1    0    0  501    0  0.00000000000E+00  0.00000000000E+00  0.16528358429E+02  0.16577078523E+02  0.12700000000E+01 0.  1.
         -4   -1    0    0    0  501 -0.00000000000E+00 -0.00000000000E+00 -0.23593920514E+03  0.23594262315E+03  0.12700000000E+01 0.  1.
         25    2    1    2    0    0  0.00000000000E+00  0.00000000000E+00 -0.21941084671E+03  0.25251970168E+03  0.12500032033E+03 0.  0.
    9000005    1    3    3    0    0 -0.20028967298E+02  0.20509866494E+02  0.24713670847E+01  0.28791002238E+02  0.10000000000E+01 0.  0.
    9000005    1    3    3    0    0  0.20028967298E+02 -0.20509866494E+02 -0.22188221379E+03  0.22372869944E+03  0.10000000000E+01 0.  0.
<mgrwt>
<rscale>  0 0.12500032E+03</rscale>
<asrwt>0</asrwt>
<pdfrwt beam="1">  1        4 0.41386076E-02 0.12500032E+03</pdfrwt>
<pdfrwt beam="2">  1       -4 0.58991308E-01 0.12500032E+03</pdfrwt>
<totfact> 0.14414436E+03</totfact>
</mgrwt>
</event>
<event>
 5    1  0.1440092E-002  0.1249995E+03  0.7818608E-02  0.1235070E+00
         -4   -1    0    0    0  501 -0.00000000000E+00  0.00000000000E+00  0.80854959940E+01  0.81846286091E+01  0.12700000000E+01 0.  1.
          4   -1    0    0  501    0  0.00000000000E+00 -0.00000000000E+00 -0.48007103115E+03  0.48007271100E+03  0.12700000000E+01 0.  1.
         25    2    1    2    0    0  0.00000000000E+00  0.00000000000E+00 -0.47198553516E+03  0.48825733961E+03  0.12499953715E+03 0.  0.
    9000005    1    3    3    0    0 -0.42317801914E+02 -0.24323756635E+02 -0.83566822221E+02  0.96782515321E+02  0.10000000000E+01 0.  0.
    9000005    1    3    3    0    0  0.42317801914E+02  0.24323756635E+02 -0.38841871293E+03  0.39147482429E+03  0.10000000000E+01 0.  0.
<mgrwt>
<rscale>  0 0.12499954E+03</rscale>
<asrwt>0</asrwt>
<pdfrwt beam="2">  1        4 0.12003026E+00 0.12499954E+03</pdfrwt>
<pdfrwt beam="1">  1       -4 0.20339772E-02 0.12499954E+03</pdfrwt>
<totfact> 0.89505301E+02</totfact>
</mgrwt>
</event>
<event>
 5    1  0.1440092E-002  0.1249990E+03  0.7818608E-02  0.1235071E+00
          4   -1    0    0  501    0  0.00000000000E+00  0.00000000000E+00  0.35764283090E+02  0.35786825019E+02  0.12700000000E+01 0.  1.
         -4   -1    0    0    0  501 -0.00000000000E+00 -0.00000000000E+00 -0.10915975429E+03  0.10916714184E+03  0.12700000000E+01 0.  1.
         25    2    1    2    0    0  0.00000000000E+00  0.00000000000E+00 -0.73395471202E+02  0.14495396686E+03  0.12499902926E+03 0.  0.
    9000005    1    3    3    0    0 -0.87397809959E+01  0.59563363304E+02 -0.56137247827E+02  0.82319916263E+02  0.10000000000E+01 0.  0.
    9000005    1    3    3    0    0  0.87397809959E+01 -0.59563363304E+02 -0.17258223375E+02  0.62634050595E+02  0.10000000000E+01 0.  0.
<mgrwt>
<rscale>  0 0.12499903E+03</rscale>
<asrwt>0</asrwt>
<pdfrwt beam="1">  1        4 0.89448122E-02 0.12499903E+03</pdfrwt>
<pdfrwt beam="2">  1       -4 0.27293679E-01 0.12499903E+03</pdfrwt>
<totfact> 0.18790094E+03</totfact>
</mgrwt>
</event>
<event>
 5    1  0.1440092E-002  0.1250001E+03  0.7818608E-02  0.1235069E+00
         -4   -1    0    0    0  501 -0.00000000000E+00  0.00000000000E+00  0.11485878128E+03  0.11486580230E+03  0.12700000000E+01 0.  1.
          4   -1    0    0  501    0  0.00000000000E+00 -0.00000000000E+00 -0.33989311855E+02  0.34013030156E+02  0.12700000000E+01 0.  1.
         25    2    1    2    0    0  0.00000000000E+00  0.00000000000E+00  0.80869469428E+02  0.14887883246E+03  0.12500014267E+03 0.  0.
    9000005    1    3    3    0    0 -0.31713418472E+02 -0.51960408262E+02  0.23606456742E+02  0.65298466581E+02  0.10000000000E+01 0.  0.
    9000005    1    3    3    0    0  0.31713418472E+02  0.51960408262E+02  0.57263012686E+02  0.83580365875E+02  0.10000000000E+01 0.  0.
<mgrwt>
<rscale>  0 0.12500014E+03</rscale>
<asrwt>0</asrwt>
<pdfrwt beam="2">  1        4 0.85011705E-02 0.12500014E+03</pdfrwt>
<pdfrwt beam="1">  1       -4 0.28718537E-01 0.12500014E+03</pdfrwt>
<totfact> 0.18593985E+03</totfact>
</mgrwt>
</event>
<event>
 5    1  0.1440092E-002  0.1250005E+03  0.7818608E-02  0.1235069E+00
          4   -1    0    0  501    0  0.00000000000E+00  0.00000000000E+00  0.20674430993E+03  0.20674821060E+03  0.12700000000E+01 0.  1.
         -4   -1    0    0    0  501 -0.00000000000E+00 -0.00000000000E+00 -0.18868823823E+02  0.18911515340E+02  0.12700000000E+01 0.  1.
         25    2    1    2    0    0  0.00000000000E+00  0.00000000000E+00  0.18787548611E+03  0.22565972594E+03  0.12500045453E+03 0.  0.
    9000005    1    3    3    0    0  0.16122770957E+02 -0.45346003420E+02  0.16590162996E+03  0.17274418831E+03  0.10000000000E+01 0.  0.
    9000005    1    3    3    0    0 -0.16122770957E+02  0.45346003420E+02  0.21973856142E+02  0.52915537635E+02  0.10000000000E+01 0.  0.
<mgrwt>
<rscale>  0 0.12500045E+03</rscale>
<asrwt>0</asrwt>
<pdfrwt beam="1">  1        4 0.51691900E-01 0.12500045E+03</pdfrwt>
<pdfrwt beam="2">  1       -4 0.47230301E-02 0.12500045E+03</pdfrwt>
<totfact> 0.15343488E+03</totfact>
</mgrwt>
</event>
<event>
 5    1  0.1440092E-002  0.1250001E+03  0.7818608E-02  0.1235069E+00
         -4   -1    0    0    0  501 -0.00000000000E+00  0.00000000000E+00  0.13067674076E+02  0.13129242390E+02  0.12700000000E+01 0. -1.
          4   -1    0    0  501    0  0.00000000000E+00 -0.00000000000E+00 -0.29815957541E+03  0.29816228016E+03  0.12700000000E+01 0. -1.
         25    2    1    2    0    0  0.00000000000E+00  0.00000000000E+00 -0.28509190133E+03  0.31129152255E+03  0.12500007921E+03 0.  0.
    9000005    1    3    3    0    0 -0.19357576162E+02 -0.59251506925E+02 -0.13146520426E+03  0.14549761771E+03  0.10000000000E+01 0.  0.
    9000005    1    3    3    0    0  0.19357576162E+02  0.59251506925E+02 -0.15362669708E+03  0.16579390484E+03  0.10000000000E+01 0.  0.
<mgrwt>
<rscale>  0 0.12500008E+03</rscale>
<asrwt>0</asrwt>
<pdfrwt beam="2">  1        4 0.74547906E-01 0.12500008E+03</pdfrwt>
<pdfrwt beam="1">  1       -4 0.32749536E-02 0.12500008E+03</pdfrwt>
<totfact> 0.12660368E+03</totfact>
</mgrwt>
</event>
<event>
 4    1  0.1440092E-002  0.1254903E+03  0.7818608E-02  0.1234305E+00
         -4   -1    0    0    0  501 -0.00000000000E+00  0.00000000000E+00  0.66234189922E+02  0.66246364539E+02  0.12700000000E+01 0. -1.
          4   -1    0    0  501    0  0.00000000000E+00 -0.00000000000E+00 -0.59415450524E+02  0.59429022043E+02  0.12700000000E+01 0. -1.
    9000005    1    1    2    0    0  0.81859155465E+00  0.59927327181E+02  0.21983892809E+02  0.63845486750E+02  0.10000000000E+01 0.  0.
    9000005    1    1    2    0    0 -0.81859155465E+00 -0.59927327181E+02 -0.15165153412E+02  0.61829899832E+02  0.10000000000E+01 0.  0.
<mgrwt>
<rscale>  0 0.12549027E+03</rscale>
<asrwt>0</asrwt>
<pdfrwt beam="2">  1        4 0.14857081E-01 0.12549027E+03</pdfrwt>
<pdfrwt beam="1">  1       -4 0.16561766E-01 0.12549027E+03</pdfrwt>
<totfact> 0.19573066E+03</totfact>
</mgrwt>
</event>
<event>
 5    1  0.1440092E-002  0.1249962E+03  0.7818608E-02  0.1235075E+00
         -4   -1    0    0    0  501 -0.00000000000E+00  0.00000000000E+00  0.11398317859E+03  0.11399025354E+03  0.12700000000E+01 0. -1.
          4   -1    0    0  501    0  0.00000000000E+00 -0.00000000000E+00 -0.34248439063E+02  0.34271978033E+02  0.12700000000E+01 0. -1.
         25    2    1    2    0    0  0.00000000000E+00  0.00000000000E+00  0.79734739526E+02  0.14826223157E+03  0.12499624243E+03 0.  0.
    9000005    1    3    3    0    0  0.23085417344E+02  0.57127732588E+02  0.27512160450E+02  0.67486541601E+02  0.10000000000E+01 0.  0.
    9000005    1    3    3    0    0 -0.23085417344E+02 -0.57127732588E+02  0.52222579075E+02  0.80775689968E+02  0.10000000000E+01 0.  0.
<mgrwt>
<rscale>  0 0.12499624E+03</rscale>
<asrwt>0</asrwt>
<pdfrwt beam="2">  1        4 0.85659366E-02 0.12499624E+03</pdfrwt>
<pdfrwt beam="1">  1       -4 0.28499621E-01 0.12499624E+03</pdfrwt>
<totfact> 0.18626187E+03</totfact>
</mgrwt>
</event>
<event>
 5    1  0.1440092E-002  0.1250019E+03  0.7818608E-02  0.1235066E+00
         -4   -1    0    0    0  501 -0.00000000000E+00  0.00000000000E+00  0.62868032399E+01  0.64137972354E+01  0.12700000000E+01 0. -1.
          4   -1    0    0  501    0  0.00000000000E+00 -0.00000000000E+00 -0.61501945824E+03  0.61502076950E+03  0.12700000000E+01 0. -1.
         25    2    1    2    0    0  0.00000000000E+00  0.00000000000E+00 -0.60873265500E+03  0.62143456673E+03  0.12500190186E+03 0.  0.
    9000005    1    3    3    0    0  0.13464170533E+02 -0.60722787817E+02 -0.33453581707E+03  0.34027011880E+03  0.10000000000E+01 0.  0.
    9000005    1    3    3    0    0 -0.13464170533E+02  0.60722787817E+02 -0.27419683793E+03  0.28116444793E+03  0.10000000000E+01 0.  0.
<mgrwt>
<rscale>  0 0.12500190E+03</rscale>
<asrwt>0</asrwt>
<pdfrwt beam="2">  1        4 0.15377070E+00 0.12500190E+03</pdfrwt>
<pdfrwt beam="1">  1       -4 0.15877411E-02 0.12500190E+03</pdfrwt>
<totfact> 0.70866735E+02</totfact>
</mgrwt>
</event>
<event>
 5    1  0.1440092E-002  0.1249982E+03  0.7818608E-02  0.1235072E+00
         -4   -1    0    0    0  501 -0.00000000000E+00  0.00000000000E+00  0.69443617276E+02  0.69455229323E+02  0.12700000000E+01 0. -1.
          4   -1    0    0  501    0  0.00000000000E+00 -0.00000000000E+00 -0.56225592139E+02  0.56239933423E+02  0.12700000000E+01 0. -1.
         25    2    1    2    0    0  0.00000000000E+00  0.00000000000E+00  0.13218025136E+02  0.12569516275E+03  0.12499823098E+03 0.  0.
    9000005    1    3    3    0    0 -0.30096143494E+02  0.33046275495E+01  0.61580443551E+02  0.68628342865E+02  0.10000000000E+01 0.  0.
    9000005    1    3    3    0    0  0.30096143494E+02 -0.33046275495E+01 -0.48362418415E+02  0.57066819881E+02  0.10000000000E+01 0.  0.
<mgrwt>
<rscale>  0 0.12499823E+03</rscale>
<asrwt>0</asrwt>
<pdfrwt beam="2">  1        4 0.14059642E-01 0.12499823E+03</pdfrwt>
<pdfrwt beam="1">  1       -4 0.17364148E-01 0.12499823E+03</pdfrwt>
<totfact> 0.19798221E+03</totfact>
</mgrwt>
</event>
<event>
 5    1  0.1440092E-002  0.1249985E+03  0.7818608E-02  0.1235072E+00
          4   -1    0    0  501    0  0.00000000000E+00  0.00000000000E+00  0.62727263251E+02  0.62740118385E+02  0.12700000000E+01 0.  1.
         -4   -1    0    0    0  501 -0.00000000000E+00 -0.00000000000E+00 -0.62246389412E+02  0.62259343835E+02  0.12700000000E+01 0.  1.
         25    2    1    2    0    0  0.00000000000E+00  0.00000000000E+00  0.48087383948E+00  0.12499946222E+03  0.12499853725E+03 0.  0.
    9000005    1    3    3    0    0  0.47455170821E+02  0.37360653899E+02 -0.15801716621E+02  0.62438016829E+02  0.10000000000E+01 0.  0.
    9000005    1    3    3    0    0 -0.47455170821E+02 -0.37360653899E+02  0.16282590460E+02  0.62561445392E+02  0.10000000000E+01 0.  0.
<mgrwt>
<rscale>  0 0.12499854E+03</rscale>
<asrwt>0</asrwt>
<pdfrwt beam="1">  1        4 0.15685042E-01 0.12499854E+03</pdfrwt>
<pdfrwt beam="2">  1       -4 0.15564824E-01 0.12499854E+03</pdfrwt>
<totfact> 0.19835763E+03</totfact>
</mgrwt>
</event>
<event>
 5    1  0.1440092E-002  0.1249999E+03  0.7818608E-02  0.1235069E+00
         -4   -1    0    0    0  501 -0.00000000000E+00  0.00000000000E+00  0.45336736982E+02  0.45354521497E+02  0.12700000000E+01 0.  1.
          4   -1    0    0  501    0  0.00000000000E+00 -0.00000000000E+00 -0.86121358247E+02  0.86130721850E+02  0.12700000000E+01 0.  1.
         25    2    1    2    0    0  0.00000000000E+00  0.00000000000E+00 -0.40784621265E+02  0.13148524335E+03  0.12499993554E+03 0.  0.
    9000005    1    3    3    0    0  0.15887858481E+02  0.60396438047E+02 -0.18018643773E+02  0.65006348146E+02  0.10000000000E+01 0.  0.
    9000005    1    3    3    0    0 -0.15887858481E+02 -0.60396438047E+02 -0.22765977493E+02  0.66478895201E+02  0.10000000000E+01 0.  0.
<mgrwt>
<rscale>  0 0.12499994E+03</rscale>
<asrwt>0</asrwt>
<pdfrwt beam="2">  1        4 0.21533733E-01 0.12499994E+03</pdfrwt>
<pdfrwt beam="1">  1       -4 0.11337578E-01 0.12499994E+03</pdfrwt>
<totfact> 0.19484895E+03</totfact>
</mgrwt>
</event>
<event>
 5    1  0.1440092E-002  0.1249985E+03  0.7818608E-02  0.1235072E+00
          4   -1    0    0  501    0  0.00000000000E+00  0.00000000000E+00  0.12315234963E+02  0.12380545715E+02  0.12700000000E+01 0.  1.
         -4   -1    0    0    0  501 -0.00000000000E+00 -0.00000000000E+00 -0.31627532094E+03  0.31627787076E+03  0.12700000000E+01 0.  1.
         25    2    1    2    0    0  0.00000000000E+00  0.00000000000E+00 -0.30396008598E+03  0.32865841648E+03  0.12499848341E+03 0.  0.
    9000005    1    3    3    0    0  0.94151412414E+00 -0.37613010479E+02 -0.28316943362E+03  0.28565985567E+03  0.10000000000E+01 0.  0.
    9000005    1    3    3    0    0 -0.94151412414E+00  0.37613010479E+02 -0.20790652360E+02  0.42998560810E+02  0.10000000000E+01 0.  0.
<mgrwt>
<rscale>  0 0.12499848E+03</rscale>
<asrwt>0</asrwt>
<pdfrwt beam="1">  1        4 0.30872924E-02 0.12499848E+03</pdfrwt>
<pdfrwt beam="2">  1       -4 0.79077286E-01 0.12499848E+03</pdfrwt>
<totfact> 0.12204657E+03</totfact>
</mgrwt>
</event>
<event>
 5    1  0.1440092E-002  0.1249998E+03  0.7818608E-02  0.1235070E+00
          4   -1    0    0  501    0  0.00000000000E+00  0.00000000000E+00  0.72327563432E+01  0.73434095842E+01  0.12700000000E+01 0. -1.
         -4   -1    0    0    0  501 -0.00000000000E+00 -0.00000000000E+00 -0.53586472651E+03  0.53586623146E+03  0.12700000000E+01 0. -1.
         25    2    1    2    0    0  0.00000000000E+00  0.00000000000E+00 -0.52863197016E+03  0.54320964104E+03  0.12499981696E+03 0.  0.
    9000005    1    3    3    0    0  0.25598266638E+02  0.56626022125E+02 -0.29296485968E+03  0.29948486880E+03  0.10000000000E+01 0.  0.
    9000005    1    3    3    0    0 -0.25598266638E+02 -0.56626022125E+02 -0.23566711049E+03  0.24372477224E+03  0.10000000000E+01 0.  0.
<mgrwt>
<rscale>  0 0.12499982E+03</rscale>
<asrwt>0</asrwt>
<pdfrwt beam="1">  1        4 0.18222107E-02 0.12499982E+03</pdfrwt>
<pdfrwt beam="2">  1       -4 0.13398007E+00 0.12499982E+03</pdfrwt>
<totfact> 0.81121232E+02</totfact>
</mgrwt>
</event>
<event>
 5    1  0.1440092E-002  0.1250000E+03  0.7818608E-02  0.1235069E+00
          4   -1    0    0  501    0  0.00000000000E+00  0.00000000000E+00  0.98968740295E+01  0.99780266363E+01  0.12700000000E+01 0.  1.
         -4   -1    0    0    0  501 -0.00000000000E+00 -0.00000000000E+00 -0.39300154556E+03  0.39300359758E+03  0.12700000000E+01 0.  1.
         25    2    1    2    0    0  0.00000000000E+00  0.00000000000E+00 -0.38310467153E+03  0.40298162422E+03  0.12500000044E+03 0.  0.
    9000005    1    3    3    0    0 -0.61488947846E+02 -0.11063253462E+02 -0.18703463408E+03  0.19719594476E+03  0.10000000000E+01 0.  0.
    9000005    1    3    3    0    0  0.61488947846E+02  0.11063253462E+02 -0.19607003744E+03  0.20578567945E+03  0.10000000000E+01 0.  0.
<mgrwt>
<rscale>  0 0.12500000E+03</rscale>
<asrwt>0</asrwt>
<pdfrwt beam="1">  1        4 0.24846204E-02 0.12500000E+03</pdfrwt>
<pdfrwt beam="2">  1       -4 0.98260735E-01 0.12500000E+03</pdfrwt>
<totfact> 0.10508044E+03</totfact>
</mgrwt>
</event>
<event>
 5    1  0.1440092E-002  0.1250006E+03  0.7818608E-02  0.1235068E+00
          4   -1    0    0  501    0  0.00000000000E+00  0.00000000000E+00  0.47448488234E+02  0.47465481518E+02  0.12700000000E+01 0.  1.
         -4   -1    0    0    0  501 -0.00000000000E+00 -0.00000000000E+00 -0.82290337554E+02  0.82300137027E+02  0.12700000000E+01 0.  1.
         25    2    1    2    0    0  0.00000000000E+00  0.00000000000E+00 -0.34841849319E+02  0.12976561855E+03  0.12500064517E+03 0.  0.
    9000005    1    3    3    0    0  0.25207833148E+02  0.10363344661E+02  0.40958481218E+02  0.49208037436E+02  0.10000000000E+01 0.  0.
    9000005    1    3    3    0    0 -0.25207833148E+02 -0.10363344661E+02 -0.75800330537E+02  0.80557581109E+02  0.10000000000E+01 0.  0.
<mgrwt>
<rscale>  0 0.12500065E+03</rscale>
<asrwt>0</asrwt>
<pdfrwt beam="1">  1        4 0.11865471E-01 0.12500065E+03</pdfrwt>
<pdfrwt beam="2">  1       -4 0.20575933E-01 0.12500065E+03</pdfrwt>
<totfact> 0.19576696E+03</totfact>
</mgrwt>
</event>
<event>
 5    1  0.1440092E-002  0.1250015E+03  0.7818608E-02  0.1235067E+00
          4   -1    0    0  501    0  0.00000000000E+00  0.00000000000E+00  0.16290544627E+02  0.16339973814E+02  0.12700000000E+01 0.  1.
         -4   -1    0    0    0  501 -0.00000000000E+00 -0.00000000000E+00 -0.23937780473E+03  0.23938117365E+03  0.12700000000E+01 0.  1.
         25    2    1    2    0    0  0.00000000000E+00  0.00000000000E+00 -0.22308726010E+03  0.25572114746E+03  0.12500151855E+03 0.  0.
    9000005    1    3    3    0    0 -0.20997479471E+02  0.40868081473E+02 -0.24888771917E+02  0.52264186543E+02  0.10000000000E+01 0.  0.
    9000005    1    3    3    0    0  0.20997479471E+02 -0.40868081473E+02 -0.19819848819E+03  0.20345696092E+03  0.10000000000E+01 0.  0.
<mgrwt>
<rscale>  0 0.12500152E+03</rscale>
<asrwt>0</asrwt>
<pdfrwt beam="1">  1        4 0.40792367E-02 0.12500152E+03</pdfrwt>
<pdfrwt beam="2">  1       -4 0.59851040E-01 0.12500152E+03</pdfrwt>
<totfact> 0.14309090E+03</totfact>
</mgrwt>
</event>
<event>
 5    1  0.1440092E-002  0.1249614E+03  0.7818608E-02  0.1235130E+00
         -4   -1    0    0    0  501 -0.00000000000E+00  0.00000000000E+00  0.36581889580E+02  0.36603928003E+02  0.12700000000E+01 0. -1.
          4   -1    0    0  501    0  0.00000000000E+00 -0.00000000000E+00 -0.10665710235E+03  0.10666466323E+03  0.12700000000E+01 0. -1.
         25    2    1    2    0    0  0.00000000000E+00  0.00000000000E+00 -0.70075212770E+02  0.14326859123E+03  0.12496140920E+03 0.  0.
    9000005    1    3    3    0    0  0.45473362799E+02 -0.20630159260E+02 -0.78079709271E+02  0.92686952670E+02  0.10000000000E+01 0.  0.
    9000005    1    3    3    0    0 -0.45473362799E+02  0.20630159260E+02  0.80044965008E+01  0.50581638562E+02  0.10000000000E+01 0.  0.
<mgrwt>
<rscale>  0 0.12496141E+03</rscale>
<asrwt>0</asrwt>
<pdfrwt beam="2">  1        4 0.26667975E-01 0.12496141E+03</pdfrwt>
<pdfrwt beam="1">  1       -4 0.91491725E-02 0.12496141E+03</pdfrwt>
<totfact> 0.18891342E+03</totfact>
</mgrwt>
</event>
<event>
 5    1  0.1440092E-002  0.1249989E+03  0.7818608E-02  0.1235071E+00
         -4   -1    0    0    0  501 -0.00000000000E+00  0.00000000000E+00  0.38995434500E+02  0.39016109646E+02  0.12700000000E+01 0. -1.
          4   -1    0    0  501    0  0.00000000000E+00 -0.00000000000E+00 -0.10011898397E+03  0.10012703856E+03  0.12700000000E+01 0. -1.
         25    2    1    2    0    0  0.00000000000E+00  0.00000000000E+00 -0.61123549471E+02  0.13914314821E+03  0.12499890957E+03 0.  0.
    9000005    1    3    3    0    0 -0.14715120923E+02 -0.37630608063E+02  0.22504134713E+02  0.46260496389E+02  0.10000000000E+01 0.  0.
    9000005    1    3    3    0    0  0.14715120923E+02  0.37630608063E+02 -0.83627684184E+02  0.92882651820E+02  0.10000000000E+01 0.  0.
<mgrwt>
<rscale>  0 0.12499891E+03</rscale>
<asrwt>0</asrwt>
<pdfrwt beam="2">  1        4 0.25033337E-01 0.12499891E+03</pdfrwt>
<pdfrwt beam="1">  1       -4 0.97524500E-02 0.12499891E+03</pdfrwt>
<totfact> 0.19084749E+03</totfact>
</mgrwt>
</event>
<event>
 5    1  0.1440092E-002  0.1249865E+03  0.7818608E-02  0.1235090E+00
          4   -1    0    0  501    0  0.00000000000E+00  0.00000000000E+00  0.83195797648E+02  0.83205490482E+02  0.12700000000E+01 0.  1.
         -4   -1    0    0    0  501 -0.00000000000E+00 -0.00000000000E+00 -0.46921346116E+02  0.46938530242E+02  0.12700000000E+01 0.  1.
         25    2    1    2    0    0  0.00000000000E+00  0.00000000000E+00  0.36274451533E+02  0.13014402072E+03  0.12498652046E+03 0.  0.
    9000005    1    3    3    0    0 -0.11811496934E+02 -0.26874189401E+02  0.75573830311E+02  0.81081054159E+02  0.10000000000E+01 0.  0.
    9000005    1    3    3    0    0  0.11811496934E+02  0.26874189401E+02 -0.39299378778E+02  0.49062966565E+02  0.10000000000E+01 0.  0.
<mgrwt>
<rscale>  0 0.12498652E+03</rscale>
<asrwt>0</asrwt>
<pdfrwt beam="1">  1        4 0.20802309E-01 0.12498652E+03</pdfrwt>
<pdfrwt beam="2">  1       -4 0.11733696E-01 0.12498652E+03</pdfrwt>
<totfact> 0.19562797E+03</totfact>
</mgrwt>
</event>
<event>
 5    1  0.1440092E-002  0.1250041E+03  0.7818608E-02  0.1235063E+00
         -4   -1    0    0    0  501 -0.00000000000E+00  0.00000000000E+00  0.88892265650E+02  0.88901337405E+02  0.12700000000E+01 0.  1.
          4   -1    0    0  501    0  0.00000000000E+00 -0.00000000000E+00 -0.43926067495E+02  0.43944422918E+02  0.12700000000E+01 0.  1.
         25    2    1    2    0    0  0.00000000000E+00  0.00000000000E+00  0.44966198155E+02  0.13284576032E+03  0.12500414817E+03 0.  0.
    9000005    1    3    3    0    0  0.44864191909E+02  0.29603522038E+02 -0.11396936534E+02  0.54955021563E+02  0.10000000000E+01 0.  0.
    9000005    1    3    3    0    0 -0.44864191909E+02 -0.29603522038E+02  0.56363134688E+02  0.77890738760E+02  0.10000000000E+01 0.  0.
<mgrwt>
<rscale>  0 0.12500415E+03</rscale>
<asrwt>0</asrwt>
<pdfrwt beam="2">  1        4 0.10984945E-01 0.12500415E+03</pdfrwt>
<pdfrwt beam="1">  1       -4 0.22226495E-01 0.12500415E+03</pdfrwt>
<totfact> 0.19410698E+03</totfact>
</mgrwt>
</event>
<event>
 5    1  0.1440092E-002  0.1250045E+03  0.7818608E-02  0.1235062E+00
         -4   -1    0    0    0  501 -0.00000000000E+00  0.00000000000E+00  0.29778178301E+03  0.29778449118E+03  0.12700000000E+01 0. -1.
          4   -1    0    0  501    0  0.00000000000E+00 -0.00000000000E+00 -0.13085268460E+02  0.13146754378E+02  0.12700000000E+01 0. -1.
         25    2    1    2    0    0  0.00000000000E+00  0.00000000000E+00  0.28469651455E+03  0.31093124556E+03  0.12500453621E+03 0.  0.
    9000005    1    3    3    0    0  0.36654436052E+02 -0.49693034499E+02  0.16628231398E+03  0.17738025060E+03  0.10000000000E+01 0.  0.
    9000005    1    3    3    0    0 -0.36654436052E+02  0.49693034499E+02  0.11841420057E+03  0.13355099497E+03  0.10000000000E+01 0.  0.
<mgrwt>
<rscale>  0 0.12500454E+03</rscale>
<asrwt>0</asrwt>
<pdfrwt beam="2">  1        4 0.32793415E-02 0.12500454E+03</pdfrwt>
<pdfrwt beam="1">  1       -4 0.74453466E-01 0.12500454E+03</pdfrwt>
<totfact> 0.12668809E+03</totfact>
</mgrwt>
</event>
<event>
 5    1  0.1440092E-002  0.1249941E+03  0.7818608E-02  0.1235079E+00
          4   -1    0    0  501    0  0.00000000000E+00  0.00000000000E+00  0.25867179167E+02  0.25898336974E+02  0.12700000000E+01 0. -1.
         -4   -1    0    0    0  501 -0.00000000000E+00 -0.00000000000E+00 -0.15087284105E+03  0.15087818619E+03  0.12700000000E+01 0. -1.
         25    2    1    2    0    0  0.00000000000E+00  0.00000000000E+00 -0.12500566189E+03  0.17677652316E+03  0.12499409441E+03 0.  0.
    9000005    1    3    3    0    0 -0.18413879330E+02  0.30988304629E+02  0.96882498349E+01  0.37339096944E+02  0.10000000000E+01 0.  0.
    9000005    1    3    3    0    0  0.18413879330E+02 -0.30988304629E+02 -0.13469391172E+03  0.13943742622E+03  0.10000000000E+01 0.  0.
<mgrwt>
<rscale>  0 0.12499409E+03</rscale>
<asrwt>0</asrwt>
<pdfrwt beam="1">  1        4 0.64713581E-02 0.12499409E+03</pdfrwt>
<pdfrwt beam="2">  1       -4 0.37722771E-01 0.12499409E+03</pdfrwt>
<totfact> 0.17298028E+03</totfact>
</mgrwt>
</event>
<event>
 4    1  0.1440092E-002  0.1249119E+03  0.7818608E-02  0.1235207E+00
          4   -1    0    0  501    0  0.00000000000E+00  0.00000000000E+00  0.84854728125E+01  0.85799853643E+01  0.12700000000E+01 0.  1.
         -4   -1    0    0    0  501 -0.00000000000E+00 -0.00000000000E+00 -0.45705550834E+03  0.45705727278E+03  0.12700000000E+01 0.  1.
    9000005    1    1    2    0    0  0.59859349143E+02 -0.16707980691E+02 -0.20147372637E+03  0.21084345073E+03  0.10000000000E+01 0.  0.
    9000005    1    1    2    0    0 -0.59859349143E+02  0.16707980691E+02 -0.24709630915E+03  0.25479380741E+03  0.10000000000E+01 0.  0.
<mgrwt>
<rscale>  0 0.12491189E+03</rscale>
<asrwt>0</asrwt>
<pdfrwt beam="1">  1        4 0.21334044E-02 0.12491189E+03</pdfrwt>
<pdfrwt beam="2">  1       -4 0.11427583E+00 0.12491189E+03</pdfrwt>
<totfact> 0.93462769E+02</totfact>
</mgrwt>
</event>
<event>
 5    1  0.1440092E-002  0.1250004E+03  0.7818608E-02  0.1235069E+00
         -4   -1    0    0    0  501 -0.00000000000E+00  0.00000000000E+00  0.13966235364E+02  0.14023859321E+02  0.12700000000E+01 0. -1.
          4   -1    0    0  501    0  0.00000000000E+00 -0.00000000000E+00 -0.27905929831E+03  0.27906218819E+03  0.12700000000E+01 0. -1.
         25    2    1    2    0    0  0.00000000000E+00  0.00000000000E+00 -0.26509306295E+03  0.29308604751E+03  0.12500039688E+03 0.  0.
    9000005    1    3    3    0    0  0.18430840475E+02  0.37848891449E+02 -0.24257794905E+02  0.48597068618E+02  0.10000000000E+01 0.  0.
    9000005    1    3    3    0    0 -0.18430840475E+02 -0.37848891449E+02 -0.24083526804E+03  0.24448897889E+03  0.10000000000E+01 0.  0.
<mgrwt>
<rscale>  0 0.12500040E+03</rscale>
<asrwt>0</asrwt>
<pdfrwt beam="2">  1        4 0.69772371E-01 0.12500040E+03</pdfrwt>
<pdfrwt beam="1">  1       -4 0.34991240E-02 0.12500040E+03</pdfrwt>
<totfact> 0.13166951E+03</totfact>
</mgrwt>
</event>
<event>
 5    1  0.1440092E-002  0.1250211E+03  0.7818608E-02  0.1235036E+00
          4   -1    0    0  501    0  0.00000000000E+00  0.00000000000E+00  0.15532737307E+03  0.15533256492E+03  0.12700000000E+01 0.  1.
         -4   -1    0    0    0  501 -0.00000000000E+00 -0.00000000000E+00 -0.25135336268E+02  0.25167400130E+02  0.12700000000E+01 0.  1.
         25    2    1    2    0    0  0.00000000000E+00  0.00000000000E+00  0.13019203680E+03  0.18049996505E+03  0.12502108197E+03 0.  0.
    9000005    1    3    3    0    0 -0.40617216003E+02 -0.28276972994E+02  0.12020936370E+03  0.13000244828E+03  0.10000000000E+01 0.  0.
    9000005    1    3    3    0    0  0.40617216003E+02  0.28276972994E+02  0.99826730999E+01  0.50497516769E+02  0.10000000000E+01 0.  0.
<mgrwt>
<rscale>  0 0.12502108E+03</rscale>
<asrwt>0</asrwt>
<pdfrwt beam="1">  1        4 0.38836499E-01 0.12502108E+03</pdfrwt>
<pdfrwt beam="2">  1       -4 0.62884912E-02 0.12502108E+03</pdfrwt>
<totfact> 0.17125224E+03</totfact>
</mgrwt>
</event>
<event>
 5    1  0.1440092E-002  0.1250028E+03  0.7818608E-02  0.1235065E+00
          4   -1    0    0  501    0  0.00000000000E+00  0.00000000000E+00  0.72433500775E+01  0.73538439163E+01  0.12700000000E+01 0. -1.
         -4   -1    0    0    0  501 -0.00000000000E+00 -0.00000000000E+00 -0.53511824310E+03  0.53511975014E+03  0.12700000000E+01 0. -1.
         25    2    1    2    0    0  0.00000000000E+00  0.00000000000E+00 -0.52787489302E+03  0.54247359406E+03  0.12500279026E+03 0.  0.
    9000005    1    3    3    0    0 -0.50111630551E+02  0.21586052787E+02 -0.13171627133E+03  0.14257387322E+03  0.10000000000E+01 0.  0.
    9000005    1    3    3    0    0  0.50111630551E+02 -0.21586052787E+02 -0.39615862169E+03  0.39989972084E+03  0.10000000000E+01 0.  0.
<mgrwt>
<rscale>  0 0.12500279E+03</rscale>
<asrwt>0</asrwt>
<pdfrwt beam="1">  1        4 0.18248394E-02 0.12500279E+03</pdfrwt>
<pdfrwt beam="2">  1       -4 0.13379343E+00 0.12500279E+03</pdfrwt>
<totfact> 0.81220159E+02</totfact>
</mgrwt>
</event>
<event>
 5    1  0.1440092E-002  0.1249991E+03  0.7818608E-02  0.1235071E+00
         -4   -1    0    0    0  501 -0.00000000000E+00  0.00000000000E+00  0.16225677536E+03  0.16226174549E+03  0.12700000000E+01 0.  1.
          4   -1    0    0  501    0  0.00000000000E+00 -0.00000000000E+00 -0.24052063764E+02  0.24085569774E+02  0.12700000000E+01 0.  1.
         25    2    1    2    0    0  0.00000000000E+00  0.00000000000E+00  0.13820471159E+03  0.18634731526E+03  0.12499911839E+03 0.  0.
    9000005    1    3    3    0    0  0.34695294431E+02  0.44233885006E+02  0.28417336526E+02  0.62999563916E+02  0.10000000000E+01 0.  0.
    9000005    1    3    3    0    0 -0.34695294431E+02 -0.44233885006E+02  0.10978737507E+03  0.12334775135E+03  0.10000000000E+01 0.  0.
<mgrwt>
<rscale>  0 0.12499912E+03</rscale>
<asrwt>0</asrwt>
<pdfrwt beam="2">  1        4 0.60178255E-02 0.12499912E+03</pdfrwt>
<pdfrwt beam="1">  1       -4 0.40569003E-01 0.12499912E+03</pdfrwt>
<totfact> 0.16884064E+03</totfact>
</mgrwt>
</event>
<event>
 5    1  0.1440092E-002  0.1250000E+03  0.7818608E-02  0.1235069E+00
          4   -1    0    0  501    0  0.00000000000E+00  0.00000000000E+00  0.44947554006E+01  0.46707307899E+01  0.12700000000E+01 0. -1.
         -4   -1    0    0    0  501 -0.00000000000E+00 -0.00000000000E+00 -0.85220629900E+03  0.85220724531E+03  0.12700000000E+01 0. -1.
         25    2    1    2    0    0  0.00000000000E+00  0.00000000000E+00 -0.84771154360E+03  0.85687797610E+03  0.12500001908E+03 0.  0.
    9000005    1    3    3    0    0 -0.29960813023E+02  0.20712699407E+02 -0.77195224545E+03  0.77281170766E+03  0.10000000000E+01 0.  0.
    9000005    1    3    3    0    0  0.29960813023E+02 -0.20712699407E+02 -0.75759298147E+02  0.84066268440E+02  0.10000000000E+01 0.  0.
<mgrwt>
<rscale>  0 0.12500002E+03</rscale>
<asrwt>0</asrwt>
<pdfrwt beam="1">  1        4 0.11458070E-02 0.12500002E+03</pdfrwt>
<pdfrwt beam="2">  1       -4 0.21307315E+00 0.12500002E+03</pdfrwt>
<totfact> 0.47669534E+02</totfact>
</mgrwt>
</event>
<event>
 5    1  0.1440092E-002  0.1249965E+03  0.7818608E-02  0.1235075E+00
         -4   -1    0    0    0  501 -0.00000000000E+00  0.00000000000E+00  0.10426810636E+03  0.10427584046E+03  0.12700000000E+01 0.  1.
          4   -1    0    0  501    0  0.00000000000E+00 -0.00000000000E+00 -0.37441513767E+02  0.37463046502E+02  0.12700000000E+01 0.  1.
         25    2    1    2    0    0  0.00000000000E+00  0.00000000000E+00  0.66826592594E+02  0.14173888696E+03  0.12499647435E+03 0.  0.
    9000005    1    3    3    0    0  0.54351309955E+02  0.80657404748E+01  0.67164223649E+02  0.86782221691E+02  0.10000000000E+01 0.  0.
    9000005    1    3    3    0    0 -0.54351309955E+02 -0.80657404748E+01 -0.33763105462E+00  0.54956665273E+02  0.10000000000E+01 0.  0.
<mgrwt>
<rscale>  0 0.12499647E+03</rscale>
<asrwt>0</asrwt>
<pdfrwt beam="2">  1        4 0.93640369E-02 0.12499647E+03</pdfrwt>
<pdfrwt beam="1">  1       -4 0.26070685E-01 0.12499647E+03</pdfrwt>
<totfact> 0.18953292E+03</totfact>
</mgrwt>
</event>
<event>
 5    1  0.1440092E-002  0.1250074E+03  0.7818608E-02  0.1235058E+00
         -4   -1    0    0    0  501 -0.00000000000E+00  0.00000000000E+00  0.47621624610E+02  0.47638556133E+02  0.12700000000E+01 0. -1.
          4   -1    0    0  501    0  0.00000000000E+00 -0.00000000000E+00 -0.82000077916E+02  0.82009912073E+02  0.12700000000E+01 0. -1.
         25    2    1    2    0    0  0.00000000000E+00  0.00000000000E+00 -0.34378453306E+02  0.12964846821E+03  0.12500738881E+03 0.  0.
    9000005    1    3    3    0    0 -0.50510392724E+02  0.21414899446E+02  0.13852127506E+02  0.56593101416E+02  0.10000000000E+01 0.  0.
    9000005    1    3    3    0    0  0.50510392724E+02 -0.21414899446E+02 -0.48230580812E+02  0.73055366791E+02  0.10000000000E+01 0.  0.
<mgrwt>
<rscale>  0 0.12500739E+03</rscale>
<asrwt>0</asrwt>
<pdfrwt beam="2">  1        4 0.20503365E-01 0.12500739E+03</pdfrwt>
<pdfrwt beam="1">  1       -4 0.11908752E-01 0.12500739E+03</pdfrwt>
<totfact> 0.19579922E+03</totfact>
</mgrwt>
</event>
<event>
 5    1  0.1440092E-002  0.1250071E+03  0.7818608E-02  0.1235058E+00
          4   -1    0    0  501    0  0.00000000000E+00  0.00000000000E+00  0.30549894764E+02  0.30576281168E+02  0.12700000000E+01 0.  1.
         -4   -1    0    0    0  501 -0.00000000000E+00 -0.00000000000E+00 -0.12779438613E+03  0.12780069650E+03  0.12700000000E+01 0.  1.
         25    2    1    2    0    0  0.00000000000E+00  0.00000000000E+00 -0.97244491363E+02  0.15837697767E+03  0.12500710362E+03 0.  0.
    9000005    1    3    3    0    0 -0.41702223653E+02  0.46130388681E+02 -0.56494216470E+02  0.84021929947E+02  0.10000000000E+01 0.  0.
    9000005    1    3    3    0    0  0.41702223653E+02 -0.46130388681E+02 -0.40750274893E+02  0.74355047719E+02  0.10000000000E+01 0.  0.
<mgrwt>
<rscale>  0 0.12500710E+03</rscale>
<asrwt>0</asrwt>
<pdfrwt beam="1">  1        4 0.76415611E-02 0.12500710E+03</pdfrwt>
<pdfrwt beam="2">  1       -4 0.31952682E-01 0.12500710E+03</pdfrwt>
<totfact> 0.18131410E+03</totfact>
</mgrwt>
</event>
<event>
 5    1  0.1440092E-002  0.1250062E+03  0.7818608E-02  0.1235060E+00
          4   -1    0    0  501    0  0.00000000000E+00  0.00000000000E+00  0.12616381032E+03  0.12617020225E+03  0.12700000000E+01 0. -1.
         -4   -1    0    0    0  501 -0.00000000000E+00 -0.00000000000E+00 -0.30944605657E+02  0.30970655777E+02  0.12700000000E+01 0. -1.
         25    2    1    2    0    0  0.00000000000E+00  0.00000000000E+00  0.95219204668E+02  0.15714085803E+03  0.12500620914E+03 0.  0.
    9000005    1    3    3    0    0 -0.49181910733E+02  0.34658108418E+02  0.26365836254E+02  0.65697809278E+02  0.10000000000E+01 0.  0.
    9000005    1    3    3    0    0  0.49181910733E+02 -0.34658108418E+02  0.68853368414E+02  0.91443048749E+02  0.10000000000E+01 0.  0.
<mgrwt>
<rscale>  0 0.12500621E+03</rscale>
<asrwt>0</asrwt>
<pdfrwt beam="1">  1        4 0.31545008E-01 0.12500621E+03</pdfrwt>
<pdfrwt beam="2">  1       -4 0.77402067E-02 0.12500621E+03</pdfrwt>
<totfact> 0.18190519E+03</totfact>
</mgrwt>
</event>
<event>
 5    1  0.1440092E-002  0.1249976E+03  0.7818608E-02  0.1235073E+00
          4   -1    0    0  501    0  0.00000000000E+00  0.00000000000E+00  0.33679524828E+03  0.33679764275E+03  0.12700000000E+01 0. -1.
         -4   -1    0    0    0  501 -0.00000000000E+00 -0.00000000000E+00 -0.11560638164E+02  0.11630187219E+02  0.12700000000E+01 0. -1.
         25    2    1    2    0    0  0.00000000000E+00  0.00000000000E+00  0.32523461011E+03  0.34842782997E+03  0.12499760430E+03 0.  0.
    9000005    1    3    3    0    0 -0.13644779915E+02 -0.40713041082E+02  0.28917512007E+03  0.29234736496E+03  0.10000000000E+01 0.  0.
    9000005    1    3    3    0    0  0.13644779915E+02  0.40713041082E+02  0.36059490043E+02  0.56080465006E+02  0.10000000000E+01 0.  0.
<mgrwt>
<rscale>  0 0.12499760E+03</rscale>
<asrwt>0</asrwt>
<pdfrwt beam="1">  1        4 0.84207805E-01 0.12499760E+03</pdfrwt>
<pdfrwt beam="2">  1       -4 0.28991525E-02 0.12499760E+03</pdfrwt>
<totfact> 0.11715550E+03</totfact>
</mgrwt>
</event>
<event>
 5    1  0.1440092E-002  0.1250039E+03  0.7818608E-02  0.1235063E+00
          4   -1    0    0  501    0  0.00000000000E+00  0.00000000000E+00  0.19228183894E+02  0.19270079290E+02  0.12700000000E+01 0.  1.
         -4   -1    0    0    0  501 -0.00000000000E+00 -0.00000000000E+00 -0.20290002422E+03  0.20290399880E+03  0.12700000000E+01 0.  1.
         25    2    1    2    0    0  0.00000000000E+00  0.00000000000E+00 -0.18367184033E+03  0.22217407809E+03  0.12500390412E+03 0.  0.
    9000005    1    3    3    0    0 -0.41498772134E+01  0.18951390137E+02  0.13749234163E+02  0.23799540103E+02  0.10000000000E+01 0.  0.
    9000005    1    3    3    0    0  0.41498772134E+01 -0.18951390137E+02 -0.19742107449E+03  0.19837453799E+03  0.10000000000E+01 0.  0.
<mgrwt>
<rscale>  0 0.12500390E+03</rscale>
<asrwt>0</asrwt>
<pdfrwt beam="1">  1        4 0.48127803E-02 0.12500390E+03</pdfrwt>
<pdfrwt beam="2">  1       -4 0.50730733E-01 0.12500390E+03</pdfrwt>
<totfact> 0.15469647E+03</totfact>
</mgrwt>
</event>
<event>
 5    1  0.1440092E-002  0.1249928E+03  0.7818608E-02  0.1235080E+00
          4   -1    0    0  501    0  0.00000000000E+00  0.00000000000E+00  0.61380251489E+02  0.61393388674E+02  0.12700000000E+01 0.  1.
         -4   -1    0    0    0  501 -0.00000000000E+00 -0.00000000000E+00 -0.63606591382E+02  0.63619268836E+02  0.12700000000E+01 0.  1.
         25    2    1    2    0    0  0.00000000000E+00  0.00000000000E+00 -0.22263398931E+01  0.12501265751E+03  0.12499283159E+03 0.  0.
    9000005    1    3    3    0    0 -0.15328898775E+02 -0.28055345339E+02 -0.54812695225E+02  0.63462659080E+02  0.10000000000E+01 0.  0.
    9000005    1    3    3    0    0  0.15328898775E+02  0.28055345339E+02  0.52586355331E+02  0.61549998430E+02  0.10000000000E+01 0.  0.
<mgrwt>
<rscale>  0 0.12499283E+03</rscale>
<asrwt>0</asrwt>
<pdfrwt beam="1">  1        4 0.15348290E-01 0.12499283E+03</pdfrwt>
<pdfrwt beam="2">  1       -4 0.15904875E-01 0.12499283E+03</pdfrwt>
<totfact> 0.19837696E+03</totfact>
</mgrwt>
</event>
<event>
 5    1  0.1440092E-002  0.1249989E+03  0.7818608E-02  0.1235071E+00
          4   -1    0    0  501    0  0.00000000000E+00  0.00000000000E+00  0.11351295749E+04  0.11351302853E+04  0.12700000000E+01 0.  1.
         -4   -1    0    0    0  501 -0.00000000000E+00 -0.00000000000E+00 -0.33232634886E+01  0.35576649948E+01  0.12700000000E+01 0.  1.
         25    2    1    2    0    0  0.00000000000E+00  0.00000000000E+00  0.11318063114E+04  0.11386879503E+04  0.12499888681E+03 0.  0.
    9000005    1    3    3    0    0 -0.32926959060E+02  0.40417843769E+02  0.25199980655E+03  0.25733769493E+03  0.10000000000E+01 0.  0.
    9000005    1    3    3    0    0  0.32926959060E+02 -0.40417843769E+02  0.87980650485E+03  0.88135025541E+03  0.10000000000E+01 0.  0.
<mgrwt>
<rscale>  0 0.12499889E+03</rscale>
<asrwt>0</asrwt>
<pdfrwt beam="1">  1        4 0.28381159E+00 0.12499889E+03</pdfrwt>
<pdfrwt beam="2">  1       -4 0.86020545E-03 0.12499889E+03</pdfrwt>
<totfact> 0.28540887E+02</totfact>
</mgrwt>
</event>
<event>
 5    1  0.1440092E-002  0.1250016E+03  0.7818608E-02  0.1235067E+00
          4   -1    0    0  501    0  0.00000000000E+00  0.00000000000E+00  0.34249896173E+03  0.34250131632E+03  0.12700000000E+01 0.  1.
         -4   -1    0    0    0  501 -0.00000000000E+00 -0.00000000000E+00 -0.11367676023E+02  0.11438398409E+02  0.12700000000E+01 0.  1.
         25    2    1    2    0    0  0.00000000000E+00  0.00000000000E+00  0.33113128570E+03  0.35393971473E+03  0.12500157317E+03 0.  0.
    9000005    1    3    3    0    0  0.11246399101E+02 -0.60519072829E+02  0.19610218334E+03  0.20553857540E+03  0.10000000000E+01 0.  0.
    9000005    1    3    3    0    0 -0.11246399101E+02  0.60519072829E+02  0.13502910237E+03  0.14840113933E+03  0.10000000000E+01 0.  0.
<mgrwt>
<rscale>  0 0.12500157E+03</rscale>
<asrwt>0</asrwt>
<pdfrwt beam="1">  1        4 0.85633878E-01 0.12500157E+03</pdfrwt>
<pdfrwt beam="2">  1       -4 0.28510535E-02 0.12500157E+03</pdfrwt>
<totfact> 0.11583498E+03</totfact>
</mgrwt>
</event>
<event>
 5    1  0.1440092E-002  0.1249987E+03  0.7818608E-02  0.1235071E+00
          4   -1    0    0  501    0  0.00000000000E+00  0.00000000000E+00  0.77696496514E+01  0.78727603613E+01  0.12700000000E+01 0. -1.
         -4   -1    0    0    0  501 -0.00000000000E+00 -0.00000000000E+00 -0.49932917079E+03  0.49933078585E+03  0.12700000000E+01 0. -1.
         25    2    1    2    0    0  0.00000000000E+00  0.00000000000E+00 -0.49155952114E+03  0.50720354622E+03  0.12499869788E+03 0.  0.
    9000005    1    3    3    0    0  0.29693928633E+02 -0.35530748796E+02 -0.75502325171E+02  0.88576320842E+02  0.10000000000E+01 0.  0.
    9000005    1    3    3    0    0 -0.29693928633E+02  0.35530748796E+02 -0.41605719597E+03  0.41862722537E+03  0.10000000000E+01 0.  0.
<mgrwt>
<rscale>  0 0.12499870E+03</rscale>
<asrwt>0</asrwt>
<pdfrwt beam="1">  1        4 0.19555048E-02 0.12499870E+03</pdfrwt>
<pdfrwt beam="2">  1       -4 0.12484528E+00 0.12499870E+03</pdfrwt>
<totfact> 0.86475063E+02</totfact>
</mgrwt>
</event>
<event>
 5    1  0.1440092E-002  0.1250008E+03  0.7818608E-02  0.1235068E+00
          4   -1    0    0  501    0  0.00000000000E+00  0.00000000000E+00  0.16544108498E+03  0.16544595946E+03  0.12700000000E+01 0.  1.
         -4   -1    0    0    0  501 -0.00000000000E+00 -0.00000000000E+00 -0.23589111401E+02  0.23623274047E+02  0.12700000000E+01 0.  1.
         25    2    1    2    0    0  0.00000000000E+00  0.00000000000E+00  0.14185197358E+03  0.18906923350E+03  0.12500077059E+03 0.  0.
    9000005    1    3    3    0    0  0.44661372318E+02 -0.34676909691E+02  0.11117706554E+03  0.12473358066E+03  0.10000000000E+01 0.  0.
    9000005    1    3    3    0    0 -0.44661372318E+02  0.34676909691E+02  0.30674908046E+02  0.64335652843E+02  0.10000000000E+01 0.  0.
<mgrwt>
<rscale>  0 0.12500077E+03</rscale>
<asrwt>0</asrwt>
<pdfrwt beam="1">  1        4 0.41365150E-01 0.12500077E+03</pdfrwt>
<pdfrwt beam="2">  1       -4 0.59021576E-02 0.12500077E+03</pdfrwt>
<totfact> 0.16768991E+03</totfact>
</mgrwt>
</event>
<event>
 5    1  0.1440092E-002  0.1249954E+03  0.7818608E-02  0.1235077E+00
          4   -1    0    0  501    0  0.00000000000E+00  0.00000000000E+00  0.38611270821E+02  0.38632151564E+02  0.12700000000E+01 0. -1.
         -4   -1    0    0    0  501 -0.00000000000E+00 -0.00000000000E+00 -0.10110891391E+03  0.10111688965E+03  0.12700000000E+01 0. -1.
         25    2    1    2    0    0  0.00000000000E+00  0.00000000000E+00 -0.62497643088E+02  0.13974904121E+03  0.12499535643E+03 0.  0.
    9000005    1    3    3    0    0 -0.24398254563E+02  0.16388767120E+01  0.33045407356E+02  0.41121280257E+02  0.10000000000E+01 0.  0.
    9000005    1    3    3    0    0  0.24398254563E+02 -0.16388767120E+01 -0.95543050445E+02  0.98627760954E+02  0.10000000000E+01 0.  0.
<mgrwt>
<rscale>  0 0.12499536E+03</rscale>
<asrwt>0</asrwt>
<pdfrwt beam="1">  1        4 0.96564250E-02 0.12499536E+03</pdfrwt>
<pdfrwt beam="2">  1       -4 0.25280835E-01 0.12499536E+03</pdfrwt>
<totfact> 0.19055251E+03</totfact>
</mgrwt>
</event>
<event>
 5    1  0.1440092E-002  0.1250004E+03  0.7818608E-02  0.1235069E+00
          4   -1    0    0  501    0  0.00000000000E+00  0.00000000000E+00  0.58072217551E+02  0.58086102910E+02  0.12700000000E+01 0. -1.
         -4   -1    0    0    0  501 -0.00000000000E+00 -0.00000000000E+00 -0.67237903306E+02  0.67249896215E+02  0.12700000000E+01 0. -1.
         25    2    1    2    0    0  0.00000000000E+00  0.00000000000E+00 -0.91656857549E+01  0.12533599913E+03  0.12500041152E+03 0.  0.
    9000005    1    3    3    0    0 -0.37482451385E+02 -0.37986538608E+02  0.28021596387E+02  0.60283672262E+02  0.10000000000E+01 0.  0.
    9000005    1    3    3    0    0  0.37482451385E+02  0.37986538608E+02 -0.37187282142E+02  0.65052326864E+02  0.10000000000E+01 0.  0.
<mgrwt>
<rscale>  0 0.12500041E+03</rscale>
<asrwt>0</asrwt>
<pdfrwt beam="1">  1        4 0.14521289E-01 0.12500041E+03</pdfrwt>
<pdfrwt beam="2">  1       -4 0.16812711E-01 0.12500041E+03</pdfrwt>
<totfact> 0.19816653E+03</totfact>
</mgrwt>
</event>
<event>
 5    1  0.1440092E-002  0.1250048E+03  0.7818608E-02  0.1235062E+00
          4   -1    0    0  501    0  0.00000000000E+00  0.00000000000E+00  0.11245755799E+04  0.11245762970E+04  0.12700000000E+01 0.  1.
         -4   -1    0    0    0  501 -0.00000000000E+00 -0.00000000000E+00 -0.33569799121E+01  0.35891801474E+01  0.12700000000E+01 0.  1.
         25    2    1    2    0    0  0.00000000000E+00  0.00000000000E+00  0.11212185999E+04  0.11281654771E+04  0.12500477951E+03 0.  0.
    9000005    1    3    3    0    0  0.20726597266E+02  0.56100918121E+02  0.39699963322E+03  0.40148052708E+03  0.10000000000E+01 0.  0.
    9000005    1    3    3    0    0 -0.20726597266E+02 -0.56100918121E+02  0.72421896673E+03  0.72668495004E+03  0.10000000000E+01 0.  0.
<mgrwt>
<rscale>  0 0.12500478E+03</rscale>
<asrwt>0</asrwt>
<pdfrwt beam="1">  1        4 0.28117302E+00 0.12500478E+03</pdfrwt>
<pdfrwt beam="2">  1       -4 0.86835962E-03 0.12500478E+03</pdfrwt>
<totfact> 0.29136050E+02</totfact>
</mgrwt>
</event>
<event>
 5    1  0.1440092E-002  0.1249989E+03  0.7818608E-02  0.1235071E+00
          4   -1    0    0  501    0  0.00000000000E+00  0.00000000000E+00  0.19883306504E+02  0.19923824370E+02  0.12700000000E+01 0. -1.
         -4   -1    0    0    0  501 -0.00000000000E+00 -0.00000000000E+00 -0.19621286650E+03  0.19621697654E+03  0.12700000000E+01 0. -1.
         25    2    1    2    0    0  0.00000000000E+00  0.00000000000E+00 -0.17632956000E+03  0.21614080090E+03  0.12499892834E+03 0.  0.
    9000005    1    3    3    0    0 -0.17188403303E+02  0.56660369937E+02 -0.12271924772E+03  0.13626023811E+03  0.10000000000E+01 0.  0.
    9000005    1    3    3    0    0  0.17188403303E+02 -0.56660369937E+02 -0.53610312277E+02  0.79880562792E+02  0.10000000000E+01 0.  0.
<mgrwt>
<rscale>  0 0.12499893E+03</rscale>
<asrwt>0</asrwt>
<pdfrwt beam="1">  1        4 0.49764057E-02 0.12499893E+03</pdfrwt>
<pdfrwt beam="2">  1       -4 0.49058789E-01 0.12499893E+03</pdfrwt>
<totfact> 0.15695898E+03</totfact>
</mgrwt>
</event>
<event>
 5    1  0.1440092E-002  0.1250013E+03  0.7818608E-02  0.1235067E+00
          4   -1    0    0  501    0  0.00000000000E+00  0.00000000000E+00  0.11330390070E+04  0.11330397188E+04  0.12700000000E+01 0.  1.
         -4   -1    0    0    0  501 -0.00000000000E+00 -0.00000000000E+00 -0.33299630816E+01  0.35639239785E+01  0.12700000000E+01 0.  1.
         25    2    1    2    0    0  0.00000000000E+00  0.00000000000E+00  0.11297090440E+04  0.11366036428E+04  0.12500126708E+03 0.  0.
    9000005    1    3    3    0    0  0.59115131720E+01  0.58484729155E+02  0.75772338221E+03  0.76000074571E+03  0.10000000000E+01 0.  0.
    9000005    1    3    3    0    0 -0.59115131720E+01 -0.58484729155E+02  0.37198566174E+03  0.37660289706E+03  0.10000000000E+01 0.  0.
<mgrwt>
<rscale>  0 0.12500127E+03</rscale>
<asrwt>0</asrwt>
<pdfrwt beam="1">  1        4 0.28328891E+00 0.12500127E+03</pdfrwt>
<pdfrwt beam="2">  1       -4 0.86182539E-03 0.12500127E+03</pdfrwt>
<totfact> 0.28657401E+02</totfact>
</mgrwt>
</event>
<event>
 5    1  0.1440092E-002  0.1249994E+03  0.7818608E-02  0.1235070E+00
          4   -1    0    0  501    0  0.00000000000E+00  0.00000000000E+00  0.74543603046E+02  0.74554420762E+02  0.12700000000E+01 0. -1.
         -4   -1    0    0    0  501 -0.00000000000E+00 -0.00000000000E+00 -0.52379394877E+02  0.52394788937E+02  0.12700000000E+01 0. -1.
         25    2    1    2    0    0  0.00000000000E+00  0.00000000000E+00  0.22164208169E+02  0.12694920970E+03  0.12499939888E+03 0.  0.
    9000005    1    3    3    0    0  0.75941467861E+01  0.60874012585E+02  0.23179923196E+02  0.65586776967E+02  0.10000000000E+01 0.  0.
    9000005    1    3    3    0    0 -0.75941467861E+01 -0.60874012585E+02 -0.10157150271E+01  0.61362432731E+02  0.10000000000E+01 0.  0.
<mgrwt>
<rscale>  0 0.12499940E+03</rscale>
<asrwt>0</asrwt>
<pdfrwt beam="1">  1        4 0.18639177E-01 0.12499940E+03</pdfrwt>
<pdfrwt beam="2">  1       -4 0.13098125E-01 0.12499940E+03</pdfrwt>
<totfact> 0.19729990E+03</totfact>
</mgrwt>
</event>
<event>
 5    1  0.1440092E-002  0.1249991E+03  0.7818608E-02  0.1235071E+00
          4   -1    0    0  501    0  0.00000000000E+00  0.00000000000E+00  0.71222410478E+02  0.71233732559E+02  0.12700000000E+01 0. -1.
         -4   -1    0    0    0  501 -0.00000000000E+00 -0.00000000000E+00 -0.54821977920E+02  0.54836686288E+02  0.12700000000E+01 0. -1.
         25    2    1    2    0    0  0.00000000000E+00  0.00000000000E+00  0.16400432558E+02  0.12607041885E+03  0.12499910528E+03 0.  0.
    9000005    1    3    3    0    0 -0.99498221503E+01  0.45782479959E+02 -0.33508288284E+02  0.57609372638E+02  0.10000000000E+01 0.  0.
    9000005    1    3    3    0    0  0.99498221503E+01 -0.45782479959E+02  0.49908720842E+02  0.68461046209E+02  0.10000000000E+01 0.  0.
<mgrwt>
<rscale>  0 0.12499911E+03</rscale>
<asrwt>0</asrwt>
<pdfrwt beam="1">  1        4 0.17808856E-01 0.12499911E+03</pdfrwt>
<pdfrwt beam="2">  1       -4 0.13708748E-01 0.12499911E+03</pdfrwt>
<totfact> 0.19777529E+03</totfact>
</mgrwt>
</event>
<event>
 5    1  0.1440092E-002  0.1249997E+03  0.7818608E-02  0.1235070E+00
          4   -1    0    0  501    0  0.00000000000E+00  0.00000000000E+00  0.85214200922E+02  0.85223664194E+02  0.12700000000E+01 0. -1.
         -4   -1    0    0    0  501 -0.00000000000E+00 -0.00000000000E+00 -0.45819334966E+02  0.45836932235E+02  0.12700000000E+01 0. -1.
         25    2    1    2    0    0  0.00000000000E+00  0.00000000000E+00  0.39394865956E+02  0.13106059643E+03  0.12499969789E+03 0.  0.
    9000005    1    3    3    0    0  0.40984816052E+01 -0.13526858374E+02  0.83521445590E+02  0.84714847119E+02  0.10000000000E+01 0.  0.
    9000005    1    3    3    0    0 -0.40984816052E+01  0.13526858374E+02 -0.44126579634E+02  0.46345749310E+02  0.10000000000E+01 0.  0.
<mgrwt>
<rscale>  0 0.12499970E+03</rscale>
<asrwt>0</asrwt>
<pdfrwt beam="1">  1        4 0.21306933E-01 0.12499970E+03</pdfrwt>
<pdfrwt beam="2">  1       -4 0.11458216E-01 0.12499970E+03</pdfrwt>
<totfact> 0.19507672E+03</totfact>
</mgrwt>
</event>
<event>
 5    1  0.1440092E-002  0.1250006E+03  0.7818608E-02  0.1235068E+00
         -4   -1    0    0    0  501 -0.00000000000E+00  0.00000000000E+00  0.85779050671E+01  0.86714102279E+01  0.12700000000E+01 0.  1.
          4   -1    0    0  501    0  0.00000000000E+00 -0.00000000000E+00 -0.45282667480E+03  0.45282845572E+03  0.12700000000E+01 0.  1.
         25    2    1    2    0    0  0.00000000000E+00  0.00000000000E+00 -0.44424876974E+03  0.46149986595E+03  0.12500062744E+03 0.  0.
    9000005    1    3    3    0    0 -0.45701158853E+02 -0.42512573860E+02 -0.23342833334E+03  0.24163133419E+03  0.10000000000E+01 0.  0.
    9000005    1    3    3    0    0  0.45701158853E+02  0.42512573860E+02 -0.21082043640E+03  0.21986853176E+03  0.10000000000E+01 0.  0.
<mgrwt>
<rscale>  0 0.12500063E+03</rscale>
<asrwt>0</asrwt>
<pdfrwt beam="2">  1        4 0.11321850E+00 0.12500063E+03</pdfrwt>
<pdfrwt beam="1">  1       -4 0.21563886E-02 0.12500063E+03</pdfrwt>
<totfact> 0.93987125E+02</totfact>
</mgrwt>
</event>
<event>
 5    1  0.1440092E-002  0.1250049E+03  0.7818608E-02  0.1235062E+00
         -4   -1    0    0    0  501 -0.00000000000E+00  0.00000000000E+00  0.63184632697E+02  0.63197394796E+02  0.12700000000E+01 0.  1.
          4   -1    0    0  501    0  0.00000000000E+00 -0.00000000000E+00 -0.61802106227E+02  0.61815153758E+02  0.12700000000E+01 0.  1.
         25    2    1    2    0    0  0.00000000000E+00  0.00000000000E+00  0.13825264692E+01  0.12501254855E+03  0.12500490357E+03 0.  0.
    9000005    1    3    3    0    0 -0.70763044349E+01  0.43376579230E+02  0.45123191175E+02  0.62997651480E+02  0.10000000000E+01 0.  0.
    9000005    1    3    3    0    0  0.70763044349E+01 -0.43376579230E+02 -0.43740664706E+02  0.62014897074E+02  0.10000000000E+01 0.  0.
<mgrwt>
<rscale>  0 0.12500490E+03</rscale>
<asrwt>0</asrwt>
<pdfrwt beam="2">  1        4 0.15453753E-01 0.12500490E+03</pdfrwt>
<pdfrwt beam="1">  1       -4 0.15799384E-01 0.12500490E+03</pdfrwt>
<totfact> 0.19832099E+03</totfact>
</mgrwt>
</event>
<event>
 5    1  0.1440092E-002  0.1249929E+03  0.7818608E-02  0.1235080E+00
          4   -1    0    0  501    0  0.00000000000E+00  0.00000000000E+00  0.14492699626E+02  0.14548238465E+02  0.12700000000E+01 0. -1.
         -4   -1    0    0    0  501 -0.00000000000E+00 -0.00000000000E+00 -0.26892928335E+03  0.26893228207E+03  0.12700000000E+01 0. -1.
         25    2    1    2    0    0  0.00000000000E+00  0.00000000000E+00 -0.25443658372E+03  0.28348052054E+03  0.12499292136E+03 0.  0.
    9000005    1    3    3    0    0 -0.24954609435E+02  0.27700210072E+01  0.25605232399E+01  0.25257906242E+02  0.10000000000E+01 0.  0.
    9000005    1    3    3    0    0  0.24954609435E+02 -0.27700210072E+01 -0.25699710696E+03  0.25822261430E+03  0.10000000000E+01 0.  0.
<mgrwt>
<rscale>  0 0.12499292E+03</rscale>
<asrwt>0</asrwt>
<pdfrwt beam="1">  1        4 0.36304930E-02 0.12499292E+03</pdfrwt>
<pdfrwt beam="2">  1       -4 0.67239622E-01 0.12499292E+03</pdfrwt>
<totfact> 0.13449196E+03</totfact>
</mgrwt>
</event>
<event>
 5    1  0.1440092E-002  0.1250035E+03  0.7818608E-02  0.1235064E+00
          4   -1    0    0  501    0  0.00000000000E+00  0.00000000000E+00  0.21638247090E+03  0.21638619784E+03  0.12700000000E+01 0. -1.
         -4   -1    0    0    0  501 -0.00000000000E+00 -0.00000000000E+00 -0.18027304711E+02  0.18071984261E+02  0.12700000000E+01 0. -1.
         25    2    1    2    0    0  0.00000000000E+00  0.00000000000E+00  0.19835516619E+03  0.23445818210E+03  0.12500346874E+03 0.  0.
    9000005    1    3    3    0    0 -0.57757096076E+02 -0.22744049485E+02  0.85614308714E+02  0.10575435590E+03  0.10000000000E+01 0.  0.
    9000005    1    3    3    0    0  0.57757096076E+02  0.22744049485E+02  0.11274085748E+03  0.12870382620E+03  0.10000000000E+01 0.  0.
<mgrwt>
<rscale>  0 0.12500347E+03</rscale>
<asrwt>0</asrwt>
<pdfrwt beam="1">  1        4 0.54101669E-01 0.12500347E+03</pdfrwt>
<pdfrwt beam="2">  1       -4 0.45128769E-02 0.12500347E+03</pdfrwt>
<totfact> 0.15028107E+03</totfact>
</mgrwt>
</event>
<event>
 5    1  0.1440092E-002  0.1249956E+03  0.7818608E-02  0.1235076E+00
         -4   -1    0    0    0  501 -0.00000000000E+00  0.00000000000E+00  0.12452390066E+03  0.12453037676E+03  0.12700000000E+01 0.  1.
          4   -1    0    0  501    0  0.00000000000E+00 -0.00000000000E+00 -0.31347138796E+02  0.31372854679E+02  0.12700000000E+01 0.  1.
         25    2    1    2    0    0  0.00000000000E+00  0.00000000000E+00  0.93176761868E+02  0.15590323144E+03  0.12499563441E+03 0.  0.
    9000005    1    3    3    0    0 -0.19486814140E+02  0.11417086930E+01 -0.27452978625E+02  0.33700229368E+02  0.10000000000E+01 0.  0.
    9000005    1    3    3    0    0  0.19486814140E+02 -0.11417086930E+01  0.12062974049E+03  0.12220300207E+03  0.10000000000E+01 0.  0.
<mgrwt>
<rscale>  0 0.12499563E+03</rscale>
<asrwt>0</asrwt>
<pdfrwt beam="2">  1        4 0.78408087E-02 0.12499563E+03</pdfrwt>
<pdfrwt beam="1">  1       -4 0.31134999E-01 0.12499563E+03</pdfrwt>
<totfact> 0.18254129E+03</totfact>
</mgrwt>
</event>
<event>
 5    1  0.1440092E-002  0.1250045E+03  0.7818608E-02  0.1235062E+00
          4   -1    0    0  501    0  0.00000000000E+00  0.00000000000E+00  0.91671367028E+01  0.92546904502E+01  0.12700000000E+01 0.  1.
         -4   -1    0    0    0  501 -0.00000000000E+00 -0.00000000000E+00 -0.42403110141E+03  0.42403300328E+03  0.12700000000E+01 0.  1.
         25    2    1    2    0    0  0.00000000000E+00  0.00000000000E+00 -0.41486396471E+03  0.43328769373E+03  0.12500446519E+03 0.  0.
    9000005    1    3    3    0    0 -0.38200573659E+02 -0.49266820728E+02 -0.19231307813E+03  0.20216781018E+03  0.10000000000E+01 0.  0.
    9000005    1    3    3    0    0  0.38200573659E+02  0.49266820728E+02 -0.22255088658E+03  0.23111988354E+03  0.10000000000E+01 0.  0.
<mgrwt>
<rscale>  0 0.12500447E+03</rscale>
<asrwt>0</asrwt>
<pdfrwt beam="1">  1        4 0.23029675E-02 0.12500447E+03</pdfrwt>
<pdfrwt beam="2">  1       -4 0.10601889E+00 0.12500447E+03</pdfrwt>
<totfact> 0.99086648E+02</totfact>
</mgrwt>
</event>
<event>
 5    1  0.1440092E-002  0.1250012E+03  0.7818608E-02  0.1235067E+00
         -4   -1    0    0    0  501 -0.00000000000E+00  0.00000000000E+00  0.30559473058E+03  0.30559736952E+03  0.12700000000E+01 0.  1.
          4   -1    0    0  501    0  0.00000000000E+00 -0.00000000000E+00 -0.12748450849E+02  0.12811553342E+02  0.12700000000E+01 0.  1.
         25    2    1    2    0    0  0.00000000000E+00  0.00000000000E+00  0.29284627973E+03  0.31840892286E+03  0.12500119442E+03 0.  0.
    9000005    1    3    3    0    0  0.35771822439E+02  0.16914493825E+02  0.26963201454E+03  0.27252182783E+03  0.10000000000E+01 0.  0.
    9000005    1    3    3    0    0 -0.35771822439E+02 -0.16914493825E+02  0.23214265195E+02  0.45887095032E+02  0.10000000000E+01 0.  0.
<mgrwt>
<rscale>  0 0.12500119E+03</rscale>
<asrwt>0</asrwt>
<pdfrwt beam="2">  1        4 0.31953303E-02 0.12500119E+03</pdfrwt>
<pdfrwt beam="1">  1       -4 0.76406903E-01 0.12500119E+03</pdfrwt>
<totfact> 0.12470016E+03</totfact>
</mgrwt>
</event>
<event>
 5    1  0.1440092E-002  0.1249994E+03  0.7818608E-02  0.1235070E+00
          4   -1    0    0  501    0  0.00000000000E+00  0.00000000000E+00  0.14764391418E+02  0.14818912036E+02  0.12700000000E+01 0. -1.
         -4   -1    0    0    0  501 -0.00000000000E+00 -0.00000000000E+00 -0.26402610158E+03  0.26402915599E+03  0.12700000000E+01 0. -1.
         25    2    1    2    0    0  0.00000000000E+00  0.00000000000E+00 -0.24926171016E+03  0.27884806803E+03  0.12499937957E+03 0.  0.
    9000005    1    3    3    0    0 -0.44508004949E+02  0.42003866663E+02 -0.15284172469E+03  0.16464167190E+03  0.10000000000E+01 0.  0.
    9000005    1    3    3    0    0  0.44508004949E+02 -0.42003866663E+02 -0.96419985470E+02  0.11420639613E+03  0.10000000000E+01 0.  0.
<mgrwt>
<rscale>  0 0.12499938E+03</rscale>
<asrwt>0</asrwt>
<pdfrwt beam="1">  1        4 0.36982956E-02 0.12499938E+03</pdfrwt>
<pdfrwt beam="2">  1       -4 0.66013707E-01 0.12499938E+03</pdfrwt>
<totfact> 0.13585490E+03</totfact>
</mgrwt>
</event>
<event>
 5    1  0.1440092E-002  0.1249986E+03  0.7818608E-02  0.1235071E+00
         -4   -1    0    0    0  501 -0.00000000000E+00  0.00000000000E+00  0.45371598768E+03  0.45371776511E+03  0.12700000000E+01 0.  1.
          4   -1    0    0  501    0  0.00000000000E+00 -0.00000000000E+00 -0.85606249452E+01  0.86543168103E+01  0.12700000000E+01 0.  1.
         25    2    1    2    0    0  0.00000000000E+00  0.00000000000E+00  0.44515536273E+03  0.46237208192E+03  0.12499858066E+03 0.  0.
    9000005    1    3    3    0    0  0.22699876598E+02 -0.18263278819E+02  0.18080836706E+02  0.34303766656E+02  0.10000000000E+01 0.  0.
    9000005    1    3    3    0    0 -0.22699876598E+02  0.18263278819E+02  0.42707452603E+03  0.42806831526E+03  0.10000000000E+01 0.  0.
<mgrwt>
<rscale>  0 0.12499858E+03</rscale>
<asrwt>0</asrwt>
<pdfrwt beam="2">  1        4 0.21520901E-02 0.12499858E+03</pdfrwt>
<pdfrwt beam="1">  1       -4 0.11344092E+00 0.12499858E+03</pdfrwt>
<totfact> 0.93840473E+02</totfact>
</mgrwt>
</event>
<event>
 5    1  0.1440092E-002  0.1250004E+03  0.7818608E-02  0.1235069E+00
          4   -1    0    0  501    0  0.00000000000E+00  0.00000000000E+00  0.70324692317E+01  0.71462244224E+01  0.12700000000E+01 0. -1.
         -4   -1    0    0    0  501 -0.00000000000E+00 -0.00000000000E+00 -0.55089158155E+03  0.55089304544E+03  0.12700000000E+01 0. -1.
         25    2    1    2    0    0  0.00000000000E+00  0.00000000000E+00 -0.54385911231E+03  0.55803926987E+03  0.12500037066E+03 0.  0.
    9000005    1    3    3    0    0 -0.37891182916E+02  0.45631282860E+02 -0.35978870506E+03  0.36464622308E+03  0.10000000000E+01 0.  0.
    9000005    1    3    3    0    0  0.37891182916E+02 -0.45631282860E+02 -0.18407040726E+03  0.19339304679E+03  0.10000000000E+01 0.  0.
<mgrwt>
<rscale>  0 0.12500037E+03</rscale>
<asrwt>0</asrwt>
<pdfrwt beam="1">  1        4 0.17725216E-02 0.12500037E+03</pdfrwt>
<pdfrwt beam="2">  1       -4 0.13773715E+00 0.12500037E+03</pdfrwt>
<totfact> 0.79048472E+02</totfact>
</mgrwt>
</event>
<event>
 5    1  0.1440092E-002  0.1249963E+03  0.7818608E-02  0.1235075E+00
         -4   -1    0    0    0  501 -0.00000000000E+00  0.00000000000E+00  0.84922042102E+02  0.84931537928E+02  0.12700000000E+01 0.  1.
          4   -1    0    0  501    0  0.00000000000E+00 -0.00000000000E+00 -0.45974491885E+02  0.45992029789E+02  0.12700000000E+01 0.  1.
         25    2    1    2    0    0  0.00000000000E+00  0.00000000000E+00  0.38947550217E+02  0.13092356772E+03  0.12499627561E+03 0.  0.
    9000005    1    3    3    0    0 -0.39384680102E+02 -0.43317610765E+02  0.42360526996E+02  0.72270206009E+02  0.10000000000E+01 0.  0.
    9000005    1    3    3    0    0  0.39384680102E+02  0.43317610765E+02 -0.34129767788E+01  0.58653361708E+02  0.10000000000E+01 0.  0.
<mgrwt>
<rscale>  0 0.12499628E+03</rscale>
<asrwt>0</asrwt>
<pdfrwt beam="2">  1        4 0.11497002E-01 0.12499628E+03</pdfrwt>
<pdfrwt beam="1">  1       -4 0.21233890E-01 0.12499628E+03</pdfrwt>
<totfact> 0.19516557E+03</totfact>
</mgrwt>
</event>
<event>
 5    1  0.1440092E-002  0.1249895E+03  0.7818608E-02  0.1235086E+00
         -4   -1    0    0    0  501 -0.00000000000E+00  0.00000000000E+00  0.56135166017E+02  0.56149530397E+02  0.12700000000E+01 0. -1.
          4   -1    0    0  501    0  0.00000000000E+00 -0.00000000000E+00 -0.69545698186E+02  0.69557293192E+02  0.12700000000E+01 0. -1.
         25    2    1    2    0    0  0.00000000000E+00  0.00000000000E+00 -0.13410532169E+02  0.12570682359E+03  0.12498945205E+03 0.  0.
    9000005    1    3    3    0    0  0.29095734053E+01  0.57953238831E+02  0.16612869317E+02  0.60365809324E+02  0.10000000000E+01 0.  0.
    9000005    1    3    3    0    0 -0.29095734053E+01 -0.57953238831E+02 -0.30023401486E+02  0.65341014265E+02  0.10000000000E+01 0.  0.
<mgrwt>
<rscale>  0 0.12498945E+03</rscale>
<asrwt>0</asrwt>
<pdfrwt beam="2">  1        4 0.17389669E-01 0.12498945E+03</pdfrwt>
<pdfrwt beam="1">  1       -4 0.14037036E-01 0.12498945E+03</pdfrwt>
<totfact> 0.19801657E+03</totfact>
</mgrwt>
</event>
<event>
 5    1  0.1440092E-002  0.1250010E+03  0.7818608E-02  0.1235068E+00
          4   -1    0    0  501    0  0.00000000000E+00  0.00000000000E+00  0.63162616427E+02  0.63175382974E+02  0.12700000000E+01 0. -1.
         -4   -1    0    0    0  501 -0.00000000000E+00 -0.00000000000E+00 -0.61819814251E+02  0.61832858045E+02  0.12700000000E+01 0. -1.
         25    2    1    2    0    0  0.00000000000E+00  0.00000000000E+00  0.13428021757E+01  0.12500824102E+03  0.12500102882E+03 0.  0.
    9000005    1    3    3    0    0 -0.23591132034E+02 -0.30626620291E+02 -0.48431156064E+02  0.61976675118E+02  0.10000000000E+01 0.  0.
    9000005    1    3    3    0    0  0.23591132034E+02  0.30626620291E+02  0.49773958239E+02  0.63031565901E+02  0.10000000000E+01 0.  0.
<mgrwt>
<rscale>  0 0.12500103E+03</rscale>
<asrwt>0</asrwt>
<pdfrwt beam="1">  1        4 0.15793880E-01 0.12500103E+03</pdfrwt>
<pdfrwt beam="2">  1       -4 0.15458180E-01 0.12500103E+03</pdfrwt>
<totfact> 0.19834131E+03</totfact>
</mgrwt>
</event>
<event>
 5    1  0.1440092E-002  0.1249999E+03  0.7818608E-02  0.1235069E+00
          4   -1    0    0  501    0  0.00000000000E+00  0.00000000000E+00  0.11105785975E+03  0.11106512105E+03  0.12700000000E+01 0.  1.
         -4   -1    0    0    0  501 -0.00000000000E+00 -0.00000000000E+00 -0.35153196393E+02  0.35176129927E+02  0.12700000000E+01 0.  1.
         25    2    1    2    0    0  0.00000000000E+00  0.00000000000E+00  0.75904663362E+02  0.14624125097E+03  0.12499994227E+03 0.  0.
    9000005    1    3    3    0    0 -0.74728787585E+01  0.50394099204E+02 -0.43894128872E+01  0.51143680910E+02  0.10000000000E+01 0.  0.
    9000005    1    3    3    0    0  0.74728787585E+01 -0.50394099204E+02  0.80294076249E+02  0.95097570064E+02  0.10000000000E+01 0.  0.
<mgrwt>
<rscale>  0 0.12499994E+03</rscale>
<asrwt>0</asrwt>
<pdfrwt beam="1">  1        4 0.27768239E-01 0.12499994E+03</pdfrwt>
<pdfrwt beam="2">  1       -4 0.87920735E-02 0.12499994E+03</pdfrwt>
<totfact> 0.18725181E+03</totfact>
</mgrwt>
</event>
<event>
 5    1  0.1440092E-002  0.1250028E+03  0.7818608E-02  0.1235065E+00
          4   -1    0    0  501    0  0.00000000000E+00  0.00000000000E+00  0.19783905266E+03  0.19784312891E+03  0.12700000000E+01 0.  1.
         -4   -1    0    0    0  501 -0.00000000000E+00 -0.00000000000E+00 -0.19720759211E+02  0.19761610356E+02  0.12700000000E+01 0.  1.
         25    2    1    2    0    0  0.00000000000E+00  0.00000000000E+00  0.17811829345E+03  0.21760473927E+03  0.12500278433E+03 0.  0.
    9000005    1    3    3    0    0  0.33834213504E+02  0.32954815749E+02  0.17821312446E+02  0.50491316697E+02  0.10000000000E+01 0.  0.
    9000005    1    3    3    0    0 -0.33834213504E+02 -0.32954815749E+02  0.16029698100E+03  0.16711342257E+03  0.10000000000E+01 0.  0.
<mgrwt>
<rscale>  0 0.12500278E+03</rscale>
<asrwt>0</asrwt>
<pdfrwt beam="1">  1        4 0.49465378E-01 0.12500278E+03</pdfrwt>
<pdfrwt beam="2">  1       -4 0.49358059E-02 0.12500278E+03</pdfrwt>
<totfact> 0.15639569E+03</totfact>
</mgrwt>
</event>
<event>
 5    1  0.1440092E-002  0.1250013E+03  0.7818608E-02  0.1235067E+00
          4   -1    0    0  501    0  0.00000000000E+00  0.00000000000E+00  0.25981182850E+03  0.25981493246E+03  0.12700000000E+01 0. -1.
         -4   -1    0    0    0  501 -0.00000000000E+00 -0.00000000000E+00 -0.15005225133E+02  0.15058873838E+02  0.12700000000E+01 0. -1.
         25    2    1    2    0    0  0.00000000000E+00  0.00000000000E+00  0.24480660337E+03  0.27487380630E+03  0.12500134534E+03 0.  0.
    9000005    1    3    3    0    0  0.36306335564E+02  0.78845416403E+01  0.23290041075E+03  0.23584723302E+03  0.10000000000E+01 0.  0.
    9000005    1    3    3    0    0 -0.36306335564E+02 -0.78845416403E+01  0.11906192625E+02  0.39026573277E+02  0.10000000000E+01 0.  0.
<mgrwt>
<rscale>  0 0.12500135E+03</rscale>
<asrwt>0</asrwt>
<pdfrwt beam="1">  1        4 0.64960051E-01 0.12500135E+03</pdfrwt>
<pdfrwt beam="2">  1       -4 0.37584004E-02 0.12500135E+03</pdfrwt>
<totfact> 0.13705259E+03</totfact>
</mgrwt>
</event>
<event>
 5    1  0.1440092E-002  0.1249996E+03  0.7818608E-02  0.1235070E+00
         -4   -1    0    0    0  501 -0.00000000000E+00  0.00000000000E+00  0.32984325151E+03  0.32984569645E+03  0.12700000000E+01 0. -1.
          4   -1    0    0  501    0  0.00000000000E+00 -0.00000000000E+00 -0.11806122592E+02  0.11874233898E+02  0.12700000000E+01 0. -1.
         25    2    1    2    0    0  0.00000000000E+00  0.00000000000E+00  0.31803712892E+03  0.34171993035E+03  0.12499958171E+03 0.  0.
    9000005    1    3    3    0    0  0.31987317554E+02 -0.50624161867E+02  0.11017432727E+03  0.12540086379E+03  0.10000000000E+01 0.  0.
    9000005    1    3    3    0    0 -0.31987317554E+02  0.50624161867E+02  0.20786280164E+03  0.21631906656E+03  0.10000000000E+01 0.  0.
<mgrwt>
<rscale>  0 0.12499958E+03</rscale>
<asrwt>0</asrwt>
<pdfrwt beam="2">  1        4 0.29603503E-02 0.12499958E+03</pdfrwt>
<pdfrwt beam="1">  1       -4 0.82469629E-01 0.12499958E+03</pdfrwt>
<totfact> 0.11877518E+03</totfact>
</mgrwt>
</event>
<event>
 5    1  0.1440092E-002  0.1249992E+03  0.7818608E-02  0.1235070E+00
         -4   -1    0    0    0  501 -0.00000000000E+00  0.00000000000E+00  0.28660532511E+02  0.28688656710E+02  0.12700000000E+01 0. -1.
          4   -1    0    0  501    0  0.00000000000E+00 -0.00000000000E+00 -0.13619407852E+03  0.13619999972E+03  0.12700000000E+01 0. -1.
         25    2    1    2    0    0  0.00000000000E+00  0.00000000000E+00 -0.10753354601E+03  0.16488865643E+03  0.12499922201E+03 0.  0.
    9000005    1    3    3    0    0  0.43507271868E+02 -0.41849434294E+02 -0.32458084192E+02  0.68547684757E+02  0.10000000000E+01 0.  0.
    9000005    1    3    3    0    0 -0.43507271868E+02  0.41849434294E+02 -0.75075461816E+02  0.96340971673E+02  0.10000000000E+01 0.  0.
<mgrwt>
<rscale>  0 0.12499922E+03</rscale>
<asrwt>0</asrwt>
<pdfrwt beam="2">  1        4 0.34052774E-01 0.12499922E+03</pdfrwt>
<pdfrwt beam="1">  1       -4 0.71693892E-02 0.12499922E+03</pdfrwt>
<totfact> 0.17830407E+03</totfact>
</mgrwt>
</event>
<event>
 5    1  0.1440092E-002  0.1250137E+03  0.7818608E-02  0.1235048E+00
         -4   -1    0    0    0  501 -0.00000000000E+00  0.00000000000E+00  0.33072463551E+01  0.35427077855E+01  0.12700000000E+01 0.  1.
          4   -1    0    0  501    0  0.00000000000E+00 -0.00000000000E+00 -0.11405325884E+04  0.11405332955E+04  0.12700000000E+01 0.  1.
         25    2    1    2    0    0  0.00000000000E+00  0.00000000000E+00 -0.11372253420E+04  0.11440760033E+04  0.12501368990E+03 0.  0.
    9000005    1    3    3    0    0 -0.58034067128E+02  0.80218457753E+01 -0.36940958047E+03  0.37402772772E+03  0.10000000000E+01 0.  0.
    9000005    1    3    3    0    0  0.58034067128E+02 -0.80218457753E+01 -0.76781576157E+03  0.77004827554E+03  0.10000000000E+01 0.  0.
<mgrwt>
<rscale>  0 0.12501369E+03</rscale>
<asrwt>0</asrwt>
<pdfrwt beam="2">  1        4 0.28516137E+00 0.12501369E+03</pdfrwt>
<pdfrwt beam="1">  1       -4 0.85633656E-03 0.12501369E+03</pdfrwt>
<totfact> 0.28227604E+02</totfact>
</mgrwt>
</event>
<event>
 5    1  0.1440092E-002  0.1249992E+03  0.7818608E-02  0.1235071E+00
          4   -1    0    0  501    0  0.00000000000E+00  0.00000000000E+00  0.65598258677E+02  0.65610551297E+02  0.12700000000E+01 0. -1.
         -4   -1    0    0    0  501 -0.00000000000E+00 -0.00000000000E+00 -0.59522636685E+02  0.59536183771E+02  0.12700000000E+01 0. -1.
         25    2    1    2    0    0  0.00000000000E+00  0.00000000000E+00  0.60756219917E+01  0.12514673507E+03  0.12499916846E+03 0.  0.
    9000005    1    3    3    0    0  0.22048318889E+02  0.46889117184E+02  0.38014427573E+02  0.64271411839E+02  0.10000000000E+01 0.  0.
    9000005    1    3    3    0    0 -0.22048318889E+02 -0.46889117184E+02 -0.31938805581E+02  0.60875323228E+02  0.10000000000E+01 0.  0.
<mgrwt>
<rscale>  0 0.12499917E+03</rscale>
<asrwt>0</asrwt>
<pdfrwt beam="1">  1        4 0.16402795E-01 0.12499917E+03</pdfrwt>
<pdfrwt beam="2">  1       -4 0.14883889E-01 0.12499917E+03</pdfrwt>
<totfact> 0.19827485E+03</totfact>
</mgrwt>
</event>
<event>
 5    1  0.1440092E-002  0.1249974E+03  0.7818608E-02  0.1235073E+00
         -4   -1    0    0    0  501 -0.00000000000E+00  0.00000000000E+00  0.77621931441E+02  0.77632320206E+02  0.12700000000E+01 0.  1.
          4   -1    0    0  501    0  0.00000000000E+00 -0.00000000000E+00 -0.50300221306E+02  0.50316251485E+02  0.12700000000E+01 0.  1.
         25    2    1    2    0    0  0.00000000000E+00  0.00000000000E+00  0.27321710134E+02  0.12794857169E+03  0.12499744459E+03 0.  0.
    9000005    1    3    3    0    0 -0.49652970948E+02  0.33533333748E+02  0.31833550416E+02  0.67854822440E+02  0.10000000000E+01 0.  0.
    9000005    1    3    3    0    0  0.49652970948E+02 -0.33533333748E+02 -0.45118402822E+01  0.60093749251E+02  0.10000000000E+01 0.  0.
<mgrwt>
<rscale>  0 0.12499744E+03</rscale>
<asrwt>0</asrwt>
<pdfrwt beam="2">  1        4 0.12578358E-01 0.12499744E+03</pdfrwt>
<pdfrwt beam="1">  1       -4 0.19408785E-01 0.12499744E+03</pdfrwt>
<totfact> 0.19676506E+03</totfact>
</mgrwt>
</event>
<event>
 5    1  0.1440092E-002  0.1250030E+03  0.7818608E-02  0.1235065E+00
         -4   -1    0    0    0  501 -0.00000000000E+00  0.00000000000E+00  0.11452473469E+02  0.11522675408E+02  0.12700000000E+01 0. -1.
          4   -1    0    0  501    0  0.00000000000E+00 -0.00000000000E+00 -0.33998608521E+03  0.33998845721E+03  0.12700000000E+01 0. -1.
         25    2    1    2    0    0  0.00000000000E+00  0.00000000000E+00 -0.32853361174E+03  0.35151113261E+03  0.12500296921E+03 0.  0.
    9000005    1    3    3    0    0  0.59956599342E+02 -0.33587205774E+01 -0.11561306945E+03  0.13028221919E+03  0.10000000000E+01 0.  0.
    9000005    1    3    3    0    0 -0.59956599342E+02  0.33587205774E+01 -0.21292054228E+03  0.22122891342E+03  0.10000000000E+01 0.  0.
<mgrwt>
<rscale>  0 0.12500297E+03</rscale>
<asrwt>0</asrwt>
<pdfrwt beam="2">  1        4 0.85005560E-01 0.12500297E+03</pdfrwt>
<pdfrwt beam="1">  1       -4 0.28721912E-02 0.12500297E+03</pdfrwt>
<totfact> 0.11640574E+03</totfact>
</mgrwt>
</event>
<event>
 5    1  0.1440092E-002  0.1249974E+03  0.7818608E-02  0.1235073E+00
         -4   -1    0    0    0  501 -0.00000000000E+00  0.00000000000E+00  0.32719529307E+02  0.32744167391E+02  0.12700000000E+01 0. -1.
          4   -1    0    0  501    0  0.00000000000E+00 -0.00000000000E+00 -0.11930803337E+03  0.11931479257E+03  0.12700000000E+01 0. -1.
         25    2    1    2    0    0  0.00000000000E+00  0.00000000000E+00 -0.86588504061E+02  0.15205895996E+03  0.12499743305E+03 0.  0.
    9000005    1    3    3    0    0  0.62116092178E+02 -0.34356291191E+01 -0.50478497815E+02  0.80120479258E+02  0.10000000000E+01 0.  0.
    9000005    1    3    3    0    0 -0.62116092178E+02  0.34356291191E+01 -0.36110006247E+02  0.71938480704E+02  0.10000000000E+01 0.  0.
<mgrwt>
<rscale>  0 0.12499743E+03</rscale>
<asrwt>0</asrwt>
<pdfrwt beam="2">  1        4 0.29830932E-01 0.12499743E+03</pdfrwt>
<pdfrwt beam="1">  1       -4 0.81838073E-02 0.12499743E+03</pdfrwt>
<totfact> 0.18439104E+03</totfact>
</mgrwt>
</event>
<event>
 5    1  0.1440092E-002  0.1249969E+03  0.7818608E-02  0.1235074E+00
          4   -1    0    0  501    0  0.00000000000E+00  0.00000000000E+00  0.18964908691E+03  0.18965333918E+03  0.12700000000E+01 0.  1.
         -4   -1    0    0    0  501 -0.00000000000E+00 -0.00000000000E+00 -0.20572164685E+02  0.20611328434E+02  0.12700000000E+01 0.  1.
         25    2    1    2    0    0  0.00000000000E+00  0.00000000000E+00  0.16907692222E+03  0.21026466762E+03  0.12499689925E+03 0.  0.
    9000005    1    3    3    0    0  0.84616217519E+01 -0.21317812020E+02 -0.13244160024E+02  0.26503885125E+02  0.10000000000E+01 0.  0.
    9000005    1    3    3    0    0 -0.84616217519E+01  0.21317812020E+02  0.18232108224E+03  0.18376078249E+03  0.10000000000E+01 0.  0.
<mgrwt>
<rscale>  0 0.12499690E+03</rscale>
<asrwt>0</asrwt>
<pdfrwt beam="1">  1        4 0.47417699E-01 0.12499690E+03</pdfrwt>
<pdfrwt beam="2">  1       -4 0.51484682E-02 0.12499690E+03</pdfrwt>
<totfact> 0.15920256E+03</totfact>
</mgrwt>
</event>
<event>
 5    1  0.1440092E-002  0.1250007E+03  0.7818608E-02  0.1235068E+00
          4   -1    0    0  501    0  0.00000000000E+00  0.00000000000E+00  0.27131082761E+02  0.27160790707E+02  0.12700000000E+01 0. -1.
         -4   -1    0    0    0  501 -0.00000000000E+00 -0.00000000000E+00 -0.14386723985E+03  0.14387284526E+03  0.12700000000E+01 0. -1.
         25    2    1    2    0    0  0.00000000000E+00  0.00000000000E+00 -0.11673615709E+03  0.17103363596E+03  0.12500069703E+03 0.  0.
    9000005    1    3    3    0    0 -0.34479456842E+02 -0.52016694942E+02 -0.53887347535E+02  0.82458569725E+02  0.10000000000E+01 0.  0.
    9000005    1    3    3    0    0  0.34479456842E+02  0.52016694942E+02 -0.62848809555E+02  0.88575066239E+02  0.10000000000E+01 0.  0.
<mgrwt>
<rscale>  0 0.12500070E+03</rscale>
<asrwt>0</asrwt>
<pdfrwt beam="1">  1        4 0.67871853E-02 0.12500070E+03</pdfrwt>
<pdfrwt beam="2">  1       -4 0.35971222E-01 0.12500070E+03</pdfrwt>
<totfact> 0.17550243E+03</totfact>
</mgrwt>
</event>
<event>
 5    1  0.1440092E-002  0.1250012E+03  0.7818608E-02  0.1235067E+00
          4   -1    0    0  501    0  0.00000000000E+00  0.00000000000E+00  0.75204438133E+02  0.75215160804E+02  0.12700000000E+01 0. -1.
         -4   -1    0    0    0  501 -0.00000000000E+00 -0.00000000000E+00 -0.51920549670E+02  0.51936079733E+02  0.12700000000E+01 0. -1.
         25    2    1    2    0    0  0.00000000000E+00  0.00000000000E+00  0.23283888463E+02  0.12715124054E+03  0.12500119403E+03 0.  0.
    9000005    1    3    3    0    0 -0.59617820477E+02  0.17652462632E+02  0.52545528538E+01  0.62405963506E+02  0.10000000000E+01 0.  0.
    9000005    1    3    3    0    0  0.59617820477E+02 -0.17652462632E+02  0.18029335609E+02  0.64745277032E+02  0.10000000000E+01 0.  0.
<mgrwt>
<rscale>  0 0.12500119E+03</rscale>
<asrwt>0</asrwt>
<pdfrwt beam="1">  1        4 0.18804391E-01 0.12500119E+03</pdfrwt>
<pdfrwt beam="2">  1       -4 0.12983419E-01 0.12500119E+03</pdfrwt>
<totfact> 0.19718246E+03</totfact>
</mgrwt>
</event>
<event>
 5    1  0.1440092E-002  0.1250002E+03  0.7818608E-02  0.1235069E+00
          4   -1    0    0  501    0  0.00000000000E+00  0.00000000000E+00  0.18527976929E+03  0.18528412184E+03  0.12700000000E+01 0.  1.
         -4   -1    0    0    0  501 -0.00000000000E+00 -0.00000000000E+00 -0.21059306446E+02  0.21097565925E+02  0.12700000000E+01 0.  1.
         25    2    1    2    0    0  0.00000000000E+00  0.00000000000E+00  0.16422046284E+03  0.20638168777E+03  0.12500016252E+03 0.  0.
    9000005    1    3    3    0    0 -0.38356839215E+02 -0.28694064184E+02  0.14837199960E+03  0.15591615279E+03  0.10000000000E+01 0.  0.
    9000005    1    3    3    0    0  0.38356839215E+02  0.28694064184E+02  0.15848463241E+02  0.50465534982E+02  0.10000000000E+01 0.  0.
<mgrwt>
<rscale>  0 0.12500016E+03</rscale>
<asrwt>0</asrwt>
<pdfrwt beam="1">  1        4 0.46325268E-01 0.12500016E+03</pdfrwt>
<pdfrwt beam="2">  1       -4 0.52701532E-02 0.12500016E+03</pdfrwt>
<totfact> 0.16069598E+03</totfact>
</mgrwt>
</event>
<event>
 5    1  0.1440092E-002  0.1249843E+03  0.7818608E-02  0.1235094E+00
         -4   -1    0    0    0  501 -0.00000000000E+00  0.00000000000E+00  0.81792759138E+02  0.81802618218E+02  0.12700000000E+01 0. -1.
          4   -1    0    0  501    0  0.00000000000E+00 -0.00000000000E+00 -0.47724702259E+02  0.47741597227E+02  0.12700000000E+01 0. -1.
         25    2    1    2    0    0  0.00000000000E+00  0.00000000000E+00  0.34068056878E+02  0.12954421544E+03  0.12498428404E+03 0.  0.
    9000005    1    3    3    0    0 -0.42009767644E+02  0.45002504923E+02  0.59566474250E+01  0.61858933675E+02  0.10000000000E+01 0.  0.
    9000005    1    3    3    0    0  0.42009767644E+02 -0.45002504923E+02  0.28111409453E+02  0.67685281770E+02  0.10000000000E+01 0.  0.
<mgrwt>
<rscale>  0 0.12498428E+03</rscale>
<asrwt>0</asrwt>
<pdfrwt beam="2">  1        4 0.11934520E-01 0.12498428E+03</pdfrwt>
<pdfrwt beam="1">  1       -4 0.20451534E-01 0.12498428E+03</pdfrwt>
<totfact> 0.19596104E+03</totfact>
</mgrwt>
</event>
<event>
 5    1  0.1440092E-002  0.1249989E+03  0.7818608E-02  0.1235071E+00
          4   -1    0    0  501    0  0.00000000000E+00  0.00000000000E+00  0.80083137703E+01  0.81083900648E+01  0.12700000000E+01 0.  1.
         -4   -1    0    0    0  501 -0.00000000000E+00 -0.00000000000E+00 -0.48463616739E+03  0.48463783142E+03  0.12700000000E+01 0.  1.
         25    2    1    2    0    0  0.00000000000E+00  0.00000000000E+00 -0.47662785362E+03  0.49274622149E+03  0.12499891176E+03 0.  0.
    9000005    1    3    3    0    0 -0.34062619844E+02 -0.50374709515E+02 -0.29507174384E+03  0.30127430598E+03  0.10000000000E+01 0.  0.
    9000005    1    3    3    0    0  0.34062619844E+02  0.50374709515E+02 -0.18155610978E+03  0.19147191551E+03  0.10000000000E+01 0.  0.
<mgrwt>
<rscale>  0 0.12499891E+03</rscale>
<asrwt>0</asrwt>
<pdfrwt beam="1">  1        4 0.20147976E-02 0.12499891E+03</pdfrwt>
<pdfrwt beam="2">  1       -4 0.12117166E+00 0.12499891E+03</pdfrwt>
<totfact> 0.88774257E+02</totfact>
</mgrwt>
</event>
<event>
 5    1  0.1440092E-002  0.1250021E+03  0.7818608E-02  0.1235066E+00
         -4   -1    0    0    0  501 -0.00000000000E+00  0.00000000000E+00  0.51011313814E+02  0.51027120603E+02  0.12700000000E+01 0. -1.
          4   -1    0    0  501    0  0.00000000000E+00 -0.00000000000E+00 -0.76545779022E+02  0.76556313823E+02  0.12700000000E+01 0. -1.
         25    2    1    2    0    0  0.00000000000E+00  0.00000000000E+00 -0.25534465208E+02  0.12758343443E+03  0.12500209529E+03 0.  0.
    9000005    1    3    3    0    0  0.55756653720E+02 -0.16997506968E+00  0.16038761749E+02  0.58026504324E+02  0.10000000000E+01 0.  0.
    9000005    1    3    3    0    0 -0.55756653720E+02  0.16997506968E+00 -0.41573226957E+02  0.69556930102E+02  0.10000000000E+01 0.  0.
<mgrwt>
<rscale>  0 0.12500210E+03</rscale>
<asrwt>0</asrwt>
<pdfrwt beam="2">  1        4 0.19139737E-01 0.12500210E+03</pdfrwt>
<pdfrwt beam="1">  1       -4 0.12756121E-01 0.12500210E+03</pdfrwt>
<totfact> 0.19694268E+03</totfact>
</mgrwt>
</event>
<event>
 5    1  0.1440092E-002  0.1250012E+03  0.7818608E-02  0.1235067E+00
         -4   -1    0    0    0  501 -0.00000000000E+00  0.00000000000E+00  0.10993095647E+04  0.10993102983E+04  0.12700000000E+01 0.  1.
          4   -1    0    0  501    0  0.00000000000E+00 -0.00000000000E+00 -0.34392011296E+01  0.36661975410E+01  0.12700000000E+01 0.  1.
         25    2    1    2    0    0  0.00000000000E+00  0.00000000000E+00  0.10958703636E+04  0.11029764958E+04  0.12500118647E+03 0.  0.
    9000005    1    3    3    0    0  0.32628462392E+02  0.32366823131E+02  0.92157567501E+03  0.92272149241E+03  0.10000000000E+01 0.  0.
    9000005    1    3    3    0    0 -0.32628462392E+02 -0.32366823131E+02  0.17429468854E+03  0.18025500340E+03  0.10000000000E+01 0.  0.
<mgrwt>
<rscale>  0 0.12500119E+03</rscale>
<asrwt>0</asrwt>
<pdfrwt beam="2">  1        4 0.88826644E-03 0.12500119E+03</pdfrwt>
<pdfrwt beam="1">  1       -4 0.27485588E+00 0.12500119E+03</pdfrwt>
<totfact> 0.30605606E+02</totfact>
</mgrwt>
</event>
<event>
 5    1  0.1440092E-002  0.1250033E+03  0.7818608E-02  0.1235064E+00
          4   -1    0    0  501    0  0.00000000000E+00  0.00000000000E+00  0.39829214194E+02  0.39849456751E+02  0.12700000000E+01 0.  1.
         -4   -1    0    0    0  501 -0.00000000000E+00 -0.00000000000E+00 -0.98030851424E+02  0.98039077570E+02  0.12700000000E+01 0.  1.
         25    2    1    2    0    0  0.00000000000E+00  0.00000000000E+00 -0.58201637229E+02  0.13788853432E+03  0.12500326924E+03 0.  0.
    9000005    1    3    3    0    0  0.58956768101E+02  0.18520068100E+02 -0.18837975905E+02  0.64612404100E+02  0.10000000000E+01 0.  0.
    9000005    1    3    3    0    0 -0.58956768101E+02 -0.18520068100E+02 -0.39363661325E+02  0.73276130222E+02  0.10000000000E+01 0.  0.
<mgrwt>
<rscale>  0 0.12500327E+03</rscale>
<asrwt>0</asrwt>
<pdfrwt beam="1">  1        4 0.99608623E-02 0.12500327E+03</pdfrwt>
<pdfrwt beam="2">  1       -4 0.24511271E-01 0.12500327E+03</pdfrwt>
<totfact> 0.19147428E+03</totfact>
</mgrwt>
</event>
<event>
 5    1  0.1440092E-002  0.1250060E+03  0.7818608E-02  0.1235060E+00
         -4   -1    0    0    0  501 -0.00000000000E+00  0.00000000000E+00  0.34202810874E+02  0.34226381224E+02  0.12700000000E+01 0.  1.
          4   -1    0    0  501    0  0.00000000000E+00 -0.00000000000E+00 -0.11415300438E+03  0.11416006880E+03  0.12700000000E+01 0.  1.
         25    2    1    2    0    0  0.00000000000E+00  0.00000000000E+00 -0.79950193504E+02  0.14838645003E+03  0.12500602029E+03 0.  0.
    9000005    1    3    3    0    0 -0.55096030706E+02  0.29354691428E+02 -0.43406379682E+02  0.76041990410E+02  0.10000000000E+01 0.  0.
    9000005    1    3    3    0    0  0.55096030706E+02 -0.29354691428E+02 -0.36543813822E+02  0.72344459615E+02  0.10000000000E+01 0.  0.
<mgrwt>
<rscale>  0 0.12500602E+03</rscale>
<asrwt>0</asrwt>
<pdfrwt beam="2">  1        4 0.28542080E-01 0.12500602E+03</pdfrwt>
<pdfrwt beam="1">  1       -4 0.85545323E-02 0.12500602E+03</pdfrwt>
<totfact> 0.18615796E+03</totfact>
</mgrwt>
</event>
<event>
 5    1  0.1440092E-002  0.1250233E+03  0.7818608E-02  0.1235033E+00
          4   -1    0    0  501    0  0.00000000000E+00  0.00000000000E+00  0.43094988338E+03  0.43095175471E+03  0.12700000000E+01 0.  1.
         -4   -1    0    0    0  501 -0.00000000000E+00 -0.00000000000E+00 -0.90212832926E+01  0.91102388687E+01  0.12700000000E+01 0.  1.
         25    2    1    2    0    0  0.00000000000E+00  0.00000000000E+00  0.42192860009E+03  0.44006199358E+03  0.12502325631E+03 0.  0.
    9000005    1    3    3    0    0  0.56047113616E+02 -0.17977415385E+02  0.13694402167E+03  0.14906083147E+03  0.10000000000E+01 0.  0.
    9000005    1    3    3    0    0 -0.56047113616E+02  0.17977415385E+02  0.28498457842E+03  0.29100116211E+03  0.10000000000E+01 0.  0.
<mgrwt>
<rscale>  0 0.12502326E+03</rscale>
<asrwt>0</asrwt>
<pdfrwt beam="1">  1        4 0.10774882E+00 0.12502326E+03</pdfrwt>
<pdfrwt beam="2">  1       -4 0.22666743E-02 0.12502326E+03</pdfrwt>
<totfact> 0.97777317E+02</totfact>
</mgrwt>
</event>
<event>
 5    1  0.1440092E-002  0.1249979E+03  0.7818608E-02  0.1235073E+00
          4   -1    0    0  501    0  0.00000000000E+00  0.00000000000E+00  0.98661491729E+01  0.99475524377E+01  0.12700000000E+01 0.  1.
         -4   -1    0    0    0  501 -0.00000000000E+00 -0.00000000000E+00 -0.39420187826E+03  0.39420392403E+03  0.12700000000E+01 0.  1.
         25    2    1    2    0    0  0.00000000000E+00  0.00000000000E+00 -0.38433572908E+03  0.40415147647E+03  0.12499785311E+03 0.  0.
    9000005    1    3    3    0    0  0.54328218060E+02 -0.23034822763E+02 -0.25866301489E+03  0.26531059838E+03  0.10000000000E+01 0.  0.
    9000005    1    3    3    0    0 -0.54328218060E+02  0.23034822763E+02 -0.12567271419E+03  0.13884087809E+03  0.10000000000E+01 0.  0.
<mgrwt>
<rscale>  0 0.12499785E+03</rscale>
<asrwt>0</asrwt>
<pdfrwt beam="1">  1        4 0.24769697E-02 0.12499785E+03</pdfrwt>
<pdfrwt beam="2">  1       -4 0.98560848E-01 0.12499785E+03</pdfrwt>
<totfact> 0.10484699E+03</totfact>
</mgrwt>
</event>
<event>
 5    1  0.1440092E-002  0.1249964E+03  0.7818608E-02  0.1235075E+00
          4   -1    0    0  501    0  0.00000000000E+00  0.00000000000E+00  0.47202337712E+03  0.47202508561E+03  0.12700000000E+01 0. -1.
         -4   -1    0    0    0  501 -0.00000000000E+00 -0.00000000000E+00 -0.82246050578E+01  0.83220807709E+01  0.12700000000E+01 0. -1.
         25    2    1    2    0    0  0.00000000000E+00  0.00000000000E+00  0.46379877206E+03  0.48034716638E+03  0.12499639709E+03 0.  0.
    9000005    1    3    3    0    0 -0.56226946013E+02 -0.51040319616E+00  0.12712905874E+03  0.13901268844E+03  0.10000000000E+01 0.  0.
    9000005    1    3    3    0    0  0.56226946013E+02  0.51040319616E+00  0.33666971331E+03  0.34133447794E+03  0.10000000000E+01 0.  0.
<mgrwt>
<rscale>  0 0.12499640E+03</rscale>
<asrwt>0</asrwt>
<pdfrwt beam="1">  1        4 0.11801823E+00 0.12499640E+03</pdfrwt>
<pdfrwt beam="2">  1       -4 0.20685495E-02 0.12499640E+03</pdfrwt>
<totfact> 0.90818840E+02</totfact>
</mgrwt>
</event>
<event>
 5    1  0.1440092E-002  0.1250001E+03  0.7818608E-02  0.1235069E+00
         -4   -1    0    0    0  501 -0.00000000000E+00  0.00000000000E+00  0.37627928944E+02  0.37649355063E+02  0.12700000000E+01 0. -1.
          4   -1    0    0  501    0  0.00000000000E+00 -0.00000000000E+00 -0.10375775435E+03  0.10376552649E+03  0.12700000000E+01 0. -1.
         25    2    1    2    0    0  0.00000000000E+00  0.00000000000E+00 -0.66129825410E+02  0.14141488156E+03  0.12500005967E+03 0.  0.
    9000005    1    3    3    0    0 -0.43073502348E+02  0.44491513348E+02 -0.42559389312E+02  0.75147341823E+02  0.10000000000E+01 0.  0.
    9000005    1    3    3    0    0  0.43073502348E+02 -0.44491513348E+02 -0.23570436098E+02  0.66267539734E+02  0.10000000000E+01 0.  0.
<mgrwt>
<rscale>  0 0.12500006E+03</rscale>
<asrwt>0</asrwt>
<pdfrwt beam="2">  1        4 0.25943088E-01 0.12500006E+03</pdfrwt>
<pdfrwt beam="1">  1       -4 0.94106322E-02 0.12500006E+03</pdfrwt>
<totfact> 0.18968165E+03</totfact>
</mgrwt>
</event>
<event>
 5    1  0.1440092E-002  0.1249984E+03  0.7818608E-02  0.1235072E+00
          4   -1    0    0  501    0  0.00000000000E+00  0.00000000000E+00  0.34381524984E+01  0.36652138550E+01  0.12700000000E+01 0.  1.
         -4   -1    0    0    0  501 -0.00000000000E+00 -0.00000000000E+00 -0.10995751096E+04  0.10995758431E+04  0.12700000000E+01 0.  1.
         25    2    1    2    0    0  0.00000000000E+00  0.00000000000E+00 -0.10961369571E+04  0.11032410569E+04  0.12499840339E+03 0.  0.
    9000005    1    3    3    0    0  0.25681721093E+02 -0.20802922852E+02 -0.10161681064E+04  0.10167059225E+04  0.10000000000E+01 0.  0.
    9000005    1    3    3    0    0 -0.25681721093E+02  0.20802922852E+02 -0.79968850713E+02  0.86535134378E+02  0.10000000000E+01 0.  0.
<mgrwt>
<rscale>  0 0.12499840E+03</rscale>
<asrwt>0</asrwt>
<pdfrwt beam="1">  1        4 0.88801624E-03 0.12499840E+03</pdfrwt>
<pdfrwt beam="2">  1       -4 0.27492109E+00 0.12499840E+03</pdfrwt>
<totfact> 0.30592160E+02</totfact>
</mgrwt>
</event>
<event>
 5    1  0.1440092E-002  0.1250023E+03  0.7818608E-02  0.1235066E+00
         -4   -1    0    0    0  501 -0.00000000000E+00  0.00000000000E+00  0.28945808229E+03  0.28946086834E+03  0.12700000000E+01 0.  1.
          4   -1    0    0  501    0  0.00000000000E+00 -0.00000000000E+00 -0.13462814006E+02  0.13522583369E+02  0.12700000000E+01 0.  1.
         25    2    1    2    0    0  0.00000000000E+00  0.00000000000E+00  0.27599526828E+03  0.30298345171E+03  0.12500233557E+03 0.  0.
    9000005    1    3    3    0    0  0.16596132518E+02  0.36248854627E+02  0.21351958505E+02  0.45236237778E+02  0.10000000000E+01 0.  0.
    9000005    1    3    3    0    0 -0.16596132518E+02 -0.36248854627E+02  0.25464330978E+03  0.25774721393E+03  0.10000000000E+01 0.  0.
<mgrwt>
<rscale>  0 0.12500234E+03</rscale>
<asrwt>0</asrwt>
<pdfrwt beam="2">  1        4 0.33735229E-02 0.12500234E+03</pdfrwt>
<pdfrwt beam="1">  1       -4 0.72372341E-01 0.12500234E+03</pdfrwt>
<totfact> 0.12887160E+03</totfact>
</mgrwt>
</event>
<event>
 5    1  0.1440092E-002  0.1250002E+03  0.7818608E-02  0.1235069E+00
          4   -1    0    0  501    0  0.00000000000E+00  0.00000000000E+00  0.57824872880E+02  0.57838817619E+02  0.12700000000E+01 0.  1.
         -4   -1    0    0    0  501 -0.00000000000E+00 -0.00000000000E+00 -0.67525298652E+02  0.67537240527E+02  0.12700000000E+01 0.  1.
         25    2    1    2    0    0  0.00000000000E+00  0.00000000000E+00 -0.97004257718E+01  0.12537605815E+03  0.12500023078E+03 0.  0.
    9000005    1    3    3    0    0 -0.51912902202E+02 -0.32478728113E+02 -0.17355546703E+02  0.63655574745E+02  0.10000000000E+01 0.  0.
    9000005    1    3    3    0    0  0.51912902202E+02  0.32478728113E+02  0.76551209311E+01  0.61720483401E+02  0.10000000000E+01 0.  0.
<mgrwt>
<rscale>  0 0.12500023E+03</rscale>
<asrwt>0</asrwt>
<pdfrwt beam="1">  1        4 0.14459454E-01 0.12500023E+03</pdfrwt>
<pdfrwt beam="2">  1       -4 0.16884560E-01 0.12500023E+03</pdfrwt>
<totfact> 0.19814568E+03</totfact>
</mgrwt>
</event>
<event>
 5    1  0.1440092E-002  0.1250012E+03  0.7818608E-02  0.1235067E+00
          4   -1    0    0  501    0  0.00000000000E+00  0.00000000000E+00  0.10382269155E+03  0.10383045883E+03  0.12700000000E+01 0.  1.
         -4   -1    0    0    0  501 -0.00000000000E+00 -0.00000000000E+00 -0.37605071895E+02  0.37626511029E+02  0.12700000000E+01 0.  1.
         25    2    1    2    0    0  0.00000000000E+00  0.00000000000E+00  0.66217619655E+02  0.14145696986E+03  0.12500120467E+03 0.  0.
    9000005    1    3    3    0    0 -0.19016230893E+02 -0.20266238694E+02  0.96450479331E+02  0.10037944227E+03  0.10000000000E+01 0.  0.
    9000005    1    3    3    0    0  0.19016230893E+02  0.20266238694E+02 -0.30232859676E+02  0.41077527584E+02  0.10000000000E+01 0.  0.
<mgrwt>
<rscale>  0 0.12500120E+03</rscale>
<asrwt>0</asrwt>
<pdfrwt beam="1">  1        4 0.25959324E-01 0.12500120E+03</pdfrwt>
<pdfrwt beam="2">  1       -4 0.94049188E-02 0.12500120E+03</pdfrwt>
<totfact> 0.18965520E+03</totfact>
</mgrwt>
</event>
<event>
 5    1  0.1440092E-002  0.1249990E+03  0.7818608E-02  0.1235071E+00
          4   -1    0    0  501    0  0.00000000000E+00  0.00000000000E+00  0.10055962832E+03  0.10056764762E+03  0.12700000000E+01 0. -1.
         -4   -1    0    0    0  501 -0.00000000000E+00 -0.00000000000E+00 -0.38824530863E+02  0.38845296970E+02  0.12700000000E+01 0. -1.
         25    2    1    2    0    0  0.00000000000E+00  0.00000000000E+00  0.61735097457E+02  0.13941294459E+03  0.12499898744E+03 0.  0.
    9000005    1    3    3    0    0 -0.19495000669E+02  0.55704184502E+02  0.79513217649E+01  0.59558666371E+02  0.10000000000E+01 0.  0.
    9000005    1    3    3    0    0  0.19495000669E+02 -0.55704184502E+02  0.53783775692E+02  0.79854278218E+02  0.10000000000E+01 0.  0.
<mgrwt>
<rscale>  0 0.12499899E+03</rscale>
<asrwt>0</asrwt>
<pdfrwt beam="1">  1        4 0.25143505E-01 0.12499899E+03</pdfrwt>
<pdfrwt beam="2">  1       -4 0.97097310E-02 0.12499899E+03</pdfrwt>
<totfact> 0.19070866E+03</totfact>
</mgrwt>
</event>
<event>
 5    1  0.1440092E-002  0.1250000E+03  0.7818608E-02  0.1235069E+00
          4   -1    0    0  501    0  0.00000000000E+00  0.00000000000E+00  0.13618676470E+02  0.13677764759E+02  0.12700000000E+01 0. -1.
         -4   -1    0    0    0  501 -0.00000000000E+00 -0.00000000000E+00 -0.28614889523E+03  0.28615171350E+03  0.12700000000E+01 0. -1.
         25    2    1    2    0    0  0.00000000000E+00  0.00000000000E+00 -0.27253021876E+03  0.29982947826E+03  0.12499998359E+03 0.  0.
    9000005    1    3    3    0    0 -0.18939794707E+02  0.59498287040E+02 -0.14237433265E+03  0.15546772199E+03  0.10000000000E+01 0.  0.
    9000005    1    3    3    0    0  0.18939794707E+02 -0.59498287040E+02 -0.13015588611E+03  0.14436175627E+03  0.10000000000E+01 0.  0.
<mgrwt>
<rscale>  0 0.12499998E+03</rscale>
<asrwt>0</asrwt>
<pdfrwt beam="1">  1        4 0.34124084E-02 0.12499998E+03</pdfrwt>
<pdfrwt beam="2">  1       -4 0.71544943E-01 0.12499998E+03</pdfrwt>
<totfact> 0.12975844E+03</totfact>
</mgrwt>
</event>
<event>
 5    1  0.1440092E-002  0.1250243E+03  0.7818608E-02  0.1235031E+00
         -4   -1    0    0    0  501 -0.00000000000E+00  0.00000000000E+00  0.10024017405E+02  0.10104148898E+02  0.12700000000E+01 0. -1.
          4   -1    0    0  501    0  0.00000000000E+00 -0.00000000000E+00 -0.38820736552E+03  0.38820944288E+03  0.12700000000E+01 0. -1.
         25    2    1    2    0    0  0.00000000000E+00  0.00000000000E+00 -0.37818334811E+03  0.39831359178E+03  0.12502428807E+03 0.  0.
    9000005    1    3    3    0    0 -0.13685493261E+02  0.60897862837E+02 -0.19962234210E+03  0.20915525786E+03  0.10000000000E+01 0.  0.
    9000005    1    3    3    0    0  0.13685493261E+02 -0.60897862837E+02 -0.17856100601E+03  0.18915833392E+03  0.10000000000E+01 0.  0.
<mgrwt>
<rscale>  0 0.12502429E+03</rscale>
<asrwt>0</asrwt>
<pdfrwt beam="2">  1        4 0.97062067E-01 0.12502429E+03</pdfrwt>
<pdfrwt beam="1">  1       -4 0.25162818E-02 0.12502429E+03</pdfrwt>
<totfact> 0.10598160E+03</totfact>
</mgrwt>
</event>
<event>
 5    1  0.1440092E-002  0.1249951E+03  0.7818608E-02  0.1235077E+00
          4   -1    0    0  501    0  0.00000000000E+00  0.00000000000E+00  0.42100357858E+02  0.42119508921E+02  0.12700000000E+01 0. -1.
         -4   -1    0    0    0  501 -0.00000000000E+00 -0.00000000000E+00 -0.92732439029E+02  0.92741135147E+02  0.12700000000E+01 0. -1.
         25    2    1    2    0    0  0.00000000000E+00  0.00000000000E+00 -0.50632081172E+02  0.13486064407E+03  0.12499514260E+03 0.  0.
    9000005    1    3    3    0    0  0.11043251497E+02 -0.49461681640E+02 -0.64760160609E+02  0.82239222737E+02  0.10000000000E+01 0.  0.
    9000005    1    3    3    0    0 -0.11043251497E+02  0.49461681640E+02  0.14128079438E+02  0.52621421331E+02  0.10000000000E+01 0.  0.
<mgrwt>
<rscale>  0 0.12499514E+03</rscale>
<asrwt>0</asrwt>
<pdfrwt beam="1">  1        4 0.10528571E-01 0.12499514E+03</pdfrwt>
<pdfrwt beam="2">  1       -4 0.23186590E-01 0.12499514E+03</pdfrwt>
<totfact> 0.19308627E+03</totfact>
</mgrwt>
</event>
<event>
 5    1  0.1440092E-002  0.1249960E+03  0.7818608E-02  0.1235076E+00
          4   -1    0    0  501    0  0.00000000000E+00  0.00000000000E+00  0.34095380651E+02  0.34119025217E+02  0.12700000000E+01 0.  1.
         -4   -1    0    0    0  501 -0.00000000000E+00 -0.00000000000E+00 -0.11449413082E+03  0.11450117420E+03  0.12700000000E+01 0.  1.
         25    2    1    2    0    0  0.00000000000E+00  0.00000000000E+00 -0.80398750170E+02  0.14862019941E+03  0.12499601852E+03 0.  0.
    9000005    1    3    3    0    0 -0.10346440192E+02  0.48122506890E+01 -0.11325073774E+03  0.11382853851E+03  0.10000000000E+01 0.  0.
    9000005    1    3    3    0    0  0.10346440192E+02 -0.48122506890E+01  0.32851987567E+02  0.34791660904E+02  0.10000000000E+01 0.  0.
<mgrwt>
<rscale>  0 0.12499602E+03</rscale>
<asrwt>0</asrwt>
<pdfrwt beam="1">  1        4 0.85276814E-02 0.12499602E+03</pdfrwt>
<pdfrwt beam="2">  1       -4 0.28627368E-01 0.12499602E+03</pdfrwt>
<totfact> 0.18608559E+03</totfact>
</mgrwt>
</event>
<event>
 5    1  0.1440092E-002  0.1250008E+03  0.7818608E-02  0.1235068E+00
          4   -1    0    0  501    0  0.00000000000E+00  0.00000000000E+00  0.13893508153E+03  0.13894088591E+03  0.12700000000E+01 0.  1.
         -4   -1    0    0    0  501 -0.00000000000E+00 -0.00000000000E+00 -0.28095294478E+02  0.28123983925E+02  0.12700000000E+01 0.  1.
         25    2    1    2    0    0  0.00000000000E+00  0.00000000000E+00  0.11083978705E+03  0.16706486984E+03  0.12500084936E+03 0.  0.
    9000005    1    3    3    0    0  0.24550289699E+02  0.54495842646E+02  0.79801200202E+02  0.99708300275E+02  0.10000000000E+01 0.  0.
    9000005    1    3    3    0    0 -0.24550289699E+02 -0.54495842646E+02  0.31038586845E+02  0.67356569563E+02  0.10000000000E+01 0.  0.
<mgrwt>
<rscale>  0 0.12500085E+03</rscale>
<asrwt>0</asrwt>
<pdfrwt beam="1">  1        4 0.34738081E-01 0.12500085E+03</pdfrwt>
<pdfrwt beam="2">  1       -4 0.70281355E-02 0.12500085E+03</pdfrwt>
<totfact> 0.17729902E+03</totfact>
</mgrwt>
</event>
<event>
 5    1  0.1440092E-002  0.1249661E+03  0.7818608E-02  0.1235122E+00
         -4   -1    0    0    0  501 -0.00000000000E+00  0.00000000000E+00  0.21001685706E+02  0.21040049964E+02  0.12700000000E+01 0. -1.
          4   -1    0    0  501    0  0.00000000000E+00 -0.00000000000E+00 -0.18568588747E+03  0.18569023051E+03  0.12700000000E+01 0. -1.
         25    2    1    2    0    0  0.00000000000E+00  0.00000000000E+00 -0.16468420177E+03  0.20673028047E+03  0.12496608561E+03 0.  0.
    9000005    1    3    3    0    0 -0.39089741305E+02 -0.47194819349E+02 -0.10245189822E+03  0.11938488304E+03  0.10000000000E+01 0.  0.
    9000005    1    3    3    0    0  0.39089741305E+02  0.47194819349E+02 -0.62232303544E+02  0.87345397435E+02  0.10000000000E+01 0.  0.
<mgrwt>
<rscale>  0 0.12496609E+03</rscale>
<asrwt>0</asrwt>
<pdfrwt beam="2">  1        4 0.46426805E-01 0.12496609E+03</pdfrwt>
<pdfrwt beam="1">  1       -4 0.52557604E-02 0.12496609E+03</pdfrwt>
<totfact> 0.16068641E+03</totfact>
</mgrwt>
</event>
<event>
 5    1  0.1440092E-002  0.1250054E+03  0.7818608E-02  0.1235061E+00
          4   -1    0    0  501    0  0.00000000000E+00  0.00000000000E+00  0.14027152708E+03  0.14027727617E+03  0.12700000000E+01 0.  1.
         -4   -1    0    0    0  501 -0.00000000000E+00 -0.00000000000E+00 -0.27829390603E+02  0.27858353888E+02  0.12700000000E+01 0.  1.
         25    2    1    2    0    0  0.00000000000E+00  0.00000000000E+00  0.11244213648E+03  0.16813563006E+03  0.12500542404E+03 0.  0.
    9000005    1    3    3    0    0 -0.38659421214E+02  0.45373719197E+02  0.30976677958E+02  0.67185413742E+02  0.10000000000E+01 0.  0.
    9000005    1    3    3    0    0  0.38659421214E+02 -0.45373719197E+02  0.81465458524E+02  0.10095021632E+03  0.10000000000E+01 0.  0.
<mgrwt>
<rscale>  0 0.12500542E+03</rscale>
<asrwt>0</asrwt>
<pdfrwt beam="1">  1        4 0.35072220E-01 0.12500542E+03</pdfrwt>
<pdfrwt beam="2">  1       -4 0.69616868E-02 0.12500542E+03</pdfrwt>
<totfact> 0.17679241E+03</totfact>
</mgrwt>
</event>
<event>
 5    1  0.1440092E-002  0.1250107E+03  0.7818608E-02  0.1235052E+00
          4   -1    0    0  501    0  0.00000000000E+00  0.00000000000E+00  0.48841116351E+02  0.48857625263E+02  0.12700000000E+01 0.  1.
         -4   -1    0    0    0  501 -0.00000000000E+00 -0.00000000000E+00 -0.79957398142E+02  0.79967483502E+02  0.12700000000E+01 0.  1.
         25    2    1    2    0    0  0.00000000000E+00  0.00000000000E+00 -0.31116281791E+02  0.12882510877E+03  0.12501074216E+03 0.  0.
    9000005    1    3    3    0    0 -0.14130624291E+02 -0.50432125345E+02  0.19582897101E+02  0.55924624885E+02  0.10000000000E+01 0.  0.
    9000005    1    3    3    0    0  0.14130624291E+02  0.50432125345E+02 -0.50699178892E+02  0.72900483880E+02  0.10000000000E+01 0.  0.
<mgrwt>
<rscale>  0 0.12501074E+03</rscale>
<asrwt>0</asrwt>
<pdfrwt beam="1">  1        4 0.12213603E-01 0.12501074E+03</pdfrwt>
<pdfrwt beam="2">  1       -4 0.19992674E-01 0.12501074E+03</pdfrwt>
<totfact> 0.19622837E+03</totfact>
</mgrwt>
</event>
<event>
 5    1  0.1440092E-002  0.1250028E+03  0.7818608E-02  0.1235065E+00
         -4   -1    0    0    0  501 -0.00000000000E+00  0.00000000000E+00  0.17431199830E+02  0.17477403340E+02  0.12700000000E+01 0.  1.
          4   -1    0    0  501    0  0.00000000000E+00 -0.00000000000E+00 -0.22376081984E+03  0.22376442388E+03  0.12700000000E+01 0.  1.
         25    2    1    2    0    0  0.00000000000E+00  0.00000000000E+00 -0.20632962001E+03  0.24124182722E+03  0.12500282840E+03 0.  0.
    9000005    1    3    3    0    0 -0.12824177005E+01 -0.51085323800E+02 -0.17258918339E+03  0.17999828090E+03  0.10000000000E+01 0.  0.
    9000005    1    3    3    0    0  0.12824177005E+01  0.51085323800E+02 -0.33740436614E+02  0.61243546320E+02  0.10000000000E+01 0.  0.
<mgrwt>
<rscale>  0 0.12500283E+03</rscale>
<asrwt>0</asrwt>
<pdfrwt beam="2">  1        4 0.55946422E-01 0.12500283E+03</pdfrwt>
<pdfrwt beam="1">  1       -4 0.43640266E-02 0.12500283E+03</pdfrwt>
<totfact> 0.14792802E+03</totfact>
</mgrwt>
</event>
<event>
 5    1  0.1440092E-002  0.1250032E+03  0.7818608E-02  0.1235064E+00
          4   -1    0    0  501    0  0.00000000000E+00  0.00000000000E+00  0.23708441187E+03  0.23708781337E+03  0.12700000000E+01 0. -1.
         -4   -1    0    0    0  501 -0.00000000000E+00 -0.00000000000E+00 -0.16449037379E+02  0.16497991717E+02  0.12700000000E+01 0. -1.
         25    2    1    2    0    0  0.00000000000E+00  0.00000000000E+00  0.22063537449E+03  0.25358580509E+03  0.12500316823E+03 0.  0.
    9000005    1    3    3    0    0 -0.40626138613E+01  0.50592560486E+02  0.36353531635E+02  0.62439500881E+02  0.10000000000E+01 0.  0.
    9000005    1    3    3    0    0  0.40626138613E+01 -0.50592560486E+02  0.18428184285E+03  0.19114630421E+03  0.10000000000E+01 0.  0.
<mgrwt>
<rscale>  0 0.12500317E+03</rscale>
<asrwt>0</asrwt>
<pdfrwt beam="1">  1        4 0.59277647E-01 0.12500317E+03</pdfrwt>
<pdfrwt beam="2">  1       -4 0.41188038E-02 0.12500317E+03</pdfrwt>
<totfact> 0.14378411E+03</totfact>
</mgrwt>
</event>
<event>
 5    1  0.1440092E-002  0.1249989E+03  0.7818608E-02  0.1235071E+00
         -4   -1    0    0    0  501 -0.00000000000E+00  0.00000000000E+00  0.38640571628E+02  0.38661436545E+02  0.12700000000E+01 0.  1.
          4   -1    0    0  501    0  0.00000000000E+00 -0.00000000000E+00 -0.10103806304E+03  0.10104604437E+03  0.12700000000E+01 0.  1.
         25    2    1    2    0    0  0.00000000000E+00  0.00000000000E+00 -0.62397491408E+02  0.13970748091E+03  0.12499893315E+03 0.  0.
    9000005    1    3    3    0    0  0.60603780324E+01 -0.55595656098E+02 -0.32435897894E-01  0.55933945069E+02  0.10000000000E+01 0.  0.
    9000005    1    3    3    0    0 -0.60603780324E+01  0.55595656098E+02 -0.62365055511E+02  0.83773535843E+02  0.10000000000E+01 0.  0.
<mgrwt>
<rscale>  0 0.12499893E+03</rscale>
<asrwt>0</asrwt>
<pdfrwt beam="2">  1        4 0.25263121E-01 0.12499893E+03</pdfrwt>
<pdfrwt beam="1">  1       -4 0.96637489E-02 0.12499893E+03</pdfrwt>
<totfact> 0.19055791E+03</totfact>
</mgrwt>
</event>
<event>
 5    1  0.1440092E-002  0.1249965E+03  0.7818608E-02  0.1235075E+00
          4   -1    0    0  501    0  0.00000000000E+00  0.00000000000E+00  0.21783360773E+02  0.21820350744E+02  0.12700000000E+01 0. -1.
         -4   -1    0    0    0  501 -0.00000000000E+00 -0.00000000000E+00 -0.17912126173E+03  0.17912576393E+03  0.12700000000E+01 0. -1.
         25    2    1    2    0    0  0.00000000000E+00  0.00000000000E+00 -0.15733790095E+03  0.20094611467E+03  0.12499650365E+03 0.  0.
    9000005    1    3    3    0    0  0.26755188832E+02  0.43631627505E+02 -0.21030389174E+02  0.55342897620E+02  0.10000000000E+01 0.  0.
    9000005    1    3    3    0    0 -0.26755188832E+02 -0.43631627505E+02 -0.13630751178E+03  0.14560321705E+03  0.10000000000E+01 0.  0.
<mgrwt>
<rscale>  0 0.12499650E+03</rscale>
<asrwt>0</asrwt>
<pdfrwt beam="1">  1        4 0.54510272E-02 0.12499650E+03</pdfrwt>
<pdfrwt beam="2">  1       -4 0.44785498E-01 0.12499650E+03</pdfrwt>
<totfact> 0.16285544E+03</totfact>
</mgrwt>
</event>
<event>
 5    1  0.1440092E-002  0.1250011E+03  0.7818608E-02  0.1235068E+00
         -4   -1    0    0    0  501 -0.00000000000E+00  0.00000000000E+00  0.18153568023E+02  0.18197937574E+02  0.12700000000E+01 0.  1.
          4   -1    0    0  501    0  0.00000000000E+00 -0.00000000000E+00 -0.21487293114E+03  0.21487668425E+03  0.12700000000E+01 0.  1.
         25    2    1    2    0    0  0.00000000000E+00  0.00000000000E+00 -0.19671936311E+03  0.23307462183E+03  0.12500108606E+03 0.  0.
    9000005    1    3    3    0    0 -0.30406322007E+02 -0.12207720063E+02 -0.19758174980E+03  0.20028260210E+03  0.10000000000E+01 0.  0.
    9000005    1    3    3    0    0  0.30406322007E+02  0.12207720063E+02  0.86238668989E+00  0.32792019729E+02  0.10000000000E+01 0.  0.
<mgrwt>
<rscale>  0 0.12500109E+03</rscale>
<asrwt>0</asrwt>
<pdfrwt beam="2">  1        4 0.53724240E-01 0.12500109E+03</pdfrwt>
<pdfrwt beam="1">  1       -4 0.45444080E-02 0.12500109E+03</pdfrwt>
<totfact> 0.15077691E+03</totfact>
</mgrwt>
</event>
<event>
 5    1  0.1440092E-002  0.1249987E+03  0.7818608E-02  0.1235071E+00
         -4   -1    0    0    0  501 -0.00000000000E+00  0.00000000000E+00  0.50571138859E+03  0.50571298327E+03  0.12700000000E+01 0.  1.
          4   -1    0    0  501    0  0.00000000000E+00 -0.00000000000E+00 -0.76702798362E+01  0.77747085326E+01  0.12700000000E+01 0.  1.
         25    2    1    2    0    0  0.00000000000E+00  0.00000000000E+00  0.49804110876E+03  0.51348769181E+03  0.12499865450E+03 0.  0.
    9000005    1    3    3    0    0 -0.11016644989E+02 -0.43944941478E+02  0.72205026963E+02  0.85247230260E+02  0.10000000000E+01 0.  0.
    9000005    1    3    3    0    0  0.11016644989E+02  0.43944941478E+02  0.42583608179E+03  0.42824046155E+03  0.10000000000E+01 0.  0.
<mgrwt>
<rscale>  0 0.12499865E+03</rscale>
<asrwt>0</asrwt>
<pdfrwt beam="2">  1        4 0.19308230E-02 0.12499865E+03</pdfrwt>
<pdfrwt beam="1">  1       -4 0.12644109E+00 0.12499865E+03</pdfrwt>
<totfact> 0.85503355E+02</totfact>
</mgrwt>
</event>
<event>
 5    1  0.1440092E-002  0.1250036E+03  0.7818608E-02  0.1235064E+00
          4   -1    0    0  501    0  0.00000000000E+00  0.00000000000E+00  0.28472804269E+03  0.28473087503E+03  0.12700000000E+01 0.  1.
         -4   -1    0    0    0  501 -0.00000000000E+00 -0.00000000000E+00 -0.13687727730E+02  0.13746519211E+02  0.12700000000E+01 0.  1.
         25    2    1    2    0    0  0.00000000000E+00  0.00000000000E+00  0.27104031496E+03  0.29847739424E+03  0.12500361010E+03 0.  0.
    9000005    1    3    3    0    0 -0.79365917031E+01  0.47923520569E+02  0.22939920534E+03  0.23448805667E+03  0.10000000000E+01 0.  0.
    9000005    1    3    3    0    0  0.79365917031E+01 -0.47923520569E+02  0.41641109616E+02  0.63989337562E+02  0.10000000000E+01 0.  0.
<mgrwt>
<rscale>  0 0.12500361E+03</rscale>
<asrwt>0</asrwt>
<pdfrwt beam="1">  1        4 0.71189717E-01 0.12500361E+03</pdfrwt>
<pdfrwt beam="2">  1       -4 0.34296348E-02 0.12500361E+03</pdfrwt>
<totfact> 0.13012761E+03</totfact>
</mgrwt>
</event>
<event>
 5    1  0.1440092E-002  0.1250016E+03  0.7818608E-02  0.1235067E+00
          4   -1    0    0  501    0  0.00000000000E+00  0.00000000000E+00  0.46223648030E+02  0.46241091436E+02  0.12700000000E+01 0.  1.
         -4   -1    0    0    0  501 -0.00000000000E+00 -0.00000000000E+00 -0.84471633831E+02  0.84481180284E+02  0.12700000000E+01 0.  1.
         25    2    1    2    0    0  0.00000000000E+00  0.00000000000E+00 -0.38247985802E+02  0.13072227172E+03  0.12500161561E+03 0.  0.
    9000005    1    3    3    0    0  0.75957227107E+01 -0.39360253530E+02  0.31011958698E+02  0.50691874534E+02  0.10000000000E+01 0.  0.
    9000005    1    3    3    0    0 -0.75957227107E+01  0.39360253530E+02 -0.69259944500E+02  0.80030397185E+02  0.10000000000E+01 0.  0.
<mgrwt>
<rscale>  0 0.12500162E+03</rscale>
<asrwt>0</asrwt>
<pdfrwt beam="1">  1        4 0.11559286E-01 0.12500162E+03</pdfrwt>
<pdfrwt beam="2">  1       -4 0.21121282E-01 0.12500162E+03</pdfrwt>
<totfact> 0.19524896E+03</totfact>
</mgrwt>
</event>
<event>
 5    1  0.1440092E-002  0.1249983E+03  0.7818608E-02  0.1235072E+00
         -4   -1    0    0    0  501 -0.00000000000E+00  0.00000000000E+00  0.43291420590E+03  0.43291606874E+03  0.12700000000E+01 0.  1.
          4   -1    0    0  501    0  0.00000000000E+00 -0.00000000000E+00 -0.89763302157E+01  0.90657268954E+01  0.12700000000E+01 0.  1.
         25    2    1    2    0    0  0.00000000000E+00  0.00000000000E+00  0.42393787569E+03  0.44198179563E+03  0.12499834091E+03 0.  0.
    9000005    1    3    3    0    0 -0.78218328625E+01 -0.57506437876E+02  0.13003249565E+03  0.14239951331E+03  0.10000000000E+01 0.  0.
    9000005    1    3    3    0    0  0.78218328625E+01  0.57506437876E+02  0.29390538004E+03  0.29958228233E+03  0.10000000000E+01 0.  0.
<mgrwt>
<rscale>  0 0.12499834E+03</rscale>
<asrwt>0</asrwt>
<pdfrwt beam="2">  1        4 0.22554900E-02 0.12499834E+03</pdfrwt>
<pdfrwt beam="1">  1       -4 0.10823996E+00 0.12499834E+03</pdfrwt>
<totfact> 0.97478264E+02</totfact>
</mgrwt>
</event>
<event>
 5    1  0.1440092E-002  0.1249988E+03  0.7818608E-02  0.1235071E+00
         -4   -1    0    0    0  501 -0.00000000000E+00  0.00000000000E+00  0.41982808492E+02  0.42002013153E+02  0.12700000000E+01 0. -1.
          4   -1    0    0  501    0  0.00000000000E+00 -0.00000000000E+00 -0.92997492533E+02  0.93006163868E+02  0.12700000000E+01 0. -1.
         25    2    1    2    0    0  0.00000000000E+00  0.00000000000E+00 -0.51014684041E+02  0.13500817702E+03  0.12499883949E+03 0.  0.
    9000005    1    3    3    0    0 -0.25304392992E+02  0.30376391700E+02 -0.77778306907E+02  0.87255386669E+02  0.10000000000E+01 0.  0.
    9000005    1    3    3    0    0  0.25304392992E+02 -0.30376391700E+02  0.26763622866E+02  0.47752790352E+02  0.10000000000E+01 0.  0.
<mgrwt>
<rscale>  0 0.12499884E+03</rscale>
<asrwt>0</asrwt>
<pdfrwt beam="2">  1        4 0.23252857E-01 0.12499884E+03</pdfrwt>
<pdfrwt beam="1">  1       -4 0.10499187E-01 0.12499884E+03</pdfrwt>
<totfact> 0.19299231E+03</totfact>
</mgrwt>
</event>
<event>
 5    1  0.1440092E-002  0.1249972E+03  0.7818608E-02  0.1235074E+00
         -4   -1    0    0    0  501 -0.00000000000E+00  0.00000000000E+00  0.18094606251E+03  0.18095051931E+03  0.12700000000E+01 0. -1.
          4   -1    0    0  501    0  0.00000000000E+00 -0.00000000000E+00 -0.21563549855E+02  0.21600916238E+02  0.12700000000E+01 0. -1.
         25    2    1    2    0    0  0.00000000000E+00  0.00000000000E+00  0.15938251265E+03  0.20255143555E+03  0.12499719478E+03 0.  0.
    9000005    1    3    3    0    0 -0.60577319602E+02  0.14505782633E+02  0.71581680499E+02  0.94894501226E+02  0.10000000000E+01 0.  0.
    9000005    1    3    3    0    0  0.60577319602E+02 -0.14505782633E+02  0.87800832156E+02  0.10765693432E+03  0.10000000000E+01 0.  0.
<mgrwt>
<rscale>  0 0.12499719E+03</rscale>
<asrwt>0</asrwt>
<pdfrwt beam="2">  1        4 0.53961156E-02 0.12499719E+03</pdfrwt>
<pdfrwt beam="1">  1       -4 0.45241742E-01 0.12499719E+03</pdfrwt>
<totfact> 0.16221437E+03</totfact>
</mgrwt>
</event>
<event>
 5    1  0.1440092E-002  0.1249940E+03  0.7818608E-02  0.1235079E+00
         -4   -1    0    0    0  501 -0.00000000000E+00  0.00000000000E+00  0.48368325454E+03  0.48368492185E+03  0.12700000000E+01 0.  1.
          4   -1    0    0  501    0  0.00000000000E+00 -0.00000000000E+00 -0.80236433932E+01  0.81235308396E+01  0.12700000000E+01 0.  1.
         25    2    1    2    0    0  0.00000000000E+00  0.00000000000E+00  0.47565961115E+03  0.49180845269E+03  0.12499395369E+03 0.  0.
    9000005    1    3    3    0    0 -0.54100553868E+02  0.86827484826E+01  0.11961889839E+03  0.13157484904E+03  0.10000000000E+01 0.  0.
    9000005    1    3    3    0    0  0.54100553868E+02 -0.86827484826E+01  0.35604071276E+03  0.36023360364E+03  0.10000000000E+01 0.  0.
<mgrwt>
<rscale>  0 0.12499395E+03</rscale>
<asrwt>0</asrwt>
<pdfrwt beam="2">  1        4 0.20186054E-02 0.12499395E+03</pdfrwt>
<pdfrwt beam="1">  1       -4 0.12093350E+00 0.12499395E+03</pdfrwt>
<totfact> 0.88936463E+02</totfact>
</mgrwt>
</event>
<event>
 5    1  0.1440092E-002  0.1250395E+03  0.7818608E-02  0.1235008E+00
         -4   -1    0    0    0  501 -0.00000000000E+00  0.00000000000E+00  0.31928276285E+03  0.31928528865E+03  0.12700000000E+01 0.  1.
          4   -1    0    0  501    0  0.00000000000E+00 -0.00000000000E+00 -0.12206672307E+02  0.12272560809E+02  0.12700000000E+01 0.  1.
         25    2    1    2    0    0  0.00000000000E+00  0.00000000000E+00  0.30707609054E+03  0.33155784946E+03  0.12503952239E+03 0.  0.
    9000005    1    3    3    0    0  0.46022400625E+02  0.11062662690E+02  0.45266123551E+02  0.65501647357E+02  0.10000000000E+01 0.  0.
    9000005    1    3    3    0    0 -0.46022400625E+02 -0.11062662690E+02  0.26180996699E+03  0.26605620211E+03  0.10000000000E+01 0.  0.
<mgrwt>
<rscale>  0 0.12503952E+03</rscale>
<asrwt>0</asrwt>
<pdfrwt beam="2">  1        4 0.30602197E-02 0.12503952E+03</pdfrwt>
<pdfrwt beam="1">  1       -4 0.79829246E-01 0.12503952E+03</pdfrwt>
<totfact> 0.12119558E+03</totfact>
</mgrwt>
</event>
<event>
 5    1  0.1440092E-002  0.1250028E+03  0.7818608E-02  0.1235065E+00
          4   -1    0    0  501    0  0.00000000000E+00  0.00000000000E+00  0.11651377635E+03  0.11652069764E+03  0.12700000000E+01 0.  1.
         -4   -1    0    0    0  501 -0.00000000000E+00 -0.00000000000E+00 -0.33507643569E+02  0.33531702574E+02  0.12700000000E+01 0.  1.
         25    2    1    2    0    0  0.00000000000E+00  0.00000000000E+00  0.83006132778E+02  0.15005240021E+03  0.12500281889E+03 0.  0.
    9000005    1    3    3    0    0 -0.24619250081E+02 -0.57310896808E+02  0.36888215809E+02  0.72473352573E+02  0.10000000000E+01 0.  0.
    9000005    1    3    3    0    0  0.24619250081E+02  0.57310896808E+02  0.46117916968E+02  0.77579047642E+02  0.10000000000E+01 0.  0.
<mgrwt>
<rscale>  0 0.12500282E+03</rscale>
<asrwt>0</asrwt>
<pdfrwt beam="1">  1        4 0.29132316E-01 0.12500282E+03</pdfrwt>
<pdfrwt beam="2">  1       -4 0.83807836E-02 0.12500282E+03</pdfrwt>
<totfact> 0.18534989E+03</totfact>
</mgrwt>
</event>
<event>
 5    1  0.1440092E-002  0.1250017E+03  0.7818608E-02  0.1235067E+00
         -4   -1    0    0    0  501 -0.00000000000E+00  0.00000000000E+00  0.35810011792E+03  0.35810236994E+03  0.12700000000E+01 0. -1.
          4   -1    0    0  501    0  0.00000000000E+00 -0.00000000000E+00 -0.10869292357E+02  0.10943236100E+02  0.12700000000E+01 0. -1.
         25    2    1    2    0    0  0.00000000000E+00  0.00000000000E+00  0.34723082557E+03  0.36904560604E+03  0.12500165245E+03 0.  0.
    9000005    1    3    3    0    0 -0.54916486926E+01 -0.61703950807E+02  0.14930259682E+03  0.16164715020E+03  0.10000000000E+01 0.  0.
    9000005    1    3    3    0    0  0.54916486926E+01  0.61703950807E+02  0.19792822875E+03  0.20739845584E+03  0.10000000000E+01 0.  0.
<mgrwt>
<rscale>  0 0.12500165E+03</rscale>
<asrwt>0</asrwt>
<pdfrwt beam="2">  1        4 0.27268477E-02 0.12500165E+03</pdfrwt>
<pdfrwt beam="1">  1       -4 0.89534550E-01 0.12500165E+03</pdfrwt>
<totfact> 0.11235474E+03</totfact>
</mgrwt>
</event>
<event>
 5    1  0.1440092E-002  0.1250049E+03  0.7818608E-02  0.1235062E+00
          4   -1    0    0  501    0  0.00000000000E+00  0.00000000000E+00  0.24644065314E+02  0.24676767519E+02  0.12700000000E+01 0.  1.
         -4   -1    0    0    0  501 -0.00000000000E+00 -0.00000000000E+00 -0.15837884783E+03  0.15838393966E+03  0.12700000000E+01 0.  1.
         25    2    1    2    0    0  0.00000000000E+00  0.00000000000E+00 -0.13373478252E+03  0.18306070718E+03  0.12500492173E+03 0.  0.
    9000005    1    3    3    0    0  0.19528618565E+02 -0.19159133237E+02 -0.14915102265E+03  0.15164256291E+03  0.10000000000E+01 0.  0.
    9000005    1    3    3    0    0 -0.19528618565E+02  0.19159133237E+02  0.15416240127E+02  0.31418144266E+02  0.10000000000E+01 0.  0.
<mgrwt>
<rscale>  0 0.12500492E+03</rscale>
<asrwt>0</asrwt>
<pdfrwt beam="1">  1        4 0.61657410E-02 0.12500492E+03</pdfrwt>
<pdfrwt beam="2">  1       -4 0.39599433E-01 0.12500492E+03</pdfrwt>
<totfact> 0.17021593E+03</totfact>
</mgrwt>
</event>
<event>
 5    1  0.1440092E-002  0.1250004E+03  0.7818608E-02  0.1235069E+00
         -4   -1    0    0    0  501 -0.00000000000E+00  0.00000000000E+00  0.10110210038E+02  0.10189663734E+02  0.12700000000E+01 0.  1.
          4   -1    0    0  501    0  0.00000000000E+00 -0.00000000000E+00 -0.38477673267E+03  0.38477882855E+03  0.12700000000E+01 0.  1.
         25    2    1    2    0    0  0.00000000000E+00  0.00000000000E+00 -0.37466652263E+03  0.39496849229E+03  0.12500042688E+03 0.  0.
    9000005    1    3    3    0    0  0.15974539053E+02 -0.55892419063E+02 -0.25980968854E+03  0.26623527689E+03  0.10000000000E+01 0.  0.
    9000005    1    3    3    0    0 -0.15974539053E+02  0.55892419063E+02 -0.11485683409E+03  0.12873321539E+03  0.10000000000E+01 0.  0.
<mgrwt>
<rscale>  0 0.12500043E+03</rscale>
<asrwt>0</asrwt>
<pdfrwt beam="2">  1        4 0.96204328E-01 0.12500043E+03</pdfrwt>
<pdfrwt beam="1">  1       -4 0.25377475E-02 0.12500043E+03</pdfrwt>
<totfact> 0.10673479E+03</totfact>
</mgrwt>
</event>
<event>
 5    1  0.1440092E-002  0.1250071E+03  0.7818608E-02  0.1235058E+00
          4   -1    0    0  501    0  0.00000000000E+00  0.00000000000E+00  0.73288463752E+02  0.73299466704E+02  0.12700000000E+01 0. -1.
         -4   -1    0    0    0  501 -0.00000000000E+00 -0.00000000000E+00 -0.53283176840E+02  0.53298309862E+02  0.12700000000E+01 0. -1.
         25    2    1    2    0    0  0.00000000000E+00  0.00000000000E+00  0.20005286912E+02  0.12659777657E+03  0.12500714190E+03 0.  0.
    9000005    1    3    3    0    0  0.38467530966E+02  0.28688603667E+02  0.50548431786E+02  0.69706031841E+02  0.10000000000E+01 0.  0.
    9000005    1    3    3    0    0 -0.38467530966E+02 -0.28688603667E+02 -0.30543144874E+02  0.56891744725E+02  0.10000000000E+01 0.  0.
<mgrwt>
<rscale>  0 0.12500714E+03</rscale>
<asrwt>0</asrwt>
<pdfrwt beam="1">  1        4 0.18325383E-01 0.12500714E+03</pdfrwt>
<pdfrwt beam="2">  1       -4 0.13324061E-01 0.12500714E+03</pdfrwt>
<totfact> 0.19745353E+03</totfact>
</mgrwt>
</event>
<event>
 5    1  0.1440092E-002  0.1250003E+03  0.7818608E-02  0.1235069E+00
          4   -1    0    0  501    0  0.00000000000E+00  0.00000000000E+00  0.19216768483E+03  0.19217188138E+03  0.12700000000E+01 0. -1.
         -4   -1    0    0    0  501 -0.00000000000E+00 -0.00000000000E+00 -0.20303133162E+02  0.20342814854E+02  0.12700000000E+01 0. -1.
         25    2    1    2    0    0  0.00000000000E+00  0.00000000000E+00  0.17186455167E+03  0.21251469624E+03  0.12500028798E+03 0.  0.
    9000005    1    3    3    0    0 -0.56176120393E+02  0.26893054050E+02  0.94646936408E+02  0.11330505474E+03  0.10000000000E+01 0.  0.
    9000005    1    3    3    0    0  0.56176120393E+02 -0.26893054050E+02  0.77217615263E+02  0.99209641495E+02  0.10000000000E+01 0.  0.
<mgrwt>
<rscale>  0 0.12500029E+03</rscale>
<asrwt>0</asrwt>
<pdfrwt beam="1">  1        4 0.48047406E-01 0.12500029E+03</pdfrwt>
<pdfrwt beam="2">  1       -4 0.50812681E-02 0.12500029E+03</pdfrwt>
<totfact> 0.15832798E+03</totfact>
</mgrwt>
</event>
<event>
 5    1  0.1440092E-002  0.1250042E+03  0.7818608E-02  0.1235063E+00
         -4   -1    0    0    0  501 -0.00000000000E+00  0.00000000000E+00  0.70535683636E+01  0.71669886745E+01  0.12700000000E+01 0.  1.
          4   -1    0    0  501    0  0.00000000000E+00 -0.00000000000E+00 -0.54930334621E+03  0.54930481434E+03  0.12700000000E+01 0.  1.
         25    2    1    2    0    0  0.00000000000E+00  0.00000000000E+00 -0.54224977785E+03  0.55647180302E+03  0.12500418383E+03 0.  0.
    9000005    1    3    3    0    0  0.20844143496E+02 -0.36715198116E+02 -0.47623941323E+03  0.47810821244E+03  0.10000000000E+01 0.  0.
    9000005    1    3    3    0    0 -0.20844143496E+02  0.36715198116E+02 -0.66010364620E+02  0.78363590577E+02  0.10000000000E+01 0.  0.
<mgrwt>
<rscale>  0 0.12500418E+03</rscale>
<asrwt>0</asrwt>
<pdfrwt beam="2">  1        4 0.13734005E+00 0.12500418E+03</pdfrwt>
<pdfrwt beam="1">  1       -4 0.17777550E-02 0.12500418E+03</pdfrwt>
<totfact> 0.79259577E+02</totfact>
</mgrwt>
</event>
<event>
 5    1  0.1440092E-002  0.1249996E+03  0.7818608E-02  0.1235070E+00
         -4   -1    0    0    0  501 -0.00000000000E+00  0.00000000000E+00  0.55073477314E+01  0.56518827867E+01  0.12700000000E+01 0. -1.
          4   -1    0    0  501    0  0.00000000000E+00 -0.00000000000E+00 -0.69994336580E+03  0.69994451796E+03  0.12700000000E+01 0. -1.
         25    2    1    2    0    0  0.00000000000E+00  0.00000000000E+00 -0.69443601807E+03  0.70559640075E+03  0.12499959024E+03 0.  0.
    9000005    1    3    3    0    0  0.50776892103E+02  0.36272036750E+02 -0.36616884568E+03  0.37144929259E+03  0.10000000000E+01 0.  0.
    9000005    1    3    3    0    0 -0.50776892103E+02 -0.36272036750E+02 -0.32826717239E+03  0.33414710816E+03  0.10000000000E+01 0.  0.
<mgrwt>
<rscale>  0 0.12499959E+03</rscale>
<asrwt>0</asrwt>
<pdfrwt beam="2">  1        4 0.17500375E+00 0.12499959E+03</pdfrwt>
<pdfrwt beam="1">  1       -4 0.13950502E-02 0.12499959E+03</pdfrwt>
<totfact> 0.61484748E+02</totfact>
</mgrwt>
</event>
<event>
 5    1  0.1440092E-002  0.1250085E+03  0.7818608E-02  0.1235056E+00
         -4   -1    0    0    0  501 -0.00000000000E+00  0.00000000000E+00  0.14262643380E+03  0.14263208797E+03  0.12700000000E+01 0. -1.
          4   -1    0    0  501    0  0.00000000000E+00 -0.00000000000E+00 -0.27370762541E+02  0.27400210621E+02  0.12700000000E+01 0. -1.
         25    2    1    2    0    0  0.00000000000E+00  0.00000000000E+00  0.11525567125E+03  0.17003229859E+03  0.12500845094E+03 0.  0.
    9000005    1    3    3    0    0 -0.33072333778E+02 -0.38725720017E+02  0.83545502462E+01  0.51616462124E+02  0.10000000000E+01 0.  0.
    9000005    1    3    3    0    0  0.33072333778E+02  0.38725720017E+02  0.10690112101E+03  0.11841583646E+03  0.10000000000E+01 0.  0.
<mgrwt>
<rscale>  0 0.12500845E+03</rscale>
<asrwt>0</asrwt>
<pdfrwt beam="2">  1        4 0.68470786E-02 0.12500845E+03</pdfrwt>
<pdfrwt beam="1">  1       -4 0.35660996E-01 0.12500845E+03</pdfrwt>
<totfact> 0.17592139E+03</totfact>
</mgrwt>
</event>
<event>
 5    1  0.1440092E-002  0.1249904E+03  0.7818608E-02  0.1235084E+00
          4   -1    0    0  501    0  0.00000000000E+00  0.00000000000E+00  0.18861901679E+02  0.18904608828E+02  0.12700000000E+01 0.  1.
         -4   -1    0    0    0  501 -0.00000000000E+00 -0.00000000000E+00 -0.20678672235E+03  0.20679062222E+03  0.12700000000E+01 0.  1.
         25    2    1    2    0    0  0.00000000000E+00  0.00000000000E+00 -0.18792482067E+03  0.22569523105E+03  0.12499039601E+03 0.  0.
    9000005    1    3    3    0    0  0.52000440626E+02  0.86355793780E+01 -0.33369633260E+02  0.62395123851E+02  0.10000000000E+01 0.  0.
    9000005    1    3    3    0    0 -0.52000440626E+02 -0.86355793780E+01 -0.15455518741E+03  0.16330010720E+03  0.10000000000E+01 0.  0.
<mgrwt>
<rscale>  0 0.12499040E+03</rscale>
<asrwt>0</asrwt>
<pdfrwt beam="1">  1        4 0.47213019E-02 0.12499040E+03</pdfrwt>
<pdfrwt beam="2">  1       -4 0.51702499E-01 0.12499040E+03</pdfrwt>
<totfact> 0.15345759E+03</totfact>
</mgrwt>
</event>
<event>
 5    1  0.1440092E-002  0.1249992E+03  0.7818608E-02  0.1235071E+00
         -4   -1    0    0    0  501 -0.00000000000E+00  0.00000000000E+00  0.30603926228E+02  0.30630266088E+02  0.12700000000E+01 0.  1.
          4   -1    0    0  501    0  0.00000000000E+00 -0.00000000000E+00 -0.12755275563E+03  0.12755907796E+03  0.12700000000E+01 0.  1.
         25    2    1    2    0    0  0.00000000000E+00  0.00000000000E+00 -0.96948829402E+02  0.15818934404E+03  0.12499917218E+03 0.  0.
    9000005    1    3    3    0    0 -0.17729015181E+02  0.15523178670E+02  0.24772061500E+02  0.34204416180E+02  0.10000000000E+01 0.  0.
    9000005    1    3    3    0    0  0.17729015181E+02 -0.15523178670E+02 -0.12172089090E+03  0.12398492786E+03  0.10000000000E+01 0.  0.
<mgrwt>
<rscale>  0 0.12499917E+03</rscale>
<asrwt>0</asrwt>
<pdfrwt beam="2">  1        4 0.31892270E-01 0.12499917E+03</pdfrwt>
<pdfrwt beam="1">  1       -4 0.76550647E-02 0.12499917E+03</pdfrwt>
<totfact> 0.18143650E+03</totfact>
</mgrwt>
</event>
<event>
 5    1  0.1440092E-002  0.1250062E+03  0.7818608E-02  0.1235060E+00
          4   -1    0    0  501    0  0.00000000000E+00  0.00000000000E+00  0.28891969327E+02  0.28919868457E+02  0.12700000000E+01 0. -1.
         -4   -1    0    0    0  501 -0.00000000000E+00 -0.00000000000E+00 -0.13511930162E+03  0.13512526992E+03  0.12700000000E+01 0. -1.
         25    2    1    2    0    0  0.00000000000E+00  0.00000000000E+00 -0.10622733230E+03  0.16404513838E+03  0.12500624504E+03 0.  0.
    9000005    1    3    3    0    0 -0.54047068007E+02 -0.49307487018E+01 -0.12448541109E+02  0.55689891530E+02  0.10000000000E+01 0.  0.
    9000005    1    3    3    0    0  0.54047068007E+02  0.49307487018E+01 -0.93778791186E+02  0.10835524685E+03  0.10000000000E+01 0.  0.
<mgrwt>
<rscale>  0 0.12500625E+03</rscale>
<asrwt>0</asrwt>
<pdfrwt beam="1">  1        4 0.72272261E-02 0.12500625E+03</pdfrwt>
<pdfrwt beam="2">  1       -4 0.33784057E-01 0.12500625E+03</pdfrwt>
<totfact> 0.17866438E+03</totfact>
</mgrwt>
</event>
<event>
 5    1  0.1440092E-002  0.1250088E+03  0.7818608E-02  0.1235055E+00
          4   -1    0    0  501    0  0.00000000000E+00  0.00000000000E+00  0.61310435095E+01  0.62611975305E+01  0.12700000000E+01 0.  1.
         -4   -1    0    0    0  501 -0.00000000000E+00 -0.00000000000E+00 -0.63039320711E+03  0.63039448639E+03  0.12700000000E+01 0.  1.
         25    2    1    2    0    0  0.00000000000E+00  0.00000000000E+00 -0.62426216360E+03  0.63665568392E+03  0.12500884355E+03 0.  0.
    9000005    1    3    3    0    0  0.45370622814E+01 -0.57337641460E+02 -0.43663235266E+03  0.44040549662E+03  0.10000000000E+01 0.  0.
    9000005    1    3    3    0    0 -0.45370622814E+01  0.57337641460E+02 -0.18762981093E+03  0.19625018729E+03  0.10000000000E+01 0.  0.
<mgrwt>
<rscale>  0 0.12500884E+03</rscale>
<asrwt>0</asrwt>
<pdfrwt beam="1">  1        4 0.15491922E-02 0.12500884E+03</pdfrwt>
<pdfrwt beam="2">  1       -4 0.15761451E+00 0.12500884E+03</pdfrwt>
<totfact> 0.69045087E+02</totfact>
</mgrwt>
</event>
<event>
 5    1  0.1440092E-002  0.1249650E+03  0.7818608E-02  0.1235124E+00
          4   -1    0    0  501    0  0.00000000000E+00  0.00000000000E+00  0.19745419950E+03  0.19745828369E+03  0.12700000000E+01 0. -1.
         -4   -1    0    0    0  501 -0.00000000000E+00 -0.00000000000E+00 -0.19747299278E+02  0.19788095633E+02  0.12700000000E+01 0. -1.
         25    2    1    2    0    0  0.00000000000E+00  0.00000000000E+00  0.17770690022E+03  0.21724637932E+03  0.12496498287E+03 0.  0.
    9000005    1    3    3    0    0 -0.28379365016E+02  0.46652420348E+02  0.36088311504E+02  0.65461461260E+02  0.10000000000E+01 0.  0.
    9000005    1    3    3    0    0  0.28379365016E+02 -0.46652420348E+02  0.14161858871E+03  0.15178491807E+03  0.10000000000E+01 0.  0.
<mgrwt>
<rscale>  0 0.12496498E+03</rscale>
<asrwt>0</asrwt>
<pdfrwt beam="1">  1        4 0.49369160E-01 0.12496498E+03</pdfrwt>
<pdfrwt beam="2">  1       -4 0.49424349E-02 0.12496498E+03</pdfrwt>
<totfact> 0.15666652E+03</totfact>
</mgrwt>
</event>
<event>
 5    1  0.1440092E-002  0.1249993E+03  0.7818608E-02  0.1235070E+00
         -4   -1    0    0    0  501 -0.00000000000E+00  0.00000000000E+00  0.17168227589E+03  0.17168697317E+03  0.12700000000E+01 0.  1.
          4   -1    0    0  501    0  0.00000000000E+00 -0.00000000000E+00 -0.22729800006E+02  0.22765252213E+02  0.12700000000E+01 0.  1.
         25    2    1    2    0    0  0.00000000000E+00  0.00000000000E+00  0.14895247588E+03  0.19445222538E+03  0.12499931153E+03 0.  0.
    9000005    1    3    3    0    0  0.94945920775E+01  0.71119505750E+01 -0.20969773646E+02  0.24113451152E+02  0.10000000000E+01 0.  0.
    9000005    1    3    3    0    0 -0.94945920775E+01 -0.71119505750E+01  0.16992224953E+03  0.17033877423E+03  0.10000000000E+01 0.  0.
<mgrwt>
<rscale>  0 0.12499931E+03</rscale>
<asrwt>0</asrwt>
<pdfrwt beam="2">  1        4 0.56874687E-02 0.12499931E+03</pdfrwt>
<pdfrwt beam="1">  1       -4 0.42925588E-01 0.12499931E+03</pdfrwt>
<totfact> 0.16546883E+03</totfact>
</mgrwt>
</event>
<event>
 5    1  0.1440092E-002  0.1250015E+03  0.7818608E-02  0.1235067E+00
          4   -1    0    0  501    0  0.00000000000E+00  0.00000000000E+00  0.22915800324E+02  0.22950965219E+02  0.12700000000E+01 0. -1.
         -4   -1    0    0    0  501 -0.00000000000E+00 -0.00000000000E+00 -0.17029691337E+03  0.17030164886E+03  0.12700000000E+01 0. -1.
         25    2    1    2    0    0  0.00000000000E+00  0.00000000000E+00 -0.14738111305E+03  0.19325261408E+03  0.12500152145E+03 0.  0.
    9000005    1    3    3    0    0 -0.19905873026E+02  0.55609896887E+02 -0.10524720798E+03  0.12069249852E+03  0.10000000000E+01 0.  0.
    9000005    1    3    3    0    0  0.19905873026E+02 -0.55609896887E+02 -0.42133905070E+02  0.72560115553E+02  0.10000000000E+01 0.  0.
<mgrwt>
<rscale>  0 0.12500152E+03</rscale>
<asrwt>0</asrwt>
<pdfrwt beam="1">  1        4 0.57339381E-02 0.12500152E+03</pdfrwt>
<pdfrwt beam="2">  1       -4 0.42579212E-01 0.12500152E+03</pdfrwt>
<totfact> 0.16595247E+03</totfact>
</mgrwt>
</event>
<event>
 5    1  0.1440092E-002  0.1250032E+03  0.7818608E-02  0.1235064E+00
         -4   -1    0    0    0  501 -0.00000000000E+00  0.00000000000E+00  0.14240235971E+03  0.14240802278E+03  0.12700000000E+01 0. -1.
          4   -1    0    0  501    0  0.00000000000E+00 -0.00000000000E+00 -0.27411583284E+02  0.27440987558E+02  0.12700000000E+01 0. -1.
         25    2    1    2    0    0  0.00000000000E+00  0.00000000000E+00  0.11499077643E+03  0.16984901034E+03  0.12500323055E+03 0.  0.
    9000005    1    3    3    0    0 -0.43146752510E+02  0.41535387563E+02  0.33241624321E+02  0.68504279134E+02  0.10000000000E+01 0.  0.
    9000005    1    3    3    0    0  0.43146752510E+02 -0.41535387563E+02  0.81749152106E+02  0.10134473120E+03  0.10000000000E+01 0.  0.
<mgrwt>
<rscale>  0 0.12500323E+03</rscale>
<asrwt>0</asrwt>
<pdfrwt beam="2">  1        4 0.68572794E-02 0.12500323E+03</pdfrwt>
<pdfrwt beam="1">  1       -4 0.35604973E-01 0.12500323E+03</pdfrwt>
<totfact> 0.17602540E+03</totfact>
</mgrwt>
</event>
<event>
 5    1  0.1440092E-002  0.1250007E+03  0.7818608E-02  0.1235068E+00
          4   -1    0    0  501    0  0.00000000000E+00  0.00000000000E+00  0.63880045587E+02  0.63892668783E+02  0.12700000000E+01 0. -1.
         -4   -1    0    0    0  501 -0.00000000000E+00 -0.00000000000E+00 -0.61125198029E+02  0.61138390018E+02  0.12700000000E+01 0. -1.
         25    2    1    2    0    0  0.00000000000E+00  0.00000000000E+00  0.27548475583E+01  0.12503105880E+03  0.12500070592E+03 0.  0.
    9000005    1    3    3    0    0  0.32696820403E+02 -0.72910477593E+01  0.54144879785E+02  0.63678170897E+02  0.10000000000E+01 0.  0.
    9000005    1    3    3    0    0 -0.32696820403E+02  0.72910477593E+01 -0.51390032226E+02  0.61352887904E+02  0.10000000000E+01 0.  0.
<mgrwt>
<rscale>  0 0.12500071E+03</rscale>
<asrwt>0</asrwt>
<pdfrwt beam="1">  1        4 0.15973238E-01 0.12500071E+03</pdfrwt>
<pdfrwt beam="2">  1       -4 0.15284526E-01 0.12500071E+03</pdfrwt>
<totfact> 0.19833043E+03</totfact>
</mgrwt>
</event>
<event>
 5    1  0.1440092E-002  0.1250090E+03  0.7818608E-02  0.1235055E+00
          4   -1    0    0  501    0  0.00000000000E+00  0.00000000000E+00  0.21839544588E+03  0.21839913846E+03  0.12700000000E+01 0.  1.
         -4   -1    0    0    0  501 -0.00000000000E+00 -0.00000000000E+00 -0.17862331870E+02  0.17907423037E+02  0.12700000000E+01 0.  1.
         25    2    1    2    0    0  0.00000000000E+00  0.00000000000E+00  0.20053311401E+03  0.23630656150E+03  0.12500904445E+03 0.  0.
    9000005    1    3    3    0    0 -0.25022036135E+02 -0.27857394686E+02  0.56812601735E+01  0.37886850597E+02  0.10000000000E+01 0.  0.
    9000005    1    3    3    0    0  0.25022036135E+02  0.27857394686E+02  0.19485185384E+03  0.19841971090E+03  0.10000000000E+01 0.  0.
<mgrwt>
<rscale>  0 0.12500904E+03</rscale>
<asrwt>0</asrwt>
<pdfrwt beam="1">  1        4 0.54604959E-01 0.12500904E+03</pdfrwt>
<pdfrwt beam="2">  1       -4 0.44716810E-02 0.12500904E+03</pdfrwt>
<totfact> 0.14961434E+03</totfact>
</mgrwt>
</event>
<event>
 5    1  0.1440092E-002  0.1249983E+03  0.7818608E-02  0.1235072E+00
         -4   -1    0    0    0  501 -0.00000000000E+00  0.00000000000E+00  0.58939459934E+02  0.58953141030E+02  0.12700000000E+01 0. -1.
          4   -1    0    0  501    0  0.00000000000E+00 -0.00000000000E+00 -0.66246376979E+02  0.66258549356E+02  0.12700000000E+01 0. -1.
         25    2    1    2    0    0  0.00000000000E+00  0.00000000000E+00 -0.73069170445E+01  0.12521169039E+03  0.12499830548E+03 0.  0.
    9000005    1    3    3    0    0 -0.25937525426E+02 -0.55080888792E+02 -0.17765963726E+02  0.63429401720E+02  0.10000000000E+01 0.  0.
    9000005    1    3    3    0    0  0.25937525426E+02  0.55080888792E+02  0.10459046681E+02  0.61782288667E+02  0.10000000000E+01 0.  0.
<mgrwt>
<rscale>  0 0.12499831E+03</rscale>
<asrwt>0</asrwt>
<pdfrwt beam="2">  1        4 0.16564826E-01 0.12499831E+03</pdfrwt>
<pdfrwt beam="1">  1       -4 0.14738097E-01 0.12499831E+03</pdfrwt>
<totfact> 0.19824365E+03</totfact>
</mgrwt>
</event>
<event>
 5    1  0.1440092E-002  0.1249971E+03  0.7818608E-02  0.1235074E+00
          4   -1    0    0  501    0  0.00000000000E+00  0.00000000000E+00  0.23689310630E+02  0.23723328985E+02  0.12700000000E+01 0.  1.
         -4   -1    0    0    0  501 -0.00000000000E+00 -0.00000000000E+00 -0.16473258372E+03  0.16473747915E+03  0.12700000000E+01 0.  1.
         25    2    1    2    0    0  0.00000000000E+00  0.00000000000E+00 -0.14104327309E+03  0.18846080814E+03  0.12499708525E+03 0.  0.
    9000005    1    3    3    0    0 -0.56462903410E+02  0.96623367607E+01 -0.10817387468E+03  0.12240918011E+03  0.10000000000E+01 0.  0.
    9000005    1    3    3    0    0  0.56462903410E+02 -0.96623367607E+01 -0.32869398409E+02  0.66051628026E+02  0.10000000000E+01 0.  0.
<mgrwt>
<rscale>  0 0.12499709E+03</rscale>
<asrwt>0</asrwt>
<pdfrwt beam="1">  1        4 0.59271924E-02 0.12499709E+03</pdfrwt>
<pdfrwt beam="2">  1       -4 0.41188007E-01 0.12499709E+03</pdfrwt>
<totfact> 0.16795894E+03</totfact>
</mgrwt>
</event>
<event>
 5    1  0.1440092E-002  0.1249991E+03  0.7818608E-02  0.1235071E+00
          4   -1    0    0  501    0  0.00000000000E+00  0.00000000000E+00  0.37976310257E+03  0.37976522612E+03  0.12700000000E+01 0. -1.
         -4   -1    0    0    0  501 -0.00000000000E+00 -0.00000000000E+00 -0.10244501361E+02  0.10322921492E+02  0.12700000000E+01 0. -1.
         25    2    1    2    0    0  0.00000000000E+00  0.00000000000E+00  0.36951860121E+03  0.39008814761E+03  0.12499906508E+03 0.  0.
    9000005    1    3    3    0    0  0.13317462644E+02  0.59898488164E+01 -0.48608091553E+01  0.15422728869E+02  0.10000000000E+01 0.  0.
    9000005    1    3    3    0    0 -0.13317462644E+02 -0.59898488164E+01  0.37437941036E+03  0.37466541874E+03  0.10000000000E+01 0.  0.
<mgrwt>
<rscale>  0 0.12499907E+03</rscale>
<asrwt>0</asrwt>
<pdfrwt beam="1">  1        4 0.94950841E-01 0.12499907E+03</pdfrwt>
<pdfrwt beam="2">  1       -4 0.25711934E-02 0.12499907E+03</pdfrwt>
<totfact> 0.10776485E+03</totfact>
</mgrwt>
</event>
<event>
 5    1  0.1440092E-002  0.1250000E+03  0.7818608E-02  0.1235069E+00
          4   -1    0    0  501    0  0.00000000000E+00  0.00000000000E+00  0.81124537245E+01  0.82112608917E+01  0.12700000000E+01 0. -1.
         -4   -1    0    0    0  501 -0.00000000000E+00 -0.00000000000E+00 -0.47849821675E+03  0.47849990213E+03  0.12700000000E+01 0. -1.
         25    2    1    2    0    0  0.00000000000E+00  0.00000000000E+00 -0.47038576303E+03  0.48671116302E+03  0.12499996059E+03 0.  0.
    9000005    1    3    3    0    0 -0.56759313264E+02  0.70960989476E+01 -0.13720846491E+03  0.14865778522E+03  0.10000000000E+01 0.  0.
    9000005    1    3    3    0    0  0.56759313264E+02 -0.70960989476E+01 -0.33317729811E+03  0.33805337780E+03  0.10000000000E+01 0.  0.
<mgrwt>
<rscale>  0 0.12499996E+03</rscale>
<asrwt>0</asrwt>
<pdfrwt beam="1">  1        4 0.20406766E-02 0.12499996E+03</pdfrwt>
<pdfrwt beam="2">  1       -4 0.11963702E+00 0.12499996E+03</pdfrwt>
<totfact> 0.89758728E+02</totfact>
</mgrwt>
</event>
<event>
 5    1  0.1440092E-002  0.1249976E+03  0.7818608E-02  0.1235073E+00
          4   -1    0    0  501    0  0.00000000000E+00  0.00000000000E+00  0.70578985293E+02  0.70590410573E+02  0.12700000000E+01 0. -1.
         -4   -1    0    0    0  501 -0.00000000000E+00 -0.00000000000E+00 -0.55320498892E+02  0.55335074751E+02  0.12700000000E+01 0. -1.
         25    2    1    2    0    0  0.00000000000E+00  0.00000000000E+00  0.15258486400E+02  0.12592548532E+03  0.12499762577E+03 0.  0.
    9000005    1    3    3    0    0 -0.44738322355E+02 -0.41176910616E+02  0.22160116568E+02  0.64723459590E+02  0.10000000000E+01 0.  0.
    9000005    1    3    3    0    0  0.44738322355E+02  0.41176910616E+02 -0.69016301677E+01  0.61202025734E+02  0.10000000000E+01 0.  0.
<mgrwt>
<rscale>  0 0.12499763E+03</rscale>
<asrwt>0</asrwt>
<pdfrwt beam="1">  1        4 0.17647996E-01 0.12499763E+03</pdfrwt>
<pdfrwt beam="2">  1       -4 0.13833375E-01 0.12499763E+03</pdfrwt>
<totfact> 0.19786046E+03</totfact>
</mgrwt>
</event>
<event>
 5    1  0.1440092E-002  0.1249944E+03  0.7818608E-02  0.1235078E+00
          4   -1    0    0  501    0  0.00000000000E+00  0.00000000000E+00  0.53931721453E+02  0.53946672547E+02  0.12700000000E+01 0.  1.
         -4   -1    0    0    0  501 -0.00000000000E+00 -0.00000000000E+00 -0.72392468159E+02  0.72403607273E+02  0.12700000000E+01 0.  1.
         25    2    1    2    0    0  0.00000000000E+00  0.00000000000E+00 -0.18460746706E+02  0.12635027982E+03  0.12499437604E+03 0.  0.
    9000005    1    3    3    0    0 -0.46614142676E+01  0.61043407148E+02 -0.21891101651E+02  0.65024969594E+02  0.10000000000E+01 0.  0.
    9000005    1    3    3    0    0  0.46614142676E+01 -0.61043407148E+02  0.34303549447E+01  0.61325310226E+02  0.10000000000E+01 0.  0.
<mgrwt>
<rscale>  0 0.12499438E+03</rscale>
<asrwt>0</asrwt>
<pdfrwt beam="1">  1        4 0.13486192E-01 0.12499438E+03</pdfrwt>
<pdfrwt beam="2">  1       -4 0.18101378E-01 0.12499438E+03</pdfrwt>
<totfact> 0.19764603E+03</totfact>
</mgrwt>
</event>
<event>
 5    1  0.1440092E-002  0.1249985E+03  0.7818608E-02  0.1235072E+00
         -4   -1    0    0    0  501 -0.00000000000E+00  0.00000000000E+00  0.18651607284E+02  0.18694794844E+02  0.12700000000E+01 0.  1.
          4   -1    0    0  501    0  0.00000000000E+00 -0.00000000000E+00 -0.20913990414E+03  0.20914376014E+03  0.12700000000E+01 0.  1.
         25    2    1    2    0    0  0.00000000000E+00  0.00000000000E+00 -0.19048829686E+03  0.22783855498E+03  0.12499846358E+03 0.  0.
    9000005    1    3    3    0    0 -0.61064653699E+02  0.96641215430E+01 -0.78651610461E+02  0.10004680407E+03  0.10000000000E+01 0.  0.
    9000005    1    3    3    0    0  0.61064653699E+02 -0.96641215430E+01 -0.11183668640E+03  0.12779175091E+03  0.10000000000E+01 0.  0.
<mgrwt>
<rscale>  0 0.12499846E+03</rscale>
<asrwt>0</asrwt>
<pdfrwt beam="2">  1        4 0.52290849E-01 0.12499846E+03</pdfrwt>
<pdfrwt beam="1">  1       -4 0.46687829E-02 0.12499846E+03</pdfrwt>
<totfact> 0.15265395E+03</totfact>
</mgrwt>
</event>
<event>
 5    1  0.1440092E-002  0.1250010E+03  0.7818608E-02  0.1235068E+00
          4   -1    0    0  501    0  0.00000000000E+00  0.00000000000E+00  0.13339967565E+02  0.13400284872E+02  0.12700000000E+01 0.  1.
         -4   -1    0    0    0  501 -0.00000000000E+00 -0.00000000000E+00 -0.29210557022E+03  0.29210833102E+03  0.12700000000E+01 0.  1.
         25    2    1    2    0    0  0.00000000000E+00  0.00000000000E+00 -0.27876560266E+03  0.30550861590E+03  0.12500101265E+03 0.  0.
    9000005    1    3    3    0    0 -0.32890497507E+02 -0.45410436900E+02 -0.20682353198E+03  0.21429154437E+03  0.10000000000E+01 0.  0.
    9000005    1    3    3    0    0  0.32890497507E+02  0.45410436900E+02 -0.71942070675E+02  0.91217071531E+02  0.10000000000E+01 0.  0.
<mgrwt>
<rscale>  0 0.12500101E+03</rscale>
<asrwt>0</asrwt>
<pdfrwt beam="1">  1        4 0.33428776E-02 0.12500101E+03</pdfrwt>
<pdfrwt beam="2">  1       -4 0.73034257E-01 0.12500101E+03</pdfrwt>
<totfact> 0.12817764E+03</totfact>
</mgrwt>
</event>
<event>
 5    1  0.1440092E-002  0.1249480E+03  0.7818608E-02  0.1235151E+00
         -4   -1    0    0    0  501 -0.00000000000E+00  0.00000000000E+00  0.39331887640E+01  0.41331433381E+01  0.12700000000E+01 0.  1.
          4   -1    0    0  501    0  0.00000000000E+00 -0.00000000000E+00 -0.96752561352E+03  0.96752644704E+03  0.12700000000E+01 0.  1.
         25    2    1    2    0    0  0.00000000000E+00  0.00000000000E+00 -0.96359242476E+03  0.97165959038E+03  0.12494798326E+03 0.  0.
    9000005    1    3    3    0    0 -0.36851812182E+02 -0.38871985238E+02 -0.73172519556E+03  0.73368375279E+03  0.10000000000E+01 0.  0.
    9000005    1    3    3    0    0  0.36851812182E+02  0.38871985238E+02 -0.23186722920E+03  0.23797583759E+03  0.10000000000E+01 0.  0.
<mgrwt>
<rscale>  0 0.12494798E+03</rscale>
<asrwt>0</asrwt>
<pdfrwt beam="2">  1        4 0.24190571E+00 0.12494798E+03</pdfrwt>
<pdfrwt beam="1">  1       -4 0.10083990E-02 0.12494798E+03</pdfrwt>
<totfact> 0.39094161E+02</totfact>
</mgrwt>
</event>
<event>
 5    1  0.1440092E-002  0.1249999E+03  0.7818608E-02  0.1235069E+00
          4   -1    0    0  501    0  0.00000000000E+00  0.00000000000E+00  0.44845729401E+02  0.44863708557E+02  0.12700000000E+01 0.  1.
         -4   -1    0    0    0  501 -0.00000000000E+00 -0.00000000000E+00 -0.87064006853E+02  0.87073269086E+02  0.12700000000E+01 0.  1.
         25    2    1    2    0    0  0.00000000000E+00  0.00000000000E+00 -0.42218277453E+02  0.13193697764E+03  0.12499993247E+03 0.  0.
    9000005    1    3    3    0    0  0.45291802715E+02  0.40369898518E+02 -0.53059331804E+01  0.60911649349E+02  0.10000000000E+01 0.  0.
    9000005    1    3    3    0    0 -0.45291802715E+02 -0.40369898518E+02 -0.36912344272E+02  0.71025328294E+02  0.10000000000E+01 0.  0.
<mgrwt>
<rscale>  0 0.12499993E+03</rscale>
<asrwt>0</asrwt>
<pdfrwt beam="1">  1        4 0.11214838E-01 0.12499993E+03</pdfrwt>
<pdfrwt beam="2">  1       -4 0.21769407E-01 0.12499993E+03</pdfrwt>
<totfact> 0.19460837E+03</totfact>
</mgrwt>
</event>
<event>
 5    1  0.1440092E-002  0.1250034E+03  0.7818608E-02  0.1235064E+00
          4   -1    0    0  501    0  0.00000000000E+00  0.00000000000E+00  0.51724042655E+02  0.51739631702E+02  0.12700000000E+01 0. -1.
         -4   -1    0    0    0  501 -0.00000000000E+00 -0.00000000000E+00 -0.75492811119E+02  0.75503492838E+02  0.12700000000E+01 0. -1.
         25    2    1    2    0    0  0.00000000000E+00  0.00000000000E+00 -0.23768768464E+02  0.12724312454E+03  0.12500343351E+03 0.  0.
    9000005    1    3    3    0    0 -0.48178299437E+01  0.55221621474E+02 -0.41260165435E+02  0.69108901129E+02  0.10000000000E+01 0.  0.
    9000005    1    3    3    0    0  0.48178299437E+01 -0.55221621474E+02  0.17491396971E+02  0.58134223411E+02  0.10000000000E+01 0.  0.
<mgrwt>
<rscale>  0 0.12500343E+03</rscale>
<asrwt>0</asrwt>
<pdfrwt beam="1">  1        4 0.12934295E-01 0.12500343E+03</pdfrwt>
<pdfrwt beam="2">  1       -4 0.18876487E-01 0.12500343E+03</pdfrwt>
<totfact> 0.19712227E+03</totfact>
</mgrwt>
</event>
<event>
 5    1  0.1440092E-002  0.1250007E+03  0.7818608E-02  0.1235068E+00
         -4   -1    0    0    0  501 -0.00000000000E+00  0.00000000000E+00  0.14116812386E+03  0.14117383644E+03  0.12700000000E+01 0. -1.
          4   -1    0    0  501    0  0.00000000000E+00 -0.00000000000E+00 -0.27650367330E+02  0.27679517942E+02  0.12700000000E+01 0. -1.
         25    2    1    2    0    0  0.00000000000E+00  0.00000000000E+00  0.11351775653E+03  0.16885335438E+03  0.12500069695E+03 0.  0.
    9000005    1    3    3    0    0  0.40740195939E+02  0.15978604589E+01 -0.72160271413E+01  0.41417240020E+02  0.10000000000E+01 0.  0.
    9000005    1    3    3    0    0 -0.40740195939E+02 -0.15978604589E+01  0.12073378367E+03  0.12743611436E+03  0.10000000000E+01 0.  0.
<mgrwt>
<rscale>  0 0.12500070E+03</rscale>
<asrwt>0</asrwt>
<pdfrwt beam="2">  1        4 0.69169500E-02 0.12500070E+03</pdfrwt>
<pdfrwt beam="1">  1       -4 0.35296388E-01 0.12500070E+03</pdfrwt>
<totfact> 0.17648605E+03</totfact>
</mgrwt>
</event>
<event>
 5    1  0.1440092E-002  0.1249989E+03  0.7818608E-02  0.1235071E+00
          4   -1    0    0  501    0  0.00000000000E+00  0.00000000000E+00  0.25931135029E+02  0.25962216082E+02  0.12700000000E+01 0.  1.
         -4   -1    0    0    0  501 -0.00000000000E+00 -0.00000000000E+00 -0.15051262494E+03  0.15051798287E+03  0.12700000000E+01 0.  1.
         25    2    1    2    0    0  0.00000000000E+00  0.00000000000E+00 -0.12458148991E+03  0.17648019895E+03  0.12499885196E+03 0.  0.
    9000005    1    3    3    0    0  0.52917877576E+01 -0.62225787098E+02 -0.59094008640E+02  0.85983448726E+02  0.10000000000E+01 0.  0.
    9000005    1    3    3    0    0 -0.52917877576E+01  0.62225787098E+02 -0.65487481269E+02  0.90496750221E+02  0.10000000000E+01 0.  0.
<mgrwt>
<rscale>  0 0.12499885E+03</rscale>
<asrwt>0</asrwt>
<pdfrwt beam="1">  1        4 0.64873390E-02 0.12499885E+03</pdfrwt>
<pdfrwt beam="2">  1       -4 0.37632709E-01 0.12499885E+03</pdfrwt>
<totfact> 0.17309123E+03</totfact>
</mgrwt>
</event>
<event>
 5    1  0.1440092E-002  0.1250009E+03  0.7818608E-02  0.1235068E+00
          4   -1    0    0  501    0  0.00000000000E+00  0.00000000000E+00  0.45773399429E+02  0.45791014351E+02  0.12700000000E+01 0. -1.
         -4   -1    0    0    0  501 -0.00000000000E+00 -0.00000000000E+00 -0.85301304315E+02  0.85310757926E+02  0.12700000000E+01 0. -1.
         25    2    1    2    0    0  0.00000000000E+00  0.00000000000E+00 -0.39527904886E+02  0.13110177228E+03  0.12500087772E+03 0.  0.
    9000005    1    3    3    0    0  0.39096659011E+02  0.43173707076E+02 -0.43513976726E+02  0.72711648992E+02  0.10000000000E+01 0.  0.
    9000005    1    3    3    0    0 -0.39096659011E+02 -0.43173707076E+02  0.39860718398E+01  0.58390123285E+02  0.10000000000E+01 0.  0.
<mgrwt>
<rscale>  0 0.12500088E+03</rscale>
<asrwt>0</asrwt>
<pdfrwt beam="1">  1        4 0.11446734E-01 0.12500088E+03</pdfrwt>
<pdfrwt beam="2">  1       -4 0.21328709E-01 0.12500088E+03</pdfrwt>
<totfact> 0.19504935E+03</totfact>
</mgrwt>
</event>
<event>
 5    1  0.1440092E-002  0.1249982E+03  0.7818608E-02  0.1235072E+00
          4   -1    0    0  501    0  0.00000000000E+00  0.00000000000E+00  0.23953359056E+03  0.23953695729E+03  0.12700000000E+01 0. -1.
         -4   -1    0    0    0  501 -0.00000000000E+00 -0.00000000000E+00 -0.16279040099E+02  0.16328504113E+02  0.12700000000E+01 0. -1.
         25    2    1    2    0    0  0.00000000000E+00  0.00000000000E+00  0.22325455046E+03  0.25586546140E+03  0.12499816013E+03 0.  0.
    9000005    1    3    3    0    0 -0.31730229846E+02  0.28974391994E+02  0.18748516151E+02  0.46891680876E+02  0.10000000000E+01 0.  0.
    9000005    1    3    3    0    0  0.31730229846E+02 -0.28974391994E+02  0.20450603431E+03  0.20897378053E+03  0.10000000000E+01 0.  0.
<mgrwt>
<rscale>  0 0.12499816E+03</rscale>
<asrwt>0</asrwt>
<pdfrwt beam="1">  1        4 0.59890000E-01 0.12499816E+03</pdfrwt>
<pdfrwt beam="2">  1       -4 0.40763640E-02 0.12499816E+03</pdfrwt>
<totfact> 0.14305490E+03</totfact>
</mgrwt>
</event>
<event>
 5    1  0.1440092E-002  0.1249982E+03  0.7818608E-02  0.1235072E+00
         -4   -1    0    0    0  501 -0.00000000000E+00  0.00000000000E+00  0.38419201442E+02  0.38440186517E+02  0.12700000000E+01 0. -1.
          4   -1    0    0  501    0  0.00000000000E+00 -0.00000000000E+00 -0.10161875837E+03  0.10162669410E+03  0.12700000000E+01 0. -1.
         25    2    1    2    0    0  0.00000000000E+00  0.00000000000E+00 -0.63199556930E+02  0.14006688061E+03  0.12499818818E+03 0.  0.
    9000005    1    3    3    0    0  0.55855311352E+02  0.15353397983E+02 -0.53302195949E+01  0.58180356451E+02  0.10000000000E+01 0.  0.
    9000005    1    3    3    0    0 -0.55855311352E+02 -0.15353397983E+02 -0.57869337335E+02  0.81886524163E+02  0.10000000000E+01 0.  0.
<mgrwt>
<rscale>  0 0.12499819E+03</rscale>
<asrwt>0</asrwt>
<pdfrwt beam="2">  1        4 0.25408304E-01 0.12499819E+03</pdfrwt>
<pdfrwt beam="1">  1       -4 0.96084156E-02 0.12499819E+03</pdfrwt>
<totfact> 0.19037726E+03</totfact>
</mgrwt>
</event>
<event>
 5    1  0.1440092E-002  0.1250015E+03  0.7818608E-02  0.1235067E+00
          4   -1    0    0  501    0  0.00000000000E+00  0.00000000000E+00  0.78788651712E+02  0.78798886659E+02  0.12700000000E+01 0. -1.
         -4   -1    0    0    0  501 -0.00000000000E+00 -0.00000000000E+00 -0.49558443324E+02  0.49574713360E+02  0.12700000000E+01 0. -1.
         25    2    1    2    0    0  0.00000000000E+00  0.00000000000E+00  0.29230208388E+02  0.12837360002E+03  0.12500150439E+03 0.  0.
    9000005    1    3    3    0    0 -0.18211664111E+02  0.37965192428E+02 -0.32807677522E+02  0.53388802666E+02  0.10000000000E+01 0.  0.
    9000005    1    3    3    0    0  0.18211664111E+02 -0.37965192428E+02  0.62037885910E+02  0.74984797352E+02  0.10000000000E+01 0.  0.
<mgrwt>
<rscale>  0 0.12500150E+03</rscale>
<asrwt>0</asrwt>
<pdfrwt beam="1">  1        4 0.19700476E-01 0.12500150E+03</pdfrwt>
<pdfrwt beam="2">  1       -4 0.12392924E-01 0.12500150E+03</pdfrwt>
<totfact> 0.19651541E+03</totfact>
</mgrwt>
</event>
<event>
 5    1  0.1440092E-002  0.1250023E+03  0.7818608E-02  0.1235066E+00
          4   -1    0    0  501    0  0.00000000000E+00  0.00000000000E+00  0.34065125265E+02  0.34088790816E+02  0.12700000000E+01 0.  1.
         -4   -1    0    0    0  501 -0.00000000000E+00 -0.00000000000E+00 -0.11460725801E+03  0.11461429443E+03  0.12700000000E+01 0.  1.
         25    2    1    2    0    0  0.00000000000E+00  0.00000000000E+00 -0.80542132744E+02  0.14870308525E+03  0.12500228964E+03 0.  0.
    9000005    1    3    3    0    0  0.52204664289E+02 -0.11074273093E+02 -0.15874446297E+01  0.53399311592E+02  0.10000000000E+01 0.  0.
    9000005    1    3    3    0    0 -0.52204664289E+02  0.11074273093E+02 -0.78954688114E+02  0.95303773657E+02  0.10000000000E+01 0.  0.
<mgrwt>
<rscale>  0 0.12500229E+03</rscale>
<asrwt>0</asrwt>
<pdfrwt beam="1">  1        4 0.85201193E-02 0.12500229E+03</pdfrwt>
<pdfrwt beam="2">  1       -4 0.28655651E-01 0.12500229E+03</pdfrwt>
<totfact> 0.18601743E+03</totfact>
</mgrwt>
</event>
<event>
 5    1  0.1440092E-002  0.1249999E+03  0.7818608E-02  0.1235069E+00
          4   -1    0    0  501    0  0.00000000000E+00  0.00000000000E+00  0.26177179664E+03  0.26177487735E+03  0.12700000000E+01 0. -1.
         -4   -1    0    0    0  501 -0.00000000000E+00 -0.00000000000E+00 -0.14892132538E+02  0.14946187190E+02  0.12700000000E+01 0. -1.
         25    2    1    2    0    0  0.00000000000E+00  0.00000000000E+00  0.24687966410E+03  0.27672106455E+03  0.12499991607E+03 0.  0.
    9000005    1    3    3    0    0  0.41886809465E+02 -0.37700147043E+02  0.18322961082E+03  0.19170262433E+03  0.10000000000E+01 0.  0.
    9000005    1    3    3    0    0 -0.41886809465E+02  0.37700147043E+02  0.63650053280E+02  0.85018440216E+02  0.10000000000E+01 0.  0.
<mgrwt>
<rscale>  0 0.12499992E+03</rscale>
<asrwt>0</asrwt>
<pdfrwt beam="1">  1        4 0.65450090E-01 0.12499992E+03</pdfrwt>
<pdfrwt beam="2">  1       -4 0.37301751E-02 0.12499992E+03</pdfrwt>
<totfact> 0.13649549E+03</totfact>
</mgrwt>
</event>
<event>
 5    1  0.1440092E-002  0.1250434E+03  0.7818608E-02  0.1235001E+00
         -4   -1    0    0    0  501 -0.00000000000E+00  0.00000000000E+00  0.14677662365E+03  0.14678211795E+03  0.12700000000E+01 0. -1.
          4   -1    0    0  501    0  0.00000000000E+00 -0.00000000000E+00 -0.26610913608E+02  0.26641201607E+02  0.12700000000E+01 0. -1.
         25    2    1    2    0    0  0.00000000000E+00  0.00000000000E+00  0.12016571004E+03  0.17342331956E+03  0.12504339206E+03 0.  0.
    9000005    1    3    3    0    0  0.62237933116E+02 -0.52625565301E+01  0.56490890099E+02  0.84222772953E+02  0.10000000000E+01 0.  0.
    9000005    1    3    3    0    0 -0.62237933116E+02  0.52625565301E+01  0.63674819944E+02  0.89200546606E+02  0.10000000000E+01 0.  0.
<mgrwt>
<rscale>  0 0.12504339E+03</rscale>
<asrwt>0</asrwt>
<pdfrwt beam="2">  1        4 0.66572013E-02 0.12504339E+03</pdfrwt>
<pdfrwt beam="1">  1       -4 0.36698628E-01 0.12504339E+03</pdfrwt>
<totfact> 0.17426186E+03</totfact>
</mgrwt>
</event>
<event>
 5    1  0.1440092E-002  0.1250015E+03  0.7818608E-02  0.1235067E+00
          4   -1    0    0  501    0  0.00000000000E+00  0.00000000000E+00  0.64428457386E+02  0.64440973155E+02  0.12700000000E+01 0. -1.
         -4   -1    0    0    0  501 -0.00000000000E+00 -0.00000000000E+00 -0.60605674020E+02  0.60618979069E+02  0.12700000000E+01 0. -1.
         25    2    1    2    0    0  0.00000000000E+00  0.00000000000E+00  0.38227833660E+01  0.12505995222E+03  0.12500151190E+03 0.  0.
    9000005    1    3    3    0    0 -0.11431933291E+02  0.31816049244E+02 -0.50671665876E+02  0.60922637918E+02  0.10000000000E+01 0.  0.
    9000005    1    3    3    0    0  0.11431933291E+02 -0.31816049244E+02  0.54494449242E+02  0.64137314306E+02  0.10000000000E+01 0.  0.
<mgrwt>
<rscale>  0 0.12500151E+03</rscale>
<asrwt>0</asrwt>
<pdfrwt beam="1">  1        4 0.16110342E-01 0.12500151E+03</pdfrwt>
<pdfrwt beam="2">  1       -4 0.15154646E-01 0.12500151E+03</pdfrwt>
<totfact> 0.19831103E+03</totfact>
</mgrwt>
</event>
<event>
 5    1  0.1440092E-002  0.1250002E+03  0.7818608E-02  0.1235069E+00
         -4   -1    0    0    0  501 -0.00000000000E+00  0.00000000000E+00  0.43071614746E+01  0.44904944013E+01  0.12700000000E+01 0.  1.
          4   -1    0    0  501    0  0.00000000000E+00 -0.00000000000E+00 -0.88783906210E+03  0.88783997043E+03  0.12700000000E+01 0.  1.
         25    2    1    2    0    0  0.00000000000E+00  0.00000000000E+00 -0.88353190062E+03  0.89233046483E+03  0.12500015616E+03 0.  0.
    9000005    1    3    3    0    0  0.20580209155E+01  0.60849966411E+02 -0.54229301004E+03  0.54570107440E+03  0.10000000000E+01 0.  0.
    9000005    1    3    3    0    0 -0.20580209155E+01 -0.60849966411E+02 -0.34123889059E+03  0.34662939043E+03  0.10000000000E+01 0.  0.
<mgrwt>
<rscale>  0 0.12500016E+03</rscale>
<asrwt>0</asrwt>
<pdfrwt beam="2">  1        4 0.22198218E+00 0.12500016E+03</pdfrwt>
<pdfrwt beam="1">  1       -4 0.10998236E-02 0.12500016E+03</pdfrwt>
<totfact> 0.44863233E+02</totfact>
</mgrwt>
</event>
<event>
 5    1  0.1440092E-002  0.1249997E+03  0.7818608E-02  0.1235070E+00
          4   -1    0    0  501    0  0.00000000000E+00  0.00000000000E+00  0.60106450111E+02  0.60119865643E+02  0.12700000000E+01 0. -1.
         -4   -1    0    0    0  501 -0.00000000000E+00 -0.00000000000E+00 -0.64961671750E+02  0.64974084807E+02  0.12700000000E+01 0. -1.
         25    2    1    2    0    0  0.00000000000E+00  0.00000000000E+00 -0.48552216393E+01  0.12509395045E+03  0.12499969305E+03 0.  0.
    9000005    1    3    3    0    0  0.50220727988E+02  0.28018324644E+02  0.22046561320E+02  0.61597068937E+02  0.10000000000E+01 0.  0.
    9000005    1    3    3    0    0 -0.50220727988E+02 -0.28018324644E+02 -0.26901782959E+02  0.63496881513E+02  0.10000000000E+01 0.  0.
<mgrwt>
<rscale>  0 0.12499969E+03</rscale>
<asrwt>0</asrwt>
<pdfrwt beam="1">  1        4 0.15029841E-01 0.12499969E+03</pdfrwt>
<pdfrwt beam="2">  1       -4 0.16243646E-01 0.12499969E+03</pdfrwt>
<totfact> 0.19830103E+03</totfact>
</mgrwt>
</event>
<event>
 5    1  0.1440092E-002  0.1250000E+03  0.7818608E-02  0.1235069E+00
         -4   -1    0    0    0  501 -0.00000000000E+00  0.00000000000E+00  0.21766937133E+03  0.21767307623E+03  0.12700000000E+01 0. -1.
          4   -1    0    0  501    0  0.00000000000E+00 -0.00000000000E+00 -0.17919455605E+02  0.17964403391E+02  0.12700000000E+01 0. -1.
         25    2    1    2    0    0  0.00000000000E+00  0.00000000000E+00  0.19974991573E+03  0.23563747962E+03  0.12499997188E+03 0.  0.
    9000005    1    3    3    0    0  0.10192244994E+02 -0.43303182693E+02  0.17140728165E+02  0.47684924781E+02  0.10000000000E+01 0.  0.
    9000005    1    3    3    0    0 -0.10192244994E+02  0.43303182693E+02  0.18260918756E+03  0.18795255484E+03  0.10000000000E+01 0.  0.
<mgrwt>
<rscale>  0 0.12499997E+03</rscale>
<asrwt>0</asrwt>
<pdfrwt beam="2">  1        4 0.44859455E-02 0.12499997E+03</pdfrwt>
<pdfrwt beam="1">  1       -4 0.54423425E-01 0.12499997E+03</pdfrwt>
<totfact> 0.14987952E+03</totfact>
</mgrwt>
</event>
<event>
 5    1  0.1440092E-002  0.1250007E+03  0.7818608E-02  0.1235068E+00
          4   -1    0    0  501    0  0.00000000000E+00  0.00000000000E+00  0.49933964919E+02  0.49950112638E+02  0.12700000000E+01 0.  1.
         -4   -1    0    0    0  501 -0.00000000000E+00 -0.00000000000E+00 -0.78195242607E+02  0.78205555214E+02  0.12700000000E+01 0.  1.
         25    2    1    2    0    0  0.00000000000E+00  0.00000000000E+00 -0.28261277688E+02  0.12815566785E+03  0.12500070154E+03 0.  0.
    9000005    1    3    3    0    0 -0.45043293860E+02 -0.18428856367E+02 -0.54321767028E+02  0.72940903763E+02  0.10000000000E+01 0.  0.
    9000005    1    3    3    0    0  0.45043293860E+02  0.18428856367E+02  0.26060489340E+02  0.55214764089E+02  0.10000000000E+01 0.  0.
<mgrwt>
<rscale>  0 0.12500070E+03</rscale>
<asrwt>0</asrwt>
<pdfrwt beam="1">  1        4 0.12486799E-01 0.12500070E+03</pdfrwt>
<pdfrwt beam="2">  1       -4 0.19552118E-01 0.12500070E+03</pdfrwt>
<totfact> 0.19663746E+03</totfact>
</mgrwt>
</event>
<event>
 5    1  0.1440092E-002  0.1249951E+03  0.7818608E-02  0.1235077E+00
         -4   -1    0    0    0  501 -0.00000000000E+00  0.00000000000E+00  0.24123006891E+02  0.24156414499E+02  0.12700000000E+01 0.  1.
          4   -1    0    0  501    0  0.00000000000E+00 -0.00000000000E+00 -0.16176971601E+03  0.16177470111E+03  0.12700000000E+01 0.  1.
         25    2    1    2    0    0  0.00000000000E+00  0.00000000000E+00 -0.13764670912E+03  0.18593111561E+03  0.12499505278E+03 0.  0.
    9000005    1    3    3    0    0  0.58064279441E+02 -0.20027126735E+02 -0.51707675086E+02  0.80294644996E+02  0.10000000000E+01 0.  0.
    9000005    1    3    3    0    0 -0.58064279441E+02  0.20027126735E+02 -0.85939034037E+02  0.10563647061E+03  0.10000000000E+01 0.  0.
<mgrwt>
<rscale>  0 0.12499505E+03</rscale>
<asrwt>0</asrwt>
<pdfrwt beam="2">  1        4 0.40447225E-01 0.12499505E+03</pdfrwt>
<pdfrwt beam="1">  1       -4 0.60355513E-02 0.12499505E+03</pdfrwt>
<totfact> 0.16903263E+03</totfact>
</mgrwt>
</event>
<event>
 5    1  0.1440092E-002  0.1249999E+03  0.7818608E-02  0.1235069E+00
          4   -1    0    0  501    0  0.00000000000E+00  0.00000000000E+00  0.70790833935E+03  0.70790947855E+03  0.12700000000E+01 0. -1.
         -4   -1    0    0    0  501 -0.00000000000E+00 -0.00000000000E+00 -0.54437716140E+01  0.55899507499E+01  0.12700000000E+01 0. -1.
         25    2    1    2    0    0  0.00000000000E+00  0.00000000000E+00  0.70246456774E+03  0.71349942930E+03  0.12499986675E+03 0.  0.
    9000005    1    3    3    0    0  0.38396151467E+02  0.49179639728E+02  0.33118081261E+03  0.33700835606E+03  0.10000000000E+01 0.  0.
    9000005    1    3    3    0    0 -0.38396151467E+02 -0.49179639728E+02  0.37128375512E+03  0.37649107324E+03  0.10000000000E+01 0.  0.
<mgrwt>
<rscale>  0 0.12499987E+03</rscale>
<asrwt>0</asrwt>
<pdfrwt beam="1">  1        4 0.17699550E+00 0.12499987E+03</pdfrwt>
<pdfrwt beam="2">  1       -4 0.13793577E-02 0.12499987E+03</pdfrwt>
<totfact> 0.60672607E+02</totfact>
</mgrwt>
</event>
<event>
 5    1  0.1440092E-002  0.1249865E+03  0.7818608E-02  0.1235090E+00
          4   -1    0    0  501    0  0.00000000000E+00  0.00000000000E+00  0.15852712601E+03  0.15853221307E+03  0.12700000000E+01 0. -1.
         -4   -1    0    0    0  501 -0.00000000000E+00 -0.00000000000E+00 -0.24613728715E+02  0.24646471173E+02  0.12700000000E+01 0. -1.
         25    2    1    2    0    0  0.00000000000E+00  0.00000000000E+00  0.13391339730E+03  0.18317868425E+03  0.12498652882E+03 0.  0.
    9000005    1    3    3    0    0 -0.13249109314E+02  0.47408544544E+02  0.12336371241E+03  0.13282588051E+03  0.10000000000E+01 0.  0.
    9000005    1    3    3    0    0  0.13249109314E+02 -0.47408544544E+02  0.10549684893E+02  0.50352803742E+02  0.10000000000E+01 0.  0.
<mgrwt>
<rscale>  0 0.12498653E+03</rscale>
<asrwt>0</asrwt>
<pdfrwt beam="1">  1        4 0.39636509E-01 0.12498653E+03</pdfrwt>
<pdfrwt beam="2">  1       -4 0.61581610E-02 0.12498653E+03</pdfrwt>
<totfact> 0.17023803E+03</totfact>
</mgrwt>
</event>
<event>
 5    1  0.1440092E-002  0.1249938E+03  0.7818608E-02  0.1235079E+00
          4   -1    0    0  501    0  0.00000000000E+00  0.00000000000E+00  0.70840000508E+02  0.70851383699E+02  0.12700000000E+01 0. -1.
         -4   -1    0    0    0  501 -0.00000000000E+00 -0.00000000000E+00 -0.55113278073E+02  0.55127908721E+02  0.12700000000E+01 0. -1.
         25    2    1    2    0    0  0.00000000000E+00  0.00000000000E+00  0.15726722436E+02  0.12597929242E+03  0.12499380913E+03 0.  0.
    9000005    1    3    3    0    0 -0.39455085998E+02 -0.43395137664E+02 -0.13871010112E+02  0.60276419149E+02  0.10000000000E+01 0.  0.
    9000005    1    3    3    0    0  0.39455085998E+02  0.43395137664E+02  0.29597732548E+02  0.65702873270E+02  0.10000000000E+01 0.  0.
<mgrwt>
<rscale>  0 0.12499381E+03</rscale>
<asrwt>0</asrwt>
<pdfrwt beam="1">  1        4 0.17713252E-01 0.12499381E+03</pdfrwt>
<pdfrwt beam="2">  1       -4 0.13781571E-01 0.12499381E+03</pdfrwt>
<totfact> 0.19784904E+03</totfact>
</mgrwt>
</event>
<event>
 5    1  0.1440092E-002  0.1249989E+03  0.7818608E-02  0.1235071E+00
         -4   -1    0    0    0  501 -0.00000000000E+00  0.00000000000E+00  0.15008383998E+03  0.15008921321E+03  0.12700000000E+01 0.  1.
          4   -1    0    0  501    0  0.00000000000E+00 -0.00000000000E+00 -0.26005309992E+02  0.26036302499E+02  0.12700000000E+01 0.  1.
         25    2    1    2    0    0  0.00000000000E+00  0.00000000000E+00  0.12407852999E+03  0.17612551571E+03  0.12499886272E+03 0.  0.
    9000005    1    3    3    0    0  0.39755770533E+02  0.46562974013E+02  0.44409817463E+02  0.75643001835E+02  0.10000000000E+01 0.  0.
    9000005    1    3    3    0    0 -0.39755770533E+02 -0.46562974013E+02  0.79668712524E+02  0.10048251388E+03  0.10000000000E+01 0.  0.
<mgrwt>
<rscale>  0 0.12499886E+03</rscale>
<asrwt>0</asrwt>
<pdfrwt beam="2">  1        4 0.65058733E-02 0.12499886E+03</pdfrwt>
<pdfrwt beam="1">  1       -4 0.37525505E-01 0.12499886E+03</pdfrwt>
<totfact> 0.17324705E+03</totfact>
</mgrwt>
</event>
<event>
 5    1  0.1440092E-002  0.1250004E+03  0.7818608E-02  0.1235069E+00
         -4   -1    0    0    0  501 -0.00000000000E+00  0.00000000000E+00  0.66794735061E+02  0.66806807526E+02  0.12700000000E+01 0. -1.
          4   -1    0    0  501    0  0.00000000000E+00 -0.00000000000E+00 -0.58457524621E+02  0.58471318480E+02  0.12700000000E+01 0. -1.
         25    2    1    2    0    0  0.00000000000E+00  0.00000000000E+00  0.83372104400E+01  0.12527812601E+03  0.12500039911E+03 0.  0.
    9000005    1    3    3    0    0 -0.12280433996E+02  0.22252560620E+02 -0.53048425038E+02  0.58831291948E+02  0.10000000000E+01 0.  0.
    9000005    1    3    3    0    0  0.12280433996E+02 -0.22252560620E+02  0.61385635478E+02  0.66446834058E+02  0.10000000000E+01 0.  0.
<mgrwt>
<rscale>  0 0.12500040E+03</rscale>
<asrwt>0</asrwt>
<pdfrwt beam="2">  1        4 0.14617615E-01 0.12500040E+03</pdfrwt>
<pdfrwt beam="1">  1       -4 0.16701917E-01 0.12500040E+03</pdfrwt>
<totfact> 0.19819794E+03</totfact>
</mgrwt>
</event>
<event>
 5    1  0.1440092E-002  0.1250012E+03  0.7818608E-02  0.1235067E+00
          4   -1    0    0  501    0  0.00000000000E+00  0.00000000000E+00  0.30311904906E+02  0.30338498299E+02  0.12700000000E+01 0.  1.
         -4   -1    0    0    0  501 -0.00000000000E+00 -0.00000000000E+00 -0.12878472606E+03  0.12879098791E+03  0.12700000000E+01 0.  1.
         25    2    1    2    0    0  0.00000000000E+00  0.00000000000E+00 -0.98472821151E+02  0.15912948620E+03  0.12500118749E+03 0.  0.
    9000005    1    3    3    0    0 -0.14144108428E+02 -0.55265304249E+01 -0.12640649859E+03  0.12731928851E+03  0.10000000000E+01 0.  0.
    9000005    1    3    3    0    0  0.14144108428E+02  0.55265304249E+01  0.27933677440E+02  0.31810197690E+02  0.10000000000E+01 0.  0.
<mgrwt>
<rscale>  0 0.12500119E+03</rscale>
<asrwt>0</asrwt>
<pdfrwt beam="1">  1        4 0.75820835E-02 0.12500119E+03</pdfrwt>
<pdfrwt beam="2">  1       -4 0.32200287E-01 0.12500119E+03</pdfrwt>
<totfact> 0.18098299E+03</totfact>
</mgrwt>
</event>
<event>
 5    1  0.1440092E-002  0.1250006E+03  0.7818608E-02  0.1235068E+00
          4   -1    0    0  501    0  0.00000000000E+00  0.00000000000E+00  0.14583241097E+02  0.14638436422E+02  0.12700000000E+01 0.  1.
         -4   -1    0    0    0  501 -0.00000000000E+00 -0.00000000000E+00 -0.26729871145E+03  0.26730172847E+03  0.12700000000E+01 0.  1.
         25    2    1    2    0    0  0.00000000000E+00  0.00000000000E+00 -0.25271547036E+03  0.28194016489E+03  0.12500059049E+03 0.  0.
    9000005    1    3    3    0    0 -0.20862140168E+02 -0.53533438552E+02 -0.70914871125E+02  0.91274185191E+02  0.10000000000E+01 0.  0.
    9000005    1    3    3    0    0  0.20862140168E+02  0.53533438552E+02 -0.18180059923E+03  0.19066597970E+03  0.10000000000E+01 0.  0.
<mgrwt>
<rscale>  0 0.12500059E+03</rscale>
<asrwt>0</asrwt>
<pdfrwt beam="1">  1        4 0.36530877E-02 0.12500059E+03</pdfrwt>
<pdfrwt beam="2">  1       -4 0.66831939E-01 0.12500059E+03</pdfrwt>
<totfact> 0.13492570E+03</totfact>
</mgrwt>
</event>
<event>
 5    1  0.1440092E-002  0.1249985E+03  0.7818608E-02  0.1235072E+00
         -4   -1    0    0    0  501 -0.00000000000E+00  0.00000000000E+00  0.50739283671E+03  0.50739442610E+03  0.12700000000E+01 0. -1.
          4   -1    0    0  501    0  0.00000000000E+00 -0.00000000000E+00 -0.76444995223E+01  0.77492756402E+01  0.12700000000E+01 0. -1.
         25    2    1    2    0    0  0.00000000000E+00  0.00000000000E+00  0.49974833719E+03  0.51514370174E+03  0.12499853170E+03 0.  0.
    9000005    1    3    3    0    0 -0.30212278673E+02 -0.54517380463E+02  0.23133716979E+03  0.23958884090E+03  0.10000000000E+01 0.  0.
    9000005    1    3    3    0    0  0.30212278673E+02  0.54517380463E+02  0.26841116739E+03  0.27555486085E+03  0.10000000000E+01 0.  0.
<mgrwt>
<rscale>  0 0.12499853E+03</rscale>
<asrwt>0</asrwt>
<pdfrwt beam="2">  1        4 0.19244205E-02 0.12499853E+03</pdfrwt>
<pdfrwt beam="1">  1       -4 0.12686151E+00 0.12499853E+03</pdfrwt>
<totfact> 0.85250265E+02</totfact>
</mgrwt>
</event>
<event>
 5    1  0.1440092E-002  0.1249965E+03  0.7818608E-02  0.1235075E+00
          4   -1    0    0  501    0  0.00000000000E+00  0.00000000000E+00  0.77208358921E+02  0.77218803327E+02  0.12700000000E+01 0. -1.
         -4   -1    0    0    0  501 -0.00000000000E+00 -0.00000000000E+00 -0.50568956820E+02  0.50584901837E+02  0.12700000000E+01 0. -1.
         25    2    1    2    0    0  0.00000000000E+00  0.00000000000E+00  0.26639402101E+02  0.12780370516E+03  0.12499651719E+03 0.  0.
    9000005    1    3    3    0    0  0.14904232653E+02 -0.41970577473E+01 -0.48581512486E+02  0.50999164700E+02  0.10000000000E+01 0.  0.
    9000005    1    3    3    0    0 -0.14904232653E+02  0.41970577473E+01  0.75220914587E+02  0.76804540465E+02  0.10000000000E+01 0.  0.
<mgrwt>
<rscale>  0 0.12499652E+03</rscale>
<asrwt>0</asrwt>
<pdfrwt beam="1">  1        4 0.19305388E-01 0.12499652E+03</pdfrwt>
<pdfrwt beam="2">  1       -4 0.12645538E-01 0.12499652E+03</pdfrwt>
<totfact> 0.19684821E+03</totfact>
</mgrwt>
</event>
<event>
 5    1  0.1440092E-002  0.1249997E+03  0.7818608E-02  0.1235070E+00
          4   -1    0    0  501    0  0.00000000000E+00  0.00000000000E+00  0.32109411836E+01  0.34529760040E+01  0.12700000000E+01 0. -1.
         -4   -1    0    0    0  501 -0.00000000000E+00 -0.00000000000E+00 -0.11721100324E+04  0.11721107204E+04  0.12700000000E+01 0. -1.
         25    2    1    2    0    0  0.00000000000E+00  0.00000000000E+00 -0.11688990912E+04  0.11755636964E+04  0.12499967573E+03 0.  0.
    9000005    1    3    3    0    0  0.53243989168E+02  0.20248149102E+02 -0.82611492704E+03  0.82807715981E+03  0.10000000000E+01 0.  0.
    9000005    1    3    3    0    0 -0.53243989168E+02 -0.20248149102E+02 -0.34278416415E+03  0.34748653659E+03  0.10000000000E+01 0.  0.
<mgrwt>
<rscale>  0 0.12499968E+03</rscale>
<asrwt>0</asrwt>
<pdfrwt beam="1">  1        4 0.83307967E-03 0.12499968E+03</pdfrwt>
<pdfrwt beam="2">  1       -4 0.29305644E+00 0.12499968E+03</pdfrwt>
<totfact> 0.26501529E+02</totfact>
</mgrwt>
</event>
<event>
 5    1  0.1440092E-002  0.1249978E+03  0.7818608E-02  0.1235073E+00
          4   -1    0    0  501    0  0.00000000000E+00  0.00000000000E+00  0.39401677644E+03  0.39401882317E+03  0.12700000000E+01 0.  1.
         -4   -1    0    0    0  501 -0.00000000000E+00 -0.00000000000E+00 -0.98708150188E+01  0.99521801197E+01  0.12700000000E+01 0.  1.
         25    2    1    2    0    0  0.00000000000E+00  0.00000000000E+00  0.38414596142E+03  0.40397100329E+03  0.12499780729E+03 0.  0.
    9000005    1    3    3    0    0 -0.42802515556E+02 -0.21882212204E+02  0.32111251816E+03  0.32469237113E+03  0.10000000000E+01 0.  0.
    9000005    1    3    3    0    0  0.42802515556E+02  0.21882212204E+02  0.63033443254E+02  0.79278632161E+02  0.10000000000E+01 0.  0.
<mgrwt>
<rscale>  0 0.12499781E+03</rscale>
<asrwt>0</asrwt>
<pdfrwt beam="1">  1        4 0.98514613E-01 0.12499781E+03</pdfrwt>
<pdfrwt beam="2">  1       -4 0.24781304E-02 0.12499781E+03</pdfrwt>
<totfact> 0.10488382E+03</totfact>
</mgrwt>
</event>
<event>
 5    1  0.1440092E-002  0.1249992E+03  0.7818608E-02  0.1235071E+00
          4   -1    0    0  501    0  0.00000000000E+00  0.00000000000E+00  0.30736398585E+02  0.30762625018E+02  0.12700000000E+01 0.  1.
         -4   -1    0    0    0  501 -0.00000000000E+00 -0.00000000000E+00 -0.12700349401E+03  0.12700984368E+03  0.12700000000E+01 0.  1.
         25    2    1    2    0    0  0.00000000000E+00  0.00000000000E+00 -0.96267095429E+02  0.15777246870E+03  0.12499919287E+03 0.  0.
    9000005    1    3    3    0    0 -0.27823682898E+02 -0.37834046551E+02 -0.10016918069E+03  0.11063650920E+03  0.10000000000E+01 0.  0.
    9000005    1    3    3    0    0  0.27823682898E+02  0.37834046551E+02  0.39020852596E+01  0.47135959498E+02  0.10000000000E+01 0.  0.
<mgrwt>
<rscale>  0 0.12499919E+03</rscale>
<asrwt>0</asrwt>
<pdfrwt beam="1">  1        4 0.76881720E-02 0.12499919E+03</pdfrwt>
<pdfrwt beam="2">  1       -4 0.31754944E-01 0.12499919E+03</pdfrwt>
<totfact> 0.18163433E+03</totfact>
</mgrwt>
</event>
<event>
 5    1  0.1440092E-002  0.1249988E+03  0.7818608E-02  0.1235071E+00
         -4   -1    0    0    0  501 -0.00000000000E+00  0.00000000000E+00  0.67568681249E+02  0.67580615458E+02  0.12700000000E+01 0. -1.
          4   -1    0    0  501    0  0.00000000000E+00 -0.00000000000E+00 -0.57786446270E+02  0.57800400280E+02  0.12700000000E+01 0. -1.
         25    2    1    2    0    0  0.00000000000E+00  0.00000000000E+00  0.97822349787E+01  0.12538101574E+03  0.12499882794E+03 0.  0.
    9000005    1    3    3    0    0 -0.40644082563E+02  0.36893336553E+02  0.34850768825E+02  0.65027961809E+02  0.10000000000E+01 0.  0.
    9000005    1    3    3    0    0  0.40644082563E+02 -0.36893336553E+02 -0.25068533846E+02  0.60353053929E+02  0.10000000000E+01 0.  0.
<mgrwt>
<rscale>  0 0.12499883E+03</rscale>
<asrwt>0</asrwt>
<pdfrwt beam="2">  1        4 0.14449848E-01 0.12499883E+03</pdfrwt>
<pdfrwt beam="1">  1       -4 0.16895406E-01 0.12499883E+03</pdfrwt>
<totfact> 0.19814949E+03</totfact>
</mgrwt>
</event>
<event>
 5    1  0.1440092E-002  0.1249995E+03  0.7818608E-02  0.1235070E+00
         -4   -1    0    0    0  501 -0.00000000000E+00  0.00000000000E+00  0.56798805794E+02  0.56813002381E+02  0.12700000000E+01 0. -1.
          4   -1    0    0  501    0  0.00000000000E+00 -0.00000000000E+00 -0.68744223325E+02  0.68755953492E+02  0.12700000000E+01 0. -1.
         25    2    1    2    0    0  0.00000000000E+00  0.00000000000E+00 -0.11945417532E+02  0.12556895587E+03  0.12499947872E+03 0.  0.
    9000005    1    3    3    0    0  0.36804862280E+02  0.39948494654E+02  0.25066884934E+02  0.59831670818E+02  0.10000000000E+01 0.  0.
    9000005    1    3    3    0    0 -0.36804862280E+02 -0.39948494654E+02 -0.37012302466E+02  0.65737285055E+02  0.10000000000E+01 0.  0.
<mgrwt>
<rscale>  0 0.12499948E+03</rscale>
<asrwt>0</asrwt>
<pdfrwt beam="2">  1        4 0.17189297E-01 0.12499948E+03</pdfrwt>
<pdfrwt beam="1">  1       -4 0.14202942E-01 0.12499948E+03</pdfrwt>
<totfact> 0.19804472E+03</totfact>
</mgrwt>
</event>
<event>
 5    1  0.1440092E-002  0.1250014E+03  0.7818608E-02  0.1235067E+00
         -4   -1    0    0    0  501 -0.00000000000E+00  0.00000000000E+00  0.56639572724E+02  0.56653809213E+02  0.12700000000E+01 0.  1.
          4   -1    0    0  501    0  0.00000000000E+00 -0.00000000000E+00 -0.68939611506E+02  0.68951308433E+02  0.12700000000E+01 0.  1.
         25    2    1    2    0    0  0.00000000000E+00  0.00000000000E+00 -0.12300038782E+02  0.12560511765E+03  0.12500141849E+03 0.  0.
    9000005    1    3    3    0    0 -0.45282206365E+02 -0.34305202098E+02 -0.32314467622E+02  0.65364745253E+02  0.10000000000E+01 0.  0.
    9000005    1    3    3    0    0  0.45282206365E+02  0.34305202098E+02  0.20014428840E+02  0.60240372393E+02  0.10000000000E+01 0.  0.
<mgrwt>
<rscale>  0 0.12500142E+03</rscale>
<asrwt>0</asrwt>
<pdfrwt beam="2">  1        4 0.17238145E-01 0.12500142E+03</pdfrwt>
<pdfrwt beam="1">  1       -4 0.14163135E-01 0.12500142E+03</pdfrwt>
<totfact> 0.19801617E+03</totfact>
</mgrwt>
</event>
<event>
 5    1  0.1440092E-002  0.1249986E+03  0.7818608E-02  0.1235071E+00
          4   -1    0    0  501    0  0.00000000000E+00  0.00000000000E+00  0.49691215424E+03  0.49691377716E+03  0.12700000000E+01 0. -1.
         -4   -1    0    0    0  501 -0.00000000000E+00 -0.00000000000E+00 -0.78079334400E+01  0.79105451521E+01  0.12700000000E+01 0. -1.
         25    2    1    2    0    0  0.00000000000E+00  0.00000000000E+00  0.48910422080E+03  0.50482432232E+03  0.12499863037E+03 0.  0.
    9000005    1    3    3    0    0 -0.60376516959E+01 -0.10152278114E+02  0.49238249724E+03  0.49252517253E+03  0.10000000000E+01 0.  0.
    9000005    1    3    3    0    0  0.60376516959E+01  0.10152278114E+02 -0.32782764401E+01  0.12299149780E+02  0.10000000000E+01 0.  0.
<mgrwt>
<rscale>  0 0.12499863E+03</rscale>
<asrwt>0</asrwt>
<pdfrwt beam="1">  1        4 0.12424106E+00 0.12499863E+03</pdfrwt>
<pdfrwt beam="2">  1       -4 0.19650128E-02 0.12499863E+03</pdfrwt>
<totfact> 0.86847400E+02</totfact>
</mgrwt>
</event>
<event>
 5    1  0.1440092E-002  0.1249923E+03  0.7818608E-02  0.1235081E+00
         -4   -1    0    0    0  501 -0.00000000000E+00  0.00000000000E+00  0.48424037367E+01  0.50061735836E+01  0.12700000000E+01 0.  1.
          4   -1    0    0  501    0  0.00000000000E+00 -0.00000000000E+00 -0.79299941924E+03  0.79300043620E+03  0.12700000000E+01 0.  1.
         25    2    1    2    0    0  0.00000000000E+00  0.00000000000E+00 -0.78815701550E+03  0.79800660978E+03  0.12499227245E+03 0.  0.
    9000005    1    3    3    0    0 -0.50427184248E+02 -0.11150133964E+01 -0.15857780413E+03  0.16640932704E+03  0.10000000000E+01 0.  0.
    9000005    1    3    3    0    0  0.50427184248E+02  0.11150133964E+01 -0.62957921138E+03  0.63159728274E+03  0.10000000000E+01 0.  0.
<mgrwt>
<rscale>  0 0.12499227E+03</rscale>
<asrwt>0</asrwt>
<pdfrwt beam="2">  1        4 0.19827002E+00 0.12499227E+03</pdfrwt>
<pdfrwt beam="1">  1       -4 0.12312020E-02 0.12499227E+03</pdfrwt>
<totfact> 0.52663995E+02</totfact>
</mgrwt>
</event>
<event>
 5    1  0.1440092E-002  0.1249962E+03  0.7818608E-02  0.1235075E+00
          4   -1    0    0  501    0  0.00000000000E+00  0.00000000000E+00  0.16512809581E+02  0.16561575416E+02  0.12700000000E+01 0. -1.
         -4   -1    0    0    0  501 -0.00000000000E+00 -0.00000000000E+00 -0.23614533385E+03  0.23614874888E+03  0.12700000000E+01 0. -1.
         25    2    1    2    0    0  0.00000000000E+00  0.00000000000E+00 -0.21963252427E+03  0.25271032429E+03  0.12499624910E+03 0.  0.
    9000005    1    3    3    0    0  0.21830291781E+02 -0.48006423253E+02 -0.42039983812E+02  0.67450267247E+02  0.10000000000E+01 0.  0.
    9000005    1    3    3    0    0 -0.21830291781E+02  0.48006423253E+02 -0.17759254045E+03  0.18526005705E+03  0.10000000000E+01 0.  0.
<mgrwt>
<rscale>  0 0.12499625E+03</rscale>
<asrwt>0</asrwt>
<pdfrwt beam="1">  1        4 0.41347258E-02 0.12499625E+03</pdfrwt>
<pdfrwt beam="2">  1       -4 0.59042845E-01 0.12499625E+03</pdfrwt>
<totfact> 0.14409503E+03</totfact>
</mgrwt>
</event>
<event>
 5    1  0.1440092E-002  0.1250446E+03  0.7818608E-02  0.1235000E+00
         -4   -1    0    0    0  501 -0.00000000000E+00  0.00000000000E+00  0.25101349311E+03  0.25101670586E+03  0.12700000000E+01 0. -1.
          4   -1    0    0  501    0  0.00000000000E+00 -0.00000000000E+00 -0.15543809038E+02  0.15595605131E+02  0.12700000000E+01 0. -1.
         25    2    1    2    0    0  0.00000000000E+00  0.00000000000E+00  0.23546968407E+03  0.26661231100E+03  0.12504460107E+03 0.  0.
    9000005    1    3    3    0    0 -0.57855880616E+02 -0.15141927918E+02  0.15655246679E+03  0.16758954550E+03  0.10000000000E+01 0.  0.
    9000005    1    3    3    0    0  0.57855880616E+02  0.15141927918E+02  0.78917217285E+02  0.99022765498E+02  0.10000000000E+01 0.  0.
<mgrwt>
<rscale>  0 0.12504460E+03</rscale>
<asrwt>0</asrwt>
<pdfrwt beam="2">  1        4 0.38928284E-02 0.12504460E+03</pdfrwt>
<pdfrwt beam="1">  1       -4 0.62760249E-01 0.12504460E+03</pdfrwt>
<totfact> 0.13946963E+03</totfact>
</mgrwt>
</event>
<event>
 5    1  0.1440092E-002  0.1249996E+03  0.7818608E-02  0.1235070E+00
          4   -1    0    0  501    0  0.00000000000E+00  0.00000000000E+00  0.56193897384E+02  0.56208246754E+02  0.12700000000E+01 0. -1.
         -4   -1    0    0    0  501 -0.00000000000E+00 -0.00000000000E+00 -0.69484334567E+02  0.69495939811E+02  0.12700000000E+01 0. -1.
         25    2    1    2    0    0  0.00000000000E+00  0.00000000000E+00 -0.13290437183E+02  0.12570418657E+03  0.12499962720E+03 0.  0.
    9000005    1    3    3    0    0 -0.29794782933E+01  0.61683900652E+02 -0.16261849065E+02  0.63868839238E+02  0.10000000000E+01 0.  0.
    9000005    1    3    3    0    0  0.29794782933E+01 -0.61683900652E+02  0.29714118816E+01  0.61835347328E+02  0.10000000000E+01 0.  0.
<mgrwt>
<rscale>  0 0.12499963E+03</rscale>
<asrwt>0</asrwt>
<pdfrwt beam="1">  1        4 0.14051719E-01 0.12499963E+03</pdfrwt>
<pdfrwt beam="2">  1       -4 0.17374328E-01 0.12499963E+03</pdfrwt>
<totfact> 0.19797086E+03</totfact>
</mgrwt>
</event>
<event>
 5    1  0.1440092E-002  0.1249970E+03  0.7818608E-02  0.1235074E+00
         -4   -1    0    0    0  501 -0.00000000000E+00  0.00000000000E+00  0.15385891852E+03  0.15386415993E+03  0.12700000000E+01 0.  1.
          4   -1    0    0  501    0  0.00000000000E+00 -0.00000000000E+00 -0.25365737022E+02  0.25397510009E+02  0.12700000000E+01 0.  1.
         25    2    1    2    0    0  0.00000000000E+00  0.00000000000E+00  0.12849318150E+03  0.17926166993E+03  0.12499699442E+03 0.  0.
    9000005    1    3    3    0    0 -0.60870368400E+02  0.12812344473E+02  0.55677243819E+02  0.83488402784E+02  0.10000000000E+01 0.  0.
    9000005    1    3    3    0    0  0.60870368400E+02 -0.12812344473E+02  0.72815937683E+02  0.95773267151E+02  0.10000000000E+01 0.  0.
<mgrwt>
<rscale>  0 0.12499699E+03</rscale>
<asrwt>0</asrwt>
<pdfrwt beam="2">  1        4 0.63460611E-02 0.12499699E+03</pdfrwt>
<pdfrwt beam="1">  1       -4 0.38469356E-01 0.12499699E+03</pdfrwt>
<totfact> 0.17188417E+03</totfact>
</mgrwt>
</event>
<event>
 5    1  0.1440092E-002  0.1249820E+03  0.7818608E-02  0.1235097E+00
         -4   -1    0    0    0  501 -0.00000000000E+00  0.00000000000E+00  0.34518160162E+02  0.34541515325E+02  0.12700000000E+01 0. -1.
          4   -1    0    0  501    0  0.00000000000E+00 -0.00000000000E+00 -0.11306737082E+03  0.11307450307E+03  0.12700000000E+01 0. -1.
         25    2    1    2    0    0  0.00000000000E+00  0.00000000000E+00 -0.78549210655E+02  0.14761601839E+03  0.12498204027E+03 0.  0.
    9000005    1    3    3    0    0 -0.58659543145E+02 -0.18678542559E+02 -0.26647479286E+02  0.67088882137E+02  0.10000000000E+01 0.  0.
    9000005    1    3    3    0    0  0.58659543145E+02  0.18678542559E+02 -0.51901731369E+02  0.80527136253E+02  0.10000000000E+01 0.  0.
<mgrwt>
<rscale>  0 0.12498204E+03</rscale>
<asrwt>0</asrwt>
<pdfrwt beam="2">  1        4 0.28270653E-01 0.12498204E+03</pdfrwt>
<pdfrwt beam="1">  1       -4 0.86333512E-02 0.12498204E+03</pdfrwt>
<totfact> 0.18664428E+03</totfact>
</mgrwt>
</event>
<event>
 5    1  0.1440092E-002  0.1249989E+03  0.7818608E-02  0.1235071E+00
          4   -1    0    0  501    0  0.00000000000E+00  0.00000000000E+00  0.76988202225E+03  0.76988306975E+03  0.12700000000E+01 0.  1.
         -4   -1    0    0    0  501 -0.00000000000E+00 -0.00000000000E+00 -0.49932006109E+01  0.51521793778E+01  0.12700000000E+01 0.  1.
         25    2    1    2    0    0  0.00000000000E+00  0.00000000000E+00  0.76488882164E+03  0.77503524912E+03  0.12499891167E+03 0.  0.
    9000005    1    3    3    0    0 -0.54367235325E+02  0.19786339390E+01  0.57309548781E+03  0.57567277981E+03  0.10000000000E+01 0.  0.
    9000005    1    3    3    0    0  0.54367235325E+02 -0.19786339390E+01  0.19179333383E+03  0.19936246931E+03  0.10000000000E+01 0.  0.
<mgrwt>
<rscale>  0 0.12499891E+03</rscale>
<asrwt>0</asrwt>
<pdfrwt beam="1">  1        4 0.19249054E+00 0.12499891E+03</pdfrwt>
<pdfrwt beam="2">  1       -4 0.12683032E-02 0.12499891E+03</pdfrwt>
<totfact> 0.54730066E+02</totfact>
</mgrwt>
</event>
<event>
 5    1  0.1440092E-002  0.1250027E+03  0.7818608E-02  0.1235065E+00
          4   -1    0    0  501    0  0.00000000000E+00  0.00000000000E+00  0.26454746592E+02  0.26485213181E+02  0.12700000000E+01 0. -1.
         -4   -1    0    0    0  501 -0.00000000000E+00 -0.00000000000E+00 -0.14754589764E+03  0.14755136329E+03  0.12700000000E+01 0. -1.
         25    2    1    2    0    0  0.00000000000E+00  0.00000000000E+00 -0.12109115105E+03  0.17403657647E+03  0.12500265233E+03 0.  0.
    9000005    1    3    3    0    0 -0.32375628409E+02 -0.52053127863E+02 -0.77466374570E+02  0.98791440035E+02  0.10000000000E+01 0.  0.
    9000005    1    3    3    0    0  0.32375628409E+02  0.52053127863E+02 -0.43624776476E+02  0.75245136439E+02  0.10000000000E+01 0.  0.
<mgrwt>
<rscale>  0 0.12500265E+03</rscale>
<asrwt>0</asrwt>
<pdfrwt beam="1">  1        4 0.66181786E-02 0.12500265E+03</pdfrwt>
<pdfrwt beam="2">  1       -4 0.36890964E-01 0.12500265E+03</pdfrwt>
<totfact> 0.17415431E+03</totfact>
</mgrwt>
</event>
<event>
 5    1  0.1440092E-002  0.1250010E+03  0.7818608E-02  0.1235068E+00
          4   -1    0    0  501    0  0.00000000000E+00  0.00000000000E+00  0.68038376874E+01  0.69213515498E+01  0.12700000000E+01 0. -1.
         -4   -1    0    0    0  501 -0.00000000000E+00 -0.00000000000E+00 -0.56909986649E+03  0.56910128355E+03  0.12700000000E+01 0. -1.
         25    2    1    2    0    0  0.00000000000E+00  0.00000000000E+00 -0.56229602880E+03  0.57602263510E+03  0.12500100856E+03 0.  0.
    9000005    1    3    3    0    0 -0.60451927208E+01 -0.51185438162E+02 -0.11830246801E+03  0.12904637683E+03  0.10000000000E+01 0.  0.
    9000005    1    3    3    0    0  0.60451927208E+01  0.51185438162E+02 -0.44399356079E+03  0.44697625827E+03  0.10000000000E+01 0.  0.
<mgrwt>
<rscale>  0 0.12500101E+03</rscale>
<asrwt>0</asrwt>
<pdfrwt beam="1">  1        4 0.17158277E-02 0.12500101E+03</pdfrwt>
<pdfrwt beam="2">  1       -4 0.14228967E+00 0.12500101E+03</pdfrwt>
<totfact> 0.76603437E+02</totfact>
</mgrwt>
</event>
<event>
 5    1  0.1440092E-002  0.1249983E+03  0.7818608E-02  0.1235072E+00
          4   -1    0    0  501    0  0.00000000000E+00  0.00000000000E+00  0.20840563321E+02  0.20879223633E+02  0.12700000000E+01 0. -1.
         -4   -1    0    0    0  501 -0.00000000000E+00 -0.00000000000E+00 -0.18721539507E+03  0.18721970262E+03  0.12700000000E+01 0. -1.
         25    2    1    2    0    0  0.00000000000E+00  0.00000000000E+00 -0.16637483175E+03  0.20809892626E+03  0.12499831387E+03 0.  0.
    9000005    1    3    3    0    0 -0.48327157613E+02 -0.38082103094E+02 -0.10137765997E+03  0.11859254057E+03  0.10000000000E+01 0.  0.
    9000005    1    3    3    0    0  0.48327157613E+02  0.38082103094E+02 -0.64997171781E+02  0.89506385686E+02  0.10000000000E+01 0.  0.
<mgrwt>
<rscale>  0 0.12499831E+03</rscale>
<asrwt>0</asrwt>
<pdfrwt beam="1">  1        4 0.52155124E-02 0.12499831E+03</pdfrwt>
<pdfrwt beam="2">  1       -4 0.46809215E-01 0.12499831E+03</pdfrwt>
<totfact> 0.16003428E+03</totfact>
</mgrwt>
</event>
<event>
 5    1  0.1440092E-002  0.1249989E+03  0.7818608E-02  0.1235071E+00
         -4   -1    0    0    0  501 -0.00000000000E+00  0.00000000000E+00  0.41717518300E+03  0.41717711611E+03  0.12700000000E+01 0. -1.
          4   -1    0    0  501    0  0.00000000000E+00 -0.00000000000E+00 -0.93183849663E+01  0.94045307369E+01  0.12700000000E+01 0. -1.
         25    2    1    2    0    0  0.00000000000E+00  0.00000000000E+00  0.40785679803E+03  0.42658164685E+03  0.12499893491E+03 0.  0.
    9000005    1    3    3    0    0 -0.91192735298E+01 -0.55029574588E+02  0.10777985700E+03  0.12136273235E+03  0.10000000000E+01 0.  0.
    9000005    1    3    3    0    0  0.91192735298E+01  0.55029574588E+02  0.30007694103E+03  0.30521891450E+03  0.10000000000E+01 0.  0.
<mgrwt>
<rscale>  0 0.12499893E+03</rscale>
<asrwt>0</asrwt>
<pdfrwt beam="2">  1        4 0.23406063E-02 0.12499893E+03</pdfrwt>
<pdfrwt beam="1">  1       -4 0.10430480E+00 0.12499893E+03</pdfrwt>
<totfact> 0.10038038E+03</totfact>
</mgrwt>
</event>
<event>
 5    1  0.1440092E-002  0.1249965E+03  0.7818608E-02  0.1235075E+00
          4   -1    0    0  501    0  0.00000000000E+00  0.00000000000E+00  0.16576120442E+02  0.16624700566E+02  0.12700000000E+01 0. -1.
         -4   -1    0    0    0  501 -0.00000000000E+00 -0.00000000000E+00 -0.23524706199E+03  0.23525049007E+03  0.12700000000E+01 0. -1.
         25    2    1    2    0    0  0.00000000000E+00  0.00000000000E+00 -0.21867094155E+03  0.25187519063E+03  0.12499652386E+03 0.  0.
    9000005    1    3    3    0    0 -0.13362658041E+02 -0.13029730866E+02 -0.22950959503E+03  0.23026938295E+03  0.10000000000E+01 0.  0.
    9000005    1    3    3    0    0  0.13362658041E+02  0.13029730866E+02  0.10838653474E+02  0.21605807680E+02  0.10000000000E+01 0.  0.
<mgrwt>
<rscale>  0 0.12499652E+03</rscale>
<asrwt>0</asrwt>
<pdfrwt beam="1">  1        4 0.41505319E-02 0.12499652E+03</pdfrwt>
<pdfrwt beam="2">  1       -4 0.58818256E-01 0.12499652E+03</pdfrwt>
<totfact> 0.14436970E+03</totfact>
</mgrwt>
</event>
<event>
 5    1  0.1440092E-002  0.1249959E+03  0.7818608E-02  0.1235076E+00
          4   -1    0    0  501    0  0.00000000000E+00  0.00000000000E+00  0.11679485868E+03  0.11680176331E+03  0.12700000000E+01 0.  1.
         -4   -1    0    0    0  501 -0.00000000000E+00 -0.00000000000E+00 -0.33423228496E+02  0.33447348222E+02  0.12700000000E+01 0.  1.
         25    2    1    2    0    0  0.00000000000E+00  0.00000000000E+00  0.83371630179E+02  0.15024911153E+03  0.12499586712E+03 0.  0.
    9000005    1    3    3    0    0 -0.52323382242E+02  0.34124222526E+02  0.39677014850E+02  0.74009893930E+02  0.10000000000E+01 0.  0.
    9000005    1    3    3    0    0  0.52323382242E+02 -0.34124222526E+02  0.43694615329E+02  0.76239217604E+02  0.10000000000E+01 0.  0.
<mgrwt>
<rscale>  0 0.12499587E+03</rscale>
<asrwt>0</asrwt>
<pdfrwt beam="1">  1        4 0.29202592E-01 0.12499587E+03</pdfrwt>
<pdfrwt beam="2">  1       -4 0.83596852E-02 0.12499587E+03</pdfrwt>
<totfact> 0.18528321E+03</totfact>
</mgrwt>
</event>
<event>
 5    1  0.1440092E-002  0.1250006E+03  0.7818608E-02  0.1235068E+00
          4   -1    0    0  501    0  0.00000000000E+00  0.00000000000E+00  0.40894883743E+02  0.40914599061E+02  0.12700000000E+01 0. -1.
         -4   -1    0    0    0  501 -0.00000000000E+00 -0.00000000000E+00 -0.95473299580E+02  0.95481746070E+02  0.12700000000E+01 0. -1.
         25    2    1    2    0    0  0.00000000000E+00  0.00000000000E+00 -0.54578415837E+02  0.13639634513E+03  0.12500063796E+03 0.  0.
    9000005    1    3    3    0    0 -0.22424415697E+02  0.51780115754E+02 -0.56593750165E+02  0.79924260175E+02  0.10000000000E+01 0.  0.
    9000005    1    3    3    0    0  0.22424415697E+02 -0.51780115754E+02  0.20153343278E+01  0.56472084956E+02  0.10000000000E+01 0.  0.
<mgrwt>
<rscale>  0 0.12500064E+03</rscale>
<asrwt>0</asrwt>
<pdfrwt beam="1">  1        4 0.10227241E-01 0.12500064E+03</pdfrwt>
<pdfrwt beam="2">  1       -4 0.23871845E-01 0.12500064E+03</pdfrwt>
<totfact> 0.19225960E+03</totfact>
</mgrwt>
</event>
<event>
 4    1  0.1440092E-002  0.1248842E+03  0.7818608E-02  0.1235250E+00
         -4   -1    0    0    0  501 -0.00000000000E+00  0.00000000000E+00  0.46282119428E+02  0.46299540805E+02  0.12700000000E+01 0. -1.
          4   -1    0    0  501    0  0.00000000000E+00 -0.00000000000E+00 -0.84206444530E+02  0.84216021043E+02  0.12700000000E+01 0. -1.
    9000005    1    1    2    0    0 -0.99913628449E+01  0.61623633669E+02 -0.18078577181E+02  0.65001034691E+02  0.10000000000E+01 0.  0.
    9000005    1    1    2    0    0  0.99913628449E+01 -0.61623633669E+02 -0.19845747921E+02  0.65514527157E+02  0.10000000000E+01 0.  0.
<mgrwt>
<rscale>  0 0.12488418E+03</rscale>
<asrwt>0</asrwt>
<pdfrwt beam="2">  1        4 0.21054986E-01 0.12488418E+03</pdfrwt>
<pdfrwt beam="1">  1       -4 0.11573905E-01 0.12488418E+03</pdfrwt>
<totfact> 0.19589616E+03</totfact>
</mgrwt>
</event>
<event>
 5    1  0.1440092E-002  0.1250005E+03  0.7818608E-02  0.1235069E+00
         -4   -1    0    0    0  501 -0.00000000000E+00  0.00000000000E+00  0.47430282542E+02  0.47447282346E+02  0.12700000000E+01 0. -1.
          4   -1    0    0  501    0  0.00000000000E+00 -0.00000000000E+00 -0.82321724674E+02  0.82331520412E+02  0.12700000000E+01 0. -1.
         25    2    1    2    0    0  0.00000000000E+00  0.00000000000E+00 -0.34891442132E+02  0.12977880276E+03  0.12500049964E+03 0.  0.
    9000005    1    3    3    0    0  0.39849881842E+02 -0.46006733246E+02 -0.27391940257E+01  0.60935505008E+02  0.10000000000E+01 0.  0.
    9000005    1    3    3    0    0 -0.39849881842E+02  0.46006733246E+02 -0.32152248106E+02  0.68843297749E+02  0.10000000000E+01 0.  0.
<mgrwt>
<rscale>  0 0.12500050E+03</rscale>
<asrwt>0</asrwt>
<pdfrwt beam="2">  1        4 0.20583780E-01 0.12500050E+03</pdfrwt>
<pdfrwt beam="1">  1       -4 0.11860920E-01 0.12500050E+03</pdfrwt>
<totfact> 0.19576053E+03</totfact>
</mgrwt>
</event>
<event>
 5    1  0.1440092E-002  0.1249992E+03  0.7818608E-02  0.1235070E+00
         -4   -1    0    0    0  501 -0.00000000000E+00  0.00000000000E+00  0.15836409436E+02  0.15887251613E+02  0.12700000000E+01 0.  1.
          4   -1    0    0  501    0  0.00000000000E+00 -0.00000000000E+00 -0.24621174947E+03  0.24621502489E+03  0.12700000000E+01 0.  1.
         25    2    1    2    0    0  0.00000000000E+00  0.00000000000E+00 -0.23037534004E+03  0.26210227650E+03  0.12499922419E+03 0.  0.
    9000005    1    3    3    0    0 -0.56493040737E+02 -0.73026225261E+01 -0.61302388932E+02  0.83688558574E+02  0.10000000000E+01 0.  0.
    9000005    1    3    3    0    0  0.56493040737E+02  0.73026225261E+01 -0.16907295111E+03  0.17841371792E+03  0.10000000000E+01 0.  0.
<mgrwt>
<rscale>  0 0.12499922E+03</rscale>
<asrwt>0</asrwt>
<pdfrwt beam="2">  1        4 0.61559690E-01 0.12499922E+03</pdfrwt>
<pdfrwt beam="1">  1       -4 0.39658679E-02 0.12499922E+03</pdfrwt>
<totfact> 0.14104145E+03</totfact>
</mgrwt>
</event>
<event>
 5    1  0.1440092E-002  0.1250008E+03  0.7818608E-02  0.1235068E+00
         -4   -1    0    0    0  501 -0.00000000000E+00  0.00000000000E+00  0.67933984475E+01  0.69110898176E+01  0.12700000000E+01 0. -1.
          4   -1    0    0  501    0  0.00000000000E+00 -0.00000000000E+00 -0.56995773696E+03  0.56995915189E+03  0.12700000000E+01 0. -1.
         25    2    1    2    0    0  0.00000000000E+00  0.00000000000E+00 -0.56316433852E+03  0.57687024171E+03  0.12500081437E+03 0.  0.
    9000005    1    3    3    0    0 -0.15849728125E+02 -0.46459133968E+02 -0.46005751520E+03  0.46267005771E+03  0.10000000000E+01 0.  0.
    9000005    1    3    3    0    0  0.15849728125E+02  0.46459133968E+02 -0.10310682332E+03  0.11420018400E+03  0.10000000000E+01 0.  0.
<mgrwt>
<rscale>  0 0.12500081E+03</rscale>
<asrwt>0</asrwt>
<pdfrwt beam="2">  1        4 0.14250416E+00 0.12500081E+03</pdfrwt>
<pdfrwt beam="1">  1       -4 0.17132398E-02 0.12500081E+03</pdfrwt>
<totfact> 0.76491119E+02</totfact>
</mgrwt>
</event>
<event>
 5    1  0.1440092E-002  0.1250005E+03  0.7818608E-02  0.1235068E+00
         -4   -1    0    0    0  501 -0.00000000000E+00  0.00000000000E+00  0.27155317456E+02  0.27184998917E+02  0.12700000000E+01 0.  1.
          4   -1    0    0  501    0  0.00000000000E+00 -0.00000000000E+00 -0.14373854431E+03  0.14374415473E+03  0.12700000000E+01 0.  1.
         25    2    1    2    0    0  0.00000000000E+00  0.00000000000E+00 -0.11658322685E+03  0.17092915365E+03  0.12500050714E+03 0.  0.
    9000005    1    3    3    0    0  0.45333242414E+02  0.73506454615E+01 -0.11624452854E+03  0.12499170082E+03  0.10000000000E+01 0.  0.
    9000005    1    3    3    0    0 -0.45333242414E+02 -0.73506454615E+01 -0.33869831057E+00  0.45937452836E+02  0.10000000000E+01 0.  0.
<mgrwt>
<rscale>  0 0.12500051E+03</rscale>
<asrwt>0</asrwt>
<pdfrwt beam="2">  1        4 0.35939046E-01 0.12500051E+03</pdfrwt>
<pdfrwt beam="1">  1       -4 0.67932412E-02 0.12500051E+03</pdfrwt>
<totfact> 0.17555013E+03</totfact>
</mgrwt>
</event>
<event>
 5    1  0.1440092E-002  0.1250186E+03  0.7818608E-02  0.1235040E+00
          4   -1    0    0  501    0  0.00000000000E+00  0.00000000000E+00  0.94380397762E+02  0.94388942052E+02  0.12700000000E+01 0.  1.
         -4   -1    0    0    0  501 -0.00000000000E+00 -0.00000000000E+00 -0.41380530111E+02  0.41400014158E+02  0.12700000000E+01 0.  1.
         25    2    1    2    0    0  0.00000000000E+00  0.00000000000E+00  0.52999867650E+02  0.13578895621E+03  0.12501861724E+03 0.  0.
    9000005    1    3    3    0    0  0.10878492686E+02 -0.16866574719E+02  0.90790380395E+02  0.92987720254E+02  0.10000000000E+01 0.  0.
    9000005    1    3    3    0    0 -0.10878492686E+02  0.16866574719E+02 -0.37790512744E+02  0.42801235956E+02  0.10000000000E+01 0.  0.
<mgrwt>
<rscale>  0 0.12501862E+03</rscale>
<asrwt>0</asrwt>
<pdfrwt beam="1">  1        4 0.23598603E-01 0.12501862E+03</pdfrwt>
<pdfrwt beam="2">  1       -4 0.10348636E-01 0.12501862E+03</pdfrwt>
<totfact> 0.19249530E+03</totfact>
</mgrwt>
</event>
<event>
 5    1  0.1440092E-002  0.1249982E+03  0.7818608E-02  0.1235072E+00
          4   -1    0    0  501    0  0.00000000000E+00  0.00000000000E+00  0.25206469573E+03  0.25206789508E+03  0.12700000000E+01 0. -1.
         -4   -1    0    0    0  501 -0.00000000000E+00 -0.00000000000E+00 -0.15467248759E+02  0.15519300377E+02  0.12700000000E+01 0. -1.
         25    2    1    2    0    0  0.00000000000E+00  0.00000000000E+00  0.23659744697E+03  0.26758719546E+03  0.12499822104E+03 0.  0.
    9000005    1    3    3    0    0 -0.24963678928E+02  0.28705208733E+02  0.12166001592E+02  0.39952294912E+02  0.10000000000E+01 0.  0.
    9000005    1    3    3    0    0  0.24963678928E+02 -0.28705208733E+02  0.22443144537E+03  0.22763490055E+03  0.10000000000E+01 0.  0.
<mgrwt>
<rscale>  0 0.12499822E+03</rscale>
<asrwt>0</asrwt>
<pdfrwt beam="1">  1        4 0.63023081E-01 0.12499822E+03</pdfrwt>
<pdfrwt beam="2">  1       -4 0.38737185E-02 0.12499822E+03</pdfrwt>
<totfact> 0.13931286E+03</totfact>
</mgrwt>
</event>
<event>
 5    1  0.1440092E-002  0.1250003E+03  0.7818608E-02  0.1235069E+00
          4   -1    0    0  501    0  0.00000000000E+00  0.00000000000E+00  0.12236530812E+03  0.12237189845E+03  0.12700000000E+01 0. -1.
         -4   -1    0    0    0  501 -0.00000000000E+00 -0.00000000000E+00 -0.31902921896E+02  0.31928190138E+02  0.12700000000E+01 0. -1.
         25    2    1    2    0    0  0.00000000000E+00  0.00000000000E+00  0.90462386223E+02  0.15430008859E+03  0.12500029607E+03 0.  0.
    9000005    1    3    3    0    0 -0.45388800421E+02  0.10506278605E+01 -0.77764045033E+01  0.46072980038E+02  0.10000000000E+01 0.  0.
    9000005    1    3    3    0    0  0.45388800421E+02 -0.10506278605E+01  0.98238790726E+02  0.10822710855E+03  0.10000000000E+01 0.  0.
<mgrwt>
<rscale>  0 0.12500030E+03</rscale>
<asrwt>0</asrwt>
<pdfrwt beam="1">  1        4 0.30595309E-01 0.12500030E+03</pdfrwt>
<pdfrwt beam="2">  1       -4 0.79797129E-02 0.12500030E+03</pdfrwt>
<totfact> 0.18329220E+03</totfact>
</mgrwt>
</event>
<event>
 5    1  0.1440092E-002  0.1250036E+03  0.7818608E-02  0.1235064E+00
          4   -1    0    0  501    0  0.00000000000E+00  0.00000000000E+00  0.16758313015E+03  0.16758794232E+03  0.12700000000E+01 0. -1.
         -4   -1    0    0    0  501 -0.00000000000E+00 -0.00000000000E+00 -0.23288220444E+02  0.23322823831E+02  0.12700000000E+01 0. -1.
         25    2    1    2    0    0  0.00000000000E+00  0.00000000000E+00  0.14429490971E+03  0.19091076615E+03  0.12500359861E+03 0.  0.
    9000005    1    3    3    0    0  0.27175243924E+02  0.17039168750E+02  0.15406015617E+03  0.15736695611E+03  0.10000000000E+01 0.  0.
    9000005    1    3    3    0    0 -0.27175243924E+02 -0.17039168750E+02 -0.97652464643E+01  0.33543810048E+02  0.10000000000E+01 0.  0.
<mgrwt>
<rscale>  0 0.12500360E+03</rscale>
<asrwt>0</asrwt>
<pdfrwt beam="1">  1        4 0.41900709E-01 0.12500360E+03</pdfrwt>
<pdfrwt beam="2">  1       -4 0.58269822E-02 0.12500360E+03</pdfrwt>
<totfact> 0.16691186E+03</totfact>
</mgrwt>
</event>
<event>
 5    1  0.1440092E-002  0.1250009E+03  0.7818608E-02  0.1235068E+00
         -4   -1    0    0    0  501 -0.00000000000E+00  0.00000000000E+00  0.79679692537E+02  0.79689813043E+02  0.12700000000E+01 0. -1.
          4   -1    0    0  501    0  0.00000000000E+00 -0.00000000000E+00 -0.49003672148E+02  0.49020126315E+02  0.12700000000E+01 0. -1.
         25    2    1    2    0    0  0.00000000000E+00  0.00000000000E+00  0.30676020389E+02  0.12870993936E+03  0.12500092105E+03 0.  0.
    9000005    1    3    3    0    0  0.18402837328E+02 -0.22782008235E+02  0.72181340123E+02  0.77902696891E+02  0.10000000000E+01 0.  0.
    9000005    1    3    3    0    0 -0.18402837328E+02  0.22782008235E+02 -0.41505319733E+02  0.50807242467E+02  0.10000000000E+01 0.  0.
<mgrwt>
<rscale>  0 0.12500092E+03</rscale>
<asrwt>0</asrwt>
<pdfrwt beam="2">  1        4 0.12254240E-01 0.12500092E+03</pdfrwt>
<pdfrwt beam="1">  1       -4 0.19923245E-01 0.12500092E+03</pdfrwt>
<totfact> 0.19633571E+03</totfact>
</mgrwt>
</event>
<event>
 5    1  0.1440092E-002  0.1249998E+03  0.7818608E-02  0.1235070E+00
         -4   -1    0    0    0  501 -0.00000000000E+00  0.00000000000E+00  0.15021917375E+03  0.15022454214E+03  0.12700000000E+01 0. -1.
          4   -1    0    0  501    0  0.00000000000E+00 -0.00000000000E+00 -0.25982232802E+02  0.26013252803E+02  0.12700000000E+01 0. -1.
         25    2    1    2    0    0  0.00000000000E+00  0.00000000000E+00  0.12423694095E+03  0.17623779494E+03  0.12499977148E+03 0.  0.
    9000005    1    3    3    0    0 -0.20115806331E+02  0.44096468961E+01 -0.21067654113E+02  0.29477732272E+02  0.10000000000E+01 0.  0.
    9000005    1    3    3    0    0  0.20115806331E+02 -0.44096468961E+01  0.14530459506E+03  0.14676006267E+03  0.10000000000E+01 0.  0.
<mgrwt>
<rscale>  0 0.12499977E+03</rscale>
<asrwt>0</asrwt>
<pdfrwt beam="2">  1        4 0.65001070E-02 0.12499977E+03</pdfrwt>
<pdfrwt beam="1">  1       -4 0.37559341E-01 0.12499977E+03</pdfrwt>
<totfact> 0.17319403E+03</totfact>
</mgrwt>
</event>
<event>
 5    1  0.1440092E-002  0.1249963E+03  0.7818608E-02  0.1235075E+00
         -4   -1    0    0    0  501 -0.00000000000E+00  0.00000000000E+00  0.21371031923E+02  0.21408734326E+02  0.12700000000E+01 0. -1.
          4   -1    0    0  501    0  0.00000000000E+00 -0.00000000000E+00 -0.18257074802E+03  0.18257516516E+03  0.12700000000E+01 0. -1.
         25    2    1    2    0    0  0.00000000000E+00  0.00000000000E+00 -0.16119971610E+03  0.20398389948E+03  0.12499633106E+03 0.  0.
    9000005    1    3    3    0    0 -0.23356596844E+02 -0.25688365307E+02  0.41908321239E+01  0.34985508460E+02  0.10000000000E+01 0.  0.
    9000005    1    3    3    0    0  0.23356596844E+02  0.25688365307E+02 -0.16539054822E+03  0.16899839102E+03  0.10000000000E+01 0.  0.
<mgrwt>
<rscale>  0 0.12499633E+03</rscale>
<asrwt>0</asrwt>
<pdfrwt beam="2">  1        4 0.45647947E-01 0.12499633E+03</pdfrwt>
<pdfrwt beam="1">  1       -4 0.53480235E-02 0.12499633E+03</pdfrwt>
<totfact> 0.16165124E+03</totfact>
</mgrwt>
</event>
<event>
 5    1  0.1440092E-002  0.1250002E+03  0.7818608E-02  0.1235069E+00
         -4   -1    0    0    0  501 -0.00000000000E+00  0.00000000000E+00  0.16652042024E+03  0.16652526311E+03  0.12700000000E+01 0. -1.
          4   -1    0    0  501    0  0.00000000000E+00 -0.00000000000E+00 -0.23435790576E+02  0.23470176393E+02  0.12700000000E+01 0. -1.
         25    2    1    2    0    0  0.00000000000E+00  0.00000000000E+00  0.14308462966E+03  0.18999543951E+03  0.12500022316E+03 0.  0.
    9000005    1    3    3    0    0  0.46913577415E+02 -0.37055527605E+02  0.99206773756E+02  0.11583168751E+03  0.10000000000E+01 0.  0.
    9000005    1    3    3    0    0 -0.46913577415E+02  0.37055527605E+02  0.43877855903E+02  0.74163752000E+02  0.10000000000E+01 0.  0.
<mgrwt>
<rscale>  0 0.12500022E+03</rscale>
<asrwt>0</asrwt>
<pdfrwt beam="2">  1        4 0.58638513E-02 0.12500022E+03</pdfrwt>
<pdfrwt beam="1">  1       -4 0.41635008E-01 0.12500022E+03</pdfrwt>
<totfact> 0.16730550E+03</totfact>
</mgrwt>
</event>
<event>
 5    1  0.1440092E-002  0.1250047E+03  0.7818608E-02  0.1235062E+00
          4   -1    0    0  501    0  0.00000000000E+00  0.00000000000E+00  0.27218669476E+03  0.27218965760E+03  0.12700000000E+01 0. -1.
         -4   -1    0    0    0  501 -0.00000000000E+00 -0.00000000000E+00 -0.14321297248E+02  0.14377498213E+02  0.12700000000E+01 0. -1.
         25    2    1    2    0    0  0.00000000000E+00  0.00000000000E+00  0.25786539751E+03  0.28656715581E+03  0.12500468614E+03 0.  0.
    9000005    1    3    3    0    0  0.34456824629E+02  0.30544815627E+01  0.24824901424E+03  0.25064950766E+03  0.10000000000E+01 0.  0.
    9000005    1    3    3    0    0 -0.34456824629E+02 -0.30544815627E+01  0.96163832700E+01  0.35917648146E+02  0.10000000000E+01 0.  0.
<mgrwt>
<rscale>  0 0.12500469E+03</rscale>
<asrwt>0</asrwt>
<pdfrwt beam="1">  1        4 0.68054066E-01 0.12500469E+03</pdfrwt>
<pdfrwt beam="2">  1       -4 0.35877199E-02 0.12500469E+03</pdfrwt>
<totfact> 0.13354632E+03</totfact>
</mgrwt>
</event>
<event>
 5    1  0.1440092E-002  0.1250045E+03  0.7818608E-02  0.1235062E+00
         -4   -1    0    0    0  501 -0.00000000000E+00  0.00000000000E+00  0.90171668641E+02  0.90180611694E+02  0.12700000000E+01 0.  1.
          4   -1    0    0  501    0  0.00000000000E+00 -0.00000000000E+00 -0.43302843944E+02  0.43321463429E+02  0.12700000000E+01 0.  1.
         25    2    1    2    0    0  0.00000000000E+00  0.00000000000E+00  0.46868824698E+02  0.13350207512E+03  0.12500446925E+03 0.  0.
    9000005    1    3    3    0    0 -0.21496143528E+02 -0.40152530614E+01  0.85957438005E+02  0.88701113816E+02  0.10000000000E+01 0.  0.
    9000005    1    3    3    0    0  0.21496143528E+02  0.40152530614E+01 -0.39088613308E+02  0.44800961307E+02  0.10000000000E+01 0.  0.
<mgrwt>
<rscale>  0 0.12500447E+03</rscale>
<asrwt>0</asrwt>
<pdfrwt beam="2">  1        4 0.10829156E-01 0.12500447E+03</pdfrwt>
<pdfrwt beam="1">  1       -4 0.22546362E-01 0.12500447E+03</pdfrwt>
<totfact> 0.19375866E+03</totfact>
</mgrwt>
</event>
<event>
 5    1  0.1440092E-002  0.1250015E+03  0.7818608E-02  0.1235067E+00
          4   -1    0    0  501    0  0.00000000000E+00  0.00000000000E+00  0.45785292506E+03  0.45785468643E+03  0.12700000000E+01 0. -1.
         -4   -1    0    0    0  501 -0.00000000000E+00 -0.00000000000E+00 -0.84828273490E+01  0.85773690508E+01  0.12700000000E+01 0. -1.
         25    2    1    2    0    0  0.00000000000E+00  0.00000000000E+00  0.44937009771E+03  0.46643205548E+03  0.12500151064E+03 0.  0.
    9000005    1    3    3    0    0 -0.56951724281E+02 -0.22335290181E+02  0.27232164530E+03  0.27911009044E+03  0.10000000000E+01 0.  0.
    9000005    1    3    3    0    0  0.56951724281E+02  0.22335290181E+02  0.17704845241E+03  0.18732196504E+03  0.10000000000E+01 0.  0.
<mgrwt>
<rscale>  0 0.12500151E+03</rscale>
<asrwt>0</asrwt>
<pdfrwt beam="1">  1        4 0.11447526E+00 0.12500151E+03</pdfrwt>
<pdfrwt beam="2">  1       -4 0.21327448E-02 0.12500151E+03</pdfrwt>
<totfact> 0.93136723E+02</totfact>
</mgrwt>
</event>
<event>
 5    1  0.1440092E-002  0.1250024E+03  0.7818608E-02  0.1235066E+00
         -4   -1    0    0    0  501 -0.00000000000E+00  0.00000000000E+00  0.96673343959E+03  0.96673427379E+03  0.12700000000E+01 0.  1.
          4   -1    0    0  501    0  0.00000000000E+00 -0.00000000000E+00 -0.39401793862E+01  0.41397963229E+01  0.12700000000E+01 0.  1.
         25    2    1    2    0    0  0.00000000000E+00  0.00000000000E+00  0.96279326020E+03  0.97087407011E+03  0.12500239248E+03 0.  0.
    9000005    1    3    3    0    0  0.27554039587E+02  0.55423651627E+02  0.54838685150E+03  0.55186968132E+03  0.10000000000E+01 0.  0.
    9000005    1    3    3    0    0 -0.27554039587E+02 -0.55423651627E+02  0.41440640870E+03  0.41900438879E+03  0.10000000000E+01 0.  0.
<mgrwt>
<rscale>  0 0.12500239E+03</rscale>
<asrwt>0</asrwt>
<pdfrwt beam="2">  1        4 0.10101012E-02 0.12500239E+03</pdfrwt>
<pdfrwt beam="1">  1       -4 0.24170843E+00 0.12500239E+03</pdfrwt>
<totfact> 0.39100543E+02</totfact>
</mgrwt>
</event>
<event>
 5    1  0.1440092E-002  0.1249957E+03  0.7818608E-02  0.1235076E+00
         -4   -1    0    0    0  501 -0.00000000000E+00  0.00000000000E+00  0.20860890075E+03  0.20861276656E+03  0.12700000000E+01 0.  1.
          4   -1    0    0  501    0  0.00000000000E+00 -0.00000000000E+00 -0.18698373601E+02  0.18741453394E+02  0.12700000000E+01 0.  1.
         25    2    1    2    0    0  0.00000000000E+00  0.00000000000E+00  0.18991052715E+03  0.22735421995E+03  0.12499573196E+03 0.  0.
    9000005    1    3    3    0    0  0.47304569619E+02 -0.29385564409E+02  0.43388698086E+02  0.70603206897E+02  0.10000000000E+01 0.  0.
    9000005    1    3    3    0    0 -0.47304569619E+02  0.29385564409E+02  0.14652182906E+03  0.15675101306E+03  0.10000000000E+01 0.  0.
<mgrwt>
<rscale>  0 0.12499573E+03</rscale>
<asrwt>0</asrwt>
<pdfrwt beam="2">  1        4 0.46804616E-02 0.12499573E+03</pdfrwt>
<pdfrwt beam="1">  1       -4 0.52158093E-01 0.12499573E+03</pdfrwt>
<totfact> 0.15283818E+03</totfact>
</mgrwt>
</event>
<event>
 5    1  0.1440092E-002  0.1250012E+03  0.7818608E-02  0.1235067E+00
          4   -1    0    0  501    0  0.00000000000E+00  0.00000000000E+00  0.27198140139E+03  0.27198436646E+03  0.12700000000E+01 0.  1.
         -4   -1    0    0    0  501 -0.00000000000E+00 -0.00000000000E+00 -0.14331335695E+02  0.14387497448E+02  0.12700000000E+01 0.  1.
         25    2    1    2    0    0  0.00000000000E+00  0.00000000000E+00  0.25765006569E+03  0.28637186391E+03  0.12500115235E+03 0.  0.
    9000005    1    3    3    0    0  0.15800657768E+02  0.58509504437E+02  0.16374228976E+03  0.17460114647E+03  0.10000000000E+01 0.  0.
    9000005    1    3    3    0    0 -0.15800657768E+02 -0.58509504437E+02  0.93907775937E+02  0.11177071744E+03  0.10000000000E+01 0.  0.
<mgrwt>
<rscale>  0 0.12500115E+03</rscale>
<asrwt>0</asrwt>
<pdfrwt beam="1">  1        4 0.68002742E-01 0.12500115E+03</pdfrwt>
<pdfrwt beam="2">  1       -4 0.35902247E-02 0.12500115E+03</pdfrwt>
<totfact> 0.13361439E+03</totfact>
</mgrwt>
</event>
<event>
 5    1  0.1440092E-002  0.1249997E+03  0.7818608E-02  0.1235070E+00
         -4   -1    0    0    0  501 -0.00000000000E+00  0.00000000000E+00  0.38814095857E+02  0.38834867545E+02  0.12700000000E+01 0. -1.
          4   -1    0    0  501    0  0.00000000000E+00 -0.00000000000E+00 -0.10058776333E+03  0.10059578039E+03  0.12700000000E+01 0. -1.
         25    2    1    2    0    0  0.00000000000E+00  0.00000000000E+00 -0.61773667472E+02  0.13943064793E+03  0.12499967836E+03 0.  0.
    9000005    1    3    3    0    0  0.24811465750E+02 -0.50184526430E+02  0.88384914570E-01  0.55991993513E+02  0.10000000000E+01 0.  0.
    9000005    1    3    3    0    0 -0.24811465750E+02  0.50184526430E+02 -0.61862052387E+02  0.83438654419E+02  0.10000000000E+01 0.  0.
<mgrwt>
<rscale>  0 0.12499968E+03</rscale>
<asrwt>0</asrwt>
<pdfrwt beam="2">  1        4 0.25150539E-01 0.12499968E+03</pdfrwt>
<pdfrwt beam="1">  1       -4 0.97071228E-02 0.12499968E+03</pdfrwt>
<totfact> 0.19069650E+03</totfact>
</mgrwt>
</event>
<event>
 5    1  0.1440092E-002  0.1249988E+03  0.7818608E-02  0.1235071E+00
          4   -1    0    0  501    0  0.00000000000E+00  0.00000000000E+00  0.87570901389E+02  0.87580110014E+02  0.12700000000E+01 0. -1.
         -4   -1    0    0    0  501 -0.00000000000E+00 -0.00000000000E+00 -0.44585262599E+02  0.44603346747E+02  0.12700000000E+01 0. -1.
         25    2    1    2    0    0  0.00000000000E+00  0.00000000000E+00  0.42985638790E+02  0.13218345676E+03  0.12499880439E+03 0.  0.
    9000005    1    3    3    0    0 -0.20664842053E+02  0.58514811721E+02  0.29274906492E+02  0.68622438298E+02  0.10000000000E+01 0.  0.
    9000005    1    3    3    0    0  0.20664842053E+02 -0.58514811721E+02  0.13710732298E+02  0.63561018462E+02  0.10000000000E+01 0.  0.
<mgrwt>
<rscale>  0 0.12499880E+03</rscale>
<asrwt>0</asrwt>
<pdfrwt beam="1">  1        4 0.21896137E-01 0.12499880E+03</pdfrwt>
<pdfrwt beam="2">  1       -4 0.11149727E-01 0.12499880E+03</pdfrwt>
<totfact> 0.19448246E+03</totfact>
</mgrwt>
</event>
<event>
 5    1  0.1440092E-002  0.1249984E+03  0.7818608E-02  0.1235072E+00
         -4   -1    0    0    0  501 -0.00000000000E+00  0.00000000000E+00  0.51527164917E+01  0.53069188088E+01  0.12700000000E+01 0. -1.
          4   -1    0    0  501    0  0.00000000000E+00 -0.00000000000E+00 -0.74674467500E+03  0.74674575495E+03  0.12700000000E+01 0. -1.
         25    2    1    2    0    0  0.00000000000E+00  0.00000000000E+00 -0.74159195851E+03  0.75205267376E+03  0.12499836474E+03 0.  0.
    9000005    1    3    3    0    0  0.20635629447E+02 -0.58904410304E+02 -0.38942678003E+03  0.39439799157E+03  0.10000000000E+01 0.  0.
    9000005    1    3    3    0    0 -0.20635629447E+02  0.58904410304E+02 -0.35216517848E+03  0.35765468219E+03  0.10000000000E+01 0.  0.
<mgrwt>
<rscale>  0 0.12499836E+03</rscale>
<asrwt>0</asrwt>
<pdfrwt beam="2">  1        4 0.18670522E+00 0.12499836E+03</pdfrwt>
<pdfrwt beam="1">  1       -4 0.13075920E-02 0.12499836E+03</pdfrwt>
<totfact> 0.56876817E+02</totfact>
</mgrwt>
</event>
<event>
 5    1  0.1440092E-002  0.1249992E+03  0.7818608E-02  0.1235071E+00
         -4   -1    0    0    0  501 -0.00000000000E+00  0.00000000000E+00  0.95468445918E+03  0.95468530391E+03  0.12700000000E+01 0.  1.
          4   -1    0    0  501    0  0.00000000000E+00 -0.00000000000E+00 -0.39921943535E+01  0.41893335694E+01  0.12700000000E+01 0.  1.
         25    2    1    2    0    0  0.00000000000E+00  0.00000000000E+00  0.95069226483E+03  0.95887463748E+03  0.12499915199E+03 0.  0.
    9000005    1    3    3    0    0  0.37494601652E+01 -0.58584953591E+02  0.31100981389E+03  0.31650333265E+03  0.10000000000E+01 0.  0.
    9000005    1    3    3    0    0 -0.37494601652E+01  0.58584953591E+02  0.63968245094E+03  0.64237130484E+03  0.10000000000E+01 0.  0.
<mgrwt>
<rscale>  0 0.12499915E+03</rscale>
<asrwt>0</asrwt>
<pdfrwt beam="2">  1        4 0.10227965E-02 0.12499915E+03</pdfrwt>
<pdfrwt beam="1">  1       -4 0.23869589E+00 0.12499915E+03</pdfrwt>
<totfact> 0.39946044E+02</totfact>
</mgrwt>
</event>
<event>
 5    1  0.1440092E-002  0.1249994E+03  0.7818608E-02  0.1235070E+00
         -4   -1    0    0    0  501 -0.00000000000E+00  0.00000000000E+00  0.33792830151E+02  0.33816686260E+02  0.12700000000E+01 0.  1.
          4   -1    0    0  501    0  0.00000000000E+00 -0.00000000000E+00 -0.11552480893E+03  0.11553178947E+03  0.12700000000E+01 0.  1.
         25    2    1    2    0    0  0.00000000000E+00  0.00000000000E+00 -0.81731978776E+02  0.14934847573E+03  0.12499940339E+03 0.  0.
    9000005    1    3    3    0    0  0.21082352760E+02 -0.14916071410E+02  0.27124563537E+02  0.37465940950E+02  0.10000000000E+01 0.  0.
    9000005    1    3    3    0    0 -0.21082352760E+02  0.14916071410E+02 -0.10885654231E+03  0.11188253478E+03  0.10000000000E+01 0.  0.
<mgrwt>
<rscale>  0 0.12499940E+03</rscale>
<asrwt>0</asrwt>
<pdfrwt beam="2">  1        4 0.28885056E-01 0.12499940E+03</pdfrwt>
<pdfrwt beam="1">  1       -4 0.84520624E-02 0.12499940E+03</pdfrwt>
<totfact> 0.18571121E+03</totfact>
</mgrwt>
</event>
<event>
 5    1  0.1440092E-002  0.1250014E+03  0.7818608E-02  0.1235067E+00
          4   -1    0    0  501    0  0.00000000000E+00  0.00000000000E+00  0.16955590118E+02  0.17003086080E+02  0.12700000000E+01 0.  1.
         -4   -1    0    0    0  501 -0.00000000000E+00 -0.00000000000E+00 -0.23001496078E+03  0.23001846683E+03  0.12700000000E+01 0.  1.
         25    2    1    2    0    0  0.00000000000E+00  0.00000000000E+00 -0.21305937066E+03  0.24702155291E+03  0.12500140869E+03 0.  0.
    9000005    1    3    3    0    0 -0.55267865694E+02  0.10438690128E+02 -0.16035338489E+03  0.16993443229E+03  0.10000000000E+01 0.  0.
    9000005    1    3    3    0    0  0.55267865694E+02 -0.10438690128E+02 -0.52705985766E+02  0.77087120620E+02  0.10000000000E+01 0.  0.
<mgrwt>
<rscale>  0 0.12500141E+03</rscale>
<asrwt>0</asrwt>
<pdfrwt beam="1">  1        4 0.42452735E-02 0.12500141E+03</pdfrwt>
<pdfrwt beam="2">  1       -4 0.57510105E-01 0.12500141E+03</pdfrwt>
<totfact> 0.14597104E+03</totfact>
</mgrwt>
</event>
<event>
 5    1  0.1440092E-002  0.1250059E+03  0.7818608E-02  0.1235060E+00
         -4   -1    0    0    0  501 -0.00000000000E+00  0.00000000000E+00  0.36365822384E+02  0.36387991668E+02  0.12700000000E+01 0. -1.
          4   -1    0    0  501    0  0.00000000000E+00 -0.00000000000E+00 -0.10736694954E+03  0.10737446044E+03  0.12700000000E+01 0. -1.
         25    2    1    2    0    0  0.00000000000E+00  0.00000000000E+00 -0.71001127158E+02  0.14376245210E+03  0.12500593017E+03 0.  0.
    9000005    1    3    3    0    0  0.44306811505E+01 -0.11189432737E+02 -0.10602736437E+03  0.10671286865E+03  0.10000000000E+01 0.  0.
    9000005    1    3    3    0    0 -0.44306811505E+01  0.11189432737E+02  0.35026237215E+02  0.37049583450E+02  0.10000000000E+01 0.  0.
<mgrwt>
<rscale>  0 0.12500593E+03</rscale>
<asrwt>0</asrwt>
<pdfrwt beam="2">  1        4 0.26845447E-01 0.12500593E+03</pdfrwt>
<pdfrwt beam="1">  1       -4 0.90951659E-02 0.12500593E+03</pdfrwt>
<totfact> 0.18846882E+03</totfact>
</mgrwt>
</event>
<event>
 5    1  0.1440092E-002  0.1250008E+03  0.7818608E-02  0.1235068E+00
         -4   -1    0    0    0  501 -0.00000000000E+00  0.00000000000E+00  0.56828535843E+02  0.56842725005E+02  0.12700000000E+01 0.  1.
          4   -1    0    0  501    0  0.00000000000E+00 -0.00000000000E+00 -0.68709688029E+02  0.68721424091E+02  0.12700000000E+01 0.  1.
         25    2    1    2    0    0  0.00000000000E+00  0.00000000000E+00 -0.11881152187E+02  0.12556414910E+03  0.12500077504E+03 0.  0.
    9000005    1    3    3    0    0  0.62324344951E+02 -0.40898631015E+01 -0.80108077789E+01  0.62977964361E+02  0.10000000000E+01 0.  0.
    9000005    1    3    3    0    0 -0.62324344951E+02  0.40898631015E+01 -0.38703444076E+01  0.62586184735E+02  0.10000000000E+01 0.  0.
<mgrwt>
<rscale>  0 0.12500078E+03</rscale>
<asrwt>0</asrwt>
<pdfrwt beam="2">  1        4 0.17180663E-01 0.12500078E+03</pdfrwt>
<pdfrwt beam="1">  1       -4 0.14210375E-01 0.12500078E+03</pdfrwt>
<totfact> 0.19804132E+03</totfact>
</mgrwt>
</event>
<event>
 5    1  0.1440092E-002  0.1250100E+03  0.7818608E-02  0.1235054E+00
         -4   -1    0    0    0  501 -0.00000000000E+00  0.00000000000E+00  0.86530214155E+02  0.86539533519E+02  0.12700000000E+01 0.  1.
          4   -1    0    0  501    0  0.00000000000E+00 -0.00000000000E+00 -0.45129754091E+02  0.45147620140E+02  0.12700000000E+01 0.  1.
         25    2    1    2    0    0  0.00000000000E+00  0.00000000000E+00  0.41400460064E+02  0.13168715366E+03  0.12501003298E+03 0.  0.
    9000005    1    3    3    0    0  0.60211275357E+02 -0.10459921027E+02  0.69222744246E+01  0.61511994856E+02  0.10000000000E+01 0.  0.
    9000005    1    3    3    0    0 -0.60211275357E+02  0.10459921027E+02  0.34478185639E+02  0.70175158803E+02  0.10000000000E+01 0.  0.
<mgrwt>
<rscale>  0 0.12501003E+03</rscale>
<asrwt>0</asrwt>
<pdfrwt beam="2">  1        4 0.11285837E-01 0.12501003E+03</pdfrwt>
<pdfrwt beam="1">  1       -4 0.21635951E-01 0.12501003E+03</pdfrwt>
<totfact> 0.19469545E+03</totfact>
</mgrwt>
</event>
<event>
 5    1  0.1440092E-002  0.1250167E+03  0.7818608E-02  0.1235043E+00
          4   -1    0    0  501    0  0.00000000000E+00  0.00000000000E+00  0.24201480849E+03  0.24201814070E+03  0.12700000000E+01 0. -1.
         -4   -1    0    0    0  501 -0.00000000000E+00 -0.00000000000E+00 -0.16116425792E+02  0.16166387361E+02  0.12700000000E+01 0. -1.
         25    2    1    2    0    0  0.00000000000E+00  0.00000000000E+00  0.22589838270E+03  0.25818452806E+03  0.12501668379E+03 0.  0.
    9000005    1    3    3    0    0 -0.36136077212E+02  0.21598790338E+02  0.17547452534E+02  0.45620575520E+02  0.10000000000E+01 0.  0.
    9000005    1    3    3    0    0  0.36136077212E+02 -0.21598790338E+02  0.20835093016E+03  0.21256395254E+03  0.10000000000E+01 0.  0.
<mgrwt>
<rscale>  0 0.12501668E+03</rscale>
<asrwt>0</asrwt>
<pdfrwt beam="1">  1        4 0.60510363E-01 0.12501668E+03</pdfrwt>
<pdfrwt beam="2">  1       -4 0.40357682E-02 0.12501668E+03</pdfrwt>
<totfact> 0.14224179E+03</totfact>
</mgrwt>
</event>
<event>
 5    1  0.1440092E-002  0.1249980E+03  0.7818608E-02  0.1235072E+00
         -4   -1    0    0    0  501 -0.00000000000E+00  0.00000000000E+00  0.39751257157E+03  0.39751460030E+03  0.12700000000E+01 0.  1.
          4   -1    0    0  501    0  0.00000000000E+00 -0.00000000000E+00 -0.97833162458E+01  0.98654030210E+01  0.12700000000E+01 0.  1.
         25    2    1    2    0    0  0.00000000000E+00  0.00000000000E+00  0.38772925532E+03  0.40738000333E+03  0.12499796669E+03 0.  0.
    9000005    1    3    3    0    0 -0.19467612426E+02 -0.49467383048E+01  0.10082337151E+01  0.20136402078E+02  0.10000000000E+01 0.  0.
    9000005    1    3    3    0    0  0.19467612426E+02  0.49467383048E+01  0.38672102161E+03  0.38724360125E+03  0.10000000000E+01 0.  0.
<mgrwt>
<rscale>  0 0.12499797E+03</rscale>
<asrwt>0</asrwt>
<pdfrwt beam="2">  1        4 0.24563436E-02 0.12499797E+03</pdfrwt>
<pdfrwt beam="1">  1       -4 0.99388651E-01 0.12499797E+03</pdfrwt>
<totfact> 0.10419228E+03</totfact>
</mgrwt>
</event>
<event>
 5    1  0.1440092E-002  0.1249987E+03  0.7818608E-02  0.1235071E+00
          4   -1    0    0  501    0  0.00000000000E+00  0.00000000000E+00  0.17234587329E+03  0.17235055248E+03  0.12700000000E+01 0. -1.
         -4   -1    0    0    0  501 -0.00000000000E+00 -0.00000000000E+00 -0.22641919853E+02  0.22677509445E+02  0.12700000000E+01 0. -1.
         25    2    1    2    0    0  0.00000000000E+00  0.00000000000E+00  0.14970395344E+03  0.19502806193E+03  0.12499868505E+03 0.  0.
    9000005    1    3    3    0    0 -0.22211167361E+02 -0.58396595224E+02  0.76867966568E+02  0.99061509042E+02  0.10000000000E+01 0.  0.
    9000005    1    3    3    0    0  0.22211167361E+02  0.58396595224E+02  0.72835986872E+02  0.95966552886E+02  0.10000000000E+01 0.  0.
<mgrwt>
<rscale>  0 0.12499869E+03</rscale>
<asrwt>0</asrwt>
<pdfrwt beam="1">  1        4 0.43091502E-01 0.12499869E+03</pdfrwt>
<pdfrwt beam="2">  1       -4 0.56655136E-02 0.12499869E+03</pdfrwt>
<totfact> 0.16523583E+03</totfact>
</mgrwt>
</event>
<event>
 5    1  0.1440092E-002  0.1250008E+03  0.7818608E-02  0.1235068E+00
          4   -1    0    0  501    0  0.00000000000E+00  0.00000000000E+00  0.52511573901E+02  0.52526929223E+02  0.12700000000E+01 0. -1.
         -4   -1    0    0    0  501 -0.00000000000E+00 -0.00000000000E+00 -0.74357636520E+02  0.74368481286E+02  0.12700000000E+01 0. -1.
         25    2    1    2    0    0  0.00000000000E+00  0.00000000000E+00 -0.21846062619E+02  0.12689541051E+03  0.12500077902E+03 0.  0.
    9000005    1    3    3    0    0 -0.49533898649E+02  0.38031166217E+02 -0.13264937003E+02  0.63850883102E+02  0.10000000000E+01 0.  0.
    9000005    1    3    3    0    0  0.49533898649E+02 -0.38031166217E+02 -0.85811256153E+01  0.63044527407E+02  0.10000000000E+01 0.  0.
<mgrwt>
<rscale>  0 0.12500078E+03</rscale>
<asrwt>0</asrwt>
<pdfrwt beam="1">  1        4 0.13131169E-01 0.12500078E+03</pdfrwt>
<pdfrwt beam="2">  1       -4 0.18592684E-01 0.12500078E+03</pdfrwt>
<totfact> 0.19732251E+03</totfact>
</mgrwt>
</event>
<event>
 5    1  0.1440092E-002  0.1250189E+03  0.7818608E-02  0.1235040E+00
          4   -1    0    0  501    0  0.00000000000E+00  0.00000000000E+00  0.11693989332E+02  0.11762749954E+02  0.12700000000E+01 0. -1.
         -4   -1    0    0    0  501 -0.00000000000E+00 -0.00000000000E+00 -0.33309079948E+03  0.33309322058E+03  0.12700000000E+01 0. -1.
         25    2    1    2    0    0  0.00000000000E+00  0.00000000000E+00 -0.32139681015E+03  0.34485597054E+03  0.12501892193E+03 0.  0.
    9000005    1    3    3    0    0 -0.12400117891E+02  0.59705264727E+02 -0.12288162968E+03  0.13718373253E+03  0.10000000000E+01 0.  0.
    9000005    1    3    3    0    0  0.12400117891E+02 -0.59705264727E+02 -0.19851518047E+03  0.20767223800E+03  0.10000000000E+01 0.  0.
<mgrwt>
<rscale>  0 0.12501892E+03</rscale>
<asrwt>0</asrwt>
<pdfrwt beam="1">  1        4 0.29323961E-02 0.12501892E+03</pdfrwt>
<pdfrwt beam="2">  1       -4 0.83281566E-01 0.12501892E+03</pdfrwt>
<totfact> 0.11795868E+03</totfact>
</mgrwt>
</event>
<event>
 5    1  0.1440092E-002  0.1250062E+03  0.7818608E-02  0.1235060E+00
         -4   -1    0    0    0  501 -0.00000000000E+00  0.00000000000E+00  0.91177558404E+02  0.91186402805E+02  0.12700000000E+01 0.  1.
          4   -1    0    0  501    0  0.00000000000E+00 -0.00000000000E+00 -0.42826147492E+02  0.42844974140E+02  0.12700000000E+01 0.  1.
         25    2    1    2    0    0  0.00000000000E+00  0.00000000000E+00  0.48351410912E+02  0.13403137695E+03  0.12500620412E+03 0.  0.
    9000005    1    3    3    0    0 -0.32491519151E+02 -0.36940251551E+02  0.65498558696E+02  0.81922781891E+02  0.10000000000E+01 0.  0.
    9000005    1    3    3    0    0  0.32491519151E+02  0.36940251551E+02 -0.17147147784E+02  0.52108595055E+02  0.10000000000E+01 0.  0.
<mgrwt>
<rscale>  0 0.12500620E+03</rscale>
<asrwt>0</asrwt>
<pdfrwt beam="2">  1        4 0.10709996E-01 0.12500620E+03</pdfrwt>
<pdfrwt beam="1">  1       -4 0.22797848E-01 0.12500620E+03</pdfrwt>
<totfact> 0.19347192E+03</totfact>
</mgrwt>
</event>
<event>
 5    1  0.1440092E-002  0.1250006E+03  0.7818608E-02  0.1235068E+00
          4   -1    0    0  501    0  0.00000000000E+00  0.00000000000E+00  0.75993478228E+02  0.76004089582E+02  0.12700000000E+01 0.  1.
         -4   -1    0    0    0  501 -0.00000000000E+00 -0.00000000000E+00 -0.51380891896E+02  0.51396585023E+02  0.12700000000E+01 0.  1.
         25    2    1    2    0    0  0.00000000000E+00  0.00000000000E+00  0.24612586332E+02  0.12740067460E+03  0.12500060993E+03 0.  0.
    9000005    1    3    3    0    0  0.40155303463E+02  0.31603496635E+02  0.48970018285E+02  0.70783416749E+02  0.10000000000E+01 0.  0.
    9000005    1    3    3    0    0 -0.40155303463E+02 -0.31603496635E+02 -0.24357431953E+02  0.56617257856E+02  0.10000000000E+01 0.  0.
<mgrwt>
<rscale>  0 0.12500061E+03</rscale>
<asrwt>0</asrwt>
<pdfrwt beam="1">  1        4 0.19001657E-01 0.12500061E+03</pdfrwt>
<pdfrwt beam="2">  1       -4 0.12848511E-01 0.12500061E+03</pdfrwt>
<totfact> 0.19704928E+03</totfact>
</mgrwt>
</event>
<event>
 5    1  0.1440092E-002  0.1249983E+03  0.7818608E-02  0.1235072E+00
         -4   -1    0    0    0  501 -0.00000000000E+00  0.00000000000E+00  0.21636176296E+03  0.21636549025E+03  0.12700000000E+01 0.  1.
          4   -1    0    0  501    0  0.00000000000E+00 -0.00000000000E+00 -0.18027541448E+02  0.18072220413E+02  0.12700000000E+01 0.  1.
         25    2    1    2    0    0  0.00000000000E+00  0.00000000000E+00  0.19833422151E+03  0.23443771066E+03  0.12499830702E+03 0.  0.
    9000005    1    3    3    0    0  0.62142303737E+02 -0.63166895712E+01  0.95619582803E+02  0.11421764792E+03  0.10000000000E+01 0.  0.
    9000005    1    3    3    0    0 -0.62142303737E+02  0.63166895712E+01  0.10271463871E+03  0.12022006274E+03  0.10000000000E+01 0.  0.
<mgrwt>
<rscale>  0 0.12499831E+03</rscale>
<asrwt>0</asrwt>
<pdfrwt beam="2">  1        4 0.45129362E-02 0.12499831E+03</pdfrwt>
<pdfrwt beam="1">  1       -4 0.54096491E-01 0.12499831E+03</pdfrwt>
<totfact> 0.15030614E+03</totfact>
</mgrwt>
</event>
<event>
 5    1  0.1440092E-002  0.1249987E+03  0.7818608E-02  0.1235071E+00
          4   -1    0    0  501    0  0.00000000000E+00  0.00000000000E+00  0.26082565420E+02  0.26113466237E+02  0.12700000000E+01 0. -1.
         -4   -1    0    0    0  501 -0.00000000000E+00 -0.00000000000E+00 -0.14963934085E+03  0.14964473004E+03  0.12700000000E+01 0. -1.
         25    2    1    2    0    0  0.00000000000E+00  0.00000000000E+00 -0.12355677543E+03  0.17575819628E+03  0.12499866721E+03 0.  0.
    9000005    1    3    3    0    0  0.31009360713E+02  0.25456105504E+02 -0.12914671327E+03  0.13523855703E+03  0.10000000000E+01 0.  0.
    9000005    1    3    3    0    0 -0.31009360713E+02 -0.25456105504E+02  0.55899378471E+01  0.40519639243E+02  0.10000000000E+01 0.  0.
<mgrwt>
<rscale>  0 0.12499867E+03</rscale>
<asrwt>0</asrwt>
<pdfrwt beam="1">  1        4 0.65251780E-02 0.12499867E+03</pdfrwt>
<pdfrwt beam="2">  1       -4 0.37414369E-01 0.12499867E+03</pdfrwt>
<totfact> 0.17340949E+03</totfact>
</mgrwt>
</event>
<event>
 5    1  0.1440092E-002  0.1250049E+03  0.7818608E-02  0.1235062E+00
          4   -1    0    0  501    0  0.00000000000E+00  0.00000000000E+00  0.42654735060E+02  0.42673637331E+02  0.12700000000E+01 0. -1.
         -4   -1    0    0    0  501 -0.00000000000E+00 -0.00000000000E+00 -0.91541959506E+02  0.91550768704E+02  0.12700000000E+01 0. -1.
         25    2    1    2    0    0  0.00000000000E+00  0.00000000000E+00 -0.48887224446E+02  0.13422440603E+03  0.12500492175E+03 0.  0.
    9000005    1    3    3    0    0 -0.72814168019E+01  0.30607013182E+02 -0.82423780355E+02  0.88229744727E+02  0.10000000000E+01 0.  0.
    9000005    1    3    3    0    0  0.72814168019E+01 -0.30607013182E+02  0.33536555909E+02  0.45994661308E+02  0.10000000000E+01 0.  0.
<mgrwt>
<rscale>  0 0.12500492E+03</rscale>
<asrwt>0</asrwt>
<pdfrwt beam="1">  1        4 0.10667148E-01 0.12500492E+03</pdfrwt>
<pdfrwt beam="2">  1       -4 0.22888953E-01 0.12500492E+03</pdfrwt>
<totfact> 0.19337618E+03</totfact>
</mgrwt>
</event>
<event>
 5    1  0.1440092E-002  0.1249959E+03  0.7818608E-02  0.1235076E+00
         -4   -1    0    0    0  501 -0.00000000000E+00  0.00000000000E+00  0.61502692523E+02  0.61515803559E+02  0.12700000000E+01 0. -1.
          4   -1    0    0  501    0  0.00000000000E+00 -0.00000000000E+00 -0.63483038815E+02  0.63495740937E+02  0.12700000000E+01 0. -1.
         25    2    1    2    0    0  0.00000000000E+00  0.00000000000E+00 -0.19803462924E+01  0.12501154450E+03  0.12499585788E+03 0.  0.
    9000005    1    3    3    0    0  0.57359479439E+02  0.22167573612E+02 -0.12103719603E+02  0.62681825353E+02  0.10000000000E+01 0.  0.
    9000005    1    3    3    0    0 -0.57359479439E+02 -0.22167573612E+02  0.10123373311E+02  0.62329719144E+02  0.10000000000E+01 0.  0.
<mgrwt>
<rscale>  0 0.12499586E+03</rscale>
<asrwt>0</asrwt>
<pdfrwt beam="2">  1        4 0.15873986E-01 0.12499586E+03</pdfrwt>
<pdfrwt beam="1">  1       -4 0.15378900E-01 0.12499586E+03</pdfrwt>
<totfact> 0.19836352E+03</totfact>
</mgrwt>
</event>
<event>
 5    1  0.1440092E-002  0.1249896E+03  0.7818608E-02  0.1235086E+00
          4   -1    0    0  501    0  0.00000000000E+00  0.00000000000E+00  0.84974064678E+02  0.84983554691E+02  0.12700000000E+01 0. -1.
         -4   -1    0    0    0  501 -0.00000000000E+00 -0.00000000000E+00 -0.45941442845E+02  0.45958993360E+02  0.12700000000E+01 0. -1.
         25    2    1    2    0    0  0.00000000000E+00  0.00000000000E+00  0.39032621833E+02  0.13094254805E+03  0.12498962086E+03 0.  0.
    9000005    1    3    3    0    0 -0.58483852329E+02  0.15047660884E+02  0.26951780174E+01  0.60457067956E+02  0.10000000000E+01 0.  0.
    9000005    1    3    3    0    0  0.58483852329E+02 -0.15047660884E+02  0.36337443816E+02  0.70485480096E+02  0.10000000000E+01 0.  0.
<mgrwt>
<rscale>  0 0.12498962E+03</rscale>
<asrwt>0</asrwt>
<pdfrwt beam="1">  1        4 0.21246896E-01 0.12498962E+03</pdfrwt>
<pdfrwt beam="2">  1       -4 0.11488741E-01 0.12498962E+03</pdfrwt>
<totfact> 0.19518574E+03</totfact>
</mgrwt>
</event>
<event>
 5    1  0.1440092E-002  0.1249990E+03  0.7818608E-02  0.1235071E+00
         -4   -1    0    0    0  501 -0.00000000000E+00  0.00000000000E+00  0.11039595584E+03  0.11040326067E+03  0.12700000000E+01 0. -1.
          4   -1    0    0  501    0  0.00000000000E+00 -0.00000000000E+00 -0.35363570348E+02  0.35386367541E+02  0.12700000000E+01 0. -1.
         25    2    1    2    0    0  0.00000000000E+00  0.00000000000E+00  0.75032385493E+02  0.14578962821E+03  0.12499902728E+03 0.  0.
    9000005    1    3    3    0    0 -0.47862163426E+02 -0.28263571198E+01  0.84262656726E+02  0.96953443986E+02  0.10000000000E+01 0.  0.
    9000005    1    3    3    0    0  0.47862163426E+02  0.28263571198E+01 -0.92302712327E+01  0.48836184222E+02  0.10000000000E+01 0.  0.
<mgrwt>
<rscale>  0 0.12499903E+03</rscale>
<asrwt>0</asrwt>
<pdfrwt beam="2">  1        4 0.88446554E-02 0.12499903E+03</pdfrwt>
<pdfrwt beam="1">  1       -4 0.27602751E-01 0.12499903E+03</pdfrwt>
<totfact> 0.18748186E+03</totfact>
</mgrwt>
</event>
<event>
 5    1  0.1440092E-002  0.1249992E+03  0.7818608E-02  0.1235070E+00
          4   -1    0    0  501    0  0.00000000000E+00  0.00000000000E+00  0.33734345020E+01  0.36045749179E+01  0.12700000000E+01 0.  1.
         -4   -1    0    0    0  501 -0.00000000000E+00 -0.00000000000E+00 -0.11193433716E+04  0.11193440920E+04  0.12700000000E+01 0.  1.
         25    2    1    2    0    0  0.00000000000E+00  0.00000000000E+00 -0.11159699371E+04  0.11229486670E+04  0.12499923270E+03 0.  0.
    9000005    1    3    3    0    0 -0.46760317795E+02 -0.23384876129E+01 -0.18614388198E+03  0.19194410812E+03  0.10000000000E+01 0.  0.
    9000005    1    3    3    0    0  0.46760317795E+02  0.23384876129E+01 -0.92982605509E+03  0.93100455883E+03  0.10000000000E+01 0.  0.
<mgrwt>
<rscale>  0 0.12499923E+03</rscale>
<asrwt>0</asrwt>
<pdfrwt beam="1">  1        4 0.87234507E-03 0.12499923E+03</pdfrwt>
<pdfrwt beam="2">  1       -4 0.27986360E+00 0.12499923E+03</pdfrwt>
<totfact> 0.29440004E+02</totfact>
</mgrwt>
</event>
<event>
 5    1  0.1440092E-002  0.1250011E+03  0.7818608E-02  0.1235068E+00
          4   -1    0    0  501    0  0.00000000000E+00  0.00000000000E+00  0.42581340339E+02  0.42600275176E+02  0.12700000000E+01 0.  1.
         -4   -1    0    0    0  501 -0.00000000000E+00 -0.00000000000E+00 -0.91694062892E+02  0.91702857478E+02  0.12700000000E+01 0.  1.
         25    2    1    2    0    0  0.00000000000E+00  0.00000000000E+00 -0.49112722553E+02  0.13430313265E+03  0.12500108769E+03 0.  0.
    9000005    1    3    3    0    0 -0.30199900081E+02  0.24978946237E+02 -0.76854436008E+02  0.86276219517E+02  0.10000000000E+01 0.  0.
    9000005    1    3    3    0    0  0.30199900081E+02 -0.24978946237E+02  0.27741713455E+02  0.48026913137E+02  0.10000000000E+01 0.  0.
<mgrwt>
<rscale>  0 0.12500109E+03</rscale>
<asrwt>0</asrwt>
<pdfrwt beam="1">  1        4 0.10648801E-01 0.12500109E+03</pdfrwt>
<pdfrwt beam="2">  1       -4 0.22926982E-01 0.12500109E+03</pdfrwt>
<totfact> 0.19335210E+03</totfact>
</mgrwt>
</event>
<event>
 5    1  0.1440092E-002  0.1249993E+03  0.7818608E-02  0.1235070E+00
          4   -1    0    0  501    0  0.00000000000E+00  0.00000000000E+00  0.13850545888E+02  0.13908649158E+02  0.12700000000E+01 0.  1.
         -4   -1    0    0    0  501 -0.00000000000E+00 -0.00000000000E+00 -0.28137574766E+03  0.28137861374E+03  0.12700000000E+01 0.  1.
         25    2    1    2    0    0  0.00000000000E+00  0.00000000000E+00 -0.26752520177E+03  0.29528726290E+03  0.12499933619E+03 0.  0.
    9000005    1    3    3    0    0 -0.23690007063E+01  0.19712326879E+01  0.13682501198E+02  0.14060894768E+02  0.10000000000E+01 0.  0.
    9000005    1    3    3    0    0  0.23690007063E+01 -0.19712326879E+01 -0.28120770297E+03  0.28122636813E+03  0.10000000000E+01 0.  0.
<mgrwt>
<rscale>  0 0.12499934E+03</rscale>
<asrwt>0</asrwt>
<pdfrwt beam="1">  1        4 0.34702586E-02 0.12499934E+03</pdfrwt>
<pdfrwt beam="2">  1       -4 0.70351540E-01 0.12499934E+03</pdfrwt>
<totfact> 0.13104376E+03</totfact>
</mgrwt>
</event>
<event>
 5    1  0.1440092E-002  0.1250010E+03  0.7818608E-02  0.1235068E+00
          4   -1    0    0  501    0  0.00000000000E+00  0.00000000000E+00  0.38119836200E+02  0.38140985985E+02  0.12700000000E+01 0. -1.
         -4   -1    0    0    0  501 -0.00000000000E+00 -0.00000000000E+00 -0.10242097910E+03  0.10242885268E+03  0.12700000000E+01 0. -1.
         25    2    1    2    0    0  0.00000000000E+00  0.00000000000E+00 -0.64301142903E+02  0.14056983866E+03  0.12500097025E+03 0.  0.
    9000005    1    3    3    0    0 -0.57479558411E+02  0.41821793830E+01 -0.49764457851E+01  0.57854604589E+02  0.10000000000E+01 0.  0.
    9000005    1    3    3    0    0  0.57479558411E+02 -0.41821793830E+01 -0.59324697118E+02  0.82715234072E+02  0.10000000000E+01 0.  0.
<mgrwt>
<rscale>  0 0.12500097E+03</rscale>
<asrwt>0</asrwt>
<pdfrwt beam="1">  1        4 0.95335872E-02 0.12500097E+03</pdfrwt>
<pdfrwt beam="2">  1       -4 0.25608872E-01 0.12500097E+03</pdfrwt>
<totfact> 0.19010798E+03</totfact>
</mgrwt>
</event>
<event>
 5    1  0.1440092E-002  0.1250008E+03  0.7818608E-02  0.1235068E+00
         -4   -1    0    0    0  501 -0.00000000000E+00  0.00000000000E+00  0.69723985230E+02  0.69735550592E+02  0.12700000000E+01 0. -1.
          4   -1    0    0  501    0  0.00000000000E+00 -0.00000000000E+00 -0.56001778199E+02  0.56016176784E+02  0.12700000000E+01 0. -1.
         25    2    1    2    0    0  0.00000000000E+00  0.00000000000E+00  0.13722207031E+02  0.12575172738E+03  0.12500079189E+03 0.  0.
    9000005    1    3    3    0    0 -0.50029842520E+02 -0.77236661790E+01 -0.30001339342E+02  0.58853381587E+02  0.10000000000E+01 0.  0.
    9000005    1    3    3    0    0  0.50029842520E+02  0.77236661790E+01  0.43723546374E+02  0.66898345789E+02  0.10000000000E+01 0.  0.
<mgrwt>
<rscale>  0 0.12500079E+03</rscale>
<asrwt>0</asrwt>
<pdfrwt beam="2">  1        4 0.14003690E-01 0.12500079E+03</pdfrwt>
<pdfrwt beam="1">  1       -4 0.17434242E-01 0.12500079E+03</pdfrwt>
<totfact> 0.19793976E+03</totfact>
</mgrwt>
</event>
<event>
 5    1  0.1440092E-002  0.1249987E+03  0.7818608E-02  0.1235071E+00
         -4   -1    0    0    0  501 -0.00000000000E+00  0.00000000000E+00  0.22301151690E+02  0.22337284228E+02  0.12700000000E+01 0.  1.
          4   -1    0    0  501    0  0.00000000000E+00 -0.00000000000E+00 -0.17497538872E+03  0.17497999759E+03  0.12700000000E+01 0.  1.
         25    2    1    2    0    0  0.00000000000E+00  0.00000000000E+00 -0.15267423703E+03  0.19731728182E+03  0.12499874820E+03 0.  0.
    9000005    1    3    3    0    0 -0.73261380180E+01 -0.34907862551E+02 -0.15733618073E+03  0.16133166128E+03  0.10000000000E+01 0.  0.
    9000005    1    3    3    0    0  0.73261380180E+01  0.34907862551E+02  0.46619437029E+01  0.35985620534E+02  0.10000000000E+01 0.  0.
<mgrwt>
<rscale>  0 0.12499875E+03</rscale>
<asrwt>0</asrwt>
<pdfrwt beam="2">  1        4 0.43748936E-01 0.12499875E+03</pdfrwt>
<pdfrwt beam="1">  1       -4 0.55803811E-02 0.12499875E+03</pdfrwt>
<totfact> 0.16430504E+03</totfact>
</mgrwt>
</event>
<event>
 5    1  0.1440092E-002  0.1250082E+03  0.7818608E-02  0.1235057E+00
          4   -1    0    0  501    0  0.00000000000E+00  0.00000000000E+00  0.60978795885E+03  0.60978928136E+03  0.12700000000E+01 0.  1.
         -4   -1    0    0    0  501 -0.00000000000E+00 -0.00000000000E+00 -0.63424711260E+01  0.64683722825E+01  0.12700000000E+01 0.  1.
         25    2    1    2    0    0  0.00000000000E+00  0.00000000000E+00  0.60344548773E+03  0.61625765364E+03  0.12500815580E+03 0.  0.
    9000005    1    3    3    0    0 -0.76401456139E+01 -0.16233047298E+02  0.66015007134E+01  0.19143235391E+02  0.10000000000E+01 0.  0.
    9000005    1    3    3    0    0  0.76401456139E+01  0.16233047298E+02  0.59684398701E+03  0.59711441825E+03  0.10000000000E+01 0.  0.
<mgrwt>
<rscale>  0 0.12500816E+03</rscale>
<asrwt>0</asrwt>
<pdfrwt beam="1">  1        4 0.15246284E+00 0.12500816E+03</pdfrwt>
<pdfrwt beam="2">  1       -4 0.16015212E-02 0.12500816E+03</pdfrwt>
<totfact> 0.71481165E+02</totfact>
</mgrwt>
</event>
<event>
 5    1  0.1440092E-002  0.1249992E+03  0.7818608E-02  0.1235071E+00
          4   -1    0    0  501    0  0.00000000000E+00  0.00000000000E+00  0.34900722867E+02  0.34923822194E+02  0.12700000000E+01 0.  1.
         -4   -1    0    0    0  501 -0.00000000000E+00 -0.00000000000E+00 -0.11185941289E+03  0.11186662215E+03  0.12700000000E+01 0.  1.
         25    2    1    2    0    0  0.00000000000E+00  0.00000000000E+00 -0.76958690019E+02  0.14679044434E+03  0.12499917832E+03 0.  0.
    9000005    1    3    3    0    0 -0.62160835442E+02 -0.92842731765E+00 -0.31018208810E+02  0.69483528393E+02  0.10000000000E+01 0.  0.
    9000005    1    3    3    0    0  0.62160835442E+02  0.92842731765E+00 -0.45940481210E+02  0.77306915951E+02  0.10000000000E+01 0.  0.
<mgrwt>
<rscale>  0 0.12499918E+03</rscale>
<asrwt>0</asrwt>
<pdfrwt beam="1">  1        4 0.87289695E-02 0.12499918E+03</pdfrwt>
<pdfrwt beam="2">  1       -4 0.27968641E-01 0.12499918E+03</pdfrwt>
<totfact> 0.18698087E+03</totfact>
</mgrwt>
</event>
<event>
 5    1  0.1440092E-002  0.1250020E+03  0.7818608E-02  0.1235066E+00
         -4   -1    0    0    0  501 -0.00000000000E+00  0.00000000000E+00  0.52945065781E+02  0.52960295416E+02  0.12700000000E+01 0.  1.
          4   -1    0    0  501    0  0.00000000000E+00 -0.00000000000E+00 -0.73750396916E+02  0.73761330962E+02  0.12700000000E+01 0.  1.
         25    2    1    2    0    0  0.00000000000E+00  0.00000000000E+00 -0.20805331135E+02  0.12672162638E+03  0.12500203514E+03 0.  0.
    9000005    1    3    3    0    0  0.33466849128E+02  0.52688107669E+02 -0.13495954933E+02  0.63868673697E+02  0.10000000000E+01 0.  0.
    9000005    1    3    3    0    0 -0.33466849128E+02 -0.52688107669E+02 -0.73093762022E+01  0.62852952681E+02  0.10000000000E+01 0.  0.
<mgrwt>
<rscale>  0 0.12500204E+03</rscale>
<asrwt>0</asrwt>
<pdfrwt beam="2">  1        4 0.18440870E-01 0.12500204E+03</pdfrwt>
<pdfrwt beam="1">  1       -4 0.13239537E-01 0.12500204E+03</pdfrwt>
<totfact> 0.19741035E+03</totfact>
</mgrwt>
</event>
<event>
 5    1  0.1440092E-002  0.1250084E+03  0.7818608E-02  0.1235056E+00
          4   -1    0    0  501    0  0.00000000000E+00  0.00000000000E+00  0.56717622897E+01  0.58122102053E+01  0.12700000000E+01 0.  1.
         -4   -1    0    0    0  501 -0.00000000000E+00 -0.00000000000E+00 -0.68024678211E+03  0.68024796764E+03  0.12700000000E+01 0.  1.
         25    2    1    2    0    0  0.00000000000E+00  0.00000000000E+00 -0.67457501982E+03  0.68606017784E+03  0.12500844072E+03 0.  0.
    9000005    1    3    3    0    0 -0.58240356735E+02 -0.22219732752E+02 -0.36190576257E+03  0.36723621371E+03  0.10000000000E+01 0.  0.
    9000005    1    3    3    0    0  0.58240356735E+02  0.22219732752E+02 -0.31266925725E+03  0.31882396413E+03  0.10000000000E+01 0.  0.
<mgrwt>
<rscale>  0 0.12500844E+03</rscale>
<asrwt>0</asrwt>
<pdfrwt beam="1">  1        4 0.14356471E-02 0.12500844E+03</pdfrwt>
<pdfrwt beam="2">  1       -4 0.17007913E+00 0.12500844E+03</pdfrwt>
<totfact> 0.63519079E+02</totfact>
</mgrwt>
</event>
<event>
 5    1  0.1440092E-002  0.1250083E+03  0.7818608E-02  0.1235056E+00
         -4   -1    0    0    0  501 -0.00000000000E+00  0.00000000000E+00  0.44491080419E+01  0.46268198980E+01  0.12700000000E+01 0. -1.
          4   -1    0    0  501    0  0.00000000000E+00 -0.00000000000E+00 -0.86073011910E+03  0.86073105604E+03  0.12700000000E+01 0. -1.
         25    2    1    2    0    0  0.00000000000E+00  0.00000000000E+00 -0.85628101106E+03  0.86535787594E+03  0.12500833390E+03 0.  0.
    9000005    1    3    3    0    0 -0.22251714458E+01  0.36946293588E+02 -0.79551647023E+02  0.87746478801E+02  0.10000000000E+01 0.  0.
    9000005    1    3    3    0    0  0.22251714458E+01 -0.36946293588E+02 -0.77672936404E+03  0.77761139713E+03  0.10000000000E+01 0.  0.
<mgrwt>
<rscale>  0 0.12500833E+03</rscale>
<asrwt>0</asrwt>
<pdfrwt beam="2">  1        4 0.21520430E+00 0.12500833E+03</pdfrwt>
<pdfrwt beam="1">  1       -4 0.11346110E-02 0.12500833E+03</pdfrwt>
<totfact> 0.46976283E+02</totfact>
</mgrwt>
</event>
<event>
 5    1  0.1440092E-002  0.1249993E+03  0.7818608E-02  0.1235070E+00
          4   -1    0    0  501    0  0.00000000000E+00  0.00000000000E+00  0.10660985691E+03  0.10661742114E+03  0.12700000000E+01 0.  1.
         -4   -1    0    0    0  501 -0.00000000000E+00 -0.00000000000E+00 -0.36620328776E+02  0.36642344080E+02  0.12700000000E+01 0.  1.
         25    2    1    2    0    0  0.00000000000E+00  0.00000000000E+00  0.69989528134E+02  0.14325976522E+03  0.12499930513E+03 0.  0.
    9000005    1    3    3    0    0 -0.37851146522E+02  0.16375759398E+02 -0.18814260264E+02  0.45341495102E+02  0.10000000000E+01 0.  0.
    9000005    1    3    3    0    0  0.37851146522E+02 -0.16375759398E+02  0.88803788397E+02  0.97918270116E+02  0.10000000000E+01 0.  0.
<mgrwt>
<rscale>  0 0.12499931E+03</rscale>
<asrwt>0</asrwt>
<pdfrwt beam="1">  1        4 0.26656161E-01 0.12499931E+03</pdfrwt>
<pdfrwt beam="2">  1       -4 0.91587797E-02 0.12499931E+03</pdfrwt>
<totfact> 0.18875107E+03</totfact>
</mgrwt>
</event>
<event>
 5    1  0.1440092E-002  0.1250003E+03  0.7818608E-02  0.1235069E+00
         -4   -1    0    0    0  501 -0.00000000000E+00  0.00000000000E+00  0.10801741519E+03  0.10802488086E+03  0.12700000000E+01 0.  1.
          4   -1    0    0  501    0  0.00000000000E+00 -0.00000000000E+00 -0.36143440043E+02  0.36165745646E+02  0.12700000000E+01 0.  1.
         25    2    1    2    0    0  0.00000000000E+00  0.00000000000E+00  0.71873975149E+02  0.14419062650E+03  0.12500027387E+03 0.  0.
    9000005    1    3    3    0    0  0.93702155560E+01 -0.40469341218E+02  0.89791771381E+02  0.98940036011E+02  0.10000000000E+01 0.  0.
    9000005    1    3    3    0    0 -0.93702155560E+01  0.40469341218E+02 -0.17917796233E+02  0.45250590493E+02  0.10000000000E+01 0.  0.
<mgrwt>
<rscale>  0 0.12500027E+03</rscale>
<asrwt>0</asrwt>
<pdfrwt beam="2">  1        4 0.90395815E-02 0.12500027E+03</pdfrwt>
<pdfrwt beam="1">  1       -4 0.27008075E-01 0.12500027E+03</pdfrwt>
<totfact> 0.18827849E+03</totfact>
</mgrwt>
</event>
<event>
 5    1  0.1440092E-002  0.1250105E+03  0.7818608E-02  0.1235053E+00
          4   -1    0    0  501    0  0.00000000000E+00  0.00000000000E+00  0.21219682240E+02  0.21257653077E+02  0.12700000000E+01 0. -1.
         -4   -1    0    0    0  501 -0.00000000000E+00 -0.00000000000E+00 -0.18391225580E+03  0.18391664072E+03  0.12700000000E+01 0. -1.
         25    2    1    2    0    0  0.00000000000E+00  0.00000000000E+00 -0.16269257356E+03  0.20517429380E+03  0.12501046894E+03 0.  0.
    9000005    1    3    3    0    0  0.26021471614E+02  0.13592042354E+02 -0.17189911247E+03  0.17439084112E+03  0.10000000000E+01 0.  0.
    9000005    1    3    3    0    0 -0.26021471614E+02 -0.13592042354E+02  0.92065389018E+01  0.30783452679E+02  0.10000000000E+01 0.  0.
<mgrwt>
<rscale>  0 0.12501047E+03</rscale>
<asrwt>0</asrwt>
<pdfrwt beam="1">  1        4 0.53102156E-02 0.12501047E+03</pdfrwt>
<pdfrwt beam="2">  1       -4 0.45983354E-01 0.12501047E+03</pdfrwt>
<totfact> 0.16113032E+03</totfact>
</mgrwt>
</event>
<event>
 5    1  0.1440092E-002  0.1249900E+03  0.7818608E-02  0.1235085E+00
          4   -1    0    0  501    0  0.00000000000E+00  0.00000000000E+00  0.12214266687E+03  0.12214926921E+03  0.12700000000E+01 0. -1.
         -4   -1    0    0    0  501 -0.00000000000E+00 -0.00000000000E+00 -0.31955866187E+02  0.31981092598E+02  0.12700000000E+01 0. -1.
         25    2    1    2    0    0  0.00000000000E+00  0.00000000000E+00  0.90186800678E+02  0.15413036181E+03  0.12499003726E+03 0.  0.
    9000005    1    3    3    0    0 -0.48776089784E+02 -0.22290323391E+02  0.55431598959E+01  0.53923019882E+02  0.10000000000E+01 0.  0.
    9000005    1    3    3    0    0  0.48776089784E+02  0.22290323391E+02  0.84643640782E+02  0.10020734193E+03  0.10000000000E+01 0.  0.
<mgrwt>
<rscale>  0 0.12499004E+03</rscale>
<asrwt>0</asrwt>
<pdfrwt beam="1">  1        4 0.30539645E-01 0.12499004E+03</pdfrwt>
<pdfrwt beam="2">  1       -4 0.79929453E-02 0.12499004E+03</pdfrwt>
<totfact> 0.18341788E+03</totfact>
</mgrwt>
</event>
<event>
 5    1  0.1440092E-002  0.1250137E+03  0.7818608E-02  0.1235048E+00
         -4   -1    0    0    0  501 -0.00000000000E+00  0.00000000000E+00  0.10736482586E+02  0.10811334715E+02  0.12700000000E+01 0. -1.
          4   -1    0    0  501    0  0.00000000000E+00 -0.00000000000E+00 -0.36256927016E+03  0.36257149442E+03  0.12700000000E+01 0. -1.
         25    2    1    2    0    0  0.00000000000E+00  0.00000000000E+00 -0.35183278758E+03  0.37338282913E+03  0.12501370597E+03 0.  0.
    9000005    1    3    3    0    0  0.54368318629E+02 -0.17552437919E+02 -0.10023317807E+03  0.11537630664E+03  0.10000000000E+01 0.  0.
    9000005    1    3    3    0    0 -0.54368318629E+02  0.17552437919E+02 -0.25159960950E+03  0.25800652249E+03  0.10000000000E+01 0.  0.
<mgrwt>
<rscale>  0 0.12501371E+03</rscale>
<asrwt>0</asrwt>
<pdfrwt beam="2">  1        4 0.90651911E-01 0.12501371E+03</pdfrwt>
<pdfrwt beam="1">  1       -4 0.26937564E-02 0.12501371E+03</pdfrwt>
<totfact> 0.11135356E+03</totfact>
</mgrwt>
</event>
<event>
 5    1  0.1440092E-002  0.1250030E+03  0.7818608E-02  0.1235065E+00
          4   -1    0    0  501    0  0.00000000000E+00  0.00000000000E+00  0.99812186528E+01  0.10061691001E+02  0.12700000000E+01 0.  1.
         -4   -1    0    0    0  501 -0.00000000000E+00 -0.00000000000E+00 -0.38972613539E+03  0.38972820466E+03  0.12700000000E+01 0.  1.
         25    2    1    2    0    0  0.00000000000E+00  0.00000000000E+00 -0.37974491674E+03  0.39978989566E+03  0.12500303550E+03 0.  0.
    9000005    1    3    3    0    0 -0.14880764789E+02  0.18855592423E+02 -0.53566733941E+01  0.24630559803E+02  0.10000000000E+01 0.  0.
    9000005    1    3    3    0    0  0.14880764789E+02 -0.18855592423E+02 -0.37438824334E+03  0.37515933586E+03  0.10000000000E+01 0.  0.
<mgrwt>
<rscale>  0 0.12500304E+03</rscale>
<asrwt>0</asrwt>
<pdfrwt beam="1">  1        4 0.25056237E-02 0.12500304E+03</pdfrwt>
<pdfrwt beam="2">  1       -4 0.97441801E-01 0.12500304E+03</pdfrwt>
<totfact> 0.10572802E+03</totfact>
</mgrwt>
</event>
<event>
 5    1  0.1440092E-002  0.1250086E+03  0.7818608E-02  0.1235056E+00
          4   -1    0    0  501    0  0.00000000000E+00  0.00000000000E+00  0.27369164435E+02  0.27398614233E+02  0.12700000000E+01 0. -1.
         -4   -1    0    0    0  501 -0.00000000000E+00 -0.00000000000E+00 -0.14263514025E+03  0.14264079407E+03  0.12700000000E+01 0. -1.
         25    2    1    2    0    0  0.00000000000E+00  0.00000000000E+00 -0.11526597581E+03  0.17003940831E+03  0.12500862049E+03 0.  0.
    9000005    1    3    3    0    0  0.22881008613E+02  0.52384692186E+02 -0.23273129637E+02  0.61727911787E+02  0.10000000000E+01 0.  0.
    9000005    1    3    3    0    0 -0.22881008613E+02 -0.52384692186E+02 -0.91992846177E+02  0.10831149652E+03  0.10000000000E+01 0.  0.
<mgrwt>
<rscale>  0 0.12500862E+03</rscale>
<asrwt>0</asrwt>
<pdfrwt beam="1">  1        4 0.68466794E-02 0.12500862E+03</pdfrwt>
<pdfrwt beam="2">  1       -4 0.35663171E-01 0.12500862E+03</pdfrwt>
<totfact> 0.17591750E+03</totfact>
</mgrwt>
</event>
<event>
 5    1  0.1440092E-002  0.1250013E+03  0.7818608E-02  0.1235067E+00
          4   -1    0    0  501    0  0.00000000000E+00  0.00000000000E+00  0.62143382421E+01  0.63427832839E+01  0.12700000000E+01 0. -1.
         -4   -1    0    0    0  501 -0.00000000000E+00 -0.00000000000E+00 -0.62204047028E+03  0.62204176673E+03  0.12700000000E+01 0. -1.
         25    2    1    2    0    0  0.00000000000E+00  0.00000000000E+00 -0.61582613203E+03  0.62838455002E+03  0.12500127121E+03 0.  0.
    9000005    1    3    3    0    0 -0.50997217673E+02 -0.29537366245E+02 -0.41241683737E+03  0.41660751309E+03  0.10000000000E+01 0.  0.
    9000005    1    3    3    0    0  0.50997217673E+02  0.29537366245E+02 -0.20340929467E+03  0.21177703693E+03  0.10000000000E+01 0.  0.
<mgrwt>
<rscale>  0 0.12500127E+03</rscale>
<asrwt>0</asrwt>
<pdfrwt beam="1">  1        4 0.15698044E-02 0.12500127E+03</pdfrwt>
<pdfrwt beam="2">  1       -4 0.15552613E+00 0.12500127E+03</pdfrwt>
<totfact> 0.70037677E+02</totfact>
</mgrwt>
</event>
<event>
 5    1  0.1440092E-002  0.1250015E+03  0.7818608E-02  0.1235067E+00
         -4   -1    0    0    0  501 -0.00000000000E+00  0.00000000000E+00  0.32678699861E+02  0.32703368704E+02  0.12700000000E+01 0. -1.
          4   -1    0    0  501    0  0.00000000000E+00 -0.00000000000E+00 -0.11946485425E+03  0.11947160458E+03  0.12700000000E+01 0. -1.
         25    2    1    2    0    0  0.00000000000E+00  0.00000000000E+00 -0.86786154392E+02  0.15217497329E+03  0.12500154359E+03 0.  0.
    9000005    1    3    3    0    0 -0.25372509898E+02  0.54362286787E+01  0.25816393097E+02  0.36616976845E+02  0.10000000000E+01 0.  0.
    9000005    1    3    3    0    0  0.25372509898E+02 -0.54362286787E+01 -0.11260254749E+03  0.11555799644E+03  0.10000000000E+01 0.  0.
<mgrwt>
<rscale>  0 0.12500154E+03</rscale>
<asrwt>0</asrwt>
<pdfrwt beam="2">  1        4 0.29870140E-01 0.12500154E+03</pdfrwt>
<pdfrwt beam="1">  1       -4 0.81736027E-02 0.12500154E+03</pdfrwt>
<totfact> 0.18431690E+03</totfact>
</mgrwt>
</event>
<event>
 5    1  0.1440092E-002  0.1249973E+03  0.7818608E-02  0.1235074E+00
          4   -1    0    0  501    0  0.00000000000E+00  0.00000000000E+00  0.45293002756E+02  0.45310804436E+02  0.12700000000E+01 0.  1.
         -4   -1    0    0    0  501 -0.00000000000E+00 -0.00000000000E+00 -0.86200827220E+02  0.86210182191E+02  0.12700000000E+01 0.  1.
         25    2    1    2    0    0  0.00000000000E+00  0.00000000000E+00 -0.40907824464E+02  0.13152098663E+03  0.12499727925E+03 0.  0.
    9000005    1    3    3    0    0 -0.59839142147E+02  0.86750000457E+01 -0.38472413284E+01  0.60595212884E+02  0.10000000000E+01 0.  0.
    9000005    1    3    3    0    0  0.59839142147E+02 -0.86750000457E+01 -0.37060583135E+02  0.70925773743E+02  0.10000000000E+01 0.  0.
<mgrwt>
<rscale>  0 0.12499728E+03</rscale>
<asrwt>0</asrwt>
<pdfrwt beam="1">  1        4 0.11326645E-01 0.12499728E+03</pdfrwt>
<pdfrwt beam="2">  1       -4 0.21553601E-01 0.12499728E+03</pdfrwt>
<totfact> 0.19484197E+03</totfact>
</mgrwt>
</event>
<event>
 5    1  0.1440092E-002  0.1249969E+03  0.7818608E-02  0.1235074E+00
          4   -1    0    0  501    0  0.00000000000E+00  0.00000000000E+00  0.23541877701E+02  0.23576108790E+02  0.12700000000E+01 0.  1.
         -4   -1    0    0    0  501 -0.00000000000E+00 -0.00000000000E+00 -0.16576220962E+03  0.16576707465E+03  0.12700000000E+01 0.  1.
         25    2    1    2    0    0  0.00000000000E+00  0.00000000000E+00 -0.14222033192E+03  0.18934318344E+03  0.12499687318E+03 0.  0.
    9000005    1    3    3    0    0 -0.13845728738E+02  0.27355312266E+02 -0.15359338532E+03  0.15662677079E+03  0.10000000000E+01 0.  0.
    9000005    1    3    3    0    0  0.13845728738E+02 -0.27355312266E+02  0.11373053397E+02  0.32716412656E+02  0.10000000000E+01 0.  0.
<mgrwt>
<rscale>  0 0.12499687E+03</rscale>
<asrwt>0</asrwt>
<pdfrwt beam="1">  1        4 0.58903569E-02 0.12499687E+03</pdfrwt>
<pdfrwt beam="2">  1       -4 0.41445436E-01 0.12499687E+03</pdfrwt>
<totfact> 0.16759056E+03</totfact>
</mgrwt>
</event>
<event>
 5    1  0.1440092E-002  0.1250019E+03  0.7818608E-02  0.1235066E+00
         -4   -1    0    0    0  501 -0.00000000000E+00  0.00000000000E+00  0.18761553569E+03  0.18761983406E+03  0.12700000000E+01 0. -1.
          4   -1    0    0  501    0  0.00000000000E+00 -0.00000000000E+00 -0.20797214212E+02  0.20835954957E+02  0.12700000000E+01 0. -1.
         25    2    1    2    0    0  0.00000000000E+00  0.00000000000E+00  0.16681832148E+03  0.20845578902E+03  0.12500185436E+03 0.  0.
    9000005    1    3    3    0    0 -0.26311833173E+02 -0.56615198511E+02  0.88058396104E+02  0.10794848027E+03  0.10000000000E+01 0.  0.
    9000005    1    3    3    0    0  0.26311833173E+02  0.56615198511E+02  0.78759925374E+02  0.10050730875E+03  0.10000000000E+01 0.  0.
<mgrwt>
<rscale>  0 0.12500185E+03</rscale>
<asrwt>0</asrwt>
<pdfrwt beam="2">  1        4 0.52046835E-02 0.12500185E+03</pdfrwt>
<pdfrwt beam="1">  1       -4 0.46909264E-01 0.12500185E+03</pdfrwt>
<totfact> 0.15988281E+03</totfact>
</mgrwt>
</event>
<event>
 5    1  0.1440092E-002  0.1249976E+03  0.7818608E-02  0.1235073E+00
          4   -1    0    0  501    0  0.00000000000E+00  0.00000000000E+00  0.69957412409E+03  0.69957527687E+03  0.12700000000E+01 0. -1.
         -4   -1    0    0    0  501 -0.00000000000E+00 -0.00000000000E+00 -0.55101534078E+01  0.56546167490E+01  0.12700000000E+01 0. -1.
         25    2    1    2    0    0  0.00000000000E+00  0.00000000000E+00  0.69406397069E+03  0.70522989362E+03  0.12499762975E+03 0.  0.
    9000005    1    3    3    0    0 -0.42469314072E+02  0.37482781101E+02  0.49593023855E+03  0.49915569017E+03  0.10000000000E+01 0.  0.
    9000005    1    3    3    0    0  0.42469314072E+02 -0.37482781101E+02  0.19813373213E+03  0.20607420344E+03  0.10000000000E+01 0.  0.
<mgrwt>
<rscale>  0 0.12499763E+03</rscale>
<asrwt>0</asrwt>
<pdfrwt beam="1">  1        4 0.17491176E+00 0.12499763E+03</pdfrwt>
<pdfrwt beam="2">  1       -4 0.13957401E-02 0.12499763E+03</pdfrwt>
<totfact> 0.61525260E+02</totfact>
</mgrwt>
</event>
<event>
 5    1  0.1440092E-002  0.1249975E+03  0.7818608E-02  0.1235073E+00
          4   -1    0    0  501    0  0.00000000000E+00  0.00000000000E+00  0.25794321144E+03  0.25794633788E+03  0.12700000000E+01 0.  1.
         -4   -1    0    0    0  501 -0.00000000000E+00 -0.00000000000E+00 -0.15113391075E+02  0.15166657172E+02  0.12700000000E+01 0.  1.
         25    2    1    2    0    0  0.00000000000E+00  0.00000000000E+00  0.24282982036E+03  0.27311299505E+03  0.12499754561E+03 0.  0.
    9000005    1    3    3    0    0  0.56198386797E+02 -0.19413901068E+02  0.79390118607E+02  0.99191477284E+02  0.10000000000E+01 0.  0.
    9000005    1    3    3    0    0 -0.56198386797E+02  0.19413901068E+02  0.16343970175E+03  0.17392151777E+03  0.10000000000E+01 0.  0.
<mgrwt>
<rscale>  0 0.12499755E+03</rscale>
<asrwt>0</asrwt>
<pdfrwt beam="1">  1        4 0.64492851E-01 0.12499755E+03</pdfrwt>
<pdfrwt beam="2">  1       -4 0.37853969E-02 0.12499755E+03</pdfrwt>
<totfact> 0.13760321E+03</totfact>
</mgrwt>
</event>
<event>
 5    1  0.1440092E-002  0.1250025E+03  0.7818608E-02  0.1235065E+00
         -4   -1    0    0    0  501 -0.00000000000E+00  0.00000000000E+00  0.35554361408E+02  0.35577036346E+02  0.12700000000E+01 0.  1.
          4   -1    0    0  501    0  0.00000000000E+00 -0.00000000000E+00 -0.10981005018E+03  0.10981739398E+03  0.12700000000E+01 0.  1.
         25    2    1    2    0    0  0.00000000000E+00  0.00000000000E+00 -0.74255688768E+02  0.14539443032E+03  0.12500253219E+03 0.  0.
    9000005    1    3    3    0    0 -0.29636307080E+02  0.47029808610E+02 -0.39165149438E+01  0.55735560323E+02  0.10000000000E+01 0.  0.
    9000005    1    3    3    0    0  0.29636307080E+02 -0.47029808610E+02 -0.70339173824E+02  0.89658869999E+02  0.10000000000E+01 0.  0.
<mgrwt>
<rscale>  0 0.12500253E+03</rscale>
<asrwt>0</asrwt>
<pdfrwt beam="2">  1        4 0.27456264E-01 0.12500253E+03</pdfrwt>
<pdfrwt beam="1">  1       -4 0.88923429E-02 0.12500253E+03</pdfrwt>
<totfact> 0.18766473E+03</totfact>
</mgrwt>
</event>
<event>
 5    1  0.1440092E-002  0.1249991E+03  0.7818608E-02  0.1235071E+00
         -4   -1    0    0    0  501 -0.00000000000E+00  0.00000000000E+00  0.32288822539E+02  0.32313789022E+02  0.12700000000E+01 0. -1.
          4   -1    0    0  501    0  0.00000000000E+00 -0.00000000000E+00 -0.12090163240E+03  0.12090830251E+03  0.12700000000E+01 0. -1.
         25    2    1    2    0    0  0.00000000000E+00  0.00000000000E+00 -0.88612809860E+02  0.15322209154E+03  0.12499911705E+03 0.  0.
    9000005    1    3    3    0    0  0.49688011488E+02  0.23083129576E+02 -0.81150697117E+02  0.97919175850E+02  0.10000000000E+01 0.  0.
    9000005    1    3    3    0    0 -0.49688011488E+02 -0.23083129576E+02 -0.74621127438E+01  0.55302915685E+02  0.10000000000E+01 0.  0.
<mgrwt>
<rscale>  0 0.12499912E+03</rscale>
<asrwt>0</asrwt>
<pdfrwt beam="2">  1        4 0.30229362E-01 0.12499912E+03</pdfrwt>
<pdfrwt beam="1">  1       -4 0.80761605E-02 0.12499912E+03</pdfrwt>
<totfact> 0.18381855E+03</totfact>
</mgrwt>
</event>
<event>
 5    1  0.1440092E-002  0.1250020E+03  0.7818608E-02  0.1235066E+00
          4   -1    0    0  501    0  0.00000000000E+00  0.00000000000E+00  0.84290505783E+02  0.84300072747E+02  0.12700000000E+01 0.  1.
         -4   -1    0    0    0  501 -0.00000000000E+00 -0.00000000000E+00 -0.46323291412E+02  0.46340697310E+02  0.12700000000E+01 0.  1.
         25    2    1    2    0    0  0.00000000000E+00  0.00000000000E+00  0.37967214371E+02  0.13064077006E+03  0.12500200572E+03 0.  0.
    9000005    1    3    3    0    0  0.24252377423E+02  0.29464209240E+02 -0.32736721766E+02  0.50289267133E+02  0.10000000000E+01 0.  0.
    9000005    1    3    3    0    0 -0.24252377423E+02 -0.29464209240E+02  0.70703936138E+02  0.80351502924E+02  0.10000000000E+01 0.  0.
<mgrwt>
<rscale>  0 0.12500201E+03</rscale>
<asrwt>0</asrwt>
<pdfrwt beam="1">  1        4 0.21075998E-01 0.12500201E+03</pdfrwt>
<pdfrwt beam="2">  1       -4 0.11584195E-01 0.12500201E+03</pdfrwt>
<totfact> 0.19529083E+03</totfact>
</mgrwt>
</event>
<event>
 5    1  0.1440092E-002  0.1250010E+03  0.7818608E-02  0.1235068E+00
          4   -1    0    0  501    0  0.00000000000E+00  0.00000000000E+00  0.30946006907E+02  0.30972055849E+02  0.12700000000E+01 0.  1.
         -4   -1    0    0    0  501 -0.00000000000E+00 -0.00000000000E+00 -0.12614751411E+03  0.12615390686E+03  0.12700000000E+01 0.  1.
         25    2    1    2    0    0  0.00000000000E+00  0.00000000000E+00 -0.95201507204E+02  0.15712596271E+03  0.12500096473E+03 0.  0.
    9000005    1    3    3    0    0  0.26637950651E+02 -0.38708506566E+02  0.41866700798E+01  0.47185348380E+02  0.10000000000E+01 0.  0.
    9000005    1    3    3    0    0 -0.26637950651E+02  0.38708506566E+02 -0.99388177283E+02  0.10994061433E+03  0.10000000000E+01 0.  0.
<mgrwt>
<rscale>  0 0.12500096E+03</rscale>
<asrwt>0</asrwt>
<pdfrwt beam="1">  1        4 0.77405572E-02 0.12500096E+03</pdfrwt>
<pdfrwt beam="2">  1       -4 0.31540932E-01 0.12500096E+03</pdfrwt>
<totfact> 0.18193447E+03</totfact>
</mgrwt>
</event>
<event>
 5    1  0.1440092E-002  0.1250010E+03  0.7818608E-02  0.1235068E+00
         -4   -1    0    0    0  501 -0.00000000000E+00  0.00000000000E+00  0.84502247413E+03  0.84502342848E+03  0.12700000000E+01 0.  1.
          4   -1    0    0  501    0  0.00000000000E+00 -0.00000000000E+00 -0.45345278939E+01  0.47090172245E+01  0.12700000000E+01 0.  1.
         25    2    1    2    0    0  0.00000000000E+00  0.00000000000E+00  0.84048794624E+03  0.84973244571E+03  0.12500096607E+03 0.  0.
    9000005    1    3    3    0    0  0.39542171477E+02 -0.25837037492E+02  0.69838765521E+03  0.69998389466E+03  0.10000000000E+01 0.  0.
    9000005    1    3    3    0    0 -0.39542171477E+02  0.25837037492E+02  0.14210029102E+03  0.14974855105E+03  0.10000000000E+01 0.  0.
<mgrwt>
<rscale>  0 0.12500097E+03</rscale>
<asrwt>0</asrwt>
<pdfrwt beam="2">  1        4 0.11555626E-02 0.12500097E+03</pdfrwt>
<pdfrwt beam="1">  1       -4 0.21127752E+00 0.12500097E+03</pdfrwt>
<totfact> 0.48251718E+02</totfact>
</mgrwt>
</event>
<event>
 5    1  0.1440092E-002  0.1249994E+03  0.7818608E-02  0.1235070E+00
         -4   -1    0    0    0  501 -0.00000000000E+00  0.00000000000E+00  0.59408798670E+02  0.59422371708E+02  0.12700000000E+01 0.  1.
          4   -1    0    0  501    0  0.00000000000E+00 -0.00000000000E+00 -0.65724237407E+02  0.65736506469E+02  0.12700000000E+01 0.  1.
         25    2    1    2    0    0  0.00000000000E+00  0.00000000000E+00 -0.63154387373E+01  0.12515887818E+03  0.12499944008E+03 0.  0.
    9000005    1    3    3    0    0  0.46962795160E+02  0.55956442004E+01 -0.44055866988E+02  0.64643134046E+02  0.10000000000E+01 0.  0.
    9000005    1    3    3    0    0 -0.46962795160E+02 -0.55956442004E+01  0.37740428251E+02  0.60515744131E+02  0.10000000000E+01 0.  0.
<mgrwt>
<rscale>  0 0.12499944E+03</rscale>
<asrwt>0</asrwt>
<pdfrwt beam="2">  1        4 0.16434290E-01 0.12499944E+03</pdfrwt>
<pdfrwt beam="1">  1       -4 0.14855430E-01 0.12499944E+03</pdfrwt>
<totfact> 0.19826701E+03</totfact>
</mgrwt>
</event>
<event>
 5    1  0.1440092E-002  0.1250004E+03  0.7818608E-02  0.1235069E+00
         -4   -1    0    0    0  501 -0.00000000000E+00  0.00000000000E+00  0.34497630979E+03  0.34497864748E+03  0.12700000000E+01 0.  1.
          4   -1    0    0  501    0  0.00000000000E+00 -0.00000000000E+00 -0.11285318726E+02  0.11356554000E+02  0.12700000000E+01 0.  1.
         25    2    1    2    0    0  0.00000000000E+00  0.00000000000E+00  0.33369099106E+03  0.35633520148E+03  0.12500039318E+03 0.  0.
    9000005    1    3    3    0    0  0.45648457923E+02 -0.41793536240E+02  0.19149898407E+03  0.20125442177E+03  0.10000000000E+01 0.  0.
    9000005    1    3    3    0    0 -0.45648457923E+02  0.41793536240E+02  0.14219200699E+03  0.15508077970E+03  0.10000000000E+01 0.  0.
<mgrwt>
<rscale>  0 0.12500039E+03</rscale>
<asrwt>0</asrwt>
<pdfrwt beam="2">  1        4 0.28305262E-02 0.12500039E+03</pdfrwt>
<pdfrwt beam="1">  1       -4 0.86253276E-01 0.12500039E+03</pdfrwt>
<totfact> 0.11527562E+03</totfact>
</mgrwt>
</event>
<event>
 5    1  0.1440092E-002  0.1250001E+03  0.7818608E-02  0.1235069E+00
          4   -1    0    0  501    0  0.00000000000E+00  0.00000000000E+00  0.68483776839E+01  0.69651401207E+01  0.12700000000E+01 0. -1.
         -4   -1    0    0    0  501 -0.00000000000E+00 -0.00000000000E+00 -0.56545293487E+03  0.56545436107E+03  0.12700000000E+01 0. -1.
         25    2    1    2    0    0  0.00000000000E+00  0.00000000000E+00 -0.55860455719E+03  0.57241950119E+03  0.12500013614E+03 0.  0.
    9000005    1    3    3    0    0 -0.39863598898E+02 -0.47810823097E+02 -0.30450002443E+03  0.31079936647E+03  0.10000000000E+01 0.  0.
    9000005    1    3    3    0    0  0.39863598898E+02  0.47810823097E+02 -0.25410453276E+03  0.26162013472E+03  0.10000000000E+01 0.  0.
<mgrwt>
<rscale>  0 0.12500014E+03</rscale>
<asrwt>0</asrwt>
<pdfrwt beam="1">  1        4 0.17268699E-02 0.12500014E+03</pdfrwt>
<pdfrwt beam="2">  1       -4 0.14137785E+00 0.12500014E+03</pdfrwt>
<totfact> 0.77086364E+02</totfact>
</mgrwt>
</event>
<event>
 5    1  0.1440092E-002  0.1249815E+03  0.7818608E-02  0.1235098E+00
          4   -1    0    0  501    0  0.00000000000E+00  0.00000000000E+00  0.48917923987E+02  0.48934406987E+02  0.12700000000E+01 0.  1.
         -4   -1    0    0    0  501 -0.00000000000E+00 -0.00000000000E+00 -0.79794569350E+02  0.79804675287E+02  0.12700000000E+01 0.  1.
         25    2    1    2    0    0  0.00000000000E+00  0.00000000000E+00 -0.30876645363E+02  0.12873908227E+03  0.12498153494E+03 0.  0.
    9000005    1    3    3    0    0  0.56107316077E+02 -0.26890804560E+02 -0.21351086021E+02  0.65787652044E+02  0.10000000000E+01 0.  0.
    9000005    1    3    3    0    0 -0.56107316077E+02  0.26890804560E+02 -0.95255593416E+01  0.62951430230E+02  0.10000000000E+01 0.  0.
<mgrwt>
<rscale>  0 0.12498153E+03</rscale>
<asrwt>0</asrwt>
<pdfrwt beam="1">  1        4 0.12232805E-01 0.12498153E+03</pdfrwt>
<pdfrwt beam="2">  1       -4 0.19951966E-01 0.12498153E+03</pdfrwt>
<totfact> 0.19640879E+03</totfact>
</mgrwt>
</event>
<event>
 5    1  0.1440092E-002  0.1249934E+03  0.7818608E-02  0.1235080E+00
          4   -1    0    0  501    0  0.00000000000E+00  0.00000000000E+00  0.10309986236E+03  0.10310768409E+03  0.12700000000E+01 0.  1.
         -4   -1    0    0    0  501 -0.00000000000E+00 -0.00000000000E+00 -0.37864100384E+02  0.37885392936E+02  0.12700000000E+01 0.  1.
         25    2    1    2    0    0  0.00000000000E+00  0.00000000000E+00  0.65235761974E+02  0.14099307703E+03  0.12499337234E+03 0.  0.
    9000005    1    3    3    0    0  0.19190396439E+02  0.40225316165E+02 -0.16789336114E+02  0.47636427062E+02  0.10000000000E+01 0.  0.
    9000005    1    3    3    0    0 -0.19190396439E+02 -0.40225316165E+02  0.82025098088E+02  0.93356649963E+02  0.10000000000E+01 0.  0.
<mgrwt>
<rscale>  0 0.12499337E+03</rscale>
<asrwt>0</asrwt>
<pdfrwt beam="1">  1        4 0.25778605E-01 0.12499337E+03</pdfrwt>
<pdfrwt beam="2">  1       -4 0.94696645E-02 0.12499337E+03</pdfrwt>
<totfact> 0.18992587E+03</totfact>
</mgrwt>
</event>
<event>
 5    1  0.1440092E-002  0.1250013E+03  0.7818608E-02  0.1235067E+00
         -4   -1    0    0    0  501 -0.00000000000E+00  0.00000000000E+00  0.21822829394E+03  0.21823198935E+03  0.12700000000E+01 0.  1.
          4   -1    0    0  501    0  0.00000000000E+00 -0.00000000000E+00 -0.17873819180E+02  0.17918881441E+02  0.12700000000E+01 0.  1.
         25    2    1    2    0    0  0.00000000000E+00  0.00000000000E+00  0.20035447476E+03  0.23615087079E+03  0.12500127287E+03 0.  0.
    9000005    1    3    3    0    0  0.23174943356E+02  0.57156267634E+02  0.11920208246E+03  0.13421644233E+03  0.10000000000E+01 0.  0.
    9000005    1    3    3    0    0 -0.23174943356E+02 -0.57156267634E+02  0.81152392300E+02  0.10193442846E+03  0.10000000000E+01 0.  0.
<mgrwt>
<rscale>  0 0.12500127E+03</rscale>
<asrwt>0</asrwt>
<pdfrwt beam="2">  1        4 0.44745495E-02 0.12500127E+03</pdfrwt>
<pdfrwt beam="1">  1       -4 0.54563168E-01 0.12500127E+03</pdfrwt>
<totfact> 0.14969551E+03</totfact>
</mgrwt>
</event>
<event>
 4    1  0.1440092E-002  0.1252975E+03  0.7818608E-02  0.1234605E+00
          4   -1    0    0  501    0  0.00000000000E+00  0.00000000000E+00  0.15596493150E+02  0.15648114857E+02  0.12700000000E+01 0.  1.
         -4   -1    0    0    0  501 -0.00000000000E+00 -0.00000000000E+00 -0.25118143153E+03  0.25118464214E+03  0.12700000000E+01 0.  1.
    9000005    1    1    2    0    0 -0.25650707845E+02  0.55044616174E+02 -0.85077324488E+02  0.10453238601E+03  0.10000000000E+01 0.  0.
    9000005    1    1    2    0    0  0.25650707845E+02 -0.55044616174E+02 -0.15050761390E+03  0.16230037099E+03  0.10000000000E+01 0.  0.
<mgrwt>
<rscale>  0 0.12529747E+03</rscale>
<asrwt>0</asrwt>
<pdfrwt beam="1">  1        4 0.39059781E-02 0.12529747E+03</pdfrwt>
<pdfrwt beam="2">  1       -4 0.62802199E-01 0.12529747E+03</pdfrwt>
<totfact> 0.13859423E+03</totfact>
</mgrwt>
</event>
<event>
 5    1  0.1440092E-002  0.1250002E+03  0.7818608E-02  0.1235069E+00
          4   -1    0    0  501    0  0.00000000000E+00  0.00000000000E+00  0.62535457587E+02  0.62548352142E+02  0.12700000000E+01 0. -1.
         -4   -1    0    0    0  501 -0.00000000000E+00 -0.00000000000E+00 -0.62438949766E+02  0.62451864246E+02  0.12700000000E+01 0. -1.
         25    2    1    2    0    0  0.00000000000E+00  0.00000000000E+00  0.96507821292E-01  0.12500021639E+03  0.12500017913E+03 0.  0.
    9000005    1    3    3    0    0  0.15362676404E+02 -0.54842204118E+02 -0.25672990448E+02  0.62480249818E+02  0.10000000000E+01 0.  0.
    9000005    1    3    3    0    0 -0.15362676404E+02  0.54842204118E+02  0.25769498269E+02  0.62519966570E+02  0.10000000000E+01 0.  0.
<mgrwt>
<rscale>  0 0.12500018E+03</rscale>
<asrwt>0</asrwt>
<pdfrwt beam="1">  1        4 0.15637091E-01 0.12500018E+03</pdfrwt>
<pdfrwt beam="2">  1       -4 0.15612964E-01 0.12500018E+03</pdfrwt>
<totfact> 0.19834960E+03</totfact>
</mgrwt>
</event>
<event>
 5    1  0.1440092E-002  0.1250050E+03  0.7818608E-02  0.1235062E+00
          4   -1    0    0  501    0  0.00000000000E+00  0.00000000000E+00  0.15047407830E+03  0.15047943760E+03  0.12700000000E+01 0.  1.
         -4   -1    0    0    0  501 -0.00000000000E+00 -0.00000000000E+00 -0.25940320632E+02  0.25971390692E+02  0.12700000000E+01 0.  1.
         25    2    1    2    0    0  0.00000000000E+00  0.00000000000E+00  0.12453375767E+03  0.17645082829E+03  0.12500495193E+03 0.  0.
    9000005    1    3    3    0    0 -0.32789249684E+02  0.39138351738E+02  0.11399831472E+02  0.52324961817E+02  0.10000000000E+01 0.  0.
    9000005    1    3    3    0    0  0.32789249684E+02 -0.39138351738E+02  0.11313392620E+03  0.12412586648E+03  0.10000000000E+01 0.  0.
<mgrwt>
<rscale>  0 0.12500495E+03</rscale>
<asrwt>0</asrwt>
<pdfrwt beam="1">  1        4 0.37623073E-01 0.12500495E+03</pdfrwt>
<pdfrwt beam="2">  1       -4 0.64896338E-02 0.12500495E+03</pdfrwt>
<totfact> 0.17307964E+03</totfact>
</mgrwt>
</event>
<event>
 5    1  0.1440092E-002  0.1250039E+03  0.7818608E-02  0.1235063E+00
          4   -1    0    0  501    0  0.00000000000E+00  0.00000000000E+00  0.13799230458E+04  0.13799236302E+04  0.12700000000E+01 0.  1.
         -4   -1    0    0    0  501 -0.00000000000E+00 -0.00000000000E+00 -0.26879007724E+01  0.29728287139E+01  0.12700000000E+01 0.  1.
         25    2    1    2    0    0  0.00000000000E+00  0.00000000000E+00  0.13772351450E+04  0.13828964589E+04  0.12500388563E+03 0.  0.
    9000005    1    3    3    0    0  0.40720329479E+02  0.40373342286E+02  0.41374673772E+03  0.41770266335E+03  0.10000000000E+01 0.  0.
    9000005    1    3    3    0    0 -0.40720329479E+02 -0.40373342286E+02  0.96348840731E+03  0.96519379557E+03  0.10000000000E+01 0.  0.
<mgrwt>
<rscale>  0 0.12500389E+03</rscale>
<asrwt>0</asrwt>
<pdfrwt beam="1">  1        4 0.34501669E+00 0.12500389E+03</pdfrwt>
<pdfrwt beam="2">  1       -4 0.70766375E-03 0.12500389E+03</pdfrwt>
<totfact> 0.16764521E+02</totfact>
</mgrwt>
</event>
<event>
 5    1  0.1440092E-002  0.1249979E+03  0.7818608E-02  0.1235073E+00
         -4   -1    0    0    0  501 -0.00000000000E+00  0.00000000000E+00  0.37618996703E+02  0.37640427906E+02  0.12700000000E+01 0. -1.
          4   -1    0    0  501    0  0.00000000000E+00 -0.00000000000E+00 -0.10377879719E+03  0.10378656775E+03  0.12700000000E+01 0. -1.
         25    2    1    2    0    0  0.00000000000E+00  0.00000000000E+00 -0.66159800483E+02  0.14142699566E+03  0.12499790358E+03 0.  0.
    9000005    1    3    3    0    0  0.26858755588E+02 -0.40177915651E+02 -0.77903310398E+02  0.91681968940E+02  0.10000000000E+01 0.  0.
    9000005    1    3    3    0    0 -0.26858755588E+02  0.40177915651E+02  0.11743509916E+02  0.49745026715E+02  0.10000000000E+01 0.  0.
<mgrwt>
<rscale>  0 0.12499790E+03</rscale>
<asrwt>0</asrwt>
<pdfrwt beam="2">  1        4 0.25948349E-01 0.12499790E+03</pdfrwt>
<pdfrwt beam="1">  1       -4 0.94083996E-02 0.12499790E+03</pdfrwt>
<totfact> 0.18968503E+03</totfact>
</mgrwt>
</event>
<event>
 5    1  0.1440092E-002  0.1250005E+03  0.7818608E-02  0.1235069E+00
          4   -1    0    0  501    0  0.00000000000E+00  0.00000000000E+00  0.28339270025E+02  0.28367712731E+02  0.12700000000E+01 0.  1.
         -4   -1    0    0    0  501 -0.00000000000E+00 -0.00000000000E+00 -0.13773934227E+03  0.13774519704E+03  0.12700000000E+01 0.  1.
         25    2    1    2    0    0  0.00000000000E+00  0.00000000000E+00 -0.10940007224E+03  0.16611290977E+03  0.12500049195E+03 0.  0.
    9000005    1    3    3    0    0  0.33016213720E+02  0.24080485828E+02  0.81294510284E+01  0.41677669562E+02  0.10000000000E+01 0.  0.
    9000005    1    3    3    0    0 -0.33016213720E+02 -0.24080485828E+02 -0.11752952327E+03  0.12443524021E+03  0.10000000000E+01 0.  0.
<mgrwt>
<rscale>  0 0.12500049E+03</rscale>
<asrwt>0</asrwt>
<pdfrwt beam="1">  1        4 0.70891051E-02 0.12500049E+03</pdfrwt>
<pdfrwt beam="2">  1       -4 0.34439121E-01 0.12500049E+03</pdfrwt>
<totfact> 0.17773607E+03</totfact>
</mgrwt>
</event>
<event>
 5    1  0.1440092E-002  0.1249992E+03  0.7818608E-02  0.1235070E+00
          4   -1    0    0  501    0  0.00000000000E+00  0.00000000000E+00  0.16009917110E+02  0.16060210019E+02  0.12700000000E+01 0. -1.
         -4   -1    0    0    0  501 -0.00000000000E+00 -0.00000000000E+00 -0.24355189226E+03  0.24355520344E+03  0.12700000000E+01 0. -1.
         25    2    1    2    0    0  0.00000000000E+00  0.00000000000E+00 -0.22754197515E+03  0.25961541346E+03  0.12499924980E+03 0.  0.
    9000005    1    3    3    0    0 -0.12989496224E+02 -0.43360712748E+02 -0.24286029871E+02  0.51377910322E+02  0.10000000000E+01 0.  0.
    9000005    1    3    3    0    0  0.12989496224E+02  0.43360712748E+02 -0.20325594528E+03  0.20823750314E+03  0.10000000000E+01 0.  0.
<mgrwt>
<rscale>  0 0.12499925E+03</rscale>
<asrwt>0</asrwt>
<pdfrwt beam="1">  1        4 0.40091806E-02 0.12499925E+03</pdfrwt>
<pdfrwt beam="2">  1       -4 0.60894662E-01 0.12499925E+03</pdfrwt>
<totfact> 0.14183755E+03</totfact>
</mgrwt>
</event>
<event>
 5    1  0.1440092E-002  0.1250013E+03  0.7818608E-02  0.1235067E+00
         -4   -1    0    0    0  501 -0.00000000000E+00  0.00000000000E+00  0.31359026587E+02  0.31384732729E+02  0.12700000000E+01 0. -1.
          4   -1    0    0  501    0  0.00000000000E+00 -0.00000000000E+00 -0.12448800994E+03  0.12449448790E+03  0.12700000000E+01 0. -1.
         25    2    1    2    0    0  0.00000000000E+00  0.00000000000E+00 -0.93128983349E+02  0.15587922063E+03  0.12500129553E+03 0.  0.
    9000005    1    3    3    0    0  0.18510797133E+02 -0.57790623008E+02 -0.65183362794E+02  0.89063328611E+02  0.10000000000E+01 0.  0.
    9000005    1    3    3    0    0 -0.18510797133E+02  0.57790623008E+02 -0.27945620555E+02  0.66815892019E+02  0.10000000000E+01 0.  0.
<mgrwt>
<rscale>  0 0.12500130E+03</rscale>
<asrwt>0</asrwt>
<pdfrwt beam="2">  1        4 0.31126024E-01 0.12500130E+03</pdfrwt>
<pdfrwt beam="1">  1       -4 0.78437800E-02 0.12500130E+03</pdfrwt>
<totfact> 0.18252876E+03</totfact>
</mgrwt>
</event>
<event>
 5    1  0.1440092E-002  0.1250014E+03  0.7818608E-02  0.1235067E+00
          4   -1    0    0  501    0  0.00000000000E+00  0.00000000000E+00  0.86332963776E+02  0.86342304431E+02  0.12700000000E+01 0.  1.
         -4   -1    0    0    0  501 -0.00000000000E+00 -0.00000000000E+00 -0.45226613714E+02  0.45244441515E+02  0.12700000000E+01 0.  1.
         25    2    1    2    0    0  0.00000000000E+00  0.00000000000E+00  0.41106350063E+02  0.13158674595E+03  0.12500135877E+03 0.  0.
    9000005    1    3    3    0    0 -0.24319676926E+02 -0.50233539168E+02  0.50149841352E+02  0.75039068029E+02  0.10000000000E+01 0.  0.
    9000005    1    3    3    0    0  0.24319676926E+02  0.50233539168E+02 -0.90434912895E+01  0.56547677917E+02  0.10000000000E+01 0.  0.
<mgrwt>
<rscale>  0 0.12500136E+03</rscale>
<asrwt>0</asrwt>
<pdfrwt beam="1">  1        4 0.21586637E-01 0.12500136E+03</pdfrwt>
<pdfrwt beam="2">  1       -4 0.11310050E-01 0.12500136E+03</pdfrwt>
<totfact> 0.19478837E+03</totfact>
</mgrwt>
</event>
<event>
 5    1  0.1440092E-002  0.1250140E+03  0.7818608E-02  0.1235047E+00
          4   -1    0    0  501    0  0.00000000000E+00  0.00000000000E+00  0.15419073986E+03  0.15419596998E+03  0.12700000000E+01 0.  1.
         -4   -1    0    0    0  501 -0.00000000000E+00 -0.00000000000E+00 -0.25317995331E+02  0.25349828157E+02  0.12700000000E+01 0.  1.
         25    2    1    2    0    0  0.00000000000E+00  0.00000000000E+00  0.12887274453E+03  0.17954579814E+03  0.12501403660E+03 0.  0.
    9000005    1    3    3    0    0  0.27407424243E+02  0.56018728326E+02  0.58538741556E+02  0.85539751519E+02  0.10000000000E+01 0.  0.
    9000005    1    3    3    0    0 -0.27407424243E+02 -0.56018728326E+02  0.70334002971E+02  0.94006046619E+02  0.10000000000E+01 0.  0.
<mgrwt>
<rscale>  0 0.12501404E+03</rscale>
<asrwt>0</asrwt>
<pdfrwt beam="1">  1        4 0.38552317E-01 0.12501404E+03</pdfrwt>
<pdfrwt beam="2">  1       -4 0.63341318E-02 0.12501404E+03</pdfrwt>
<totfact> 0.17169303E+03</totfact>
</mgrwt>
</event>
<event>
 5    1  0.1440092E-002  0.1249976E+03  0.7818608E-02  0.1235073E+00
          4   -1    0    0  501    0  0.00000000000E+00  0.00000000000E+00  0.38317059306E+03  0.38317269773E+03  0.12700000000E+01 0.  1.
         -4   -1    0    0    0  501 -0.00000000000E+00 -0.00000000000E+00 -0.10152462909E+02  0.10231588494E+02  0.12700000000E+01 0.  1.
         25    2    1    2    0    0  0.00000000000E+00  0.00000000000E+00  0.37301813015E+03  0.39340428623E+03  0.12499762797E+03 0.  0.
    9000005    1    3    3    0    0  0.17735983129E+02 -0.22748546857E+02  0.12038791826E+02  0.31272895457E+02  0.10000000000E+01 0.  0.
    9000005    1    3    3    0    0 -0.17735983129E+02  0.22748546857E+02  0.36097933833E+03  0.36213139077E+03  0.10000000000E+01 0.  0.
<mgrwt>
<rscale>  0 0.12499763E+03</rscale>
<asrwt>0</asrwt>
<pdfrwt beam="1">  1        4 0.95802796E-01 0.12499763E+03</pdfrwt>
<pdfrwt beam="2">  1       -4 0.25482697E-02 0.12499763E+03</pdfrwt>
<totfact> 0.10706912E+03</totfact>
</mgrwt>
</event>
<event>
 5    1  0.1440092E-002  0.1250002E+03  0.7818608E-02  0.1235069E+00
         -4   -1    0    0    0  501 -0.00000000000E+00  0.00000000000E+00  0.87689138968E+02  0.87698335178E+02  0.12700000000E+01 0. -1.
          4   -1    0    0  501    0  0.00000000000E+00 -0.00000000000E+00 -0.44526111975E+02  0.44544220137E+02  0.12700000000E+01 0. -1.
         25    2    1    2    0    0  0.00000000000E+00  0.00000000000E+00  0.43163026993E+02  0.13224255532E+03  0.12500018615E+03 0.  0.
    9000005    1    3    3    0    0  0.11487069861E+02 -0.47451240991E+02  0.62850467802E+02  0.79591170042E+02  0.10000000000E+01 0.  0.
    9000005    1    3    3    0    0 -0.11487069861E+02  0.47451240991E+02 -0.19687440809E+02  0.52651385274E+02  0.10000000000E+01 0.  0.
<mgrwt>
<rscale>  0 0.12500019E+03</rscale>
<asrwt>0</asrwt>
<pdfrwt beam="2">  1        4 0.11134941E-01 0.12500019E+03</pdfrwt>
<pdfrwt beam="1">  1       -4 0.21925698E-01 0.12500019E+03</pdfrwt>
<totfact> 0.19444480E+03</totfact>
</mgrwt>
</event>
<event>
 5    1  0.1440092E-002  0.1249967E+03  0.7818608E-02  0.1235074E+00
         -4   -1    0    0    0  501 -0.00000000000E+00  0.00000000000E+00  0.18894256272E+03  0.18894683090E+03  0.12700000000E+01 0. -1.
          4   -1    0    0  501    0  0.00000000000E+00 -0.00000000000E+00 -0.20649175645E+02  0.20688193609E+02  0.12700000000E+01 0. -1.
         25    2    1    2    0    0  0.00000000000E+00  0.00000000000E+00  0.16829338707E+03  0.20963502451E+03  0.12499671743E+03 0.  0.
    9000005    1    3    3    0    0 -0.43800779561E+02  0.34264437107E+01  0.15867587626E+03  0.16464896755E+03  0.10000000000E+01 0.  0.
    9000005    1    3    3    0    0  0.43800779561E+02 -0.34264437107E+01  0.96175108110E+01  0.44986056961E+02  0.10000000000E+01 0.  0.
<mgrwt>
<rscale>  0 0.12499672E+03</rscale>
<asrwt>0</asrwt>
<pdfrwt beam="2">  1        4 0.51677046E-02 0.12499672E+03</pdfrwt>
<pdfrwt beam="1">  1       -4 0.47241053E-01 0.12499672E+03</pdfrwt>
<totfact> 0.15944583E+03</totfact>
</mgrwt>
</event>
<event>
 5    1  0.1440092E-002  0.1249931E+03  0.7818608E-02  0.1235080E+00
         -4   -1    0    0    0  501 -0.00000000000E+00  0.00000000000E+00  0.60502885156E+01  0.61821429231E+01  0.12700000000E+01 0. -1.
          4   -1    0    0  501    0  0.00000000000E+00 -0.00000000000E+00 -0.63846760829E+03  0.63846887139E+03  0.12700000000E+01 0. -1.
         25    2    1    2    0    0  0.00000000000E+00  0.00000000000E+00 -0.63241731978E+03  0.64465101432E+03  0.12499305543E+03 0.  0.
    9000005    1    3    3    0    0  0.42388664086E+02  0.43474784663E+02 -0.39235120979E+03  0.39702308191E+03  0.10000000000E+01 0.  0.
    9000005    1    3    3    0    0 -0.42388664086E+02 -0.43474784663E+02 -0.24006610999E+03  0.24762793241E+03  0.10000000000E+01 0.  0.
<mgrwt>
<rscale>  0 0.12499306E+03</rscale>
<asrwt>0</asrwt>
<pdfrwt beam="2">  1        4 0.15963332E+00 0.12499306E+03</pdfrwt>
<pdfrwt beam="1">  1       -4 0.15292140E-02 0.12499306E+03</pdfrwt>
<totfact> 0.68137112E+02</totfact>
</mgrwt>
</event>
<event>
 5    1  0.1440092E-002  0.1250006E+03  0.7818608E-02  0.1235068E+00
         -4   -1    0    0    0  501 -0.00000000000E+00  0.00000000000E+00  0.46593866307E+03  0.46594039387E+03  0.12700000000E+01 0.  1.
          4   -1    0    0  501    0  0.00000000000E+00 -0.00000000000E+00 -0.83338372710E+01  0.84300500390E+01  0.12700000000E+01 0.  1.
         25    2    1    2    0    0  0.00000000000E+00  0.00000000000E+00  0.45760482580E+03  0.47437044391E+03  0.12500056585E+03 0.  0.
    9000005    1    3    3    0    0 -0.12310139490E+02 -0.13720812289E+02  0.21997763674E+01  0.18591375425E+02  0.10000000000E+01 0.  0.
    9000005    1    3    3    0    0  0.12310139490E+02  0.13720812289E+02  0.45540504943E+03  0.45577906849E+03  0.10000000000E+01 0.  0.
<mgrwt>
<rscale>  0 0.12500057E+03</rscale>
<asrwt>0</asrwt>
<pdfrwt beam="2">  1        4 0.20957023E-02 0.12500057E+03</pdfrwt>
<pdfrwt beam="1">  1       -4 0.11649691E+00 0.12500057E+03</pdfrwt>
<totfact> 0.91798903E+02</totfact>
</mgrwt>
</event>
<event>
 5    1  0.1440092E-002  0.1250002E+03  0.7818608E-02  0.1235069E+00
          4   -1    0    0  501    0  0.00000000000E+00  0.00000000000E+00  0.35164929420E+02  0.35187855307E+02  0.12700000000E+01 0.  1.
         -4   -1    0    0    0  501 -0.00000000000E+00 -0.00000000000E+00 -0.11102120970E+03  0.11102847339E+03  0.12700000000E+01 0.  1.
         25    2    1    2    0    0  0.00000000000E+00  0.00000000000E+00 -0.75856280283E+02  0.14621632870E+03  0.12500015808E+03 0.  0.
    9000005    1    3    3    0    0  0.84435482228E+01 -0.61639995748E+02 -0.31059797991E+02  0.69544903721E+02  0.10000000000E+01 0.  0.
    9000005    1    3    3    0    0 -0.84435482228E+01  0.61639995748E+02 -0.44796482292E+02  0.76671424978E+02  0.10000000000E+01 0.  0.
<mgrwt>
<rscale>  0 0.12500016E+03</rscale>
<asrwt>0</asrwt>
<pdfrwt beam="1">  1        4 0.87950063E-02 0.12500016E+03</pdfrwt>
<pdfrwt beam="2">  1       -4 0.27759075E-01 0.12500016E+03</pdfrwt>
<totfact> 0.18726334E+03</totfact>
</mgrwt>
</event>
<event>
 5    1  0.1440092E-002  0.1249989E+03  0.7818608E-02  0.1235071E+00
          4   -1    0    0  501    0  0.00000000000E+00  0.00000000000E+00  0.12621308769E+03  0.12621947712E+03  0.12700000000E+01 0. -1.
         -4   -1    0    0    0  501 -0.00000000000E+00 -0.00000000000E+00 -0.30928898033E+02  0.30954961371E+02  0.12700000000E+01 0. -1.
         25    2    1    2    0    0  0.00000000000E+00  0.00000000000E+00  0.95284189659E+02  0.15717443849E+03  0.12499890926E+03 0.  0.
    9000005    1    3    3    0    0 -0.10478156035E+02 -0.61575203307E+02  0.45163883194E+02  0.77084847806E+02  0.10000000000E+01 0.  0.
    9000005    1    3    3    0    0  0.10478156035E+02  0.61575203307E+02  0.50120306465E+02  0.80089590686E+02  0.10000000000E+01 0.  0.
<mgrwt>
<rscale>  0 0.12499891E+03</rscale>
<asrwt>0</asrwt>
<pdfrwt beam="1">  1        4 0.31557328E-01 0.12499891E+03</pdfrwt>
<pdfrwt beam="2">  1       -4 0.77362812E-02 0.12499891E+03</pdfrwt>
<totfact> 0.18192007E+03</totfact>
</mgrwt>
</event>
<event>
 5    1  0.1440092E-002  0.1249984E+03  0.7818608E-02  0.1235072E+00
          4   -1    0    0  501    0  0.00000000000E+00  0.00000000000E+00  0.16636882124E+02  0.16685285338E+02  0.12700000000E+01 0.  1.
         -4   -1    0    0    0  501 -0.00000000000E+00 -0.00000000000E+00 -0.23439725145E+03  0.23440069195E+03  0.12700000000E+01 0.  1.
         25    2    1    2    0    0  0.00000000000E+00  0.00000000000E+00 -0.21776036933E+03  0.25108597729E+03  0.12499835816E+03 0.  0.
    9000005    1    3    3    0    0 -0.47607947067E+02 -0.39274518472E+02 -0.12857613297E+03  0.14262477483E+03  0.10000000000E+01 0.  0.
    9000005    1    3    3    0    0  0.47607947067E+02  0.39274518472E+02 -0.89184236360E+02  0.10846120247E+03  0.10000000000E+01 0.  0.
<mgrwt>
<rscale>  0 0.12499836E+03</rscale>
<asrwt>0</asrwt>
<pdfrwt beam="1">  1        4 0.41657017E-02 0.12499836E+03</pdfrwt>
<pdfrwt beam="2">  1       -4 0.58605783E-01 0.12499836E+03</pdfrwt>
<totfact> 0.14462478E+03</totfact>
</mgrwt>
</event>
<event>
 5    1  0.1440092E-002  0.1250048E+03  0.7818608E-02  0.1235062E+00
         -4   -1    0    0    0  501 -0.00000000000E+00  0.00000000000E+00  0.19690423846E+03  0.19690833406E+03  0.12700000000E+01 0. -1.
          4   -1    0    0  501    0  0.00000000000E+00 -0.00000000000E+00 -0.19815219631E+02  0.19855876436E+02  0.12700000000E+01 0. -1.
         25    2    1    2    0    0  0.00000000000E+00  0.00000000000E+00  0.17708901883E+03  0.21676421050E+03  0.12500480936E+03 0.  0.
    9000005    1    3    3    0    0 -0.55766369235E+00 -0.62491906563E+02  0.88484037992E+02  0.10833270215E+03  0.10000000000E+01 0.  0.
    9000005    1    3    3    0    0  0.55766369235E+00  0.62491906563E+02  0.88604980833E+02  0.10843150835E+03  0.10000000000E+01 0.  0.
<mgrwt>
<rscale>  0 0.12500481E+03</rscale>
<asrwt>0</asrwt>
<pdfrwt beam="2">  1        4 0.49593989E-02 0.12500481E+03</pdfrwt>
<pdfrwt beam="1">  1       -4 0.49231654E-01 0.12500481E+03</pdfrwt>
<totfact> 0.15670338E+03</totfact>
</mgrwt>
</event>
<event>
 5    1  0.1440092E-002  0.1250011E+03  0.7818608E-02  0.1235068E+00
          4   -1    0    0  501    0  0.00000000000E+00  0.00000000000E+00  0.12101689432E+02  0.12168146412E+02  0.12700000000E+01 0.  1.
         -4   -1    0    0    0  501 -0.00000000000E+00 -0.00000000000E+00 -0.32183950948E+03  0.32184201523E+03  0.12700000000E+01 0.  1.
         25    2    1    2    0    0  0.00000000000E+00  0.00000000000E+00 -0.30973782005E+03  0.33401016164E+03  0.12500108362E+03 0.  0.
    9000005    1    3    3    0    0 -0.57089494056E+02  0.24079765340E+02 -0.13311627309E+03  0.14683319649E+03  0.10000000000E+01 0.  0.
    9000005    1    3    3    0    0  0.57089494056E+02 -0.24079765340E+02 -0.17662154696E+03  0.18717696514E+03  0.10000000000E+01 0.  0.
<mgrwt>
<rscale>  0 0.12500108E+03</rscale>
<asrwt>0</asrwt>
<pdfrwt beam="1">  1        4 0.30340438E-02 0.12500108E+03</pdfrwt>
<pdfrwt beam="2">  1       -4 0.80468469E-01 0.12500108E+03</pdfrwt>
<totfact> 0.12068392E+03</totfact>
</mgrwt>
</event>
<event>
 5    1  0.1440092E-002  0.1249932E+03  0.7818608E-02  0.1235080E+00
         -4   -1    0    0    0  501 -0.00000000000E+00  0.00000000000E+00  0.18175395339E+02  0.18219711736E+02  0.12700000000E+01 0. -1.
          4   -1    0    0  501    0  0.00000000000E+00 -0.00000000000E+00 -0.21458844517E+03  0.21459220326E+03  0.12700000000E+01 0. -1.
         25    2    1    2    0    0  0.00000000000E+00  0.00000000000E+00 -0.19641304983E+03  0.23281191500E+03  0.12499320630E+03 0.  0.
    9000005    1    3    3    0    0  0.61404883036E+02  0.11275186979E+02 -0.10318209978E+03  0.12060362854E+03  0.10000000000E+01 0.  0.
    9000005    1    3    3    0    0 -0.61404883036E+02 -0.11275186979E+02 -0.93230950047E+02  0.11220828645E+03  0.10000000000E+01 0.  0.
<mgrwt>
<rscale>  0 0.12499321E+03</rscale>
<asrwt>0</asrwt>
<pdfrwt beam="2">  1        4 0.53653113E-01 0.12499321E+03</pdfrwt>
<pdfrwt beam="1">  1       -4 0.45498588E-02 0.12499321E+03</pdfrwt>
<totfact> 0.15089717E+03</totfact>
</mgrwt>
</event>
<event>
 5    1  0.1440092E-002  0.1249832E+03  0.7818608E-02  0.1235096E+00
          4   -1    0    0  501    0  0.00000000000E+00  0.00000000000E+00  0.55173150281E+01  0.56615956337E+01  0.12700000000E+01 0.  1.
         -4   -1    0    0    0  501 -0.00000000000E+00 -0.00000000000E+00 -0.69852800136E+03  0.69852915586E+03  0.12700000000E+01 0.  1.
         25    2    1    2    0    0  0.00000000000E+00  0.00000000000E+00 -0.69301068634E+03  0.70419075150E+03  0.12498321134E+03 0.  0.
    9000005    1    3    3    0    0  0.34895021618E+02 -0.35553142587E+02 -0.55900911963E+03  0.56122534183E+03  0.10000000000E+01 0.  0.
    9000005    1    3    3    0    0 -0.34895021618E+02  0.35553142587E+02 -0.13400156670E+03  0.14296540966E+03  0.10000000000E+01 0.  0.
<mgrwt>
<rscale>  0 0.12498321E+03</rscale>
<asrwt>0</asrwt>
<pdfrwt beam="1">  1        4 0.13975105E-02 0.12498321E+03</pdfrwt>
<pdfrwt beam="2">  1       -4 0.17464988E+00 0.12498321E+03</pdfrwt>
<totfact> 0.61653142E+02</totfact>
</mgrwt>
</event>
<event>
 5    1  0.1440092E-002  0.1250009E+03  0.7818608E-02  0.1235068E+00
          4   -1    0    0  501    0  0.00000000000E+00  0.00000000000E+00  0.31575102448E+02  0.31600632820E+02  0.12700000000E+01 0. -1.
         -4   -1    0    0    0  501 -0.00000000000E+00 -0.00000000000E+00 -0.12363594137E+03  0.12364246398E+03  0.12700000000E+01 0. -1.
         25    2    1    2    0    0  0.00000000000E+00  0.00000000000E+00 -0.92060838924E+02  0.15524309680E+03  0.12500088416E+03 0.  0.
    9000005    1    3    3    0    0 -0.31584185727E+02  0.52606111183E+02 -0.60743117747E+02  0.86346337939E+02  0.10000000000E+01 0.  0.
    9000005    1    3    3    0    0  0.31584185727E+02 -0.52606111183E+02 -0.31317721177E+02  0.68896758861E+02  0.10000000000E+01 0.  0.
<mgrwt>
<rscale>  0 0.12500088E+03</rscale>
<asrwt>0</asrwt>
<pdfrwt beam="1">  1        4 0.78977825E-02 0.12500088E+03</pdfrwt>
<pdfrwt beam="2">  1       -4 0.30912991E-01 0.12500088E+03</pdfrwt>
<totfact> 0.18283570E+03</totfact>
</mgrwt>
</event>
<event>
 5    1  0.1440092E-002  0.1249992E+03  0.7818608E-02  0.1235071E+00
         -4   -1    0    0    0  501 -0.00000000000E+00  0.00000000000E+00  0.11619946208E+02  0.11689142392E+02  0.12700000000E+01 0.  1.
          4   -1    0    0  501    0  0.00000000000E+00 -0.00000000000E+00 -0.33509506108E+03  0.33509746770E+03  0.12700000000E+01 0.  1.
         25    2    1    2    0    0  0.00000000000E+00  0.00000000000E+00 -0.32347511487E+03  0.34678661010E+03  0.12499921199E+03 0.  0.
    9000005    1    3    3    0    0  0.24136799151E+02  0.50258686630E+02 -0.24004391595E+03  0.24643579740E+03  0.10000000000E+01 0.  0.
    9000005    1    3    3    0    0 -0.24136799151E+02 -0.50258686630E+02 -0.83431198922E+02  0.10035081270E+03  0.10000000000E+01 0.  0.
<mgrwt>
<rscale>  0 0.12499921E+03</rscale>
<asrwt>0</asrwt>
<pdfrwt beam="2">  1        4 0.83782684E-01 0.12499921E+03</pdfrwt>
<pdfrwt beam="1">  1       -4 0.29139380E-02 0.12499921E+03</pdfrwt>
<totfact> 0.11754557E+03</totfact>
</mgrwt>
</event>
<event>
 5    1  0.1440092E-002  0.1249988E+03  0.7818608E-02  0.1235071E+00
         -4   -1    0    0    0  501 -0.00000000000E+00  0.00000000000E+00  0.45624988201E+01  0.47359577156E+01  0.12700000000E+01 0. -1.
          4   -1    0    0  501    0  0.00000000000E+00 -0.00000000000E+00 -0.84000247362E+03  0.84000343368E+03  0.12700000000E+01 0. -1.
         25    2    1    2    0    0  0.00000000000E+00  0.00000000000E+00 -0.83543997480E+03  0.84473939139E+03  0.12499875149E+03 0.  0.
    9000005    1    3    3    0    0  0.37387446608E+02 -0.45398038858E+02 -0.56049888423E+03  0.56357679363E+03  0.10000000000E+01 0.  0.
    9000005    1    3    3    0    0 -0.37387446608E+02  0.45398038858E+02 -0.27494109057E+03  0.28116259776E+03  0.10000000000E+01 0.  0.
<mgrwt>
<rscale>  0 0.12499875E+03</rscale>
<asrwt>0</asrwt>
<pdfrwt beam="2">  1        4 0.21002190E+00 0.12499875E+03</pdfrwt>
<pdfrwt beam="1">  1       -4 0.11624299E-02 0.12499875E+03</pdfrwt>
<totfact> 0.48665371E+02</totfact>
</mgrwt>
</event>
<event>
 5    1  0.1440092E-002  0.1250053E+03  0.7818608E-02  0.1235061E+00
         -4   -1    0    0    0  501 -0.00000000000E+00  0.00000000000E+00  0.56874830116E+01  0.58275520595E+01  0.12700000000E+01 0. -1.
          4   -1    0    0  501    0  0.00000000000E+00 -0.00000000000E+00 -0.67837751987E+03  0.67837870866E+03  0.12700000000E+01 0. -1.
         25    2    1    2    0    0  0.00000000000E+00  0.00000000000E+00 -0.67269003686E+03  0.68420626072E+03  0.12500528597E+03 0.  0.
    9000005    1    3    3    0    0 -0.28380884368E+02  0.22059529049E+02 -0.61615841438E+03  0.61720684461E+03  0.10000000000E+01 0.  0.
    9000005    1    3    3    0    0  0.28380884368E+02 -0.22059529049E+02 -0.56531622474E+02  0.66999416109E+02  0.10000000000E+01 0.  0.
<mgrwt>
<rscale>  0 0.12500529E+03</rscale>
<asrwt>0</asrwt>
<pdfrwt beam="2">  1        4 0.16961176E+00 0.12500529E+03</pdfrwt>
<pdfrwt beam="1">  1       -4 0.14395303E-02 0.12500529E+03</pdfrwt>
<totfact> 0.63721342E+02</totfact>
</mgrwt>
</event>
<event>
 5    1  0.1440092E-002  0.1249994E+03  0.7818608E-02  0.1235070E+00
         -4   -1    0    0    0  501 -0.00000000000E+00  0.00000000000E+00  0.35143435508E+01  0.37367781033E+01  0.12700000000E+01 0. -1.
          4   -1    0    0  501    0  0.00000000000E+00 -0.00000000000E+00 -0.10771857845E+04  0.10771865332E+04  0.12700000000E+01 0. -1.
         25    2    1    2    0    0  0.00000000000E+00  0.00000000000E+00 -0.10736714410E+04  0.10809233113E+04  0.12499936692E+03 0.  0.
    9000005    1    3    3    0    0 -0.57658726677E+02  0.24086984355E+02 -0.54294337395E+03  0.54652833311E+03  0.10000000000E+01 0.  0.
    9000005    1    3    3    0    0  0.57658726677E+02 -0.24086984355E+02 -0.53072806703E+03  0.53439497818E+03  0.10000000000E+01 0.  0.
<mgrwt>
<rscale>  0 0.12499937E+03</rscale>
<asrwt>0</asrwt>
<pdfrwt beam="2">  1        4 0.26932325E+00 0.12499937E+03</pdfrwt>
<pdfrwt beam="1">  1       -4 0.90648748E-03 0.12499937E+03</pdfrwt>
<totfact> 0.31931022E+02</totfact>
</mgrwt>
</event>
<event>
 5    1  0.1440092E-002  0.1250007E+03  0.7818608E-02  0.1235068E+00
         -4   -1    0    0    0  501 -0.00000000000E+00  0.00000000000E+00  0.14666313229E+03  0.14666863084E+03  0.12700000000E+01 0.  1.
          4   -1    0    0  501    0  0.00000000000E+00 -0.00000000000E+00 -0.26613311748E+02  0.26643597020E+02  0.12700000000E+01 0.  1.
         25    2    1    2    0    0  0.00000000000E+00  0.00000000000E+00  0.12004982054E+03  0.17331222786E+03  0.12500067566E+03 0.  0.
    9000005    1    3    3    0    0  0.51599079182E+02  0.31436750832E+02  0.82146186546E+02  0.10197906765E+03  0.10000000000E+01 0.  0.
    9000005    1    3    3    0    0 -0.51599079182E+02 -0.31436750832E+02  0.37903633995E+02  0.71333160208E+02  0.10000000000E+01 0.  0.
<mgrwt>
<rscale>  0 0.12500068E+03</rscale>
<asrwt>0</asrwt>
<pdfrwt beam="2">  1        4 0.66578011E-02 0.12500068E+03</pdfrwt>
<pdfrwt beam="1">  1       -4 0.36670255E-01 0.12500068E+03</pdfrwt>
<totfact> 0.17448405E+03</totfact>
</mgrwt>
</event>
<event>
 5    1  0.1440092E-002  0.1250047E+03  0.7818608E-02  0.1235062E+00
         -4   -1    0    0    0  501 -0.00000000000E+00  0.00000000000E+00  0.59835770610E+03  0.59835905387E+03  0.12700000000E+01 0. -1.
          4   -1    0    0  501    0  0.00000000000E+00 -0.00000000000E+00 -0.64656435336E+01  0.65891916275E+01  0.12700000000E+01 0. -1.
         25    2    1    2    0    0  0.00000000000E+00  0.00000000000E+00  0.59189206256E+03  0.60494824549E+03  0.12500466392E+03 0.  0.
    9000005    1    3    3    0    0  0.27493972753E+02  0.49650139920E+02  0.16933414762E+03  0.17859481651E+03  0.10000000000E+01 0.  0.
    9000005    1    3    3    0    0 -0.27493972753E+02 -0.49650139920E+02  0.42255791494E+03  0.42635342899E+03  0.10000000000E+01 0.  0.
<mgrwt>
<rscale>  0 0.12500466E+03</rscale>
<asrwt>0</asrwt>
<pdfrwt beam="2">  1        4 0.16320227E-02 0.12500466E+03</pdfrwt>
<pdfrwt beam="1">  1       -4 0.14960506E+00 0.12500466E+03</pdfrwt>
<totfact> 0.72876089E+02</totfact>
</mgrwt>
</event>
<event>
 5    1  0.1440092E-002  0.1249985E+03  0.7818608E-02  0.1235072E+00
          4   -1    0    0  501    0  0.00000000000E+00  0.00000000000E+00  0.58800822175E+03  0.58800959324E+03  0.12700000000E+01 0.  1.
         -4   -1    0    0    0  501 -0.00000000000E+00 -0.00000000000E+00 -0.65809386470E+01  0.67023617834E+01  0.12700000000E+01 0.  1.
         25    2    1    2    0    0  0.00000000000E+00  0.00000000000E+00  0.58142728310E+03  0.59471195503E+03  0.12499849565E+03 0.  0.
    9000005    1    3    3    0    0 -0.59312474574E+02 -0.19115661400E+02  0.31291651393E+03  0.31906288227E+03  0.10000000000E+01 0.  0.
    9000005    1    3    3    0    0  0.59312474574E+02  0.19115661400E+02  0.26851076918E+03  0.27564907276E+03  0.10000000000E+01 0.  0.
<mgrwt>
<rscale>  0 0.12499850E+03</rscale>
<asrwt>0</asrwt>
<pdfrwt beam="1">  1        4 0.14701739E+00 0.12499850E+03</pdfrwt>
<pdfrwt beam="2">  1       -4 0.16605841E-02 0.12499850E+03</pdfrwt>
<totfact> 0.74174814E+02</totfact>
</mgrwt>
</event>
<event>
 5    1  0.1440092E-002  0.1249987E+03  0.7818608E-02  0.1235071E+00
          4   -1    0    0  501    0  0.00000000000E+00  0.00000000000E+00  0.64005285854E+03  0.64005411851E+03  0.12700000000E+01 0.  1.
         -4   -1    0    0    0  501 -0.00000000000E+00 -0.00000000000E+00 -0.60355343319E+01  0.61677041654E+01  0.12700000000E+01 0.  1.
         25    2    1    2    0    0  0.00000000000E+00  0.00000000000E+00  0.63401732421E+03  0.64622182268E+03  0.12499870683E+03 0.  0.
    9000005    1    3    3    0    0 -0.39471273898E+02  0.10277413768E+02  0.56177490648E+03  0.56325451818E+03  0.10000000000E+01 0.  0.
    9000005    1    3    3    0    0  0.39471273898E+02 -0.10277413768E+02  0.72242417728E+02  0.82967304500E+02  0.10000000000E+01 0.  0.
<mgrwt>
<rscale>  0 0.12499871E+03</rscale>
<asrwt>0</asrwt>
<pdfrwt beam="1">  1        4 0.16002987E+00 0.12499871E+03</pdfrwt>
<pdfrwt beam="2">  1       -4 0.15255626E-02 0.12499871E+03</pdfrwt>
<totfact> 0.67946889E+02</totfact>
</mgrwt>
</event>
<event>
 5    1  0.1440092E-002  0.1250003E+03  0.7818608E-02  0.1235069E+00
          4   -1    0    0  501    0  0.00000000000E+00  0.00000000000E+00  0.16347553855E+02  0.16396811185E+02  0.12700000000E+01 0. -1.
         -4   -1    0    0    0  501 -0.00000000000E+00 -0.00000000000E+00 -0.23854072096E+03  0.23854410170E+03  0.12700000000E+01 0. -1.
         25    2    1    2    0    0  0.00000000000E+00  0.00000000000E+00 -0.22219316710E+03  0.25494091289E+03  0.12500026222E+03 0.  0.
    9000005    1    3    3    0    0 -0.77277044178E+01 -0.61679853669E+02 -0.12417891551E+03  0.13887233281E+03  0.10000000000E+01 0.  0.
    9000005    1    3    3    0    0  0.77277044178E+01  0.61679853669E+02 -0.98014251599E+02  0.11606858008E+03  0.10000000000E+01 0.  0.
<mgrwt>
<rscale>  0 0.12500026E+03</rscale>
<asrwt>0</asrwt>
<pdfrwt beam="1">  1        4 0.40934690E-02 0.12500026E+03</pdfrwt>
<pdfrwt beam="2">  1       -4 0.59641749E-01 0.12500026E+03</pdfrwt>
<totfact> 0.14334972E+03</totfact>
</mgrwt>
</event>
<event>
 5    1  0.1440092E-002  0.1250048E+03  0.7818608E-02  0.1235062E+00
          4   -1    0    0  501    0  0.00000000000E+00  0.00000000000E+00  0.13483585624E+03  0.13484183709E+03  0.12700000000E+01 0. -1.
         -4   -1    0    0    0  501 -0.00000000000E+00 -0.00000000000E+00 -0.28952101267E+02  0.28979942508E+02  0.12700000000E+01 0. -1.
         25    2    1    2    0    0  0.00000000000E+00  0.00000000000E+00  0.10588375498E+03  0.16382177959E+03  0.12500482351E+03 0.  0.
    9000005    1    3    3    0    0  0.16763340403E+02 -0.57381914874E+02  0.76815638566E+02  0.97341337901E+02  0.10000000000E+01 0.  0.
    9000005    1    3    3    0    0 -0.16763340403E+02  0.57381914874E+02  0.29068116410E+02  0.66480441693E+02  0.10000000000E+01 0.  0.
<mgrwt>
<rscale>  0 0.12500482E+03</rscale>
<asrwt>0</asrwt>
<pdfrwt beam="1">  1        4 0.33713192E-01 0.12500482E+03</pdfrwt>
<pdfrwt beam="2">  1       -4 0.72422531E-02 0.12500482E+03</pdfrwt>
<totfact> 0.17877362E+03</totfact>
</mgrwt>
</event>
<event>
 5    1  0.1440092E-002  0.1250012E+03  0.7818608E-02  0.1235067E+00
          4   -1    0    0  501    0  0.00000000000E+00  0.00000000000E+00  0.80472609757E+02  0.80482630556E+02  0.12700000000E+01 0. -1.
         -4   -1    0    0    0  501 -0.00000000000E+00 -0.00000000000E+00 -0.48520909971E+02  0.48537527795E+02  0.12700000000E+01 0. -1.
         25    2    1    2    0    0  0.00000000000E+00  0.00000000000E+00  0.31951699786E+02  0.12902015835E+03  0.12500116056E+03 0.  0.
    9000005    1    3    3    0    0  0.38238225946E+02  0.21033064912E+02  0.62143970392E+02  0.75943563250E+02  0.10000000000E+01 0.  0.
    9000005    1    3    3    0    0 -0.38238225946E+02 -0.21033064912E+02 -0.30192270606E+02  0.53076595100E+02  0.10000000000E+01 0.  0.
<mgrwt>
<rscale>  0 0.12500116E+03</rscale>
<asrwt>0</asrwt>
<pdfrwt beam="1">  1        4 0.20121482E-01 0.12500116E+03</pdfrwt>
<pdfrwt beam="2">  1       -4 0.12133557E-01 0.12500116E+03</pdfrwt>
<totfact> 0.19616674E+03</totfact>
</mgrwt>
</event>
<event>
 5    1  0.1440092E-002  0.1250109E+03  0.7818608E-02  0.1235052E+00
         -4   -1    0    0    0  501 -0.00000000000E+00  0.00000000000E+00  0.10058286787E+02  0.10138147419E+02  0.12700000000E+01 0.  1.
          4   -1    0    0  501    0  0.00000000000E+00 -0.00000000000E+00 -0.38681227456E+03  0.38681435942E+03  0.12700000000E+01 0.  1.
         25    2    1    2    0    0  0.00000000000E+00  0.00000000000E+00 -0.37675398778E+03  0.39695250684E+03  0.12501090104E+03 0.  0.
    9000005    1    3    3    0    0 -0.57811956336E+02 -0.27318152659E+01 -0.11348692921E+03  0.12739689247E+03  0.10000000000E+01 0.  0.
    9000005    1    3    3    0    0  0.57811956336E+02  0.27318152659E+01 -0.26326705856E+03  0.26955561436E+03  0.10000000000E+01 0.  0.
<mgrwt>
<rscale>  0 0.12501090E+03</rscale>
<asrwt>0</asrwt>
<pdfrwt beam="2">  1        4 0.96713262E-01 0.12501090E+03</pdfrwt>
<pdfrwt beam="1">  1       -4 0.25248162E-02 0.12501090E+03</pdfrwt>
<totfact> 0.10629608E+03</totfact>
</mgrwt>
</event>
<event>
 5    1  0.1440092E-002  0.1249999E+03  0.7818608E-02  0.1235069E+00
          4   -1    0    0  501    0  0.00000000000E+00  0.00000000000E+00  0.25615645560E+03  0.25615960385E+03  0.12700000000E+01 0.  1.
         -4   -1    0    0    0  501 -0.00000000000E+00 -0.00000000000E+00 -0.15219764279E+02  0.15272659386E+02  0.12700000000E+01 0.  1.
         25    2    1    2    0    0  0.00000000000E+00  0.00000000000E+00  0.24093669132E+03  0.27143226323E+03  0.12499993721E+03 0.  0.
    9000005    1    3    3    0    0 -0.18236411372E+02  0.17073207546E+02  0.24485306459E+03  0.24612615537E+03  0.10000000000E+01 0.  0.
    9000005    1    3    3    0    0  0.18236411372E+02 -0.17073207546E+02 -0.39163732772E+01  0.25306107865E+02  0.10000000000E+01 0.  0.
<mgrwt>
<rscale>  0 0.12499994E+03</rscale>
<asrwt>0</asrwt>
<pdfrwt beam="1">  1        4 0.64046116E-01 0.12499994E+03</pdfrwt>
<pdfrwt beam="2">  1       -4 0.38119467E-02 0.12499994E+03</pdfrwt>
<totfact> 0.13811285E+03</totfact>
</mgrwt>
</event>
<event>
 5    1  0.1440092E-002  0.1250022E+03  0.7818608E-02  0.1235066E+00
         -4   -1    0    0    0  501 -0.00000000000E+00  0.00000000000E+00  0.20348918684E+02  0.20388511265E+02  0.12700000000E+01 0. -1.
          4   -1    0    0  501    0  0.00000000000E+00 -0.00000000000E+00 -0.19174212983E+03  0.19174633570E+03  0.12700000000E+01 0. -1.
         25    2    1    2    0    0  0.00000000000E+00  0.00000000000E+00 -0.17139321115E+03  0.21213484696E+03  0.12500224185E+03 0.  0.
    9000005    1    3    3    0    0  0.48852923479E+02  0.15382963852E+02 -0.24930273443E+02  0.56971591546E+02  0.10000000000E+01 0.  0.
    9000005    1    3    3    0    0 -0.48852923479E+02 -0.15382963852E+02 -0.14646293771E+03  0.15516325542E+03  0.10000000000E+01 0.  0.
<mgrwt>
<rscale>  0 0.12500224E+03</rscale>
<asrwt>0</asrwt>
<pdfrwt beam="2">  1        4 0.47941002E-01 0.12500224E+03</pdfrwt>
<pdfrwt beam="1">  1       -4 0.50927051E-02 0.12500224E+03</pdfrwt>
<totfact> 0.15846586E+03</totfact>
</mgrwt>
</event>
<event>
 5    1  0.1440092E-002  0.1249978E+03  0.7818608E-02  0.1235073E+00
         -4   -1    0    0    0  501 -0.00000000000E+00  0.00000000000E+00  0.70391189736E+02  0.70402645494E+02  0.12700000000E+01 0. -1.
          4   -1    0    0  501    0  0.00000000000E+00 -0.00000000000E+00 -0.55468287555E+02  0.55482824588E+02  0.12700000000E+01 0. -1.
         25    2    1    2    0    0  0.00000000000E+00  0.00000000000E+00  0.14922902181E+02  0.12588547008E+03  0.12499783425E+03 0.  0.
    9000005    1    3    3    0    0  0.12813687235E+01 -0.92236074260E+01 -0.54770541004E+02  0.55565537895E+02  0.10000000000E+01 0.  0.
    9000005    1    3    3    0    0 -0.12813687235E+01  0.92236074260E+01  0.69693443185E+02  0.70319932187E+02  0.10000000000E+01 0.  0.
<mgrwt>
<rscale>  0 0.12499783E+03</rscale>
<asrwt>0</asrwt>
<pdfrwt beam="2">  1        4 0.13870321E-01 0.12499783E+03</pdfrwt>
<pdfrwt beam="1">  1       -4 0.17601046E-01 0.12499783E+03</pdfrwt>
<totfact> 0.19788113E+03</totfact>
</mgrwt>
</event>
<event>
 5    1  0.1440092E-002  0.1250005E+03  0.7818608E-02  0.1235068E+00
         -4   -1    0    0    0  501 -0.00000000000E+00  0.00000000000E+00  0.64460654238E+01  0.65699816931E+01  0.12700000000E+01 0. -1.
          4   -1    0    0  501    0  0.00000000000E+00 -0.00000000000E+00 -0.60010093163E+03  0.60010227549E+03  0.12700000000E+01 0. -1.
         25    2    1    2    0    0  0.00000000000E+00  0.00000000000E+00 -0.59365486621E+03  0.60667225718E+03  0.12500050984E+03 0.  0.
    9000005    1    3    3    0    0 -0.24079514694E+02  0.36771081266E+02 -0.81229785967E+02  0.92364568822E+02  0.10000000000E+01 0.  0.
    9000005    1    3    3    0    0  0.24079514694E+02 -0.36771081266E+02 -0.51242508024E+03  0.51430768836E+03  0.10000000000E+01 0.  0.
<mgrwt>
<rscale>  0 0.12500051E+03</rscale>
<asrwt>0</asrwt>
<pdfrwt beam="2">  1        4 0.15004070E+00 0.12500051E+03</pdfrwt>
<pdfrwt beam="1">  1       -4 0.16271759E-02 0.12500051E+03</pdfrwt>
<totfact> 0.72668967E+02</totfact>
</mgrwt>
</event>
<event>
 5    1  0.1440092E-002  0.1250025E+03  0.7818608E-02  0.1235065E+00
          4   -1    0    0  501    0  0.00000000000E+00  0.00000000000E+00  0.30232517973E+01  0.32791693201E+01  0.12700000000E+01 0. -1.
         -4   -1    0    0    0  501 -0.00000000000E+00 -0.00000000000E+00 -0.12393970221E+04  0.12393976728E+04  0.12700000000E+01 0. -1.
         25    2    1    2    0    0  0.00000000000E+00  0.00000000000E+00 -0.12363737703E+04  0.12426768421E+04  0.12500253596E+03 0.  0.
    9000005    1    3    3    0    0 -0.50094002237E+02 -0.90275222057E+01 -0.97861629335E+03  0.97993966898E+03  0.10000000000E+01 0.  0.
    9000005    1    3    3    0    0  0.50094002237E+02  0.90275222057E+01 -0.25775747695E+03  0.26273717313E+03  0.10000000000E+01 0.  0.
<mgrwt>
<rscale>  0 0.12500254E+03</rscale>
<asrwt>0</asrwt>
<pdfrwt beam="1">  1        4 0.78788822E-03 0.12500254E+03</pdfrwt>
<pdfrwt beam="2">  1       -4 0.30987966E+00 0.12500254E+03</pdfrwt>
<totfact> 0.23033776E+02</totfact>
</mgrwt>
</event>
<event>
 5    1  0.1440092E-002  0.1249995E+03  0.7818608E-02  0.1235070E+00
          4   -1    0    0  501    0  0.00000000000E+00  0.00000000000E+00  0.14037116854E+03  0.14037691354E+03  0.12700000000E+01 0. -1.
         -4   -1    0    0    0  501 -0.00000000000E+00 -0.00000000000E+00 -0.27806992387E+02  0.27835978977E+02  0.12700000000E+01 0. -1.
         25    2    1    2    0    0  0.00000000000E+00  0.00000000000E+00  0.11256417615E+03  0.16821289252E+03  0.12499953383E+03 0.  0.
    9000005    1    3    3    0    0  0.44310758658E+02  0.43919205624E+02  0.61111832419E+02  0.87338399442E+02  0.10000000000E+01 0.  0.
    9000005    1    3    3    0    0 -0.44310758658E+02 -0.43919205624E+02  0.51452343730E+02  0.80874493079E+02  0.10000000000E+01 0.  0.
<mgrwt>
<rscale>  0 0.12499953E+03</rscale>
<asrwt>0</asrwt>
<pdfrwt beam="1">  1        4 0.35097133E-01 0.12499953E+03</pdfrwt>
<pdfrwt beam="2">  1       -4 0.69560897E-02 0.12499953E+03</pdfrwt>
<totfact> 0.17678147E+03</totfact>
</mgrwt>
</event>
<event>
 5    1  0.1440092E-002  0.1250001E+03  0.7818608E-02  0.1235069E+00
         -4   -1    0    0    0  501 -0.00000000000E+00  0.00000000000E+00  0.16141649778E+03  0.16142149379E+03  0.12700000000E+01 0.  1.
          4   -1    0    0  501    0  0.00000000000E+00 -0.00000000000E+00 -0.24177820346E+02  0.24211152321E+02  0.12700000000E+01 0.  1.
         25    2    1    2    0    0  0.00000000000E+00  0.00000000000E+00  0.13723867744E+03  0.18563264611E+03  0.12500009887E+03 0.  0.
    9000005    1    3    3    0    0 -0.54519520665E+02  0.30444351194E+02  0.72262892151E+02  0.95510011178E+02  0.10000000000E+01 0.  0.
    9000005    1    3    3    0    0  0.54519520665E+02 -0.30444351194E+02  0.64975785284E+02  0.90122634929E+02  0.10000000000E+01 0.  0.
<mgrwt>
<rscale>  0 0.12500010E+03</rscale>
<asrwt>0</asrwt>
<pdfrwt beam="2">  1        4 0.60492462E-02 0.12500010E+03</pdfrwt>
<pdfrwt beam="1">  1       -4 0.40358915E-01 0.12500010E+03</pdfrwt>
<totfact> 0.16913933E+03</totfact>
</mgrwt>
</event>
<event>
 5    1  0.1440092E-002  0.1249989E+03  0.7818608E-02  0.1235071E+00
          4   -1    0    0  501    0  0.00000000000E+00  0.00000000000E+00  0.50089635547E+03  0.50089796548E+03  0.12700000000E+01 0.  1.
         -4   -1    0    0    0  501 -0.00000000000E+00 -0.00000000000E+00 -0.77450433752E+01  0.78484773609E+01  0.12700000000E+01 0.  1.
         25    2    1    2    0    0  0.00000000000E+00  0.00000000000E+00  0.49315131210E+03  0.50874644284E+03  0.12499890593E+03 0.  0.
    9000005    1    3    3    0    0  0.17694661039E+02 -0.93631218825E+01  0.56390509070E+01  0.20822295162E+02  0.10000000000E+01 0.  0.
    9000005    1    3    3    0    0 -0.17694661039E+02  0.93631218825E+01  0.48751226119E+03  0.48792414768E+03  0.10000000000E+01 0.  0.
<mgrwt>
<rscale>  0 0.12499891E+03</rscale>
<asrwt>0</asrwt>
<pdfrwt beam="1">  1        4 0.12523722E+00 0.12499891E+03</pdfrwt>
<pdfrwt beam="2">  1       -4 0.19493913E-02 0.12499891E+03</pdfrwt>
<totfact> 0.86234465E+02</totfact>
</mgrwt>
</event>
<event>
 5    1  0.1440092E-002  0.1249930E+03  0.7818608E-02  0.1235080E+00
         -4   -1    0    0    0  501 -0.00000000000E+00  0.00000000000E+00  0.60021414843E+01  0.61350307576E+01  0.12700000000E+01 0. -1.
          4   -1    0    0  501    0  0.00000000000E+00 -0.00000000000E+00 -0.64347831453E+03  0.64347956779E+03  0.12700000000E+01 0. -1.
         25    2    1    2    0    0  0.00000000000E+00  0.00000000000E+00 -0.63747617305E+03  0.64961459855E+03  0.12499302161E+03 0.  0.
    9000005    1    3    3    0    0 -0.36281998764E+01 -0.62305924614E+02 -0.30261686766E+03  0.30898731474E+03  0.10000000000E+01 0.  0.
    9000005    1    3    3    0    0  0.36281998764E+01  0.62305924614E+02 -0.33485930539E+03  0.34062728382E+03  0.10000000000E+01 0.  0.
<mgrwt>
<rscale>  0 0.12499302E+03</rscale>
<asrwt>0</asrwt>
<pdfrwt beam="2">  1        4 0.16088611E+00 0.12499302E+03</pdfrwt>
<pdfrwt beam="1">  1       -4 0.15173054E-02 0.12499302E+03</pdfrwt>
<totfact> 0.67565790E+02</totfact>
</mgrwt>
</event>
<event>
 5    1  0.1440092E-002  0.1249997E+03  0.7818608E-02  0.1235070E+00
          4   -1    0    0  501    0  0.00000000000E+00  0.00000000000E+00  0.23406471066E+02  0.23440899893E+02  0.12700000000E+01 0.  1.
         -4   -1    0    0    0  501 -0.00000000000E+00 -0.00000000000E+00 -0.16672726045E+03  0.16673209732E+03  0.12700000000E+01 0.  1.
         25    2    1    2    0    0  0.00000000000E+00  0.00000000000E+00 -0.14332078938E+03  0.19017299721E+03  0.12499968080E+03 0.  0.
    9000005    1    3    3    0    0 -0.13198005263E+02  0.99411379658E+01  0.20030415388E+02  0.25985209400E+02  0.10000000000E+01 0.  0.
    9000005    1    3    3    0    0  0.13198005263E+02 -0.99411379658E+01 -0.16335120477E+03  0.16418778781E+03  0.10000000000E+01 0.  0.
<mgrwt>
<rscale>  0 0.12499968E+03</rscale>
<asrwt>0</asrwt>
<pdfrwt beam="1">  1        4 0.58565265E-02 0.12499968E+03</pdfrwt>
<pdfrwt beam="2">  1       -4 0.41686720E-01 0.12499968E+03</pdfrwt>
<totfact> 0.16723366E+03</totfact>
</mgrwt>
</event>
<event>
 5    1  0.1440092E-002  0.1249973E+03  0.7818608E-02  0.1235074E+00
          4   -1    0    0  501    0  0.00000000000E+00  0.00000000000E+00  0.20563067831E+03  0.20563460011E+03  0.12700000000E+01 0.  1.
         -4   -1    0    0    0  501 -0.00000000000E+00 -0.00000000000E+00 -0.18970268880E+02  0.19012732612E+02  0.12700000000E+01 0.  1.
         25    2    1    2    0    0  0.00000000000E+00  0.00000000000E+00  0.18666040943E+03  0.22464733273E+03  0.12499726257E+03 0.  0.
    9000005    1    3    3    0    0 -0.27680127284E+01  0.49556421985E+02  0.16156719231E+03  0.16902206509E+03  0.10000000000E+01 0.  0.
    9000005    1    3    3    0    0  0.27680127284E+01 -0.49556421985E+02  0.25093217123E+02  0.55625267639E+02  0.10000000000E+01 0.  0.
<mgrwt>
<rscale>  0 0.12499726E+03</rscale>
<asrwt>0</asrwt>
<pdfrwt beam="1">  1        4 0.51413468E-01 0.12499726E+03</pdfrwt>
<pdfrwt beam="2">  1       -4 0.47483654E-02 0.12499726E+03</pdfrwt>
<totfact> 0.15381450E+03</totfact>
</mgrwt>
</event>
<event>
 5    1  0.1440092E-002  0.1250001E+03  0.7818608E-02  0.1235069E+00
         -4   -1    0    0    0  501 -0.00000000000E+00  0.00000000000E+00  0.13869873217E+03  0.13870454645E+03  0.12700000000E+01 0.  1.
          4   -1    0    0  501    0  0.00000000000E+00 -0.00000000000E+00 -0.28142864781E+02  0.28171505783E+02  0.12700000000E+01 0.  1.
         25    2    1    2    0    0  0.00000000000E+00  0.00000000000E+00  0.11055586739E+03  0.16687605223E+03  0.12500006798E+03 0.  0.
    9000005    1    3    3    0    0 -0.61125247167E+02 -0.11516260440E+02  0.47230798693E+02  0.78106775896E+02  0.10000000000E+01 0.  0.
    9000005    1    3    3    0    0  0.61125247167E+02  0.11516260440E+02  0.63325068697E+02  0.88769276336E+02  0.10000000000E+01 0.  0.
<mgrwt>
<rscale>  0 0.12500007E+03</rscale>
<asrwt>0</asrwt>
<pdfrwt beam="2">  1        4 0.70400232E-02 0.12500007E+03</pdfrwt>
<pdfrwt beam="1">  1       -4 0.34678990E-01 0.12500007E+03</pdfrwt>
<totfact> 0.17738850E+03</totfact>
</mgrwt>
</event>
<event>
 5    1  0.1440092E-002  0.1249971E+03  0.7818608E-02  0.1235074E+00
          4   -1    0    0  501    0  0.00000000000E+00  0.00000000000E+00  0.86557343810E+02  0.86566660253E+02  0.12700000000E+01 0.  1.
         -4   -1    0    0    0  501 -0.00000000000E+00 -0.00000000000E+00 -0.45106263425E+02  0.45124138775E+02  0.12700000000E+01 0.  1.
         25    2    1    2    0    0  0.00000000000E+00  0.00000000000E+00  0.41451080384E+02  0.13169079903E+03  0.12499709790E+03 0.  0.
    9000005    1    3    3    0    0 -0.59414251160E+02  0.19327568469E+02  0.21998758496E+02  0.66246158524E+02  0.10000000000E+01 0.  0.
    9000005    1    3    3    0    0  0.59414251160E+02 -0.19327568469E+02  0.19452321888E+02  0.65444640504E+02  0.10000000000E+01 0.  0.
<mgrwt>
<rscale>  0 0.12499710E+03</rscale>
<asrwt>0</asrwt>
<pdfrwt beam="1">  1        4 0.21642735E-01 0.12499710E+03</pdfrwt>
<pdfrwt beam="2">  1       -4 0.11279965E-01 0.12499710E+03</pdfrwt>
<totfact> 0.19475230E+03</totfact>
</mgrwt>
</event>
<event>
 5    1  0.1440092E-002  0.1249990E+03  0.7818608E-02  0.1235071E+00
         -4   -1    0    0    0  501 -0.00000000000E+00  0.00000000000E+00  0.26479544922E+03  0.26479849477E+03  0.12700000000E+01 0.  1.
          4   -1    0    0  501    0  0.00000000000E+00 -0.00000000000E+00 -0.14721256328E+02  0.14775936108E+02  0.12700000000E+01 0.  1.
         25    2    1    2    0    0  0.00000000000E+00  0.00000000000E+00  0.25007419290E+03  0.27957443087E+03  0.12499904178E+03 0.  0.
    9000005    1    3    3    0    0 -0.53858758752E+02 -0.10120609397E+02  0.19220989286E+03  0.19987204793E+03  0.10000000000E+01 0.  0.
    9000005    1    3    3    0    0  0.53858758752E+02  0.10120609397E+02  0.57864300037E+02  0.79702382948E+02  0.10000000000E+01 0.  0.
<mgrwt>
<rscale>  0 0.12499904E+03</rscale>
<asrwt>0</asrwt>
<pdfrwt beam="2">  1        4 0.36875296E-02 0.12499904E+03</pdfrwt>
<pdfrwt beam="1">  1       -4 0.66206080E-01 0.12499904E+03</pdfrwt>
<totfact> 0.13563766E+03</totfact>
</mgrwt>
</event>
<event>
 5    1  0.1440092E-002  0.1249983E+03  0.7818608E-02  0.1235072E+00
         -4   -1    0    0    0  501 -0.00000000000E+00  0.00000000000E+00  0.43427309649E+03  0.43427495349E+03  0.12700000000E+01 0. -1.
          4   -1    0    0  501    0  0.00000000000E+00 -0.00000000000E+00 -0.89479581619E+01  0.90376354909E+01  0.12700000000E+01 0. -1.
         25    2    1    2    0    0  0.00000000000E+00  0.00000000000E+00  0.42532513833E+03  0.44331258899E+03  0.12499831303E+03 0.  0.
    9000005    1    3    3    0    0 -0.89372963372E+01 -0.12989573132E+02 -0.17948592677E+01  0.15900496714E+02  0.10000000000E+01 0.  0.
    9000005    1    3    3    0    0  0.89372963372E+01  0.12989573132E+02  0.42711999759E+03  0.42741209227E+03  0.10000000000E+01 0.  0.
<mgrwt>
<rscale>  0 0.12499831E+03</rscale>
<asrwt>0</asrwt>
<pdfrwt beam="2">  1        4 0.22484312E-02 0.12499831E+03</pdfrwt>
<pdfrwt beam="1">  1       -4 0.10857972E+00 0.12499831E+03</pdfrwt>
<totfact> 0.97233866E+02</totfact>
</mgrwt>
</event>
<event>
 5    1  0.1440092E-002  0.1249934E+03  0.7818608E-02  0.1235080E+00
          4   -1    0    0  501    0  0.00000000000E+00  0.00000000000E+00  0.69516201274E+02  0.69527801199E+02  0.12700000000E+01 0.  1.
         -4   -1    0    0    0  501 -0.00000000000E+00 -0.00000000000E+00 -0.56162573508E+02  0.56176930879E+02  0.12700000000E+01 0.  1.
         25    2    1    2    0    0  0.00000000000E+00  0.00000000000E+00  0.13353627766E+02  0.12570473208E+03  0.12499344100E+03 0.  0.
    9000005    1    3    3    0    0 -0.29550098910E+02 -0.51753251431E+02  0.25578252023E+02  0.64860267930E+02  0.10000000000E+01 0.  0.
    9000005    1    3    3    0    0  0.29550098910E+02  0.51753251431E+02 -0.12224624257E+02  0.60844464149E+02  0.10000000000E+01 0.  0.
<mgrwt>
<rscale>  0 0.12499344E+03</rscale>
<asrwt>0</asrwt>
<pdfrwt beam="1">  1        4 0.17382295E-01 0.12499344E+03</pdfrwt>
<pdfrwt beam="2">  1       -4 0.14043888E-01 0.12499344E+03</pdfrwt>
<totfact> 0.19799922E+03</totfact>
</mgrwt>
</event>
<event>
 5    1  0.1440092E-002  0.1250000E+03  0.7818608E-02  0.1235069E+00
          4   -1    0    0  501    0  0.00000000000E+00  0.00000000000E+00  0.10755585702E+03  0.10756335472E+03  0.12700000000E+01 0.  1.
         -4   -1    0    0    0  501 -0.00000000000E+00 -0.00000000000E+00 -0.36298444934E+02  0.36320655345E+02  0.12700000000E+01 0.  1.
         25    2    1    2    0    0  0.00000000000E+00  0.00000000000E+00  0.71257412084E+02  0.14388401007E+03  0.12499995830E+03 0.  0.
    9000005    1    3    3    0    0 -0.31437510506E+02 -0.35097885419E+02  0.82879757748E+02  0.95342712737E+02  0.10000000000E+01 0.  0.
    9000005    1    3    3    0    0  0.31437510506E+02  0.35097885419E+02 -0.11622345663E+02  0.48541297329E+02  0.10000000000E+01 0.  0.
<mgrwt>
<rscale>  0 0.12499996E+03</rscale>
<asrwt>0</asrwt>
<pdfrwt beam="1">  1        4 0.26892678E-01 0.12499996E+03</pdfrwt>
<pdfrwt beam="2">  1       -4 0.90783248E-02 0.12499996E+03</pdfrwt>
<totfact> 0.18843392E+03</totfact>
</mgrwt>
</event>
<event>
 5    1  0.1440092E-002  0.1249995E+03  0.7818608E-02  0.1235070E+00
         -4   -1    0    0    0  501 -0.00000000000E+00  0.00000000000E+00  0.11858096036E+04  0.11858102837E+04  0.12700000000E+01 0.  1.
          4   -1    0    0  501    0  0.00000000000E+00 -0.00000000000E+00 -0.31710224192E+01  0.34158868809E+01  0.12700000000E+01 0.  1.
         25    2    1    2    0    0  0.00000000000E+00  0.00000000000E+00  0.11826385812E+04  0.11892261706E+04  0.12499948423E+03 0.  0.
    9000005    1    3    3    0    0  0.49220455275E+02  0.16778332494E+02  0.26160546276E+03  0.26672567144E+03  0.10000000000E+01 0.  0.
    9000005    1    3    3    0    0 -0.49220455275E+02 -0.16778332494E+02  0.92103311843E+03  0.92250049913E+03  0.10000000000E+01 0.  0.
<mgrwt>
<rscale>  0 0.12499948E+03</rscale>
<asrwt>0</asrwt>
<pdfrwt beam="2">  1        4 0.82344869E-03 0.12499948E+03</pdfrwt>
<pdfrwt beam="1">  1       -4 0.29648309E+00 0.12499948E+03</pdfrwt>
<totfact> 0.25770521E+02</totfact>
</mgrwt>
</event>
<event>
 5    1  0.1440092E-002  0.1250176E+03  0.7818608E-02  0.1235042E+00
          4   -1    0    0  501    0  0.00000000000E+00  0.00000000000E+00  0.12941942110E+03  0.12942565224E+03  0.12700000000E+01 0.  1.
         -4   -1    0    0    0  501 -0.00000000000E+00 -0.00000000000E+00 -0.30171059785E+02  0.30197777212E+02  0.12700000000E+01 0.  1.
         25    2    1    2    0    0  0.00000000000E+00  0.00000000000E+00  0.99248361319E+02  0.15962342946E+03  0.12501760679E+03 0.  0.
    9000005    1    3    3    0    0 -0.56899205797E+02 -0.21454301797E+02  0.31185743219E+02  0.68347328156E+02  0.10000000000E+01 0.  0.
    9000005    1    3    3    0    0  0.56899205797E+02  0.21454301797E+02  0.68062618101E+02  0.91276101301E+02  0.10000000000E+01 0.  0.
<mgrwt>
<rscale>  0 0.12501761E+03</rscale>
<asrwt>0</asrwt>
<pdfrwt beam="1">  1        4 0.32358973E-01 0.12501761E+03</pdfrwt>
<pdfrwt beam="2">  1       -4 0.75468836E-02 0.12501761E+03</pdfrwt>
<totfact> 0.18068095E+03</totfact>
</mgrwt>
</event>
<event>
 5    1  0.1440092E-002  0.1249944E+03  0.7818608E-02  0.1235078E+00
         -4   -1    0    0    0  501 -0.00000000000E+00  0.00000000000E+00  0.11033532399E+03  0.11034263283E+03  0.12700000000E+01 0.  1.
          4   -1    0    0  501    0  0.00000000000E+00 -0.00000000000E+00 -0.35380418420E+02  0.35403204764E+02  0.12700000000E+01 0.  1.
         25    2    1    2    0    0  0.00000000000E+00  0.00000000000E+00  0.74954905567E+02  0.14574583759E+03  0.12499444510E+03 0.  0.
    9000005    1    3    3    0    0 -0.11104790898E+02  0.67274524253E+01  0.10875092798E+03  0.10952780164E+03  0.10000000000E+01 0.  0.
    9000005    1    3    3    0    0  0.11104790898E+02 -0.67274524253E+01 -0.33796022411E+02  0.36218035946E+02  0.10000000000E+01 0.  0.
<mgrwt>
<rscale>  0 0.12499445E+03</rscale>
<asrwt>0</asrwt>
<pdfrwt beam="2">  1        4 0.88488666E-02 0.12499445E+03</pdfrwt>
<pdfrwt beam="1">  1       -4 0.27587593E-01 0.12499445E+03</pdfrwt>
<totfact> 0.18752381E+03</totfact>
</mgrwt>
</event>
<event>
 5    1  0.1440092E-002  0.1250017E+03  0.7818608E-02  0.1235067E+00
          4   -1    0    0  501    0  0.00000000000E+00  0.00000000000E+00  0.49130487929E+02  0.49146899640E+02  0.12700000000E+01 0. -1.
         -4   -1    0    0    0  501 -0.00000000000E+00 -0.00000000000E+00 -0.79475016728E+02  0.79485163294E+02  0.12700000000E+01 0. -1.
         25    2    1    2    0    0  0.00000000000E+00  0.00000000000E+00 -0.30344528798E+02  0.12863206293E+03  0.12500166874E+03 0.  0.
    9000005    1    3    3    0    0  0.17881657919E+02  0.32992092179E+02  0.36250254255E+02  0.52185369308E+02  0.10000000000E+01 0.  0.
    9000005    1    3    3    0    0 -0.17881657919E+02 -0.32992092179E+02 -0.66594783054E+02  0.76446693625E+02  0.10000000000E+01 0.  0.
<mgrwt>
<rscale>  0 0.12500167E+03</rscale>
<asrwt>0</asrwt>
<pdfrwt beam="1">  1        4 0.12285942E-01 0.12500167E+03</pdfrwt>
<pdfrwt beam="2">  1       -4 0.19872074E-01 0.12500167E+03</pdfrwt>
<totfact> 0.19637448E+03</totfact>
</mgrwt>
</event>
<event>
 5    1  0.1440092E-002  0.1249991E+03  0.7818608E-02  0.1235071E+00
         -4   -1    0    0    0  501 -0.00000000000E+00  0.00000000000E+00  0.12222072755E+02  0.12287878679E+02  0.12700000000E+01 0.  1.
          4   -1    0    0  501    0  0.00000000000E+00 -0.00000000000E+00 -0.31867620287E+03  0.31867873348E+03  0.12700000000E+01 0.  1.
         25    2    1    2    0    0  0.00000000000E+00  0.00000000000E+00 -0.30645413011E+03  0.33096661216E+03  0.12499905801E+03 0.  0.
    9000005    1    3    3    0    0 -0.16071057754E+02  0.10276535589E+02  0.43377025750E+01  0.19588306325E+02  0.10000000000E+01 0.  0.
    9000005    1    3    3    0    0  0.16071057754E+02 -0.10276535589E+02 -0.31079183269E+03  0.31137830584E+03  0.10000000000E+01 0.  0.
<mgrwt>
<rscale>  0 0.12499906E+03</rscale>
<asrwt>0</asrwt>
<pdfrwt beam="2">  1        4 0.79677565E-01 0.12499906E+03</pdfrwt>
<pdfrwt beam="1">  1       -4 0.30640613E-02 0.12499906E+03</pdfrwt>
<totfact> 0.12145754E+03</totfact>
</mgrwt>
</event>
<event>
 5    1  0.1440092E-002  0.1250053E+03  0.7818608E-02  0.1235061E+00
          4   -1    0    0  501    0  0.00000000000E+00  0.00000000000E+00  0.36937088449E+03  0.36937306779E+03  0.12700000000E+01 0.  1.
         -4   -1    0    0    0  501 -0.00000000000E+00 -0.00000000000E+00 -0.10535959647E+02  0.10612226236E+02  0.12700000000E+01 0.  1.
         25    2    1    2    0    0  0.00000000000E+00  0.00000000000E+00  0.35883492484E+03  0.37998529403E+03  0.12500528145E+03 0.  0.
    9000005    1    3    3    0    0  0.37115012316E+02 -0.75400824418E+00  0.26596500478E+02  0.45677855743E+02  0.10000000000E+01 0.  0.
    9000005    1    3    3    0    0 -0.37115012316E+02  0.75400824418E+00  0.33223842437E+03  0.33430743828E+03  0.10000000000E+01 0.  0.
<mgrwt>
<rscale>  0 0.12500528E+03</rscale>
<asrwt>0</asrwt>
<pdfrwt beam="1">  1        4 0.92352523E-01 0.12500528E+03</pdfrwt>
<pdfrwt beam="2">  1       -4 0.26437963E-02 0.12500528E+03</pdfrwt>
<totfact> 0.10992105E+03</totfact>
</mgrwt>
</event>
<event>
 5    1  0.1440092E-002  0.1249976E+03  0.7818608E-02  0.1235073E+00
          4   -1    0    0  501    0  0.00000000000E+00  0.00000000000E+00  0.95277162999E+02  0.95285626876E+02  0.12700000000E+01 0. -1.
         -4   -1    0    0    0  501 -0.00000000000E+00 -0.00000000000E+00 -0.40977101233E+02  0.40996777013E+02  0.12700000000E+01 0. -1.
         25    2    1    2    0    0  0.00000000000E+00  0.00000000000E+00  0.54300061767E+02  0.13628240389E+03  0.12499758758E+03 0.  0.
    9000005    1    3    3    0    0 -0.59642044023E+02  0.99085348367E+01  0.99199199015E+01  0.61276074358E+02  0.10000000000E+01 0.  0.
    9000005    1    3    3    0    0  0.59642044023E+02 -0.99085348367E+01  0.44380141865E+02  0.75006329532E+02  0.10000000000E+01 0.  0.
<mgrwt>
<rscale>  0 0.12499759E+03</rscale>
<asrwt>0</asrwt>
<pdfrwt beam="1">  1        4 0.23822808E-01 0.12499759E+03</pdfrwt>
<pdfrwt beam="2">  1       -4 0.10247793E-01 0.12499759E+03</pdfrwt>
<totfact> 0.19233258E+03</totfact>
</mgrwt>
</event>
<event>
 5    1  0.1440092E-002  0.1250011E+03  0.7818608E-02  0.1235068E+00
          4   -1    0    0  501    0  0.00000000000E+00  0.00000000000E+00  0.16758446183E+02  0.16806499293E+02  0.12700000000E+01 0. -1.
         -4   -1    0    0    0  501 -0.00000000000E+00 -0.00000000000E+00 -0.23271216071E+03  0.23271562613E+03  0.12700000000E+01 0. -1.
         25    2    1    2    0    0  0.00000000000E+00  0.00000000000E+00 -0.21595371453E+03  0.24952212542E+03  0.12500113701E+03 0.  0.
    9000005    1    3    3    0    0 -0.40258264093E+00  0.38066318811E+01 -0.23248771204E+03  0.23252137271E+03  0.10000000000E+01 0.  0.
    9000005    1    3    3    0    0  0.40258264093E+00 -0.38066318811E+01  0.16533997508E+02  0.17000752708E+02  0.10000000000E+01 0.  0.
<mgrwt>
<rscale>  0 0.12500114E+03</rscale>
<asrwt>0</asrwt>
<pdfrwt beam="1">  1        4 0.41960521E-02 0.12500114E+03</pdfrwt>
<pdfrwt beam="2">  1       -4 0.58184470E-01 0.12500114E+03</pdfrwt>
<totfact> 0.14513519E+03</totfact>
</mgrwt>
</event>
<event>
 5    1  0.1440092E-002  0.1249997E+03  0.7818608E-02  0.1235070E+00
         -4   -1    0    0    0  501 -0.00000000000E+00  0.00000000000E+00  0.25821363157E+03  0.25821675474E+03  0.12700000000E+01 0. -1.
          4   -1    0    0  501    0  0.00000000000E+00 -0.00000000000E+00 -0.15098034250E+02  0.15151354336E+02  0.12700000000E+01 0. -1.
         25    2    1    2    0    0  0.00000000000E+00  0.00000000000E+00  0.24311559732E+03  0.27336810908E+03  0.12499971760E+03 0.  0.
    9000005    1    3    3    0    0 -0.29203932176E+02 -0.16157635912E+02  0.60153495799E+01  0.33928207783E+02  0.10000000000E+01 0.  0.
    9000005    1    3    3    0    0  0.29203932176E+02  0.16157635912E+02  0.23710024774E+03  0.23943990129E+03  0.10000000000E+01 0.  0.
<mgrwt>
<rscale>  0 0.12499972E+03</rscale>
<asrwt>0</asrwt>
<pdfrwt beam="2">  1        4 0.37815640E-02 0.12499972E+03</pdfrwt>
<pdfrwt beam="1">  1       -4 0.64560463E-01 0.12499972E+03</pdfrwt>
<totfact> 0.13751811E+03</totfact>
</mgrwt>
</event>
<event>
 5    1  0.1440092E-002  0.1249826E+03  0.7818608E-02  0.1235097E+00
          4   -1    0    0  501    0  0.00000000000E+00  0.00000000000E+00  0.38977037027E+02  0.38997721925E+02  0.12700000000E+01 0.  1.
         -4   -1    0    0    0  501 -0.00000000000E+00 -0.00000000000E+00 -0.10013999973E+03  0.10014805263E+03  0.12700000000E+01 0.  1.
         25    2    1    2    0    0  0.00000000000E+00  0.00000000000E+00 -0.61162962701E+02  0.13914577455E+03  0.12498255306E+03 0.  0.
    9000005    1    3    3    0    0  0.52555119651E+00  0.61947461204E+02 -0.39653207201E+02  0.73560458094E+02  0.10000000000E+01 0.  0.
    9000005    1    3    3    0    0 -0.52555119651E+00 -0.61947461204E+02 -0.21509755500E+02  0.65585316461E+02  0.10000000000E+01 0.  0.
<mgrwt>
<rscale>  0 0.12498255E+03</rscale>
<asrwt>0</asrwt>
<pdfrwt beam="1">  1        4 0.97478517E-02 0.12498255E+03</pdfrwt>
<pdfrwt beam="2">  1       -4 0.25038592E-01 0.12498255E+03</pdfrwt>
<totfact> 0.19091895E+03</totfact>
</mgrwt>
</event>
<event>
 5    1  0.1440092E-002  0.1249947E+03  0.7818608E-02  0.1235078E+00
         -4   -1    0    0    0  501 -0.00000000000E+00  0.00000000000E+00  0.42287541731E+01  0.44153439115E+01  0.12700000000E+01 0. -1.
          4   -1    0    0  501    0  0.00000000000E+00 -0.00000000000E+00 -0.90353183549E+03  0.90353272805E+03  0.12700000000E+01 0. -1.
         25    2    1    2    0    0  0.00000000000E+00  0.00000000000E+00 -0.89930308132E+03  0.90794807196E+03  0.12499467708E+03 0.  0.
    9000005    1    3    3    0    0  0.33689927411E+02 -0.16145031684E+02 -0.81351709518E+03  0.81437505942E+03  0.10000000000E+01 0.  0.
    9000005    1    3    3    0    0 -0.33689927411E+02  0.16145031684E+02 -0.85785986139E+02  0.93573012535E+02  0.10000000000E+01 0.  0.
<mgrwt>
<rscale>  0 0.12499468E+03</rscale>
<asrwt>0</asrwt>
<pdfrwt beam="2">  1        4 0.22590575E+00 0.12499468E+03</pdfrwt>
<pdfrwt beam="1">  1       -4 0.10806269E-02 0.12499468E+03</pdfrwt>
<totfact> 0.43676868E+02</totfact>
</mgrwt>
</event>
<event>
 5    1  0.1440092E-002  0.1249947E+03  0.7818608E-02  0.1235078E+00
          4   -1    0    0  501    0  0.00000000000E+00  0.00000000000E+00  0.69266393456E+02  0.69278035209E+02  0.12700000000E+01 0. -1.
         -4   -1    0    0    0  501 -0.00000000000E+00 -0.00000000000E+00 -0.56366239089E+02  0.56380544597E+02  0.12700000000E+01 0. -1.
         25    2    1    2    0    0  0.00000000000E+00  0.00000000000E+00  0.12900154367E+02  0.12565857981E+03  0.12499465867E+03 0.  0.
    9000005    1    3    3    0    0 -0.44458557113E+02 -0.34929370611E+02 -0.20305039086E+02  0.60082600178E+02  0.10000000000E+01 0.  0.
    9000005    1    3    3    0    0  0.44458557113E+02  0.34929370611E+02  0.33205193453E+02  0.65575979627E+02  0.10000000000E+01 0.  0.
<mgrwt>
<rscale>  0 0.12499466E+03</rscale>
<asrwt>0</asrwt>
<pdfrwt beam="1">  1        4 0.17319842E-01 0.12499466E+03</pdfrwt>
<pdfrwt beam="2">  1       -4 0.14094803E-01 0.12499466E+03</pdfrwt>
<totfact> 0.19801855E+03</totfact>
</mgrwt>
</event>
<event>
 5    1  0.1440092E-002  0.1249618E+03  0.7818608E-02  0.1235129E+00
          4   -1    0    0  501    0  0.00000000000E+00  0.00000000000E+00  0.42186143774E+03  0.42186334939E+03  0.12700000000E+01 0.  1.
         -4   -1    0    0    0  501 -0.00000000000E+00 -0.00000000000E+00 -0.92083790815E+01  0.92955443794E+01  0.12700000000E+01 0.  1.
         25    2    1    2    0    0  0.00000000000E+00  0.00000000000E+00  0.41265305866E+03  0.43115889377E+03  0.12496177355E+03 0.  0.
    9000005    1    3    3    0    0  0.53262143543E+02  0.29558978061E+02  0.25416951742E+03  0.26136895895E+03  0.10000000000E+01 0.  0.
    9000005    1    3    3    0    0 -0.53262143543E+02 -0.29558978061E+02  0.15848354125E+03  0.16978993482E+03  0.10000000000E+01 0.  0.
<mgrwt>
<rscale>  0 0.12496177E+03</rscale>
<asrwt>0</asrwt>
<pdfrwt beam="1">  1        4 0.10547650E+00 0.12496177E+03</pdfrwt>
<pdfrwt beam="2">  1       -4 0.23132293E-02 0.12496177E+03</pdfrwt>
<totfact> 0.99587067E+02</totfact>
</mgrwt>
</event>
<event>
 5    1  0.1440092E-002  0.1250016E+03  0.7818608E-02  0.1235067E+00
         -4   -1    0    0    0  501 -0.00000000000E+00  0.00000000000E+00  0.14411539407E+03  0.14412098982E+03  0.12700000000E+01 0.  1.
          4   -1    0    0  501    0  0.00000000000E+00 -0.00000000000E+00 -0.27084687584E+02  0.27114446362E+02  0.12700000000E+01 0.  1.
         25    2    1    2    0    0  0.00000000000E+00  0.00000000000E+00  0.11703070648E+03  0.17123543618E+03  0.12500155337E+03 0.  0.
    9000005    1    3    3    0    0  0.24804427839E+02  0.55405733882E+02  0.38183465896E+02  0.71721907778E+02  0.10000000000E+01 0.  0.
    9000005    1    3    3    0    0 -0.24804427839E+02 -0.55405733882E+02  0.78847240588E+02  0.99513528406E+02  0.10000000000E+01 0.  0.
<mgrwt>
<rscale>  0 0.12500155E+03</rscale>
<asrwt>0</asrwt>
<pdfrwt beam="2">  1        4 0.67755913E-02 0.12500155E+03</pdfrwt>
<pdfrwt beam="1">  1       -4 0.36033267E-01 0.12500155E+03</pdfrwt>
<totfact> 0.17540835E+03</totfact>
</mgrwt>
</event>
<event>
 5    1  0.1440092E-002  0.1249979E+03  0.7818608E-02  0.1235073E+00
          4   -1    0    0  501    0  0.00000000000E+00  0.00000000000E+00  0.30442131095E+01  0.32985047303E+01  0.12700000000E+01 0. -1.
         -4   -1    0    0    0  501 -0.00000000000E+00 -0.00000000000E+00 -0.12314311407E+04  0.12314317956E+04  0.12700000000E+01 0. -1.
         25    2    1    2    0    0  0.00000000000E+00  0.00000000000E+00 -0.12283869276E+04  0.12347303003E+04  0.12499788258E+03 0.  0.
    9000005    1    3    3    0    0 -0.48186416127E+02  0.30205609382E+02 -0.35835336934E+03  0.36283942296E+03  0.10000000000E+01 0.  0.
    9000005    1    3    3    0    0  0.48186416127E+02 -0.30205609382E+02 -0.87003355825E+03  0.87189087736E+03  0.10000000000E+01 0.  0.
<mgrwt>
<rscale>  0 0.12499788E+03</rscale>
<asrwt>0</asrwt>
<pdfrwt beam="1">  1        4 0.79292581E-03 0.12499788E+03</pdfrwt>
<pdfrwt beam="2">  1       -4 0.30788801E+00 0.12499788E+03</pdfrwt>
<totfact> 0.23430601E+02</totfact>
</mgrwt>
</event>
<event>
 5    1  0.1440092E-002  0.1249961E+03  0.7818608E-02  0.1235075E+00
         -4   -1    0    0    0  501 -0.00000000000E+00  0.00000000000E+00  0.27477669022E+03  0.27477962513E+03  0.12700000000E+01 0. -1.
          4   -1    0    0  501    0  0.00000000000E+00 -0.00000000000E+00 -0.14183827354E+02  0.14240570859E+02  0.12700000000E+01 0. -1.
         25    2    1    2    0    0  0.00000000000E+00  0.00000000000E+00  0.26059286287E+03  0.28902019599E+03  0.12499613400E+03 0.  0.
    9000005    1    3    3    0    0  0.41355014748E+01 -0.58502258314E+02  0.80414763876E+02  0.99534671595E+02  0.10000000000E+01 0.  0.
    9000005    1    3    3    0    0 -0.41355014748E+01  0.58502258314E+02  0.18017809899E+03  0.18948552440E+03  0.10000000000E+01 0.  0.
<mgrwt>
<rscale>  0 0.12499613E+03</rscale>
<asrwt>0</asrwt>
<pdfrwt beam="2">  1        4 0.35534166E-02 0.12499613E+03</pdfrwt>
<pdfrwt beam="1">  1       -4 0.68701632E-01 0.12499613E+03</pdfrwt>
<totfact> 0.13285640E+03</totfact>
</mgrwt>
</event>
<event>
 5    1  0.1440092E-002  0.1249984E+03  0.7818608E-02  0.1235072E+00
         -4   -1    0    0    0  501 -0.00000000000E+00  0.00000000000E+00  0.39174051967E+03  0.39174257829E+03  0.12700000000E+01 0.  1.
          4   -1    0    0  501    0  0.00000000000E+00 -0.00000000000E+00 -0.99287357555E+01  0.10009630048E+02  0.12700000000E+01 0.  1.
         25    2    1    2    0    0  0.00000000000E+00  0.00000000000E+00  0.38181178391E+03  0.40175220834E+03  0.12499839429E+03 0.  0.
    9000005    1    3    3    0    0 -0.45694145018E+02  0.37880353728E+02  0.12806519879E+03  0.14115442334E+03  0.10000000000E+01 0.  0.
    9000005    1    3    3    0    0  0.45694145018E+02 -0.37880353728E+02  0.25374658512E+03  0.26059778500E+03  0.10000000000E+01 0.  0.
<mgrwt>
<rscale>  0 0.12499839E+03</rscale>
<asrwt>0</asrwt>
<pdfrwt beam="2">  1        4 0.24925533E-02 0.12499839E+03</pdfrwt>
<pdfrwt beam="1">  1       -4 0.97945490E-01 0.12499839E+03</pdfrwt>
<totfact> 0.10533582E+03</totfact>
</mgrwt>
</event>
<event>
 5    1  0.1440092E-002  0.1249961E+03  0.7818608E-02  0.1235075E+00
          4   -1    0    0  501    0  0.00000000000E+00  0.00000000000E+00  0.58239385512E+02  0.58253231025E+02  0.12700000000E+01 0.  1.
         -4   -1    0    0    0  501 -0.00000000000E+00 -0.00000000000E+00 -0.67040257267E+02  0.67052285527E+02  0.12700000000E+01 0.  1.
         25    2    1    2    0    0  0.00000000000E+00  0.00000000000E+00 -0.88008717549E+01  0.12530551655E+03  0.12499606848E+03 0.  0.
    9000005    1    3    3    0    0 -0.70894678006E+01  0.43677027573E+02 -0.48635189831E+02  0.65759599917E+02  0.10000000000E+01 0.  0.
    9000005    1    3    3    0    0  0.70894678006E+01 -0.43677027573E+02  0.39834318076E+02  0.59545916635E+02  0.10000000000E+01 0.  0.
<mgrwt>
<rscale>  0 0.12499607E+03</rscale>
<asrwt>0</asrwt>
<pdfrwt beam="1">  1        4 0.14563081E-01 0.12499607E+03</pdfrwt>
<pdfrwt beam="2">  1       -4 0.16763299E-01 0.12499607E+03</pdfrwt>
<totfact> 0.19820319E+03</totfact>
</mgrwt>
</event>
<event>
 5    1  0.1440092E-002  0.1249995E+03  0.7818608E-02  0.1235070E+00
         -4   -1    0    0    0  501 -0.00000000000E+00  0.00000000000E+00  0.13565969466E+03  0.13566563919E+03  0.12700000000E+01 0.  1.
          4   -1    0    0  501    0  0.00000000000E+00 -0.00000000000E+00 -0.28773674727E+02  0.28801688446E+02  0.12700000000E+01 0.  1.
         25    2    1    2    0    0  0.00000000000E+00  0.00000000000E+00  0.10688601993E+03  0.16446732763E+03  0.12499952240E+03 0.  0.
    9000005    1    3    3    0    0  0.30981325682E+02  0.38287202108E+02  0.28344435220E+01  0.49343555368E+02  0.10000000000E+01 0.  0.
    9000005    1    3    3    0    0 -0.30981325682E+02 -0.38287202108E+02  0.10405157641E+03  0.11512377226E+03  0.10000000000E+01 0.  0.
<mgrwt>
<rscale>  0 0.12499952E+03</rscale>
<asrwt>0</asrwt>
<pdfrwt beam="2">  1        4 0.71976636E-02 0.12499952E+03</pdfrwt>
<pdfrwt beam="1">  1       -4 0.33919168E-01 0.12499952E+03</pdfrwt>
<totfact> 0.17849718E+03</totfact>
</mgrwt>
</event>
<event>
 5    1  0.1440092E-002  0.1250000E+03  0.7818608E-02  0.1235069E+00
         -4   -1    0    0    0  501 -0.00000000000E+00  0.00000000000E+00  0.61267196252E+03  0.61267327880E+03  0.12700000000E+01 0. -1.
          4   -1    0    0  501    0  0.00000000000E+00 -0.00000000000E+00 -0.63111814028E+01  0.64376945174E+01  0.12700000000E+01 0. -1.
         25    2    1    2    0    0  0.00000000000E+00  0.00000000000E+00  0.60636078112E+03  0.61911097332E+03  0.12500000163E+03 0.  0.
    9000005    1    3    3    0    0  0.14846364947E+02 -0.15180971142E+02  0.59428101699E+03  0.59466108297E+03  0.10000000000E+01 0.  0.
    9000005    1    3    3    0    0 -0.14846364947E+02  0.15180971142E+02  0.12079764124E+02  0.24449890352E+02  0.10000000000E+01 0.  0.
<mgrwt>
<rscale>  0 0.12500000E+03</rscale>
<asrwt>0</asrwt>
<pdfrwt beam="2">  1        4 0.15937742E-02 0.12500000E+03</pdfrwt>
<pdfrwt beam="1">  1       -4 0.15318395E+00 0.12500000E+03</pdfrwt>
<totfact> 0.71149197E+02</totfact>
</mgrwt>
</event>
<event>
 5    1  0.1440092E-002  0.1250000E+03  0.7818608E-02  0.1235069E+00
          4   -1    0    0  501    0  0.00000000000E+00  0.00000000000E+00  0.66650378783E+01  0.67849561472E+01  0.12700000000E+01 0.  1.
         -4   -1    0    0    0  501 -0.00000000000E+00 -0.00000000000E+00 -0.58073481970E+03  0.58073620837E+03  0.12700000000E+01 0.  1.
         25    2    1    2    0    0  0.00000000000E+00  0.00000000000E+00 -0.57406978182E+03  0.58752116452E+03  0.12500001742E+03 0.  0.
    9000005    1    3    3    0    0  0.48496785361E+02 -0.12162241302E+02 -0.11083229505E+03  0.12159217051E+03  0.10000000000E+01 0.  0.
    9000005    1    3    3    0    0 -0.48496785361E+02  0.12162241302E+02 -0.46323748677E+03  0.46592899400E+03  0.10000000000E+01 0.  0.
<mgrwt>
<rscale>  0 0.12500002E+03</rscale>
<asrwt>0</asrwt>
<pdfrwt beam="1">  1        4 0.16814248E-02 0.12500002E+03</pdfrwt>
<pdfrwt beam="2">  1       -4 0.14519870E+00 0.12500002E+03</pdfrwt>
<totfact> 0.75095824E+02</totfact>
</mgrwt>
</event>
<event>
 5    1  0.1440092E-002  0.1250000E+03  0.7818608E-02  0.1235069E+00
         -4   -1    0    0    0  501 -0.00000000000E+00  0.00000000000E+00  0.10139730804E+03  0.10140526109E+03  0.12700000000E+01 0.  1.
          4   -1    0    0  501    0  0.00000000000E+00 -0.00000000000E+00 -0.38504272899E+02  0.38525211634E+02  0.12700000000E+01 0.  1.
         25    2    1    2    0    0  0.00000000000E+00  0.00000000000E+00  0.62893035139E+02  0.13993047273E+03  0.12500001331E+03 0.  0.
    9000005    1    3    3    0    0 -0.56130850756E+02 -0.13688625527E+02  0.47858919393E+01  0.57982373504E+02  0.10000000000E+01 0.  0.
    9000005    1    3    3    0    0  0.56130850756E+02  0.13688625527E+02  0.58107143199E+02  0.81948099223E+02  0.10000000000E+01 0.  0.
<mgrwt>
<rscale>  0 0.12500001E+03</rscale>
<asrwt>0</asrwt>
<pdfrwt beam="2">  1        4 0.96296797E-02 0.12500001E+03</pdfrwt>
<pdfrwt beam="1">  1       -4 0.25352938E-01 0.12500001E+03</pdfrwt>
<totfact> 0.19043894E+03</totfact>
</mgrwt>
</event>
<event>
 5    1  0.1440092E-002  0.1250019E+03  0.7818608E-02  0.1235066E+00
         -4   -1    0    0    0  501 -0.00000000000E+00  0.00000000000E+00  0.23566830571E+03  0.23567172766E+03  0.12700000000E+01 0.  1.
          4   -1    0    0  501    0  0.00000000000E+00 -0.00000000000E+00 -0.16547840587E+02  0.16596503490E+02  0.12700000000E+01 0.  1.
         25    2    1    2    0    0  0.00000000000E+00  0.00000000000E+00  0.21912046513E+03  0.25226823115E+03  0.12500192882E+03 0.  0.
    9000005    1    3    3    0    0 -0.37326669624E+02 -0.46584758345E+02  0.72241445645E+02  0.93718975903E+02  0.10000000000E+01 0.  0.
    9000005    1    3    3    0    0  0.37326669624E+02  0.46584758345E+02  0.14687901948E+03  0.15854925524E+03  0.10000000000E+01 0.  0.
<mgrwt>
<rscale>  0 0.12500193E+03</rscale>
<asrwt>0</asrwt>
<pdfrwt beam="2">  1        4 0.41434708E-02 0.12500193E+03</pdfrwt>
<pdfrwt beam="1">  1       -4 0.58923586E-01 0.12500193E+03</pdfrwt>
<totfact> 0.14422196E+03</totfact>
</mgrwt>
</event>
<event>
 5    1  0.1440092E-002  0.1249959E+03  0.7818608E-02  0.1235076E+00
         -4   -1    0    0    0  501 -0.00000000000E+00  0.00000000000E+00  0.25668421626E+01  0.28638398502E+01  0.12700000000E+01 0. -1.
          4   -1    0    0  501    0  0.00000000000E+00 -0.00000000000E+00 -0.14381941236E+04  0.14381946843E+04  0.12700000000E+01 0. -1.
         25    2    1    2    0    0  0.00000000000E+00  0.00000000000E+00 -0.14356272814E+04  0.14410585242E+04  0.12499591564E+03 0.  0.
    9000005    1    3    3    0    0  0.12643629385E+02 -0.49052304459E+01 -0.14210799911E+04  0.14211450537E+04  0.10000000000E+01 0.  0.
    9000005    1    3    3    0    0 -0.12643629385E+02  0.49052304459E+01 -0.14547290378E+02  0.19913470494E+02  0.10000000000E+01 0.  0.
<mgrwt>
<rscale>  0 0.12499592E+03</rscale>
<asrwt>0</asrwt>
<pdfrwt beam="2">  1        4 0.35958311E+00 0.12499592E+03</pdfrwt>
<pdfrwt beam="1">  1       -4 0.67891028E-03 0.12499592E+03</pdfrwt>
<totfact> 0.14538818E+02</totfact>
</mgrwt>
</event>
<event>
 5    1  0.1440092E-002  0.1250003E+03  0.7818608E-02  0.1235069E+00
          4   -1    0    0  501    0  0.00000000000E+00  0.00000000000E+00  0.11018400278E+03  0.11019132166E+03  0.12700000000E+01 0.  1.
         -4   -1    0    0    0  501 -0.00000000000E+00 -0.00000000000E+00 -0.35432335154E+02  0.35455088132E+02  0.12700000000E+01 0.  1.
         25    2    1    2    0    0  0.00000000000E+00  0.00000000000E+00  0.74751667627E+02  0.14564640979E+03  0.12500025949E+03 0.  0.
    9000005    1    3    3    0    0 -0.25968905090E+02  0.10343807189E+02  0.10249916168E+03  0.10624714831E+03  0.10000000000E+01 0.  0.
    9000005    1    3    3    0    0  0.25968905090E+02 -0.10343807189E+02 -0.27747494055E+02  0.39399261479E+02  0.10000000000E+01 0.  0.
<mgrwt>
<rscale>  0 0.12500026E+03</rscale>
<asrwt>0</asrwt>
<pdfrwt beam="1">  1        4 0.27549759E-01 0.12500026E+03</pdfrwt>
<pdfrwt beam="2">  1       -4 0.88618429E-02 0.12500026E+03</pdfrwt>
<totfact> 0.18754826E+03</totfact>
</mgrwt>
</event>
<event>
 5    1  0.1440092E-002  0.1250062E+03  0.7818608E-02  0.1235060E+00
          4   -1    0    0  501    0  0.00000000000E+00  0.00000000000E+00  0.93654253305E+02  0.93662863837E+02  0.12700000000E+01 0.  1.
         -4   -1    0    0    0  501 -0.00000000000E+00 -0.00000000000E+00 -0.41693179185E+02  0.41712517193E+02  0.12700000000E+01 0.  1.
         25    2    1    2    0    0  0.00000000000E+00  0.00000000000E+00  0.51961074120E+02  0.13537538103E+03  0.12500616211E+03 0.  0.
    9000005    1    3    3    0    0  0.24086886963E+02  0.16520131930E+02 -0.33852233403E+02  0.44722104031E+02  0.10000000000E+01 0.  0.
    9000005    1    3    3    0    0 -0.24086886963E+02 -0.16520131930E+02  0.85813307524E+02  0.90653276999E+02  0.10000000000E+01 0.  0.
<mgrwt>
<rscale>  0 0.12500616E+03</rscale>
<asrwt>0</asrwt>
<pdfrwt beam="1">  1        4 0.23417057E-01 0.12500616E+03</pdfrwt>
<pdfrwt beam="2">  1       -4 0.10426788E-01 0.12500616E+03</pdfrwt>
<totfact> 0.19276722E+03</totfact>
</mgrwt>
</event>
<event>
 5    1  0.1440092E-002  0.1250050E+03  0.7818608E-02  0.1235061E+00
          4   -1    0    0  501    0  0.00000000000E+00  0.00000000000E+00  0.34284876337E+01  0.36561492659E+01  0.12700000000E+01 0. -1.
         -4   -1    0    0    0  501 -0.00000000000E+00 -0.00000000000E+00 -0.11025982238E+04  0.11025989552E+04  0.12700000000E+01 0. -1.
         25    2    1    2    0    0  0.00000000000E+00  0.00000000000E+00 -0.10991697361E+04  0.11062551044E+04  0.12500498898E+03 0.  0.
    9000005    1    3    3    0    0  0.54258270393E+02 -0.69681629809E+01 -0.28217685495E+03  0.28743224013E+03  0.10000000000E+01 0.  0.
    9000005    1    3    3    0    0 -0.54258270393E+02  0.69681629809E+01 -0.81699288117E+03  0.81882286429E+03  0.10000000000E+01 0.  0.
<mgrwt>
<rscale>  0 0.12500499E+03</rscale>
<asrwt>0</asrwt>
<pdfrwt beam="1">  1        4 0.88567481E-03 0.12500499E+03</pdfrwt>
<pdfrwt beam="2">  1       -4 0.27567693E+00 0.12500499E+03</pdfrwt>
<totfact> 0.30409612E+02</totfact>
</mgrwt>
</event>
<event>
 5    1  0.1440092E-002  0.1249956E+03  0.7818608E-02  0.1235076E+00
          4   -1    0    0  501    0  0.00000000000E+00  0.00000000000E+00  0.16185247575E+02  0.16234997354E+02  0.12700000000E+01 0.  1.
         -4   -1    0    0    0  501 -0.00000000000E+00 -0.00000000000E+00 -0.24090776192E+03  0.24091110945E+03  0.12700000000E+01 0.  1.
         25    2    1    2    0    0  0.00000000000E+00  0.00000000000E+00 -0.22472251435E+03  0.25714610680E+03  0.12499564708E+03 0.  0.
    9000005    1    3    3    0    0 -0.73150126697E+01  0.59995067313E+01 -0.23943602927E+03  0.23962494780E+03  0.10000000000E+01 0.  0.
    9000005    1    3    3    0    0  0.73150126697E+01 -0.59995067313E+01  0.14713514927E+02  0.17521159005E+02  0.10000000000E+01 0.  0.
<mgrwt>
<rscale>  0 0.12499565E+03</rscale>
<asrwt>0</asrwt>
<pdfrwt beam="1">  1        4 0.40529498E-02 0.12499565E+03</pdfrwt>
<pdfrwt beam="2">  1       -4 0.60233566E-01 0.12499565E+03</pdfrwt>
<totfact> 0.14264682E+03</totfact>
</mgrwt>
</event>
<event>
 5    1  0.1440092E-002  0.1250008E+03  0.7818608E-02  0.1235068E+00
         -4   -1    0    0    0  501 -0.00000000000E+00  0.00000000000E+00  0.57217281041E+02  0.57231373823E+02  0.12700000000E+01 0. -1.
          4   -1    0    0  501    0  0.00000000000E+00 -0.00000000000E+00 -0.68242924927E+02  0.68254741246E+02  0.12700000000E+01 0. -1.
         25    2    1    2    0    0  0.00000000000E+00  0.00000000000E+00 -0.11025643886E+02  0.12548611507E+03  0.12500080101E+03 0.  0.
    9000005    1    3    3    0    0  0.33118695282E+02 -0.45485655664E+02 -0.32812283787E+02  0.65141682629E+02  0.10000000000E+01 0.  0.
    9000005    1    3    3    0    0 -0.33118695282E+02  0.45485655664E+02  0.21786639901E+02  0.60344432441E+02  0.10000000000E+01 0.  0.
<mgrwt>
<rscale>  0 0.12500080E+03</rscale>
<asrwt>0</asrwt>
<pdfrwt beam="2">  1        4 0.17063970E-01 0.12500080E+03</pdfrwt>
<pdfrwt beam="1">  1       -4 0.14307559E-01 0.12500080E+03</pdfrwt>
<totfact> 0.19808344E+03</totfact>
</mgrwt>
</event>
<event>
 5    1  0.1440092E-002  0.1250028E+03  0.7818608E-02  0.1235065E+00
          4   -1    0    0  501    0  0.00000000000E+00  0.00000000000E+00  0.34663746440E+02  0.34687003578E+02  0.12700000000E+01 0.  1.
         -4   -1    0    0    0  501 -0.00000000000E+00 -0.00000000000E+00 -0.11263015514E+03  0.11263731507E+03  0.12700000000E+01 0.  1.
         25    2    1    2    0    0  0.00000000000E+00  0.00000000000E+00 -0.77966408701E+02  0.14732431865E+03  0.12500277589E+03 0.  0.
    9000005    1    3    3    0    0 -0.50612325163E+02  0.92462538924E+01 -0.80790379246E+02  0.95787191462E+02  0.10000000000E+01 0.  0.
    9000005    1    3    3    0    0  0.50612325163E+02 -0.92462538924E+01  0.28239705447E+01  0.51537127191E+02  0.10000000000E+01 0.  0.
<mgrwt>
<rscale>  0 0.12500278E+03</rscale>
<asrwt>0</asrwt>
<pdfrwt beam="1">  1        4 0.86697390E-02 0.12500278E+03</pdfrwt>
<pdfrwt beam="2">  1       -4 0.28161340E-01 0.12500278E+03</pdfrwt>
<totfact> 0.18669925E+03</totfact>
</mgrwt>
</event>
<event>
 5    1  0.1440092E-002  0.1250017E+03  0.7818608E-02  0.1235067E+00
         -4   -1    0    0    0  501 -0.00000000000E+00  0.00000000000E+00  0.28072728657E+02  0.28101441142E+02  0.12700000000E+01 0.  1.
          4   -1    0    0  501    0  0.00000000000E+00 -0.00000000000E+00 -0.13904862104E+03  0.13905442069E+03  0.12700000000E+01 0.  1.
         25    2    1    2    0    0  0.00000000000E+00  0.00000000000E+00 -0.11097589238E+03  0.16715586183E+03  0.12500173381E+03 0.  0.
    9000005    1    3    3    0    0 -0.57498261395E+02 -0.21093969726E+02 -0.38874384527E+02  0.72548076436E+02  0.10000000000E+01 0.  0.
    9000005    1    3    3    0    0  0.57498261395E+02  0.21093969726E+02 -0.72101507858E+02  0.94607785396E+02  0.10000000000E+01 0.  0.
<mgrwt>
<rscale>  0 0.12500173E+03</rscale>
<asrwt>0</asrwt>
<pdfrwt beam="2">  1        4 0.34766467E-01 0.12500173E+03</pdfrwt>
<pdfrwt beam="1">  1       -4 0.70224966E-02 0.12500173E+03</pdfrwt>
<totfact> 0.17725384E+03</totfact>
</mgrwt>
</event>
<event>
 5    1  0.1440092E-002  0.1249986E+03  0.7818608E-02  0.1235071E+00
          4   -1    0    0  501    0  0.00000000000E+00  0.00000000000E+00  0.74772949624E+01  0.75843813166E+01  0.12700000000E+01 0. -1.
         -4   -1    0    0    0  501 -0.00000000000E+00 -0.00000000000E+00 -0.51858093235E+03  0.51858248746E+03  0.12700000000E+01 0. -1.
         25    2    1    2    0    0  0.00000000000E+00  0.00000000000E+00 -0.51110363739E+03  0.52616686878E+03  0.12499858257E+03 0.  0.
    9000005    1    3    3    0    0 -0.38534345663E+02  0.48007324739E+02 -0.21030097703E+03  0.21912804468E+03  0.10000000000E+01 0.  0.
    9000005    1    3    3    0    0  0.38534345663E+02 -0.48007324739E+02 -0.30080266036E+03  0.30703882410E+03  0.10000000000E+01 0.  0.
<mgrwt>
<rscale>  0 0.12499858E+03</rscale>
<asrwt>0</asrwt>
<pdfrwt beam="1">  1        4 0.18829057E-02 0.12499858E+03</pdfrwt>
<pdfrwt beam="2">  1       -4 0.12965869E+00 0.12499858E+03</pdfrwt>
<totfact> 0.83592646E+02</totfact>
</mgrwt>
</event>
<event>
 5    1  0.1440092E-002  0.1250003E+03  0.7818608E-02  0.1235069E+00
          4   -1    0    0  501    0  0.00000000000E+00  0.00000000000E+00  0.18307113445E+02  0.18351111756E+02  0.12700000000E+01 0. -1.
         -4   -1    0    0    0  501 -0.00000000000E+00 -0.00000000000E+00 -0.21307253737E+03  0.21307632219E+03  0.12700000000E+01 0. -1.
         25    2    1    2    0    0  0.00000000000E+00  0.00000000000E+00 -0.19476542392E+03  0.23142743395E+03  0.12500034732E+03 0.  0.
    9000005    1    3    3    0    0  0.52958783746E+02 -0.12533128213E+02 -0.40512048388E+02  0.67852325997E+02  0.10000000000E+01 0.  0.
    9000005    1    3    3    0    0 -0.52958783746E+02  0.12533128213E+02 -0.15425337553E+03  0.16357510795E+03  0.10000000000E+01 0.  0.
<mgrwt>
<rscale>  0 0.12500035E+03</rscale>
<asrwt>0</asrwt>
<pdfrwt beam="1">  1        4 0.45827519E-02 0.12500035E+03</pdfrwt>
<pdfrwt beam="2">  1       -4 0.53274099E-01 0.12500035E+03</pdfrwt>
<totfact> 0.15136320E+03</totfact>
</mgrwt>
</event>
<event>
 5    1  0.1440092E-002  0.1249997E+03  0.7818608E-02  0.1235070E+00
         -4   -1    0    0    0  501 -0.00000000000E+00  0.00000000000E+00  0.13908470367E+02  0.13966332659E+02  0.12700000000E+01 0.  1.
          4   -1    0    0  501    0  0.00000000000E+00 -0.00000000000E+00 -0.28021024665E+03  0.28021312466E+03  0.12700000000E+01 0.  1.
         25    2    1    2    0    0  0.00000000000E+00  0.00000000000E+00 -0.26630177629E+03  0.29417945732E+03  0.12499966821E+03 0.  0.
    9000005    1    3    3    0    0  0.18751070164E+02  0.32113565611E+02 -0.14954073607E+02  0.40093740734E+02  0.10000000000E+01 0.  0.
    9000005    1    3    3    0    0 -0.18751070164E+02 -0.32113565611E+02 -0.25134770268E+03  0.25408571658E+03  0.10000000000E+01 0.  0.
<mgrwt>
<rscale>  0 0.12499967E+03</rscale>
<asrwt>0</asrwt>
<pdfrwt beam="2">  1        4 0.70060136E-01 0.12499967E+03</pdfrwt>
<pdfrwt beam="1">  1       -4 0.34847110E-02 0.12499967E+03</pdfrwt>
<totfact> 0.13135872E+03</totfact>
</mgrwt>
</event>
<event>
 5    1  0.1440092E-002  0.1249997E+03  0.7818608E-02  0.1235070E+00
         -4   -1    0    0    0  501 -0.00000000000E+00  0.00000000000E+00  0.76262578304E+01  0.77312811678E+01  0.12700000000E+01 0. -1.
          4   -1    0    0  501    0  0.00000000000E+00 -0.00000000000E+00 -0.50859968176E+03  0.50860126738E+03  0.12700000000E+01 0. -1.
         25    2    1    2    0    0  0.00000000000E+00  0.00000000000E+00 -0.50097342393E+03  0.51633254855E+03  0.12499971685E+03 0.  0.
    9000005    1    3    3    0    0  0.54304846691E+01 -0.54374654939E+02 -0.12525593356E+03  0.13666068255E+03  0.10000000000E+01 0.  0.
    9000005    1    3    3    0    0 -0.54304846691E+01  0.54374654939E+02 -0.37571749037E+03  0.37967186600E+03  0.10000000000E+01 0.  0.
<mgrwt>
<rscale>  0 0.12499972E+03</rscale>
<asrwt>0</asrwt>
<pdfrwt beam="2">  1        4 0.12716313E+00 0.12499972E+03</pdfrwt>
<pdfrwt beam="1">  1       -4 0.19198923E-02 0.12499972E+03</pdfrwt>
<totfact> 0.85066894E+02</totfact>
</mgrwt>
</event>
<event>
 5    1  0.1440092E-002  0.1249944E+03  0.7818608E-02  0.1235078E+00
          4   -1    0    0  501    0  0.00000000000E+00  0.00000000000E+00  0.43680826630E+02  0.43699285064E+02  0.12700000000E+01 0. -1.
         -4   -1    0    0    0  501 -0.00000000000E+00 -0.00000000000E+00 -0.89377181534E+02  0.89386204075E+02  0.12700000000E+01 0. -1.
         25    2    1    2    0    0  0.00000000000E+00  0.00000000000E+00 -0.45696354903E+02  0.13308548914E+03  0.12499436214E+03 0.  0.
    9000005    1    3    3    0    0 -0.13333960819E+01 -0.37840076541E+02 -0.75777760473E+02  0.84716694459E+02  0.10000000000E+01 0.  0.
    9000005    1    3    3    0    0  0.13333960819E+01  0.37840076541E+02  0.30081405570E+02  0.48368794680E+02  0.10000000000E+01 0.  0.
<mgrwt>
<rscale>  0 0.12499436E+03</rscale>
<asrwt>0</asrwt>
<pdfrwt beam="1">  1        4 0.10923642E-01 0.12499436E+03</pdfrwt>
<pdfrwt beam="2">  1       -4 0.22347730E-01 0.12499436E+03</pdfrwt>
<totfact> 0.19402446E+03</totfact>
</mgrwt>
</event>
<event>
 5    1  0.1440092E-002  0.1250023E+03  0.7818608E-02  0.1235066E+00
          4   -1    0    0  501    0  0.00000000000E+00  0.00000000000E+00  0.44743885716E+03  0.44744065953E+03  0.12700000000E+01 0.  1.
         -4   -1    0    0    0  501 -0.00000000000E+00 -0.00000000000E+00 -0.86825523786E+01  0.87749424960E+01  0.12700000000E+01 0.  1.
         25    2    1    2    0    0  0.00000000000E+00  0.00000000000E+00  0.43875630479E+03  0.45621560203E+03  0.12500232215E+03 0.  0.
    9000005    1    3    3    0    0  0.18946831262E+02 -0.17465789135E+02  0.42716383301E+03  0.42794155727E+03  0.10000000000E+01 0.  0.
    9000005    1    3    3    0    0 -0.18946831262E+02  0.17465789135E+02  0.11592471771E+02  0.28274044754E+02  0.10000000000E+01 0.  0.
<mgrwt>
<rscale>  0 0.12500232E+03</rscale>
<asrwt>0</asrwt>
<pdfrwt beam="1">  1        4 0.11187148E+00 0.12500232E+03</pdfrwt>
<pdfrwt beam="2">  1       -4 0.21824124E-02 0.12500232E+03</pdfrwt>
<totfact> 0.94906654E+02</totfact>
</mgrwt>
</event>
<event>
 5    1  0.1440092E-002  0.1250059E+03  0.7818608E-02  0.1235060E+00
         -4   -1    0    0    0  501 -0.00000000000E+00  0.00000000000E+00  0.28364695326E+03  0.28364979639E+03  0.12700000000E+01 0. -1.
          4   -1    0    0  501    0  0.00000000000E+00 -0.00000000000E+00 -0.13740633809E+02  0.13799199885E+02  0.12700000000E+01 0. -1.
         25    2    1    2    0    0  0.00000000000E+00  0.00000000000E+00  0.26990631945E+03  0.29744899628E+03  0.12500593629E+03 0.  0.
    9000005    1    3    3    0    0  0.44481298933E+02 -0.20077564426E+02  0.22784207215E+03  0.23301224086E+03  0.10000000000E+01 0.  0.
    9000005    1    3    3    0    0 -0.44481298933E+02  0.20077564426E+02  0.42064247302E+02  0.64436755421E+02  0.10000000000E+01 0.  0.
<mgrwt>
<rscale>  0 0.12500594E+03</rscale>
<asrwt>0</asrwt>
<pdfrwt beam="2">  1        4 0.34428347E-02 0.12500594E+03</pdfrwt>
<pdfrwt beam="1">  1       -4 0.70919413E-01 0.12500594E+03</pdfrwt>
<totfact> 0.13041081E+03</totfact>
</mgrwt>
</event>
<event>
 5    1  0.1440092E-002  0.1249993E+03  0.7818608E-02  0.1235070E+00
         -4   -1    0    0    0  501 -0.00000000000E+00  0.00000000000E+00  0.55876992146E+03  0.55877136472E+03  0.12700000000E+01 0. -1.
          4   -1    0    0  501    0  0.00000000000E+00 -0.00000000000E+00 -0.69315802563E+01  0.70469642294E+01  0.12700000000E+01 0. -1.
         25    2    1    2    0    0  0.00000000000E+00  0.00000000000E+00  0.55183834120E+03  0.56581832895E+03  0.12499930620E+03 0.  0.
    9000005    1    3    3    0    0 -0.45564970285E+02  0.16904796255E+02  0.45374305082E+03  0.45633945131E+03  0.10000000000E+01 0.  0.
    9000005    1    3    3    0    0  0.45564970285E+02 -0.16904796255E+02  0.98095290386E+02  0.10947887764E+03  0.10000000000E+01 0.  0.
<mgrwt>
<rscale>  0 0.12499931E+03</rscale>
<asrwt>0</asrwt>
<pdfrwt beam="2">  1        4 0.17474987E-02 0.12499931E+03</pdfrwt>
<pdfrwt beam="1">  1       -4 0.13970707E+00 0.12499931E+03</pdfrwt>
<totfact> 0.77980408E+02</totfact>
</mgrwt>
</event>
<event>
 5    1  0.1440092E-002  0.1250011E+03  0.7818608E-02  0.1235067E+00
         -4   -1    0    0    0  501 -0.00000000000E+00  0.00000000000E+00  0.39695990684E+02  0.39716301141E+02  0.12700000000E+01 0. -1.
          4   -1    0    0  501    0  0.00000000000E+00 -0.00000000000E+00 -0.98356369460E+02  0.98364568384E+02  0.12700000000E+01 0. -1.
         25    2    1    2    0    0  0.00000000000E+00  0.00000000000E+00 -0.58660378777E+02  0.13808086953E+03  0.12500114596E+03 0.  0.
    9000005    1    3    3    0    0  0.23241460717E+01 -0.22147374236E+02 -0.93830138943E+02  0.96441706821E+02  0.10000000000E+01 0.  0.
    9000005    1    3    3    0    0 -0.23241460717E+01  0.22147374236E+02  0.35169760167E+02  0.41639162704E+02  0.10000000000E+01 0.  0.
<mgrwt>
<rscale>  0 0.12500115E+03</rscale>
<asrwt>0</asrwt>
<pdfrwt beam="2">  1        4 0.24592656E-01 0.12500115E+03</pdfrwt>
<pdfrwt beam="1">  1       -4 0.99275615E-02 0.12500115E+03</pdfrwt>
<totfact> 0.19138445E+03</totfact>
</mgrwt>
</event>
<event>
 5    1  0.1440092E-002  0.1249996E+03  0.7818608E-02  0.1235070E+00
          4   -1    0    0  501    0  0.00000000000E+00  0.00000000000E+00  0.35778675979E+02  0.35801208845E+02  0.12700000000E+01 0.  1.
         -4   -1    0    0    0  501 -0.00000000000E+00 -0.00000000000E+00 -0.10911680519E+03  0.10912419565E+03  0.12700000000E+01 0.  1.
         25    2    1    2    0    0  0.00000000000E+00  0.00000000000E+00 -0.73338129215E+02  0.14492540449E+03  0.12499956668E+03 0.  0.
    9000005    1    3    3    0    0 -0.28347229791E+02 -0.22649651786E+00 -0.10123884961E+03  0.10513763079E+03  0.10000000000E+01 0.  0.
    9000005    1    3    3    0    0  0.28347229791E+02  0.22649651786E+00  0.27900720397E+02  0.39787773702E+02  0.10000000000E+01 0.  0.
<mgrwt>
<rscale>  0 0.12499957E+03</rscale>
<asrwt>0</asrwt>
<pdfrwt beam="1">  1        4 0.89484096E-02 0.12499957E+03</pdfrwt>
<pdfrwt beam="2">  1       -4 0.27282941E-01 0.12499957E+03</pdfrwt>
<totfact> 0.18791292E+03</totfact>
</mgrwt>
</event>
<event>
 5    1  0.1440092E-002  0.1250062E+03  0.7818608E-02  0.1235060E+00
         -4   -1    0    0    0  501 -0.00000000000E+00  0.00000000000E+00  0.54891573396E+02  0.54906263120E+02  0.12700000000E+01 0. -1.
          4   -1    0    0  501    0  0.00000000000E+00 -0.00000000000E+00 -0.71140193423E+02  0.71151528586E+02  0.12700000000E+01 0. -1.
         25    2    1    2    0    0  0.00000000000E+00  0.00000000000E+00 -0.16248620027E+02  0.12605779171E+03  0.12500619664E+03 0.  0.
    9000005    1    3    3    0    0  0.21910286430E+02 -0.49194344519E+02  0.23851952722E+02  0.58907213758E+02  0.10000000000E+01 0.  0.
    9000005    1    3    3    0    0 -0.21910286430E+02  0.49194344519E+02 -0.40100572749E+02  0.67150577949E+02  0.10000000000E+01 0.  0.
<mgrwt>
<rscale>  0 0.12500620E+03</rscale>
<asrwt>0</asrwt>
<pdfrwt beam="2">  1        4 0.17788301E-01 0.12500620E+03</pdfrwt>
<pdfrwt beam="1">  1       -4 0.13726146E-01 0.12500620E+03</pdfrwt>
<totfact> 0.19774931E+03</totfact>
</mgrwt>
</event>
<event>
 5    1  0.1440092E-002  0.1250013E+03  0.7818608E-02  0.1235067E+00
          4   -1    0    0  501    0  0.00000000000E+00  0.00000000000E+00  0.12759881294E+03  0.12760513299E+03  0.12700000000E+01 0.  1.
         -4   -1    0    0    0  501 -0.00000000000E+00 -0.00000000000E+00 -0.30593899746E+02  0.30620248230E+02  0.12700000000E+01 0.  1.
         25    2    1    2    0    0  0.00000000000E+00  0.00000000000E+00  0.97004913196E+02  0.15822538122E+03  0.12500127230E+03 0.  0.
    9000005    1    3    3    0    0  0.36445548911E+02 -0.38149954616E+02  0.61101547030E+01  0.53122792312E+02  0.10000000000E+01 0.  0.
    9000005    1    3    3    0    0 -0.36445548911E+02  0.38149954616E+02  0.90894758493E+02  0.10510258890E+03  0.10000000000E+01 0.  0.
<mgrwt>
<rscale>  0 0.12500127E+03</rscale>
<asrwt>0</asrwt>
<pdfrwt beam="1">  1        4 0.31903787E-01 0.12500127E+03</pdfrwt>
<pdfrwt beam="2">  1       -4 0.76525585E-02 0.12500127E+03</pdfrwt>
<totfact> 0.18141055E+03</totfact>
</mgrwt>
</event>
<event>
 5    1  0.1440092E-002  0.1249987E+03  0.7818608E-02  0.1235071E+00
         -4   -1    0    0    0  501 -0.00000000000E+00  0.00000000000E+00  0.59967013287E+02  0.59980460006E+02  0.12700000000E+01 0.  1.
          4   -1    0    0  501    0  0.00000000000E+00 -0.00000000000E+00 -0.65111635692E+02  0.65124020165E+02  0.12700000000E+01 0.  1.
         25    2    1    2    0    0  0.00000000000E+00  0.00000000000E+00 -0.51446224046E+01  0.12510448017E+03  0.12499865527E+03 0.  0.
    9000005    1    3    3    0    0  0.69165718165E+01 -0.56592811543E+02  0.23034123279E+02  0.61499236737E+02  0.10000000000E+01 0.  0.
    9000005    1    3    3    0    0 -0.69165718165E+01  0.56592811543E+02 -0.28178745683E+02  0.63605243434E+02  0.10000000000E+01 0.  0.
<mgrwt>
<rscale>  0 0.12499866E+03</rscale>
<asrwt>0</asrwt>
<pdfrwt beam="2">  1        4 0.16281138E-01 0.12499866E+03</pdfrwt>
<pdfrwt beam="1">  1       -4 0.14994982E-01 0.12499866E+03</pdfrwt>
<totfact> 0.19830014E+03</totfact>
</mgrwt>
</event>
<event>
 5    1  0.1440092E-002  0.1249989E+03  0.7818608E-02  0.1235071E+00
          4   -1    0    0  501    0  0.00000000000E+00  0.00000000000E+00  0.79463382366E+02  0.79473530417E+02  0.12700000000E+01 0. -1.
         -4   -1    0    0    0  501 -0.00000000000E+00 -0.00000000000E+00 -0.49135530542E+02  0.49151940568E+02  0.12700000000E+01 0. -1.
         25    2    1    2    0    0  0.00000000000E+00  0.00000000000E+00  0.30327851824E+02  0.12862547099E+03  0.12499893276E+03 0.  0.
    9000005    1    3    3    0    0  0.45538103399E+02 -0.33709379051E+02  0.42294407326E+02  0.70709673937E+02  0.10000000000E+01 0.  0.
    9000005    1    3    3    0    0 -0.45538103399E+02  0.33709379051E+02 -0.11966555502E+02  0.57915797049E+02  0.10000000000E+01 0.  0.
<mgrwt>
<rscale>  0 0.12499893E+03</rscale>
<asrwt>0</asrwt>
<pdfrwt beam="1">  1        4 0.19869165E-01 0.12499893E+03</pdfrwt>
<pdfrwt beam="2">  1       -4 0.12287202E-01 0.12499893E+03</pdfrwt>
<totfact> 0.19639059E+03</totfact>
</mgrwt>
</event>
<event>
 5    1  0.1440092E-002  0.1249912E+03  0.7818608E-02  0.1235083E+00
          4   -1    0    0  501    0  0.00000000000E+00  0.00000000000E+00  0.26945110270E+02  0.26975023030E+02  0.12700000000E+01 0.  1.
         -4   -1    0    0    0  501 -0.00000000000E+00 -0.00000000000E+00 -0.14483712738E+03  0.14484269526E+03  0.12700000000E+01 0.  1.
         25    2    1    2    0    0  0.00000000000E+00  0.00000000000E+00 -0.11789201712E+03  0.17181771829E+03  0.12499120216E+03 0.  0.
    9000005    1    3    3    0    0 -0.42116755271E+02 -0.49710079720E+01  0.41402866310E+01  0.42622458495E+02  0.10000000000E+01 0.  0.
    9000005    1    3    3    0    0  0.42116755271E+02  0.49710079720E+01 -0.12203230375E+03  0.12919525979E+03  0.10000000000E+01 0.  0.
<mgrwt>
<rscale>  0 0.12499120E+03</rscale>
<asrwt>0</asrwt>
<pdfrwt beam="1">  1        4 0.67407130E-02 0.12499120E+03</pdfrwt>
<pdfrwt beam="2">  1       -4 0.36213715E-01 0.12499120E+03</pdfrwt>
<totfact> 0.17518948E+03</totfact>
</mgrwt>
</event>
<event>
 5    1  0.1440092E-002  0.1249962E+03  0.7818608E-02  0.1235075E+00
          4   -1    0    0  501    0  0.00000000000E+00  0.00000000000E+00  0.40889246639E+02  0.40908964674E+02  0.12700000000E+01 0. -1.
         -4   -1    0    0    0  501 -0.00000000000E+00 -0.00000000000E+00 -0.95479731160E+02  0.95488177082E+02  0.12700000000E+01 0. -1.
         25    2    1    2    0    0  0.00000000000E+00  0.00000000000E+00 -0.54590484521E+02  0.13639714176E+03  0.12499623706E+03 0.  0.
    9000005    1    3    3    0    0 -0.28640219524E+02 -0.53582835133E+02 -0.11345931675E+02  0.61815148312E+02  0.10000000000E+01 0.  0.
    9000005    1    3    3    0    0  0.28640219524E+02  0.53582835133E+02 -0.43244552845E+02  0.74581993444E+02  0.10000000000E+01 0.  0.
<mgrwt>
<rscale>  0 0.12499624E+03</rscale>
<asrwt>0</asrwt>
<pdfrwt beam="1">  1        4 0.10225832E-01 0.12499624E+03</pdfrwt>
<pdfrwt beam="2">  1       -4 0.23873453E-01 0.12499624E+03</pdfrwt>
<totfact> 0.19227892E+03</totfact>
</mgrwt>
</event>
<event>
 5    1  0.1440092E-002  0.1250020E+03  0.7818608E-02  0.1235066E+00
         -4   -1    0    0    0  501 -0.00000000000E+00  0.00000000000E+00  0.45735672245E+01  0.47466216572E+01  0.12700000000E+01 0.  1.
          4   -1    0    0  501    0  0.00000000000E+00 -0.00000000000E+00 -0.83808712528E+03  0.83808808753E+03  0.12700000000E+01 0.  1.
         25    2    1    2    0    0  0.00000000000E+00  0.00000000000E+00 -0.83351355806E+03  0.84283470919E+03  0.12500198218E+03 0.  0.
    9000005    1    3    3    0    0  0.46097529809E+02  0.27622811453E+02 -0.63181962363E+03  0.63410175742E+03  0.10000000000E+01 0.  0.
    9000005    1    3    3    0    0 -0.46097529809E+02 -0.27622811453E+02 -0.20169393443E+03  0.20873295177E+03  0.10000000000E+01 0.  0.
<mgrwt>
<rscale>  0 0.12500198E+03</rscale>
<asrwt>0</asrwt>
<pdfrwt beam="2">  1        4 0.20954302E+00 0.12500198E+03</pdfrwt>
<pdfrwt beam="1">  1       -4 0.11651468E-02 0.12500198E+03</pdfrwt>
<totfact> 0.48818885E+02</totfact>
</mgrwt>
</event>
<event>
 5    1  0.1440092E-002  0.1249961E+03  0.7818608E-02  0.1235075E+00
         -4   -1    0    0    0  501 -0.00000000000E+00  0.00000000000E+00  0.20543202264E+03  0.20543594824E+03  0.12700000000E+01 0. -1.
          4   -1    0    0  501    0  0.00000000000E+00 -0.00000000000E+00 -0.18988289756E+02  0.19030713277E+02  0.12700000000E+01 0. -1.
         25    2    1    2    0    0  0.00000000000E+00  0.00000000000E+00  0.18644373289E+03  0.22446666151E+03  0.12499606633E+03 0.  0.
    9000005    1    3    3    0    0  0.13937229872E+02  0.43508830689E+01 -0.15891060804E+02  0.21603295430E+02  0.10000000000E+01 0.  0.
    9000005    1    3    3    0    0 -0.13937229872E+02 -0.43508830689E+01  0.20233479369E+03  0.20286336608E+03  0.10000000000E+01 0.  0.
<mgrwt>
<rscale>  0 0.12499607E+03</rscale>
<asrwt>0</asrwt>
<pdfrwt beam="2">  1        4 0.47528660E-02 0.12499607E+03</pdfrwt>
<pdfrwt beam="1">  1       -4 0.51363800E-01 0.12499607E+03</pdfrwt>
<totfact> 0.15388462E+03</totfact>
</mgrwt>
</event>
<event>
 4    1  0.1440092E-002  0.1249189E+03  0.7818608E-02  0.1235196E+00
         -4   -1    0    0    0  501 -0.00000000000E+00  0.00000000000E+00  0.40655272812E+02  0.40675104270E+02  0.12700000000E+01 0. -1.
          4   -1    0    0  501    0  0.00000000000E+00 -0.00000000000E+00 -0.95910149720E+02  0.95918557742E+02  0.12700000000E+01 0. -1.
    9000005    1    1    2    0    0  0.34239252419E+02  0.39333329433E+02  0.99459563821E+01  0.53097638920E+02  0.10000000000E+01 0.  0.
    9000005    1    1    2    0    0 -0.34239252419E+02 -0.39333329433E+02 -0.65200833291E+02  0.83496023093E+02  0.10000000000E+01 0.  0.
<mgrwt>
<rscale>  0 0.12491888E+03</rscale>
<asrwt>0</asrwt>
<pdfrwt beam="2">  1        4 0.23981067E-01 0.12491888E+03</pdfrwt>
<pdfrwt beam="1">  1       -4 0.10167348E-01 0.12491888E+03</pdfrwt>
<totfact> 0.19252393E+03</totfact>
</mgrwt>
</event>
<event>
 5    1  0.1440092E-002  0.1249994E+03  0.7818608E-02  0.1235070E+00
          4   -1    0    0  501    0  0.00000000000E+00  0.00000000000E+00  0.53830627826E+03  0.53830777639E+03  0.12700000000E+01 0.  1.
         -4   -1    0    0    0  501 -0.00000000000E+00 -0.00000000000E+00 -0.71993992505E+01  0.73105574048E+01  0.12700000000E+01 0.  1.
         25    2    1    2    0    0  0.00000000000E+00  0.00000000000E+00  0.53110687901E+03  0.54561833379E+03  0.12499939693E+03 0.  0.
    9000005    1    3    3    0    0  0.56335045334E+02 -0.19662115737E+02  0.34662631782E+03  0.35172580277E+03  0.10000000000E+01 0.  0.
    9000005    1    3    3    0    0 -0.56335045334E+02  0.19662115737E+02  0.18448056119E+03  0.19389253102E+03  0.10000000000E+01 0.  0.
<mgrwt>
<rscale>  0 0.12499940E+03</rscale>
<asrwt>0</asrwt>
<pdfrwt beam="1">  1        4 0.13459064E+00 0.12499940E+03</pdfrwt>
<pdfrwt beam="2">  1       -4 0.18139320E-02 0.12499940E+03</pdfrwt>
<totfact> 0.80781644E+02</totfact>
</mgrwt>
</event>
<event>
 5    1  0.1440092E-002  0.1250026E+03  0.7818608E-02  0.1235065E+00
          4   -1    0    0  501    0  0.00000000000E+00  0.00000000000E+00  0.12562718675E+02  0.12626749404E+02  0.12700000000E+01 0. -1.
         -4   -1    0    0    0  501 -0.00000000000E+00 -0.00000000000E+00 -0.31009699835E+03  0.31009959898E+03  0.12700000000E+01 0. -1.
         25    2    1    2    0    0  0.00000000000E+00  0.00000000000E+00 -0.29753427968E+03  0.32272634838E+03  0.12500259341E+03 0.  0.
    9000005    1    3    3    0    0  0.28525190913E+02  0.54040746533E+02 -0.11497438483E+03  0.13020828687E+03  0.10000000000E+01 0.  0.
    9000005    1    3    3    0    0 -0.28525190913E+02 -0.54040746533E+02 -0.18255989485E+03  0.19251806151E+03  0.10000000000E+01 0.  0.
<mgrwt>
<rscale>  0 0.12500259E+03</rscale>
<asrwt>0</asrwt>
<pdfrwt beam="1">  1        4 0.31490096E-02 0.12500259E+03</pdfrwt>
<pdfrwt beam="2">  1       -4 0.77532553E-01 0.12500259E+03</pdfrwt>
<totfact> 0.12356460E+03</totfact>
</mgrwt>
</event>
<event>
 5    1  0.1440092E-002  0.1249999E+03  0.7818608E-02  0.1235069E+00
          4   -1    0    0  501    0  0.00000000000E+00  0.00000000000E+00  0.48841624940E+02  0.48858133681E+02  0.12700000000E+01 0.  1.
         -4   -1    0    0    0  501 -0.00000000000E+00 -0.00000000000E+00 -0.79942736856E+02  0.79952824066E+02  0.12700000000E+01 0.  1.
         25    2    1    2    0    0  0.00000000000E+00  0.00000000000E+00 -0.31101111916E+02  0.12881095775E+03  0.12499993469E+03 0.  0.
    9000005    1    3    3    0    0  0.26869891931E+02  0.56396469693E+02 -0.13859477397E+02  0.63997171812E+02  0.10000000000E+01 0.  0.
    9000005    1    3    3    0    0 -0.26869891931E+02 -0.56396469693E+02 -0.17241634520E+02  0.64813785934E+02  0.10000000000E+01 0.  0.
<mgrwt>
<rscale>  0 0.12499993E+03</rscale>
<asrwt>0</asrwt>
<pdfrwt beam="1">  1        4 0.12213731E-01 0.12499993E+03</pdfrwt>
<pdfrwt beam="2">  1       -4 0.19989009E-01 0.12499993E+03</pdfrwt>
<totfact> 0.19628553E+03</totfact>
</mgrwt>
</event>
<event>
 5    1  0.1440092E-002  0.1249989E+03  0.7818608E-02  0.1235071E+00
         -4   -1    0    0    0  501 -0.00000000000E+00  0.00000000000E+00  0.63134656500E+01  0.64399338905E+01  0.12700000000E+01 0.  1.
          4   -1    0    0  501    0  0.00000000000E+00 -0.00000000000E+00 -0.61244422610E+03  0.61244554287E+03  0.12700000000E+01 0.  1.
         25    2    1    2    0    0  0.00000000000E+00  0.00000000000E+00 -0.60613076045E+03  0.61888547676E+03  0.12499893833E+03 0.  0.
    9000005    1    3    3    0    0  0.14919020535E+02 -0.96889609378E+01 -0.59966759544E+03  0.59993222797E+03  0.10000000000E+01 0.  0.
    9000005    1    3    3    0    0 -0.14919020535E+02  0.96889609378E+01 -0.64631650098E+01  0.18953248791E+02  0.10000000000E+01 0.  0.
<mgrwt>
<rscale>  0 0.12499894E+03</rscale>
<asrwt>0</asrwt>
<pdfrwt beam="2">  1        4 0.15312683E+00 0.12499894E+03</pdfrwt>
<pdfrwt beam="1">  1       -4 0.15943416E-02 0.12499894E+03</pdfrwt>
<totfact> 0.71178196E+02</totfact>
</mgrwt>
</event>
<event>
 5    1  0.1440092E-002  0.1249891E+03  0.7818608E-02  0.1235086E+00
         -4   -1    0    0    0  501 -0.00000000000E+00  0.00000000000E+00  0.39234335566E+02  0.39254884884E+02  0.12700000000E+01 0. -1.
          4   -1    0    0  501    0  0.00000000000E+00 -0.00000000000E+00 -0.99494077349E+02  0.99502182526E+02  0.12700000000E+01 0. -1.
         25    2    1    2    0    0  0.00000000000E+00  0.00000000000E+00 -0.60259741783E+02  0.13875706741E+03  0.12498914864E+03 0.  0.
    9000005    1    3    3    0    0 -0.54235520318E+02  0.65349997510E+01 -0.63809318341E+02  0.84004922433E+02  0.10000000000E+01 0.  0.
    9000005    1    3    3    0    0  0.54235520318E+02 -0.65349997510E+01  0.35495765584E+01  0.54752144977E+02  0.10000000000E+01 0.  0.
<mgrwt>
<rscale>  0 0.12498915E+03</rscale>
<asrwt>0</asrwt>
<pdfrwt beam="2">  1        4 0.24877101E-01 0.12498915E+03</pdfrwt>
<pdfrwt beam="1">  1       -4 0.98121659E-02 0.12498915E+03</pdfrwt>
<totfact> 0.19108946E+03</totfact>
</mgrwt>
</event>
<event>
 5    1  0.1440092E-002  0.1250044E+03  0.7818608E-02  0.1235062E+00
          4   -1    0    0  501    0  0.00000000000E+00  0.00000000000E+00  0.65646259189E+02  0.65658542822E+02  0.12700000000E+01 0. -1.
         -4   -1    0    0    0  501 -0.00000000000E+00 -0.00000000000E+00 -0.59484092414E+02  0.59497648276E+02  0.12700000000E+01 0. -1.
         25    2    1    2    0    0  0.00000000000E+00  0.00000000000E+00  0.61621667743E+01  0.12515619110E+03  0.12500439941E+03 0.  0.
    9000005    1    3    3    0    0  0.60713044467E+01  0.41698558412E+02  0.49287903439E+02  0.64853125883E+02  0.10000000000E+01 0.  0.
    9000005    1    3    3    0    0 -0.60713044467E+01 -0.41698558412E+02 -0.43125736665E+02  0.60303065215E+02  0.10000000000E+01 0.  0.
<mgrwt>
<rscale>  0 0.12500440E+03</rscale>
<asrwt>0</asrwt>
<pdfrwt beam="1">  1        4 0.16414795E-01 0.12500440E+03</pdfrwt>
<pdfrwt beam="2">  1       -4 0.14874253E-01 0.12500440E+03</pdfrwt>
<totfact> 0.19824546E+03</totfact>
</mgrwt>
</event>
<event>
 5    1  0.1440092E-002  0.1249940E+03  0.7818608E-02  0.1235079E+00
         -4   -1    0    0    0  501 -0.00000000000E+00  0.00000000000E+00  0.12410947952E+03  0.12411597724E+03  0.12700000000E+01 0. -1.
          4   -1    0    0  501    0  0.00000000000E+00 -0.00000000000E+00 -0.31451063442E+02  0.31476694420E+02  0.12700000000E+01 0. -1.
         25    2    1    2    0    0  0.00000000000E+00  0.00000000000E+00  0.92658416076E+02  0.15559267166E+03  0.12499398947E+03 0.  0.
    9000005    1    3    3    0    0  0.15811152824E+02 -0.60090956407E+02  0.54582414389E+02  0.82711278288E+02  0.10000000000E+01 0.  0.
    9000005    1    3    3    0    0 -0.15811152824E+02  0.60090956407E+02  0.38076001688E+02  0.72881393373E+02  0.10000000000E+01 0.  0.
<mgrwt>
<rscale>  0 0.12499399E+03</rscale>
<asrwt>0</asrwt>
<pdfrwt beam="2">  1        4 0.78667820E-02 0.12499399E+03</pdfrwt>
<pdfrwt beam="1">  1       -4 0.31031386E-01 0.12499399E+03</pdfrwt>
<totfact> 0.18269717E+03</totfact>
</mgrwt>
</event>
<event>
 5    1  0.1440092E-002  0.1250011E+03  0.7818608E-02  0.1235068E+00
          4   -1    0    0  501    0  0.00000000000E+00  0.00000000000E+00  0.13980770017E+01  0.18887877865E+01  0.12700000000E+01 0.  1.
         -4   -1    0    0    0  501 -0.00000000000E+00 -0.00000000000E+00 -0.23764372365E+04  0.23764375759E+04  0.12700000000E+01 0.  1.
         25    2    1    2    0    0  0.00000000000E+00  0.00000000000E+00 -0.23750391595E+04  0.23783263637E+04  0.12500113132E+03 0.  0.
    9000005    1    3    3    0    0  0.72450204401E+01 -0.36024887182E+02 -0.22578290236E+03  0.22875576892E+03  0.10000000000E+01 0.  0.
    9000005    1    3    3    0    0 -0.72450204401E+01  0.36024887182E+02 -0.21492562572E+04  0.21495705948E+04  0.10000000000E+01 0.  0.
<mgrwt>
<rscale>  0 0.12500113E+03</rscale>
<asrwt>0</asrwt>
<pdfrwt beam="1">  1        4 0.41090868E-03 0.12500113E+03</pdfrwt>
<pdfrwt beam="2">  1       -4 0.59415889E+00 0.12500113E+03</pdfrwt>
<totfact> 0.54781907E+00</totfact>
</mgrwt>
</event>
<event>
 5    1  0.1440092E-002  0.1249958E+03  0.7818608E-02  0.1235076E+00
          4   -1    0    0  501    0  0.00000000000E+00  0.00000000000E+00  0.82373317941E+01  0.83346586665E+01  0.12700000000E+01 0. -1.
         -4   -1    0    0    0  501 -0.00000000000E+00 -0.00000000000E+00 -0.47129830824E+03  0.47130001937E+03  0.12700000000E+01 0. -1.
         25    2    1    2    0    0  0.00000000000E+00  0.00000000000E+00 -0.46306097645E+03  0.47963467803E+03  0.12499582577E+03 0.  0.
    9000005    1    3    3    0    0 -0.49366023075E+02  0.59799992991E+01 -0.86312434086E+02  0.99617272116E+02  0.10000000000E+01 0.  0.
    9000005    1    3    3    0    0  0.49366023075E+02 -0.59799992991E+01 -0.37674854236E+03  0.38001740592E+03  0.10000000000E+01 0.  0.
<mgrwt>
<rscale>  0 0.12499583E+03</rscale>
<asrwt>0</asrwt>
<pdfrwt beam="1">  1        4 0.20717143E-02 0.12499583E+03</pdfrwt>
<pdfrwt beam="2">  1       -4 0.11783687E+00 0.12499583E+03</pdfrwt>
<totfact> 0.90937067E+02</totfact>
</mgrwt>
</event>
<event>
 5    1  0.1440092E-002  0.1250011E+03  0.7818608E-02  0.1235067E+00
         -4   -1    0    0    0  501 -0.00000000000E+00  0.00000000000E+00  0.56353824332E+02  0.56368132990E+02  0.12700000000E+01 0.  1.
          4   -1    0    0  501    0  0.00000000000E+00 -0.00000000000E+00 -0.69288847798E+02  0.69300485778E+02  0.12700000000E+01 0.  1.
         25    2    1    2    0    0  0.00000000000E+00  0.00000000000E+00 -0.12935023466E+02  0.12566861877E+03  0.12500114764E+03 0.  0.
    9000005    1    3    3    0    0 -0.25971972245E+02 -0.52998885714E+02 -0.27117309463E+02  0.64959785265E+02  0.10000000000E+01 0.  0.
    9000005    1    3    3    0    0  0.25971972245E+02  0.52998885714E+02  0.14182285997E+02  0.60708833503E+02  0.10000000000E+01 0.  0.
<mgrwt>
<rscale>  0 0.12500115E+03</rscale>
<asrwt>0</asrwt>
<pdfrwt beam="2">  1        4 0.17325455E-01 0.12500115E+03</pdfrwt>
<pdfrwt beam="1">  1       -4 0.14091699E-01 0.12500115E+03</pdfrwt>
<totfact> 0.19798306E+03</totfact>
</mgrwt>
</event>
<event>
 5    1  0.1440092E-002  0.1249997E+03  0.7818608E-02  0.1235070E+00
          4   -1    0    0  501    0  0.00000000000E+00  0.00000000000E+00  0.32923224535E+03  0.32923469482E+03  0.12700000000E+01 0. -1.
         -4   -1    0    0    0  501 -0.00000000000E+00 -0.00000000000E+00 -0.11828185364E+02  0.11896170350E+02  0.12700000000E+01 0. -1.
         25    2    1    2    0    0  0.00000000000E+00  0.00000000000E+00  0.31740405998E+03  0.34113086517E+03  0.12499971952E+03 0.  0.
    9000005    1    3    3    0    0  0.28571800068E+02  0.55212360330E+02  0.17606532366E+03  0.18672105047E+03  0.10000000000E+01 0.  0.
    9000005    1    3    3    0    0 -0.28571800068E+02 -0.55212360330E+02  0.14133873632E+03  0.15440981470E+03  0.10000000000E+01 0.  0.
<mgrwt>
<rscale>  0 0.12499972E+03</rscale>
<asrwt>0</asrwt>
<pdfrwt beam="1">  1        4 0.82316866E-01 0.12499972E+03</pdfrwt>
<pdfrwt beam="2">  1       -4 0.29658506E-02 0.12499972E+03</pdfrwt>
<totfact> 0.11891933E+03</totfact>
</mgrwt>
</event>
<event>
 5    1  0.1440092E-002  0.1250000E+03  0.7818608E-02  0.1235069E+00
         -4   -1    0    0    0  501 -0.00000000000E+00  0.00000000000E+00  0.33327488974E+02  0.33351677938E+02  0.12700000000E+01 0. -1.
          4   -1    0    0  501    0  0.00000000000E+00 -0.00000000000E+00 -0.11713798874E+03  0.11714487315E+03  0.12700000000E+01 0. -1.
         25    2    1    2    0    0  0.00000000000E+00  0.00000000000E+00 -0.83810499762E+02  0.15049655109E+03  0.12500004808E+03 0.  0.
    9000005    1    3    3    0    0 -0.42519894623E+02 -0.39069603049E+02 -0.70671807879E+02  0.91268174902E+02  0.10000000000E+01 0.  0.
    9000005    1    3    3    0    0  0.42519894623E+02  0.39069603049E+02 -0.13138691884E+02  0.59228376185E+02  0.10000000000E+01 0.  0.
<mgrwt>
<rscale>  0 0.12500005E+03</rscale>
<asrwt>0</asrwt>
<pdfrwt beam="2">  1        4 0.29288380E-01 0.12500005E+03</pdfrwt>
<pdfrwt beam="1">  1       -4 0.83357567E-02 0.12500005E+03</pdfrwt>
<totfact> 0.18514372E+03</totfact>
</mgrwt>
</event>
<event>
 5    1  0.1440092E-002  0.1250012E+03  0.7818608E-02  0.1235067E+00
         -4   -1    0    0    0  501 -0.00000000000E+00  0.00000000000E+00  0.10199187624E+02  0.10277953502E+02  0.12700000000E+01 0.  1.
          4   -1    0    0  501    0  0.00000000000E+00 -0.00000000000E+00 -0.38145063248E+03  0.38145274664E+03  0.12700000000E+01 0.  1.
         25    2    1    2    0    0  0.00000000000E+00  0.00000000000E+00 -0.37125144485E+03  0.39173070014E+03  0.12500122450E+03 0.  0.
    9000005    1    3    3    0    0  0.15117019452E+02 -0.17630506065E+02 -0.38113123006E+01  0.23555999717E+02  0.10000000000E+01 0.  0.
    9000005    1    3    3    0    0 -0.15117019452E+02  0.17630506065E+02 -0.36744013255E+03  0.36817470042E+03  0.10000000000E+01 0.  0.
<mgrwt>
<rscale>  0 0.12500122E+03</rscale>
<asrwt>0</asrwt>
<pdfrwt beam="2">  1        4 0.95372721E-01 0.12500122E+03</pdfrwt>
<pdfrwt beam="1">  1       -4 0.25599082E-02 0.12500122E+03</pdfrwt>
<totfact> 0.10741243E+03</totfact>
</mgrwt>
</event>
<event>
 5    1  0.1440092E-002  0.1250031E+03  0.7818608E-02  0.1235064E+00
          4   -1    0    0  501    0  0.00000000000E+00  0.00000000000E+00  0.21273053399E+02  0.21310929142E+02  0.12700000000E+01 0. -1.
         -4   -1    0    0    0  501 -0.00000000000E+00 -0.00000000000E+00 -0.18343009129E+03  0.18343448773E+03  0.12700000000E+01 0. -1.
         25    2    1    2    0    0  0.00000000000E+00  0.00000000000E+00 -0.16215703789E+03  0.20474541687E+03  0.12500312314E+03 0.  0.
    9000005    1    3    3    0    0  0.18295611587E+02  0.56918645585E+02 -0.51279871646E+02  0.78772373676E+02  0.10000000000E+01 0.  0.
    9000005    1    3    3    0    0 -0.18295611587E+02 -0.56918645585E+02 -0.11087716624E+03  0.12597304320E+03  0.10000000000E+01 0.  0.
<mgrwt>
<rscale>  0 0.12500312E+03</rscale>
<asrwt>0</asrwt>
<pdfrwt beam="1">  1        4 0.53235479E-02 0.12500312E+03</pdfrwt>
<pdfrwt beam="2">  1       -4 0.45862802E-01 0.12500312E+03</pdfrwt>
<totfact> 0.16132611E+03</totfact>
</mgrwt>
</event>
<event>
 5    1  0.1440092E-002  0.1250005E+03  0.7818608E-02  0.1235068E+00
          4   -1    0    0  501    0  0.00000000000E+00  0.00000000000E+00  0.19199029581E+02  0.19240988458E+02  0.12700000000E+01 0. -1.
         -4   -1    0    0    0  501 -0.00000000000E+00 -0.00000000000E+00 -0.20319644355E+03  0.20320041233E+03  0.12700000000E+01 0. -1.
         25    2    1    2    0    0  0.00000000000E+00  0.00000000000E+00 -0.18399741397E+03  0.22244140079E+03  0.12500051375E+03 0.  0.
    9000005    1    3    3    0    0 -0.21137510029E+02  0.46474582749E+02 -0.15612581865E+03  0.16426488493E+03  0.10000000000E+01 0.  0.
    9000005    1    3    3    0    0  0.21137510029E+02 -0.46474582749E+02 -0.27871595320E+02  0.58176515859E+02  0.10000000000E+01 0.  0.
<mgrwt>
<rscale>  0 0.12500051E+03</rscale>
<asrwt>0</asrwt>
<pdfrwt beam="1">  1        4 0.48054990E-02 0.12500051E+03</pdfrwt>
<pdfrwt beam="2">  1       -4 0.50804845E-01 0.12500051E+03</pdfrwt>
<totfact> 0.15461029E+03</totfact>
</mgrwt>
</event>
<event>
 5    1  0.1440092E-002  0.1249922E+03  0.7818608E-02  0.1235081E+00
          4   -1    0    0  501    0  0.00000000000E+00  0.00000000000E+00  0.14603175691E+02  0.14658295953E+02  0.12700000000E+01 0.  1.
         -4   -1    0    0    0  501 -0.00000000000E+00 -0.00000000000E+00 -0.26689932131E+03  0.26690234284E+03  0.12700000000E+01 0.  1.
         25    2    1    2    0    0  0.00000000000E+00  0.00000000000E+00 -0.25229614562E+03  0.28156063880E+03  0.12499219266E+03 0.  0.
    9000005    1    3    3    0    0 -0.45729523538E+01  0.19764526146E+02 -0.25928595078E+03  0.26008028118E+03  0.10000000000E+01 0.  0.
    9000005    1    3    3    0    0  0.45729523538E+01 -0.19764526146E+02  0.69898051635E+01  0.21480357614E+02  0.10000000000E+01 0.  0.
<mgrwt>
<rscale>  0 0.12499219E+03</rscale>
<asrwt>0</asrwt>
<pdfrwt beam="1">  1        4 0.36580625E-02 0.12499219E+03</pdfrwt>
<pdfrwt beam="2">  1       -4 0.66732082E-01 0.12499219E+03</pdfrwt>
<totfact> 0.13506478E+03</totfact>
</mgrwt>
</event>
<event>
 5    1  0.1440092E-002  0.1249759E+03  0.7818608E-02  0.1235107E+00
          4   -1    0    0  501    0  0.00000000000E+00  0.00000000000E+00  0.88617216566E+02  0.88626316475E+02  0.12700000000E+01 0.  1.
         -4   -1    0    0    0  501 -0.00000000000E+00 -0.00000000000E+00 -0.44042540147E+02  0.44060847048E+02  0.12700000000E+01 0.  1.
         25    2    1    2    0    0  0.00000000000E+00  0.00000000000E+00  0.44574676420E+02  0.13268716352E+03  0.12497592402E+03 0.  0.
    9000005    1    3    3    0    0 -0.17915363853E+02 -0.30782404154E+01 -0.41178186505E+02  0.45023092629E+02  0.10000000000E+01 0.  0.
    9000005    1    3    3    0    0  0.17915363853E+02  0.30782404154E+01  0.85752862925E+02  0.87664070894E+02  0.10000000000E+01 0.  0.
<mgrwt>
<rscale>  0 0.12497592E+03</rscale>
<asrwt>0</asrwt>
<pdfrwt beam="1">  1        4 0.22157730E-01 0.12497592E+03</pdfrwt>
<pdfrwt beam="2">  1       -4 0.11014061E-01 0.12497592E+03</pdfrwt>
<totfact> 0.19431894E+03</totfact>
</mgrwt>
</event>
<event>
 5    1  0.1440092E-002  0.1249812E+03  0.7818608E-02  0.1235099E+00
          4   -1    0    0  501    0  0.00000000000E+00  0.00000000000E+00  0.40679791929E+01  0.42616140972E+01  0.12700000000E+01 0. -1.
         -4   -1    0    0    0  501 -0.00000000000E+00 -0.00000000000E+00 -0.93744484121E+03  0.93744570147E+03  0.12700000000E+01 0. -1.
         25    2    1    2    0    0  0.00000000000E+00  0.00000000000E+00 -0.93337686201E+03  0.94170731557E+03  0.12498120519E+03 0.  0.
    9000005    1    3    3    0    0  0.31345620280E+02  0.53902607196E+02 -0.49686189757E+03  0.50076020631E+03  0.10000000000E+01 0.  0.
    9000005    1    3    3    0    0 -0.31345620280E+02 -0.53902607196E+02 -0.43651496445E+03  0.44094710925E+03  0.10000000000E+01 0.  0.
<mgrwt>
<rscale>  0 0.12498121E+03</rscale>
<asrwt>0</asrwt>
<pdfrwt beam="1">  1        4 0.10413099E-02 0.12498121E+03</pdfrwt>
<pdfrwt beam="2">  1       -4 0.23438480E+00 0.12498121E+03</pdfrwt>
<totfact> 0.41191902E+02</totfact>
</mgrwt>
</event>
<event>
 5    1  0.1440092E-002  0.1249992E+03  0.7818608E-02  0.1235071E+00
         -4   -1    0    0    0  501 -0.00000000000E+00  0.00000000000E+00  0.24847936043E+02  0.24880370286E+02  0.12700000000E+01 0.  1.
          4   -1    0    0  501    0  0.00000000000E+00 -0.00000000000E+00 -0.15706667204E+03  0.15707180640E+03  0.12700000000E+01 0.  1.
         25    2    1    2    0    0  0.00000000000E+00  0.00000000000E+00 -0.13221873599E+03  0.18195217668E+03  0.12499920180E+03 0.  0.
    9000005    1    3    3    0    0 -0.14576201312E+02 -0.13944237829E+02 -0.15220439915E+03  0.15353855064E+03  0.10000000000E+01 0.  0.
    9000005    1    3    3    0    0  0.14576201312E+02  0.13944237829E+02  0.19985663151E+02  0.28413626043E+02  0.10000000000E+01 0.  0.
<mgrwt>
<rscale>  0 0.12499920E+03</rscale>
<asrwt>0</asrwt>
<pdfrwt beam="2">  1        4 0.39271361E-01 0.12499920E+03</pdfrwt>
<pdfrwt beam="1">  1       -4 0.62166805E-02 0.12499920E+03</pdfrwt>
<totfact> 0.17071365E+03</totfact>
</mgrwt>
</event>
<event>
 5    1  0.1440092E-002  0.1249930E+03  0.7818608E-02  0.1235080E+00
         -4   -1    0    0    0  501 -0.00000000000E+00  0.00000000000E+00  0.17961721883E+02  0.18006564164E+02  0.12700000000E+01 0.  1.
          4   -1    0    0  501    0  0.00000000000E+00 -0.00000000000E+00 -0.21713436569E+03  0.21713807972E+03  0.12700000000E+01 0.  1.
         25    2    1    2    0    0  0.00000000000E+00  0.00000000000E+00 -0.19917264381E+03  0.23514464388E+03  0.12499304583E+03 0.  0.
    9000005    1    3    3    0    0  0.33737508070E+02  0.26288423195E+02 -0.18529250413E+03  0.19016732824E+03  0.10000000000E+01 0.  0.
    9000005    1    3    3    0    0 -0.33737508070E+02 -0.26288423195E+02 -0.13880139683E+02  0.44977315643E+02  0.10000000000E+01 0.  0.
<mgrwt>
<rscale>  0 0.12499305E+03</rscale>
<asrwt>0</asrwt>
<pdfrwt beam="2">  1        4 0.54289653E-01 0.12499305E+03</pdfrwt>
<pdfrwt beam="1">  1       -4 0.44965007E-02 0.12499305E+03</pdfrwt>
<totfact> 0.15007613E+03</totfact>
</mgrwt>
</event>
<event>
 5    1  0.1440092E-002  0.1249797E+03  0.7818608E-02  0.1235101E+00
         -4   -1    0    0    0  501 -0.00000000000E+00  0.00000000000E+00  0.82468409348E+02  0.82478187664E+02  0.12700000000E+01 0.  1.
          4   -1    0    0  501    0  0.00000000000E+00 -0.00000000000E+00 -0.47330163377E+02  0.47347199128E+02  0.12700000000E+01 0.  1.
         25    2    1    2    0    0  0.00000000000E+00  0.00000000000E+00  0.35138245971E+02  0.12982538679E+03  0.12497973726E+03 0.  0.
    9000005    1    3    3    0    0  0.42523206957E+02 -0.42099293890E+02  0.36249977739E+02  0.69968811352E+02  0.10000000000E+01 0.  0.
    9000005    1    3    3    0    0 -0.42523206957E+02  0.42099293890E+02 -0.11117317681E+01  0.59856575440E+02  0.10000000000E+01 0.  0.
<mgrwt>
<rscale>  0 0.12497974E+03</rscale>
<asrwt>0</asrwt>
<pdfrwt beam="2">  1        4 0.11835893E-01 0.12497974E+03</pdfrwt>
<pdfrwt beam="1">  1       -4 0.20620454E-01 0.12497974E+03</pdfrwt>
<totfact> 0.19583034E+03</totfact>
</mgrwt>
</event>
<event>
 5    1  0.1440092E-002  0.1250007E+03  0.7818608E-02  0.1235068E+00
         -4   -1    0    0    0  501 -0.00000000000E+00  0.00000000000E+00  0.39763834508E+02  0.39784110330E+02  0.12700000000E+01 0. -1.
          4   -1    0    0  501    0  0.00000000000E+00 -0.00000000000E+00 -0.98187878802E+02  0.98196091794E+02  0.12700000000E+01 0. -1.
         25    2    1    2    0    0  0.00000000000E+00  0.00000000000E+00 -0.58424044294E+02  0.13798020212E+03  0.12500066890E+03 0.  0.
    9000005    1    3    3    0    0  0.25943283623E+02 -0.51841402823E+02 -0.54974393506E+02  0.79898491557E+02  0.10000000000E+01 0.  0.
    9000005    1    3    3    0    0 -0.25943283623E+02  0.51841402823E+02 -0.34496507879E+01  0.58081710567E+02  0.10000000000E+01 0.  0.
<mgrwt>
<rscale>  0 0.12500067E+03</rscale>
<asrwt>0</asrwt>
<pdfrwt beam="2">  1        4 0.24550530E-01 0.12500067E+03</pdfrwt>
<pdfrwt beam="1">  1       -4 0.99445199E-02 0.12500067E+03</pdfrwt>
<totfact> 0.19143854E+03</totfact>
</mgrwt>
</event>
<event>
 5    1  0.1440092E-002  0.1249851E+03  0.7818608E-02  0.1235093E+00
          4   -1    0    0  501    0  0.00000000000E+00  0.00000000000E+00  0.98131286523E+02  0.98139504251E+02  0.12700000000E+01 0. -1.
         -4   -1    0    0    0  501 -0.00000000000E+00 -0.00000000000E+00 -0.39776863986E+02  0.39797133170E+02  0.12700000000E+01 0. -1.
         25    2    1    2    0    0  0.00000000000E+00  0.00000000000E+00  0.58354422537E+02  0.13793663742E+03  0.12498510837E+03 0.  0.
    9000005    1    3    3    0    0 -0.27440378613E+02  0.49024190948E+02  0.59360357891E+02  0.81737370679E+02  0.10000000000E+01 0.  0.
    9000005    1    3    3    0    0  0.27440378613E+02 -0.49024190948E+02 -0.10059353547E+01  0.56199266743E+02  0.10000000000E+01 0.  0.
<mgrwt>
<rscale>  0 0.12498511E+03</rscale>
<asrwt>0</asrwt>
<pdfrwt beam="1">  1        4 0.24536382E-01 0.12498511E+03</pdfrwt>
<pdfrwt beam="2">  1       -4 0.99477770E-02 0.12498511E+03</pdfrwt>
<totfact> 0.19153055E+03</totfact>
</mgrwt>
</event>
<event>
 5    1  0.1440092E-002  0.1250062E+03  0.7818608E-02  0.1235060E+00
          4   -1    0    0  501    0  0.00000000000E+00  0.00000000000E+00  0.38245982165E+01  0.40299443566E+01  0.12700000000E+01 0. -1.
         -4   -1    0    0    0  501 -0.00000000000E+00 -0.00000000000E+00 -0.99454030247E+03  0.99454111335E+03  0.12700000000E+01 0. -1.
         25    2    1    2    0    0  0.00000000000E+00  0.00000000000E+00 -0.99071570426E+03  0.99857105771E+03  0.12500620236E+03 0.  0.
    9000005    1    3    3    0    0  0.60689529451E+02 -0.43853712878E+01 -0.60922424833E+03  0.61225618430E+03  0.10000000000E+01 0.  0.
    9000005    1    3    3    0    0 -0.60689529451E+02  0.43853712878E+01 -0.38149145593E+03  0.38631487340E+03  0.10000000000E+01 0.  0.
<mgrwt>
<rscale>  0 0.12500620E+03</rscale>
<asrwt>0</asrwt>
<pdfrwt beam="1">  1        4 0.98192259E-03 0.12500620E+03</pdfrwt>
<pdfrwt beam="2">  1       -4 0.24865998E+00 0.12500620E+03</pdfrwt>
<totfact> 0.37200647E+02</totfact>
</mgrwt>
</event>
<event>
 5    1  0.1440092E-002  0.1249979E+03  0.7818608E-02  0.1235073E+00
         -4   -1    0    0    0  501 -0.00000000000E+00  0.00000000000E+00  0.27648324427E+03  0.27648616107E+03  0.12700000000E+01 0. -1.
          4   -1    0    0  501    0  0.00000000000E+00 -0.00000000000E+00 -0.14096325386E+02  0.14153419706E+02  0.12700000000E+01 0. -1.
         25    2    1    2    0    0  0.00000000000E+00  0.00000000000E+00  0.26238691888E+03  0.29063958077E+03  0.12499788283E+03 0.  0.
    9000005    1    3    3    0    0 -0.31753510931E+02 -0.42939595340E+02  0.55741398504E+02  0.77202317397E+02  0.10000000000E+01 0.  0.
    9000005    1    3    3    0    0  0.31753510931E+02  0.42939595340E+02  0.20664552038E+03  0.21343726338E+03  0.10000000000E+01 0.  0.
<mgrwt>
<rscale>  0 0.12499788E+03</rscale>
<asrwt>0</asrwt>
<pdfrwt beam="2">  1        4 0.35315829E-02 0.12499788E+03</pdfrwt>
<pdfrwt beam="1">  1       -4 0.69128310E-01 0.12499788E+03</pdfrwt>
<totfact> 0.13238157E+03</totfact>
</mgrwt>
</event>
<event>
 5    1  0.1440092E-002  0.1249927E+03  0.7818608E-02  0.1235081E+00
          4   -1    0    0  501    0  0.00000000000E+00  0.00000000000E+00  0.18849931756E+02  0.18892665963E+02  0.12700000000E+01 0. -1.
         -4   -1    0    0    0  501 -0.00000000000E+00 -0.00000000000E+00 -0.20692537942E+03  0.20692927668E+03  0.12700000000E+01 0. -1.
         25    2    1    2    0    0  0.00000000000E+00  0.00000000000E+00 -0.18807544766E+03  0.22582194264E+03  0.12499270285E+03 0.  0.
    9000005    1    3    3    0    0  0.38390189849E+02 -0.47176336378E+02 -0.68145989814E+02  0.91347081608E+02  0.10000000000E+01 0.  0.
    9000005    1    3    3    0    0 -0.38390189849E+02  0.47176336378E+02 -0.11992945785E+03  0.13447486104E+03  0.10000000000E+01 0.  0.
<mgrwt>
<rscale>  0 0.12499270E+03</rscale>
<asrwt>0</asrwt>
<pdfrwt beam="1">  1        4 0.47183125E-02 0.12499270E+03</pdfrwt>
<pdfrwt beam="2">  1       -4 0.51737167E-01 0.12499270E+03</pdfrwt>
<totfact> 0.15340343E+03</totfact>
</mgrwt>
</event>
<event>
 5    1  0.1440092E-002  0.1250019E+03  0.7818608E-02  0.1235066E+00
          4   -1    0    0  501    0  0.00000000000E+00  0.00000000000E+00  0.12900813909E+03  0.12901439010E+03  0.12700000000E+01 0.  1.
         -4   -1    0    0    0  501 -0.00000000000E+00 -0.00000000000E+00 -0.30259693157E+02  0.30286332395E+02  0.12700000000E+01 0.  1.
         25    2    1    2    0    0  0.00000000000E+00  0.00000000000E+00  0.98748445937E+02  0.15930072249E+03  0.12500185843E+03 0.  0.
    9000005    1    3    3    0    0  0.42770441956E+02 -0.45447906728E+02  0.45236247143E+02  0.77085283853E+02  0.10000000000E+01 0.  0.
    9000005    1    3    3    0    0 -0.42770441956E+02  0.45447906728E+02  0.53512198794E+02  0.82215438640E+02  0.10000000000E+01 0.  0.
<mgrwt>
<rscale>  0 0.12500186E+03</rscale>
<asrwt>0</asrwt>
<pdfrwt beam="1">  1        4 0.32256145E-01 0.12500186E+03</pdfrwt>
<pdfrwt beam="2">  1       -4 0.75690347E-02 0.12500186E+03</pdfrwt>
<totfact> 0.18089931E+03</totfact>
</mgrwt>
</event>
<event>
 5    1  0.1440092E-002  0.1250024E+03  0.7818608E-02  0.1235065E+00
         -4   -1    0    0    0  501 -0.00000000000E+00  0.00000000000E+00  0.60797376751E+02  0.60810639857E+02  0.12700000000E+01 0.  1.
          4   -1    0    0  501    0  0.00000000000E+00 -0.00000000000E+00 -0.64226272896E+02  0.64238828057E+02  0.12700000000E+01 0.  1.
         25    2    1    2    0    0  0.00000000000E+00  0.00000000000E+00 -0.34288961451E+01  0.12504946791E+03  0.12500244836E+03 0.  0.
    9000005    1    3    3    0    0 -0.56007086781E+02  0.62566842450E+01  0.25304286793E+02  0.61783871662E+02  0.10000000000E+01 0.  0.
    9000005    1    3    3    0    0  0.56007086781E+02 -0.62566842450E+01 -0.28733182939E+02  0.63265596252E+02  0.10000000000E+01 0.  0.
<mgrwt>
<rscale>  0 0.12500245E+03</rscale>
<asrwt>0</asrwt>
<pdfrwt beam="2">  1        4 0.16059796E-01 0.12500245E+03</pdfrwt>
<pdfrwt beam="1">  1       -4 0.15202571E-01 0.12500245E+03</pdfrwt>
<totfact> 0.19831237E+03</totfact>
</mgrwt>
</event>
<event>
 5    1  0.1440092E-002  0.1250008E+03  0.7818608E-02  0.1235068E+00
          4   -1    0    0  501    0  0.00000000000E+00  0.00000000000E+00  0.29870521950E+02  0.29897507949E+02  0.12700000000E+01 0.  1.
         -4   -1    0    0    0  501 -0.00000000000E+00 -0.00000000000E+00 -0.13068530083E+03  0.13069147162E+03  0.12700000000E+01 0.  1.
         25    2    1    2    0    0  0.00000000000E+00  0.00000000000E+00 -0.10081477888E+03  0.16058897957E+03  0.12500080287E+03 0.  0.
    9000005    1    3    3    0    0 -0.59274215698E+02  0.18799225393E+02 -0.42440501620E+02  0.75293025572E+02  0.10000000000E+01 0.  0.
    9000005    1    3    3    0    0  0.59274215698E+02 -0.18799225393E+02 -0.58374277262E+02  0.85295953995E+02  0.10000000000E+01 0.  0.
<mgrwt>
<rscale>  0 0.12500080E+03</rscale>
<asrwt>0</asrwt>
<pdfrwt beam="1">  1        4 0.74717754E-02 0.12500080E+03</pdfrwt>
<pdfrwt beam="2">  1       -4 0.32675468E-01 0.12500080E+03</pdfrwt>
<totfact> 0.18029735E+03</totfact>
</mgrwt>
</event>
<event>
 5    1  0.1440092E-002  0.1250068E+03  0.7818608E-02  0.1235059E+00
          4   -1    0    0  501    0  0.00000000000E+00  0.00000000000E+00  0.19995303188E+02  0.20035594565E+02  0.12700000000E+01 0.  1.
         -4   -1    0    0    0  501 -0.00000000000E+00 -0.00000000000E+00 -0.19514047157E+03  0.19514460419E+03  0.12700000000E+01 0.  1.
         25    2    1    2    0    0  0.00000000000E+00  0.00000000000E+00 -0.17514516838E+03  0.21518019876E+03  0.12500675153E+03 0.  0.
    9000005    1    3    3    0    0 -0.60865937452E+02  0.10359413787E+02 -0.70910837741E+02  0.94028329268E+02  0.10000000000E+01 0.  0.
    9000005    1    3    3    0    0  0.60865937452E+02 -0.10359413787E+02 -0.10423433064E+03  0.12115186949E+03  0.10000000000E+01 0.  0.
<mgrwt>
<rscale>  0 0.12500675E+03</rscale>
<asrwt>0</asrwt>
<pdfrwt beam="1">  1        4 0.50043794E-02 0.12500675E+03</pdfrwt>
<pdfrwt beam="2">  1       -4 0.48790665E-01 0.12500675E+03</pdfrwt>
<totfact> 0.15729272E+03</totfact>
</mgrwt>
</event>
<event>
 4    1  0.1440092E-002  0.1251530E+03  0.7818608E-02  0.1234830E+00
         -4   -1    0    0    0  501 -0.00000000000E+00  0.00000000000E+00  0.90280922846E+02  0.90289855077E+02  0.12700000000E+01 0.  1.
          4   -1    0    0  501    0  0.00000000000E+00 -0.00000000000E+00 -0.43353361694E+02  0.43371959492E+02  0.12700000000E+01 0.  1.
    9000005    1    1    2    0    0  0.48531990919E+02 -0.45119634552E+01 -0.18434929339E+02  0.52120615658E+02  0.10000000000E+01 0.  0.
    9000005    1    1    2    0    0 -0.48531990919E+02  0.45119634552E+01  0.65362490491E+02  0.81541198912E+02  0.10000000000E+01 0.  0.
<mgrwt>
<rscale>  0 0.12515305E+03</rscale>
<asrwt>0</asrwt>
<pdfrwt beam="2">  1        4 0.10841782E-01 0.12515305E+03</pdfrwt>
<pdfrwt beam="1">  1       -4 0.22573672E-01 0.12515305E+03</pdfrwt>
<totfact> 0.19300445E+03</totfact>
</mgrwt>
</event>
<event>
 5    1  0.1440092E-002  0.1250000E+03  0.7818608E-02  0.1235069E+00
         -4   -1    0    0    0  501 -0.00000000000E+00  0.00000000000E+00  0.51602188952E+02  0.51617814799E+02  0.12700000000E+01 0.  1.
          4   -1    0    0  501    0  0.00000000000E+00 -0.00000000000E+00 -0.75666847248E+02  0.75677504402E+02  0.12700000000E+01 0.  1.
         25    2    1    2    0    0  0.00000000000E+00  0.00000000000E+00 -0.24064658296E+02  0.12729531920E+03  0.12499996205E+03 0.  0.
    9000005    1    3    3    0    0  0.35966569627E+02  0.38982403117E+02 -0.45684957687E+02  0.70009551080E+02  0.10000000000E+01 0.  0.
    9000005    1    3    3    0    0 -0.35966569627E+02 -0.38982403117E+02  0.21620299390E+02  0.57285768122E+02  0.10000000000E+01 0.  0.
<mgrwt>
<rscale>  0 0.12499996E+03</rscale>
<asrwt>0</asrwt>
<pdfrwt beam="2">  1        4 0.18919997E-01 0.12499996E+03</pdfrwt>
<pdfrwt beam="1">  1       -4 0.12903833E-01 0.12499996E+03</pdfrwt>
<totfact> 0.19710984E+03</totfact>
</mgrwt>
</event>
<event>
 5    1  0.1440092E-002  0.1249956E+03  0.7818608E-02  0.1235076E+00
          4   -1    0    0  501    0  0.00000000000E+00  0.00000000000E+00  0.22102032773E+02  0.22138490299E+02  0.12700000000E+01 0. -1.
         -4   -1    0    0    0  501 -0.00000000000E+00 -0.00000000000E+00 -0.17654018806E+03  0.17654475608E+03  0.12700000000E+01 0. -1.
         25    2    1    2    0    0  0.00000000000E+00  0.00000000000E+00 -0.15443815528E+03  0.19868324638E+03  0.12499555426E+03 0.  0.
    9000005    1    3    3    0    0 -0.36024645132E+02  0.49121810604E+01 -0.15800479096E+03  0.16213703632E+03  0.10000000000E+01 0.  0.
    9000005    1    3    3    0    0  0.36024645132E+02 -0.49121810604E+01  0.35666356778E+01  0.36546210059E+02  0.10000000000E+01 0.  0.
<mgrwt>
<rscale>  0 0.12499555E+03</rscale>
<asrwt>0</asrwt>
<pdfrwt beam="1">  1        4 0.55306369E-02 0.12499555E+03</pdfrwt>
<pdfrwt beam="2">  1       -4 0.44140171E-01 0.12499555E+03</pdfrwt>
<totfact> 0.16376586E+03</totfact>
</mgrwt>
</event>
<event>
 5    1  0.1440092E-002  0.1250117E+03  0.7818608E-02  0.1235051E+00
          4   -1    0    0  501    0  0.00000000000E+00  0.00000000000E+00  0.58374207090E+02  0.58388020633E+02  0.12700000000E+01 0. -1.
         -4   -1    0    0    0  501 -0.00000000000E+00 -0.00000000000E+00 -0.66902123015E+02  0.66914176106E+02  0.12700000000E+01 0. -1.
         25    2    1    2    0    0  0.00000000000E+00  0.00000000000E+00 -0.85279159250E+01  0.12530219674E+03  0.12501166009E+03 0.  0.
    9000005    1    3    3    0    0  0.48994418584E+02  0.42460736620E+01  0.34393754612E+02  0.60020101218E+02  0.10000000000E+01 0.  0.
    9000005    1    3    3    0    0 -0.48994418584E+02 -0.42460736620E+01 -0.42921670537E+02  0.65282095521E+02  0.10000000000E+01 0.  0.
<mgrwt>
<rscale>  0 0.12501166E+03</rscale>
<asrwt>0</asrwt>
<pdfrwt beam="1">  1        4 0.14596785E-01 0.12501166E+03</pdfrwt>
<pdfrwt beam="2">  1       -4 0.16728764E-01 0.12501166E+03</pdfrwt>
<totfact> 0.19813270E+03</totfact>
</mgrwt>
</event>
<event>
 5    1  0.1440092E-002  0.1250013E+03  0.7818608E-02  0.1235067E+00
         -4   -1    0    0    0  501 -0.00000000000E+00  0.00000000000E+00  0.22631305708E+02  0.22666911966E+02  0.12700000000E+01 0. -1.
          4   -1    0    0  501    0  0.00000000000E+00 -0.00000000000E+00 -0.17243371358E+03  0.17243839038E+03  0.12700000000E+01 0. -1.
         25    2    1    2    0    0  0.00000000000E+00  0.00000000000E+00 -0.14980240787E+03  0.19510530235E+03  0.12500127040E+03 0.  0.
    9000005    1    3    3    0    0  0.42410559556E+02  0.45864847877E+02 -0.77644694682E+02  0.99659111199E+02  0.10000000000E+01 0.  0.
    9000005    1    3    3    0    0 -0.42410559556E+02 -0.45864847877E+02 -0.72157713188E+02  0.95446191151E+02  0.10000000000E+01 0.  0.
<mgrwt>
<rscale>  0 0.12500127E+03</rscale>
<asrwt>0</asrwt>
<pdfrwt beam="2">  1        4 0.43113460E-01 0.12500127E+03</pdfrwt>
<pdfrwt beam="1">  1       -4 0.56628623E-02 0.12500127E+03</pdfrwt>
<totfact> 0.16519442E+03</totfact>
</mgrwt>
</event>
<event>
 5    1  0.1440092E-002  0.1250020E+03  0.7818608E-02  0.1235066E+00
         -4   -1    0    0    0  501 -0.00000000000E+00  0.00000000000E+00  0.50977979681E+02  0.50993796803E+02  0.12700000000E+01 0.  1.
          4   -1    0    0  501    0  0.00000000000E+00 -0.00000000000E+00 -0.76595755800E+02  0.76606283727E+02  0.12700000000E+01 0.  1.
         25    2    1    2    0    0  0.00000000000E+00  0.00000000000E+00 -0.25617776119E+02  0.12760008053E+03  0.12500204038E+03 0.  0.
    9000005    1    3    3    0    0  0.21162610078E+02 -0.33982461267E+02  0.36175064633E+02  0.53965720974E+02  0.10000000000E+01 0.  0.
    9000005    1    3    3    0    0 -0.21162610078E+02  0.33982461267E+02 -0.61792840752E+02  0.73634359556E+02  0.10000000000E+01 0.  0.
<mgrwt>
<rscale>  0 0.12500204E+03</rscale>
<asrwt>0</asrwt>
<pdfrwt beam="2">  1        4 0.19152232E-01 0.12500204E+03</pdfrwt>
<pdfrwt beam="1">  1       -4 0.12747788E-01 0.12500204E+03</pdfrwt>
<totfact> 0.19693385E+03</totfact>
</mgrwt>
</event>
<event>
 5    1  0.1440092E-002  0.1250018E+03  0.7818608E-02  0.1235066E+00
         -4   -1    0    0    0  501 -0.00000000000E+00  0.00000000000E+00  0.13273002402E+04  0.13273008478E+04  0.12700000000E+01 0.  1.
          4   -1    0    0  501    0  0.00000000000E+00 -0.00000000000E+00 -0.28054439202E+01  0.30795154796E+01  0.12700000000E+01 0.  1.
         25    2    1    2    0    0  0.00000000000E+00  0.00000000000E+00  0.13244947963E+04  0.13303803632E+04  0.12500178235E+03 0.  0.
    9000005    1    3    3    0    0  0.46731275280E+01 -0.53014999941E+02  0.31363250729E+03  0.31811755369E+03  0.10000000000E+01 0.  0.
    9000005    1    3    3    0    0 -0.46731275280E+01  0.53014999941E+02  0.10108622890E+04  0.10122628096E+04  0.10000000000E+01 0.  0.
<mgrwt>
<rscale>  0 0.12500178E+03</rscale>
<asrwt>0</asrwt>
<pdfrwt beam="2">  1        4 0.73569652E-03 0.12500178E+03</pdfrwt>
<pdfrwt beam="1">  1       -4 0.33185911E+00 0.12500178E+03</pdfrwt>
<totfact> 0.18962638E+02</totfact>
</mgrwt>
</event>
<event>
 5    1  0.1440092E-002  0.1250000E+03  0.7818608E-02  0.1235069E+00
         -4   -1    0    0    0  501 -0.00000000000E+00  0.00000000000E+00  0.92252812725E+02  0.92261554050E+02  0.12700000000E+01 0.  1.
          4   -1    0    0  501    0  0.00000000000E+00 -0.00000000000E+00 -0.42322637574E+02  0.42341688100E+02  0.12700000000E+01 0.  1.
         25    2    1    2    0    0  0.00000000000E+00  0.00000000000E+00  0.49930175151E+02  0.13460324215E+03  0.12500004163E+03 0.  0.
    9000005    1    3    3    0    0 -0.47538868861E+02  0.30033714563E+02  0.54322847360E+02  0.78191686312E+02  0.10000000000E+01 0.  0.
    9000005    1    3    3    0    0  0.47538868861E+02 -0.30033714563E+02 -0.43926722084E+01  0.56411555839E+02  0.10000000000E+01 0.  0.
<mgrwt>
<rscale>  0 0.12500004E+03</rscale>
<asrwt>0</asrwt>
<pdfrwt beam="2">  1        4 0.10584133E-01 0.12500004E+03</pdfrwt>
<pdfrwt beam="1">  1       -4 0.23066677E-01 0.12500004E+03</pdfrwt>
<totfact> 0.19319920E+03</totfact>
</mgrwt>
</event>
<event>
 5    1  0.1440092E-002  0.1250008E+03  0.7818608E-02  0.1235068E+00
          4   -1    0    0  501    0  0.00000000000E+00  0.00000000000E+00  0.18551959673E+03  0.18552394366E+03  0.12700000000E+01 0. -1.
         -4   -1    0    0    0  501 -0.00000000000E+00 -0.00000000000E+00 -0.21032242539E+02  0.21070551161E+02  0.12700000000E+01 0. -1.
         25    2    1    2    0    0  0.00000000000E+00  0.00000000000E+00  0.16448735419E+03  0.20659449482E+03  0.12500078240E+03 0.  0.
    9000005    1    3    3    0    0  0.18340180675E+02 -0.54891637941E+02  0.12120940289E+03  0.13432115802E+03  0.10000000000E+01 0.  0.
    9000005    1    3    3    0    0 -0.18340180675E+02  0.54891637941E+02  0.43277951295E+02  0.72273336794E+02  0.10000000000E+01 0.  0.
<mgrwt>
<rscale>  0 0.12500078E+03</rscale>
<asrwt>0</asrwt>
<pdfrwt beam="1">  1        4 0.46385232E-01 0.12500078E+03</pdfrwt>
<pdfrwt beam="2">  1       -4 0.52633925E-02 0.12500078E+03</pdfrwt>
<totfact> 0.16061059E+03</totfact>
</mgrwt>
</event>
<event>
 5    1  0.1440092E-002  0.1250063E+03  0.7818608E-02  0.1235059E+00
          4   -1    0    0  501    0  0.00000000000E+00  0.00000000000E+00  0.96856701142E+01  0.97685774584E+01  0.12700000000E+01 0.  1.
         -4   -1    0    0    0  501 -0.00000000000E+00 -0.00000000000E+00 -0.40153966746E+03  0.40154167585E+03  0.12700000000E+01 0.  1.
         25    2    1    2    0    0  0.00000000000E+00  0.00000000000E+00 -0.39185399735E+03  0.41131025331E+03  0.12500627680E+03 0.  0.
    9000005    1    3    3    0    0  0.36803609720E+02  0.50447700621E+02 -0.20409740829E+03  0.21343905045E+03  0.10000000000E+01 0.  0.
    9000005    1    3    3    0    0 -0.36803609720E+02 -0.50447700621E+02 -0.18775658906E+03  0.19787120286E+03  0.10000000000E+01 0.  0.
<mgrwt>
<rscale>  0 0.12500628E+03</rscale>
<asrwt>0</asrwt>
<pdfrwt beam="1">  1        4 0.24320333E-02 0.12500628E+03</pdfrwt>
<pdfrwt beam="2">  1       -4 0.10039548E+00 0.12500628E+03</pdfrwt>
<totfact> 0.10338014E+03</totfact>
</mgrwt>
</event>
<event>
 5    1  0.1440092E-002  0.1250178E+03  0.7818608E-02  0.1235042E+00
         -4   -1    0    0    0  501 -0.00000000000E+00  0.00000000000E+00  0.35745566995E+03  0.35745792603E+03  0.12700000000E+01 0.  1.
          4   -1    0    0  501    0  0.00000000000E+00 -0.00000000000E+00 -0.10891849292E+02  0.10965640930E+02  0.12700000000E+01 0.  1.
         25    2    1    2    0    0  0.00000000000E+00  0.00000000000E+00  0.34656382066E+03  0.36842356696E+03  0.12501777034E+03 0.  0.
    9000005    1    3    3    0    0  0.21083379030E+02  0.47890264961E+02  0.72550093827E+02  0.89456707203E+02  0.10000000000E+01 0.  0.
    9000005    1    3    3    0    0 -0.21083379030E+02 -0.47890264961E+02  0.27401372683E+03  0.27896685976E+03  0.10000000000E+01 0.  0.
<mgrwt>
<rscale>  0 0.12501777E+03</rscale>
<asrwt>0</asrwt>
<pdfrwt beam="2">  1        4 0.27324683E-02 0.12501777E+03</pdfrwt>
<pdfrwt beam="1">  1       -4 0.89373423E-01 0.12501777E+03</pdfrwt>
<totfact> 0.11245361E+03</totfact>
</mgrwt>
</event>
<event>
 5    1  0.1440092E-002  0.1249941E+03  0.7818608E-02  0.1235079E+00
         -4   -1    0    0    0  501 -0.00000000000E+00  0.00000000000E+00  0.11706487436E+03  0.11707176307E+03  0.12700000000E+01 0.  1.
          4   -1    0    0  501    0  0.00000000000E+00 -0.00000000000E+00 -0.33345140309E+02  0.33369316478E+02  0.12700000000E+01 0.  1.
         25    2    1    2    0    0  0.00000000000E+00  0.00000000000E+00  0.83719734049E+02  0.15044107955E+03  0.12499409805E+03 0.  0.
    9000005    1    3    3    0    0  0.51213055328E+02  0.34231643267E+02  0.29219428795E+02  0.68186196960E+02  0.10000000000E+01 0.  0.
    9000005    1    3    3    0    0 -0.51213055328E+02 -0.34231643267E+02  0.54500305255E+02  0.82254882588E+02  0.10000000000E+01 0.  0.
<mgrwt>
<rscale>  0 0.12499410E+03</rscale>
<asrwt>0</asrwt>
<pdfrwt beam="2">  1        4 0.83401683E-02 0.12499410E+03</pdfrwt>
<pdfrwt beam="1">  1       -4 0.29270101E-01 0.12499410E+03</pdfrwt>
<totfact> 0.18519658E+03</totfact>
</mgrwt>
</event>
<event>
 5    1  0.1440092E-002  0.1249970E+03  0.7818608E-02  0.1235074E+00
          4   -1    0    0  501    0  0.00000000000E+00  0.00000000000E+00  0.13340115197E+02  0.13400431839E+02  0.12700000000E+01 0.  1.
         -4   -1    0    0    0  501 -0.00000000000E+00 -0.00000000000E+00 -0.29208380661E+03  0.29208656762E+03  0.12700000000E+01 0.  1.
         25    2    1    2    0    0  0.00000000000E+00  0.00000000000E+00 -0.27874369141E+03  0.30548699946E+03  0.12499704531E+03 0.  0.
    9000005    1    3    3    0    0  0.50915346312E+02 -0.23498376616E+02 -0.71973682666E+02  0.91245587236E+02  0.10000000000E+01 0.  0.
    9000005    1    3    3    0    0 -0.50915346312E+02  0.23498376616E+02 -0.20677000874E+03  0.21424141222E+03  0.10000000000E+01 0.  0.
<mgrwt>
<rscale>  0 0.12499705E+03</rscale>
<asrwt>0</asrwt>
<pdfrwt beam="1">  1        4 0.33429145E-02 0.12499705E+03</pdfrwt>
<pdfrwt beam="2">  1       -4 0.73028816E-01 0.12499705E+03</pdfrwt>
<totfact> 0.12819524E+03</totfact>
</mgrwt>
</event>
<event>
 5    1  0.1440092E-002  0.1250133E+03  0.7818608E-02  0.1235048E+00
          4   -1    0    0  501    0  0.00000000000E+00  0.00000000000E+00  0.87519695974E+03  0.87519788119E+03  0.12700000000E+01 0. -1.
         -4   -1    0    0    0  501 -0.00000000000E+00 -0.00000000000E+00 -0.43729656628E+01  0.45536500402E+01  0.12700000000E+01 0. -1.
         25    2    1    2    0    0  0.00000000000E+00  0.00000000000E+00  0.87082399408E+03  0.87975153123E+03  0.12501331145E+03 0.  0.
    9000005    1    3    3    0    0 -0.38351895626E+01  0.21772752536E+02  0.84679527373E+03  0.84708440963E+03  0.10000000000E+01 0.  0.
    9000005    1    3    3    0    0  0.38351895626E+01 -0.21772752536E+02  0.24028720354E+02  0.32667121603E+02  0.10000000000E+01 0.  0.
<mgrwt>
<rscale>  0 0.12501331E+03</rscale>
<asrwt>0</asrwt>
<pdfrwt beam="1">  1        4 0.21882193E+00 0.12501331E+03</pdfrwt>
<pdfrwt beam="2">  1       -4 0.11159422E-02 0.12501331E+03</pdfrwt>
<totfact> 0.45828645E+02</totfact>
</mgrwt>
</event>
<event>
 5    1  0.1440092E-002  0.1250016E+03  0.7818608E-02  0.1235067E+00
         -4   -1    0    0    0  501 -0.00000000000E+00  0.00000000000E+00  0.30396100398E+03  0.30396365710E+03  0.12700000000E+01 0.  1.
          4   -1    0    0  501    0  0.00000000000E+00 -0.00000000000E+00 -0.12817390652E+02  0.12880155400E+02  0.12700000000E+01 0.  1.
         25    2    1    2    0    0  0.00000000000E+00  0.00000000000E+00  0.29114361332E+03  0.31684381250E+03  0.12500159175E+03 0.  0.
    9000005    1    3    3    0    0  0.26288699010E+02  0.47779344319E+02  0.68215626371E+02  0.87340329289E+02  0.10000000000E+01 0.  0.
    9000005    1    3    3    0    0 -0.26288699010E+02 -0.47779344319E+02  0.22292798695E+03  0.22950348321E+03  0.10000000000E+01 0.  0.
<mgrwt>
<rscale>  0 0.12500159E+03</rscale>
<asrwt>0</asrwt>
<pdfrwt beam="2">  1        4 0.32125248E-02 0.12500159E+03</pdfrwt>
<pdfrwt beam="1">  1       -4 0.75998430E-01 0.12500159E+03</pdfrwt>
<totfact> 0.12511314E+03</totfact>
</mgrwt>
</event>
<event>
 5    1  0.1440092E-002  0.1249961E+03  0.7818608E-02  0.1235075E+00
         -4   -1    0    0    0  501 -0.00000000000E+00  0.00000000000E+00  0.34453852621E+02  0.34477251346E+02  0.12700000000E+01 0.  1.
          4   -1    0    0  501    0  0.00000000000E+00 -0.00000000000E+00 -0.11330374302E+03  0.11331086039E+03  0.12700000000E+01 0.  1.
         25    2    1    2    0    0  0.00000000000E+00  0.00000000000E+00 -0.78849890400E+02  0.14778811174E+03  0.12499608296E+03 0.  0.
    9000005    1    3    3    0    0  0.23237392690E+02 -0.21295579242E+02 -0.10322242354E+03  0.10793213996E+03  0.10000000000E+01 0.  0.
    9000005    1    3    3    0    0 -0.23237392690E+02  0.21295579242E+02  0.24372533144E+02  0.39855971776E+02  0.10000000000E+01 0.  0.
<mgrwt>
<rscale>  0 0.12499608E+03</rscale>
<asrwt>0</asrwt>
<pdfrwt beam="2">  1        4 0.28329749E-01 0.12499608E+03</pdfrwt>
<pdfrwt beam="1">  1       -4 0.86172779E-02 0.12499608E+03</pdfrwt>
<totfact> 0.18649777E+03</totfact>
</mgrwt>
</event>
<event>
 5    1  0.1440092E-002  0.1250008E+03  0.7818608E-02  0.1235068E+00
          4   -1    0    0  501    0  0.00000000000E+00  0.00000000000E+00  0.39813887621E+01  0.41790377451E+01  0.12700000000E+01 0.  1.
         -4   -1    0    0    0  501 -0.00000000000E+00 -0.00000000000E+00 -0.95717839292E+03  0.95717923545E+03  0.12700000000E+01 0.  1.
         25    2    1    2    0    0  0.00000000000E+00  0.00000000000E+00 -0.95319700416E+03  0.96135827319E+03  0.12500080280E+03 0.  0.
    9000005    1    3    3    0    0 -0.14285820327E+02  0.57058589170E+02 -0.31426342823E+03  0.31972217562E+03  0.10000000000E+01 0.  0.
    9000005    1    3    3    0    0  0.14285820327E+02 -0.57058589170E+02 -0.63893357593E+03  0.64163609758E+03  0.10000000000E+01 0.  0.
<mgrwt>
<rscale>  0 0.12500080E+03</rscale>
<asrwt>0</asrwt>
<pdfrwt beam="1">  1        4 0.10201619E-02 0.12500080E+03</pdfrwt>
<pdfrwt beam="2">  1       -4 0.23931864E+00 0.12500080E+03</pdfrwt>
<totfact> 0.39769286E+02</totfact>
</mgrwt>
</event>
<event>
 5    1  0.1440092E-002  0.1250008E+03  0.7818608E-02  0.1235068E+00
         -4   -1    0    0    0  501 -0.00000000000E+00  0.00000000000E+00  0.15341890355E+02  0.15394365842E+02  0.12700000000E+01 0.  1.
          4   -1    0    0  501    0  0.00000000000E+00 -0.00000000000E+00 -0.25412791041E+03  0.25413108380E+03  0.12700000000E+01 0.  1.
         25    2    1    2    0    0  0.00000000000E+00  0.00000000000E+00 -0.23878602006E+03  0.26952544964E+03  0.12500081851E+03 0.  0.
    9000005    1    3    3    0    0 -0.44788399393E+02  0.13337561741E+02 -0.29932974049E+02  0.55505623218E+02  0.10000000000E+01 0.  0.
    9000005    1    3    3    0    0  0.44788399393E+02 -0.13337561741E+02 -0.20885304601E+03  0.21401982642E+03  0.10000000000E+01 0.  0.
<mgrwt>
<rscale>  0 0.12500082E+03</rscale>
<asrwt>0</asrwt>
<pdfrwt beam="2">  1        4 0.63538920E-01 0.12500082E+03</pdfrwt>
<pdfrwt beam="1">  1       -4 0.38424295E-02 0.12500082E+03</pdfrwt>
<totfact> 0.13870045E+03</totfact>
</mgrwt>
</event>
<event>
 5    1  0.1440092E-002  0.1250024E+03  0.7818608E-02  0.1235066E+00
         -4   -1    0    0    0  501 -0.00000000000E+00  0.00000000000E+00  0.27448271416E+02  0.27477636429E+02  0.12700000000E+01 0. -1.
          4   -1    0    0  501    0  0.00000000000E+00 -0.00000000000E+00 -0.14221021893E+03  0.14221588965E+03  0.12700000000E+01 0. -1.
         25    2    1    2    0    0  0.00000000000E+00  0.00000000000E+00 -0.11476194752E+03  0.16969352608E+03  0.12500235276E+03 0.  0.
    9000005    1    3    3    0    0 -0.64843965425E+01  0.26780056838E+02  0.18763562478E+02  0.33351013772E+02  0.10000000000E+01 0.  0.
    9000005    1    3    3    0    0  0.64843965425E+01 -0.26780056838E+02 -0.13352551000E+03  0.13634251231E+03  0.10000000000E+01 0.  0.
<mgrwt>
<rscale>  0 0.12500235E+03</rscale>
<asrwt>0</asrwt>
<pdfrwt beam="2">  1        4 0.35556932E-01 0.12500235E+03</pdfrwt>
<pdfrwt beam="1">  1       -4 0.68664477E-02 0.12500235E+03</pdfrwt>
<totfact> 0.17609918E+03</totfact>
</mgrwt>
</event>
<event>
 5    1  0.1440092E-002  0.1249951E+03  0.7818608E-02  0.1235077E+00
         -4   -1    0    0    0  501 -0.00000000000E+00  0.00000000000E+00  0.31164027274E+03  0.31164286049E+03  0.12700000000E+01 0. -1.
          4   -1    0    0  501    0  0.00000000000E+00 -0.00000000000E+00 -0.12498690857E+02  0.12563047924E+02  0.12700000000E+01 0. -1.
         25    2    1    2    0    0  0.00000000000E+00  0.00000000000E+00  0.29914158188E+03  0.32420590841E+03  0.12499514006E+03 0.  0.
    9000005    1    3    3    0    0  0.61883644330E+01 -0.61966737292E+02  0.16299174564E+03  0.17448633623E+03  0.10000000000E+01 0.  0.
    9000005    1    3    3    0    0 -0.61883644330E+01  0.61966737292E+02  0.13614983625E+03  0.14971957218E+03  0.10000000000E+01 0.  0.
<mgrwt>
<rscale>  0 0.12499514E+03</rscale>
<asrwt>0</asrwt>
<pdfrwt beam="2">  1        4 0.31330409E-02 0.12499514E+03</pdfrwt>
<pdfrwt beam="1">  1       -4 0.77918435E-01 0.12499514E+03</pdfrwt>
<totfact> 0.12320138E+03</totfact>
</mgrwt>
</event>
<event>
 5    1  0.1440092E-002  0.1249997E+03  0.7818608E-02  0.1235070E+00
         -4   -1    0    0    0  501 -0.00000000000E+00  0.00000000000E+00  0.25507457189E+03  0.25507773349E+03  0.12700000000E+01 0.  1.
          4   -1    0    0  501    0  0.00000000000E+00 -0.00000000000E+00 -0.15284477242E+02  0.15337149167E+02  0.12700000000E+01 0.  1.
         25    2    1    2    0    0  0.00000000000E+00  0.00000000000E+00  0.23979009464E+03  0.27041488266E+03  0.12499967709E+03 0.  0.
    9000005    1    3    3    0    0  0.18052438492E+02  0.59285769940E+02  0.10251602679E+03  0.11979661431E+03  0.10000000000E+01 0.  0.
    9000005    1    3    3    0    0 -0.18052438492E+02 -0.59285769940E+02  0.13727406786E+03  0.15061826835E+03  0.10000000000E+01 0.  0.
<mgrwt>
<rscale>  0 0.12499968E+03</rscale>
<asrwt>0</asrwt>
<pdfrwt beam="2">  1        4 0.38280985E-02 0.12499968E+03</pdfrwt>
<pdfrwt beam="1">  1       -4 0.63775622E-01 0.12499968E+03</pdfrwt>
<totfact> 0.13842819E+03</totfact>
</mgrwt>
</event>
<event>
 5    1  0.1440092E-002  0.1249992E+03  0.7818608E-02  0.1235071E+00
         -4   -1    0    0    0  501 -0.00000000000E+00  0.00000000000E+00  0.19171947310E+02  0.19213965329E+02  0.12700000000E+01 0.  1.
          4   -1    0    0  501    0  0.00000000000E+00 -0.00000000000E+00 -0.20347860502E+03  0.20348256829E+03  0.12700000000E+01 0.  1.
         25    2    1    2    0    0  0.00000000000E+00  0.00000000000E+00 -0.18430665771E+03  0.22269653362E+03  0.12499920805E+03 0.  0.
    9000005    1    3    3    0    0  0.29589986378E+02 -0.47236083781E+02 -0.14249325138E+03  0.15301026630E+03  0.10000000000E+01 0.  0.
    9000005    1    3    3    0    0 -0.29589986378E+02  0.47236083781E+02 -0.41813406330E+02  0.69686267325E+02  0.10000000000E+01 0.  0.
<mgrwt>
<rscale>  0 0.12499921E+03</rscale>
<asrwt>0</asrwt>
<pdfrwt beam="2">  1        4 0.50875392E-01 0.12499921E+03</pdfrwt>
<pdfrwt beam="1">  1       -4 0.47987351E-02 0.12499921E+03</pdfrwt>
<totfact> 0.15452123E+03</totfact>
</mgrwt>
</event>
<event>
 5    1  0.1440092E-002  0.1249981E+03  0.7818608E-02  0.1235072E+00
          4   -1    0    0  501    0  0.00000000000E+00  0.00000000000E+00  0.97625643423E+02  0.97633903711E+02  0.12700000000E+01 0.  1.
         -4   -1    0    0    0  501 -0.00000000000E+00 -0.00000000000E+00 -0.39991270186E+02  0.40011430756E+02  0.12700000000E+01 0.  1.
         25    2    1    2    0    0  0.00000000000E+00  0.00000000000E+00  0.57634373237E+02  0.13764533447E+03  0.12499806847E+03 0.  0.
    9000005    1    3    3    0    0 -0.30184894102E+01 -0.40900328463E+02 -0.23104120517E+02  0.47082359028E+02  0.10000000000E+01 0.  0.
    9000005    1    3    3    0    0  0.30184894102E+01  0.40900328463E+02  0.80738493754E+02  0.90562975439E+02  0.10000000000E+01 0.  0.
<mgrwt>
<rscale>  0 0.12499807E+03</rscale>
<asrwt>0</asrwt>
<pdfrwt beam="1">  1        4 0.24409963E-01 0.12499807E+03</pdfrwt>
<pdfrwt beam="2">  1       -4 0.10001370E-01 0.12499807E+03</pdfrwt>
<totfact> 0.19162322E+03</totfact>
</mgrwt>
</event>
<event>
 5    1  0.1440092E-002  0.1249991E+03  0.7818608E-02  0.1235071E+00
         -4   -1    0    0    0  501 -0.00000000000E+00  0.00000000000E+00  0.15508709254E+02  0.15560622183E+02  0.12700000000E+01 0.  1.
          4   -1    0    0  501    0  0.00000000000E+00 -0.00000000000E+00 -0.25139655620E+03  0.25139976406E+03  0.12700000000E+01 0.  1.
         25    2    1    2    0    0  0.00000000000E+00  0.00000000000E+00 -0.23588784695E+03  0.26696038624E+03  0.12499908594E+03 0.  0.
    9000005    1    3    3    0    0  0.34077773286E+02  0.22810476449E+02 -0.21865248755E+03  0.22246690266E+03  0.10000000000E+01 0.  0.
    9000005    1    3    3    0    0 -0.34077773286E+02 -0.22810476449E+02 -0.17235359401E+02  0.44493483586E+02  0.10000000000E+01 0.  0.
<mgrwt>
<rscale>  0 0.12499909E+03</rscale>
<asrwt>0</asrwt>
<pdfrwt beam="2">  1        4 0.62856016E-01 0.12499909E+03</pdfrwt>
<pdfrwt beam="1">  1       -4 0.38840682E-02 0.12499909E+03</pdfrwt>
<totfact> 0.13950635E+03</totfact>
</mgrwt>
</event>
<event>
 5    1  0.1440092E-002  0.1250047E+03  0.7818608E-02  0.1235062E+00
         -4   -1    0    0    0  501 -0.00000000000E+00  0.00000000000E+00  0.72426785756E+02  0.72437919593E+02  0.12700000000E+01 0.  1.
          4   -1    0    0  501    0  0.00000000000E+00 -0.00000000000E+00 -0.53915098734E+02  0.53930054436E+02  0.12700000000E+01 0.  1.
         25    2    1    2    0    0  0.00000000000E+00  0.00000000000E+00  0.18511687023E+02  0.12636797403E+03  0.12500472913E+03 0.  0.
    9000005    1    3    3    0    0  0.33048010236E+02 -0.51419441037E+02  0.22413767692E+02  0.65111495754E+02  0.10000000000E+01 0.  0.
    9000005    1    3    3    0    0 -0.33048010236E+02  0.51419441037E+02 -0.39020806696E+01  0.61256478275E+02  0.10000000000E+01 0.  0.
<mgrwt>
<rscale>  0 0.12500473E+03</rscale>
<asrwt>0</asrwt>
<pdfrwt beam="2">  1        4 0.13482036E-01 0.12500473E+03</pdfrwt>
<pdfrwt beam="1">  1       -4 0.18109958E-01 0.12500473E+03</pdfrwt>
<totfact> 0.19758863E+03</totfact>
</mgrwt>
</event>
<event>
 5    1  0.1440092E-002  0.1249994E+03  0.7818608E-02  0.1235070E+00
         -4   -1    0    0    0  501 -0.00000000000E+00  0.00000000000E+00  0.27796959494E+03  0.27797249614E+03  0.12700000000E+01 0.  1.
          4   -1    0    0  501    0  0.00000000000E+00 -0.00000000000E+00 -0.14020982727E+02  0.14078382600E+02  0.12700000000E+01 0.  1.
         25    2    1    2    0    0  0.00000000000E+00  0.00000000000E+00  0.26394861221E+03  0.29205087874E+03  0.12499938354E+03 0.  0.
    9000005    1    3    3    0    0  0.26482395206E+02  0.25930399722E+02  0.24952910109E+03  0.25226865675E+03  0.10000000000E+01 0.  0.
    9000005    1    3    3    0    0 -0.26482395206E+02 -0.25930399722E+02  0.14419511118E+02  0.39782221990E+02  0.10000000000E+01 0.  0.
<mgrwt>
<rscale>  0 0.12499938E+03</rscale>
<asrwt>0</asrwt>
<pdfrwt beam="2">  1        4 0.35127833E-02 0.12499938E+03</pdfrwt>
<pdfrwt beam="1">  1       -4 0.69499937E-01 0.12499938E+03</pdfrwt>
<totfact> 0.13196992E+03</totfact>
</mgrwt>
</event>
<event>
 4    1  0.1440092E-002  0.1249269E+03  0.7818608E-02  0.1235184E+00
          4   -1    0    0  501    0  0.00000000000E+00  0.00000000000E+00  0.10947543225E+02  0.11020961966E+02  0.12700000000E+01 0. -1.
         -4   -1    0    0    0  501 -0.00000000000E+00 -0.00000000000E+00 -0.35513234690E+03  0.35513461773E+03  0.12700000000E+01 0. -1.
    9000005    1    1    2    0    0 -0.47963497686E+02 -0.65177221909E+01 -0.28777079575E+03  0.29181502480E+03  0.10000000000E+01 0.  0.
    9000005    1    1    2    0    0  0.47963497686E+02  0.65177221909E+01 -0.56414007925E+02  0.74340554901E+02  0.10000000000E+01 0.  0.
<mgrwt>
<rscale>  0 0.12492690E+03</rscale>
<asrwt>0</asrwt>
<pdfrwt beam="1">  1        4 0.27463482E-02 0.12492690E+03</pdfrwt>
<pdfrwt beam="2">  1       -4 0.88792510E-01 0.12492690E+03</pdfrwt>
<totfact> 0.11320138E+03</totfact>
</mgrwt>
</event>
<event>
 5    1  0.1440092E-002  0.1250014E+03  0.7818608E-02  0.1235067E+00
          4   -1    0    0  501    0  0.00000000000E+00  0.00000000000E+00  0.31722266610E+03  0.31722520831E+03  0.12700000000E+01 0.  1.
         -4   -1    0    0    0  501 -0.00000000000E+00 -0.00000000000E+00 -0.12278832660E+02  0.12344336009E+02  0.12700000000E+01 0.  1.
         25    2    1    2    0    0  0.00000000000E+00  0.00000000000E+00  0.30494383344E+03  0.32956954432E+03  0.12500137195E+03 0.  0.
    9000005    1    3    3    0    0  0.47424124133E+02  0.40093953754E+02  0.13406089832E+03  0.14774944039E+03  0.10000000000E+01 0.  0.
    9000005    1    3    3    0    0 -0.47424124133E+02 -0.40093953754E+02  0.17088293512E+03  0.18182010393E+03  0.10000000000E+01 0.  0.
<mgrwt>
<rscale>  0 0.12500137E+03</rscale>
<asrwt>0</asrwt>
<pdfrwt beam="1">  1        4 0.79314175E-01 0.12500137E+03</pdfrwt>
<pdfrwt beam="2">  1       -4 0.30782138E-02 0.12500137E+03</pdfrwt>
<totfact> 0.12180610E+03</totfact>
</mgrwt>
</event>
<event>
 5    1  0.1440092E-002  0.1250274E+03  0.7818608E-02  0.1235027E+00
          4   -1    0    0  501    0  0.00000000000E+00  0.00000000000E+00  0.66238921212E+01  0.67445420032E+01  0.12700000000E+01 0.  1.
         -4   -1    0    0    0  501 -0.00000000000E+00 -0.00000000000E+00 -0.58453352848E+03  0.58453490813E+03  0.12700000000E+01 0.  1.
         25    2    1    2    0    0  0.00000000000E+00  0.00000000000E+00 -0.57790963636E+03  0.59127945013E+03  0.12502735840E+03 0.  0.
    9000005    1    3    3    0    0 -0.47692467989E+02 -0.18766919286E+02 -0.45816448483E+03  0.46102327916E+03  0.10000000000E+01 0.  0.
    9000005    1    3    3    0    0  0.47692467989E+02  0.18766919286E+02 -0.11974515153E+03  0.13025617097E+03  0.10000000000E+01 0.  0.
<mgrwt>
<rscale>  0 0.12502736E+03</rscale>
<asrwt>0</asrwt>
<pdfrwt beam="1">  1        4 0.16712287E-02 0.12502736E+03</pdfrwt>
<pdfrwt beam="2">  1       -4 0.14614846E+00 0.12502736E+03</pdfrwt>
<totfact> 0.74565093E+02</totfact>
</mgrwt>
</event>
<event>
 5    1  0.1440092E-002  0.1249981E+03  0.7818608E-02  0.1235072E+00
         -4   -1    0    0    0  501 -0.00000000000E+00  0.00000000000E+00  0.14871386309E+03  0.14871928582E+03  0.12700000000E+01 0. -1.
          4   -1    0    0  501    0  0.00000000000E+00 -0.00000000000E+00 -0.26244812437E+02  0.26275522447E+02  0.12700000000E+01 0. -1.
         25    2    1    2    0    0  0.00000000000E+00  0.00000000000E+00  0.12246905065E+03  0.17499480827E+03  0.12499805820E+03 0.  0.
    9000005    1    3    3    0    0 -0.27132458264E+02 -0.50576475887E+02  0.95839205378E+02  0.11171527869E+03  0.10000000000E+01 0.  0.
    9000005    1    3    3    0    0  0.27132458264E+02  0.50576475887E+02  0.26629845274E+02  0.63279529580E+02  0.10000000000E+01 0.  0.
<mgrwt>
<rscale>  0 0.12499806E+03</rscale>
<asrwt>0</asrwt>
<pdfrwt beam="2">  1        4 0.65657198E-02 0.12499806E+03</pdfrwt>
<pdfrwt beam="1">  1       -4 0.37182982E-01 0.12499806E+03</pdfrwt>
<totfact> 0.17374868E+03</totfact>
</mgrwt>
</event>
<event>
 5    1  0.1440092E-002  0.1250003E+03  0.7818608E-02  0.1235069E+00
         -4   -1    0    0    0  501 -0.00000000000E+00  0.00000000000E+00  0.38550639046E+03  0.38550848238E+03  0.12700000000E+01 0. -1.
          4   -1    0    0  501    0  0.00000000000E+00 -0.00000000000E+00 -0.10090909185E+02  0.10170513664E+02  0.12700000000E+01 0. -1.
         25    2    1    2    0    0  0.00000000000E+00  0.00000000000E+00  0.37541548127E+03  0.39567899604E+03  0.12500033731E+03 0.  0.
    9000005    1    3    3    0    0 -0.17436513717E+02  0.21498149167E+02  0.10357321492E+02  0.29571549447E+02  0.10000000000E+01 0.  0.
    9000005    1    3    3    0    0  0.17436513717E+02 -0.21498149167E+02  0.36505815978E+03  0.36610744659E+03  0.10000000000E+01 0.  0.
<mgrwt>
<rscale>  0 0.12500034E+03</rscale>
<asrwt>0</asrwt>
<pdfrwt beam="2">  1        4 0.25329396E-02 0.12500034E+03</pdfrwt>
<pdfrwt beam="1">  1       -4 0.96386801E-01 0.12500034E+03</pdfrwt>
<totfact> 0.10658668E+03</totfact>
</mgrwt>
</event>
<event>
 5    1  0.1440092E-002  0.1249942E+03  0.7818608E-02  0.1235078E+00
          4   -1    0    0  501    0  0.00000000000E+00  0.00000000000E+00  0.65205894720E+01  0.66431157647E+01  0.12700000000E+01 0. -1.
         -4   -1    0    0    0  501 -0.00000000000E+00 -0.00000000000E+00 -0.59330925474E+03  0.59331061398E+03  0.12700000000E+01 0. -1.
         25    2    1    2    0    0  0.00000000000E+00  0.00000000000E+00 -0.58678866527E+03  0.59995372974E+03  0.12499416045E+03 0.  0.
    9000005    1    3    3    0    0  0.62106973505E+02 -0.63871184115E+01 -0.28086533702E+03  0.28772279885E+03  0.10000000000E+01 0.  0.
    9000005    1    3    3    0    0 -0.62106973505E+02  0.63871184115E+01 -0.30592332825E+03  0.31223093089E+03  0.10000000000E+01 0.  0.
<mgrwt>
<rscale>  0 0.12499416E+03</rscale>
<asrwt>0</asrwt>
<pdfrwt beam="1">  1        4 0.16456351E-02 0.12499416E+03</pdfrwt>
<pdfrwt beam="2">  1       -4 0.14834262E+00 0.12499416E+03</pdfrwt>
<totfact> 0.73518515E+02</totfact>
</mgrwt>
</event>
<event>
 5    1  0.1440092E-002  0.1249961E+03  0.7818608E-02  0.1235075E+00
         -4   -1    0    0    0  501 -0.00000000000E+00  0.00000000000E+00  0.29225696109E+01  0.31865833005E+01  0.12700000000E+01 0. -1.
          4   -1    0    0  501    0  0.00000000000E+00 -0.00000000000E+00 -0.12784743902E+04  0.12784750210E+04  0.12700000000E+01 0. -1.
         25    2    1    2    0    0  0.00000000000E+00  0.00000000000E+00 -0.12755518206E+04  0.12816616043E+04  0.12499608356E+03 0.  0.
    9000005    1    3    3    0    0  0.34524367878E+02  0.46616444144E+02 -0.87604404246E+03  0.87796309100E+03  0.10000000000E+01 0.  0.
    9000005    1    3    3    0    0 -0.34524367878E+02 -0.46616444144E+02 -0.39950777817E+03  0.40369851332E+03  0.10000000000E+01 0.  0.
<mgrwt>
<rscale>  0 0.12499608E+03</rscale>
<asrwt>0</asrwt>
<pdfrwt beam="2">  1        4 0.31964984E+00 0.12499608E+03</pdfrwt>
<pdfrwt beam="1">  1       -4 0.76372735E-03 0.12499608E+03</pdfrwt>
<totfact> 0.21164473E+02</totfact>
</mgrwt>
</event>
<event>
 5    1  0.1440092E-002  0.1249909E+03  0.7818608E-02  0.1235083E+00
          4   -1    0    0  501    0  0.00000000000E+00  0.00000000000E+00  0.33022823637E+03  0.33023067846E+03  0.12700000000E+01 0.  1.
         -4   -1    0    0    0  501 -0.00000000000E+00 -0.00000000000E+00 -0.11790637671E+02  0.11858837915E+02  0.12700000000E+01 0.  1.
         25    2    1    2    0    0  0.00000000000E+00  0.00000000000E+00  0.31843759870E+03  0.34208951638E+03  0.12499093147E+03 0.  0.
    9000005    1    3    3    0    0  0.72016373841E+01 -0.68453559691E+01  0.32806582457E+03  0.32821777486E+03  0.10000000000E+01 0.  0.
    9000005    1    3    3    0    0 -0.72016373841E+01  0.68453559691E+01 -0.96282258720E+01  0.13871741520E+02  0.10000000000E+01 0.  0.
<mgrwt>
<rscale>  0 0.12499093E+03</rscale>
<asrwt>0</asrwt>
<pdfrwt beam="1">  1        4 0.82565887E-01 0.12499093E+03</pdfrwt>
<pdfrwt beam="2">  1       -4 0.29564898E-02 0.12499093E+03</pdfrwt>
<totfact> 0.11870810E+03</totfact>
</mgrwt>
</event>
<event>
 5    1  0.1440092E-002  0.1249974E+03  0.7818608E-02  0.1235073E+00
         -4   -1    0    0    0  501 -0.00000000000E+00  0.00000000000E+00  0.10956751203E+02  0.11030108654E+02  0.12700000000E+01 0.  1.
          4   -1    0    0  501    0  0.00000000000E+00 -0.00000000000E+00 -0.35523656690E+03  0.35523883707E+03  0.12700000000E+01 0.  1.
         25    2    1    2    0    0  0.00000000000E+00  0.00000000000E+00 -0.34427981569E+03  0.36626894572E+03  0.12499739639E+03 0.  0.
    9000005    1    3    3    0    0  0.19201114747E+02 -0.44442319919E+02 -0.56358139340E+02  0.74303717789E+02  0.10000000000E+01 0.  0.
    9000005    1    3    3    0    0 -0.19201114747E+02  0.44442319919E+02 -0.28792167635E+03  0.29196522793E+03  0.10000000000E+01 0.  0.
<mgrwt>
<rscale>  0 0.12499740E+03</rscale>
<asrwt>0</asrwt>
<pdfrwt beam="2">  1        4 0.88818557E-01 0.12499740E+03</pdfrwt>
<pdfrwt beam="1">  1       -4 0.27486424E-02 0.12499740E+03</pdfrwt>
<totfact> 0.11299368E+03</totfact>
</mgrwt>
</event>
<event>
 5    1  0.1440092E-002  0.1249995E+03  0.7818608E-02  0.1235070E+00
          4   -1    0    0  501    0  0.00000000000E+00  0.00000000000E+00  0.68507781172E+02  0.68519551816E+02  0.12700000000E+01 0.  1.
         -4   -1    0    0    0  501 -0.00000000000E+00 -0.00000000000E+00 -0.56994832121E+02  0.57008979893E+02  0.12700000000E+01 0.  1.
         25    2    1    2    0    0  0.00000000000E+00  0.00000000000E+00  0.11512949051E+02  0.12552853171E+03  0.12499945711E+03 0.  0.
    9000005    1    3    3    0    0 -0.18359426790E+00  0.13395224423E+02  0.67053753477E+02  0.68386194510E+02  0.10000000000E+01 0.  0.
    9000005    1    3    3    0    0  0.18359426790E+00 -0.13395224423E+02 -0.55540804426E+02  0.57142337199E+02  0.10000000000E+01 0.  0.
<mgrwt>
<rscale>  0 0.12499946E+03</rscale>
<asrwt>0</asrwt>
<pdfrwt beam="1">  1        4 0.17130185E-01 0.12499946E+03</pdfrwt>
<pdfrwt beam="2">  1       -4 0.14251948E-01 0.12499946E+03</pdfrwt>
<totfact> 0.19806671E+03</totfact>
</mgrwt>
</event>
<event>
 5    1  0.1440092E-002  0.1250016E+03  0.7818608E-02  0.1235067E+00
          4   -1    0    0  501    0  0.00000000000E+00  0.00000000000E+00  0.48118812051E+02  0.48135568691E+02  0.12700000000E+01 0.  1.
         -4   -1    0    0    0  501 -0.00000000000E+00 -0.00000000000E+00 -0.81145500378E+02  0.81155438090E+02  0.12700000000E+01 0.  1.
         25    2    1    2    0    0  0.00000000000E+00  0.00000000000E+00 -0.33026688327E+02  0.12929100678E+03  0.12500160916E+03 0.  0.
    9000005    1    3    3    0    0  0.25212006808E+02 -0.56488163384E+02 -0.25694464061E+02  0.66990770806E+02  0.10000000000E+01 0.  0.
    9000005    1    3    3    0    0 -0.25212006808E+02  0.56488163384E+02 -0.73322242660E+01  0.62300235975E+02  0.10000000000E+01 0.  0.
<mgrwt>
<rscale>  0 0.12500161E+03</rscale>
<asrwt>0</asrwt>
<pdfrwt beam="1">  1        4 0.12033040E-01 0.12500161E+03</pdfrwt>
<pdfrwt beam="2">  1       -4 0.20289712E-01 0.12500161E+03</pdfrwt>
<totfact> 0.19601838E+03</totfact>
</mgrwt>
</event>
<event>
 5    1  0.1440092E-002  0.1250001E+03  0.7818608E-02  0.1235069E+00
         -4   -1    0    0    0  501 -0.00000000000E+00  0.00000000000E+00  0.50517540721E+02  0.50533501962E+02  0.12700000000E+01 0. -1.
          4   -1    0    0  501    0  0.00000000000E+00 -0.00000000000E+00 -0.77291313477E+02  0.77301746675E+02  0.12700000000E+01 0. -1.
         25    2    1    2    0    0  0.00000000000E+00  0.00000000000E+00 -0.26773772755E+02  0.12783524864E+03  0.12500006355E+03 0.  0.
    9000005    1    3    3    0    0  0.20911203988E+02 -0.27168313950E+02 -0.66819994096E+02  0.75108636961E+02  0.10000000000E+01 0.  0.
    9000005    1    3    3    0    0 -0.20911203988E+02  0.27168313950E+02  0.40046221341E+02  0.52726611676E+02  0.10000000000E+01 0.  0.
<mgrwt>
<rscale>  0 0.12500006E+03</rscale>
<asrwt>0</asrwt>
<pdfrwt beam="2">  1        4 0.19326128E-01 0.12500006E+03</pdfrwt>
<pdfrwt beam="1">  1       -4 0.12632685E-01 0.12500006E+03</pdfrwt>
<totfact> 0.19681474E+03</totfact>
</mgrwt>
</event>
<event>
 5    1  0.1440092E-002  0.1250088E+03  0.7818608E-02  0.1235055E+00
          4   -1    0    0  501    0  0.00000000000E+00  0.00000000000E+00  0.75774377748E+02  0.75785019780E+02  0.12700000000E+01 0. -1.
         -4   -1    0    0    0  501 -0.00000000000E+00 -0.00000000000E+00 -0.51536257054E+02  0.51551902885E+02  0.12700000000E+01 0. -1.
         25    2    1    2    0    0  0.00000000000E+00  0.00000000000E+00  0.24238120694E+02  0.12733692267E+03  0.12500882121E+03 0.  0.
    9000005    1    3    3    0    0  0.30085497863E+02 -0.12293393048E+02 -0.42256132945E+02  0.53318340801E+02  0.10000000000E+01 0.  0.
    9000005    1    3    3    0    0 -0.30085497863E+02  0.12293393048E+02  0.66494253639E+02  0.74018581865E+02  0.10000000000E+01 0.  0.
<mgrwt>
<rscale>  0 0.12500882E+03</rscale>
<asrwt>0</asrwt>
<pdfrwt beam="1">  1        4 0.18946880E-01 0.12500882E+03</pdfrwt>
<pdfrwt beam="2">  1       -4 0.12887350E-01 0.12500882E+03</pdfrwt>
<totfact> 0.19704636E+03</totfact>
</mgrwt>
</event>
<event>
 5    1  0.1440092E-002  0.1249980E+03  0.7818608E-02  0.1235072E+00
          4   -1    0    0  501    0  0.00000000000E+00  0.00000000000E+00  0.15095396658E+03  0.15095930885E+03  0.12700000000E+01 0. -1.
         -4   -1    0    0    0  501 -0.00000000000E+00 -0.00000000000E+00 -0.25854884128E+02  0.25886056735E+02  0.12700000000E+01 0. -1.
         25    2    1    2    0    0  0.00000000000E+00  0.00000000000E+00  0.12509908246E+03  0.17684536558E+03  0.12499801157E+03 0.  0.
    9000005    1    3    3    0    0 -0.12687922431E+02 -0.60972280342E+02  0.69835806851E+02  0.93576932330E+02  0.10000000000E+01 0.  0.
    9000005    1    3    3    0    0  0.12687922431E+02  0.60972280342E+02  0.55263275606E+02  0.83268433253E+02  0.10000000000E+01 0.  0.
<mgrwt>
<rscale>  0 0.12499801E+03</rscale>
<asrwt>0</asrwt>
<pdfrwt beam="1">  1        4 0.37743055E-01 0.12499801E+03</pdfrwt>
<pdfrwt beam="2">  1       -4 0.64682856E-02 0.12499801E+03</pdfrwt>
<totfact> 0.17293437E+03</totfact>
</mgrwt>
</event>
<event>
 5    1  0.1440092E-002  0.1249987E+03  0.7818608E-02  0.1235071E+00
          4   -1    0    0  501    0  0.00000000000E+00  0.00000000000E+00  0.13395971514E+02  0.13456037782E+02  0.12700000000E+01 0. -1.
         -4   -1    0    0    0  501 -0.00000000000E+00 -0.00000000000E+00 -0.29087905535E+03  0.29088182779E+03  0.12700000000E+01 0. -1.
         25    2    1    2    0    0  0.00000000000E+00  0.00000000000E+00 -0.27748308384E+03  0.30433786558E+03  0.12499869843E+03 0.  0.
    9000005    1    3    3    0    0 -0.18089448598E+02 -0.23432543715E+02 -0.27273692701E+03  0.27434056136E+03  0.10000000000E+01 0.  0.
    9000005    1    3    3    0    0  0.18089448598E+02  0.23432543715E+02 -0.47461568308E+01  0.29997304216E+02  0.10000000000E+01 0.  0.
<mgrwt>
<rscale>  0 0.12499870E+03</rscale>
<asrwt>0</asrwt>
<pdfrwt beam="1">  1        4 0.33568487E-02 0.12499870E+03</pdfrwt>
<pdfrwt beam="2">  1       -4 0.72727598E-01 0.12499870E+03</pdfrwt>
<totfact> 0.12850730E+03</totfact>
</mgrwt>
</event>
<event>
 5    1  0.1440092E-002  0.1249997E+03  0.7818608E-02  0.1235070E+00
          4   -1    0    0  501    0  0.00000000000E+00  0.00000000000E+00  0.72067744297E+02  0.72078933594E+02  0.12700000000E+01 0. -1.
         -4   -1    0    0    0  501 -0.00000000000E+00 -0.00000000000E+00 -0.54179348752E+02  0.54194231530E+02  0.12700000000E+01 0. -1.
         25    2    1    2    0    0  0.00000000000E+00  0.00000000000E+00  0.17888395545E+02  0.12627316512E+03  0.12499967014E+03 0.  0.
    9000005    1    3    3    0    0 -0.35128859162E+02 -0.18005026089E+02 -0.39995335626E+02  0.56203599372E+02  0.10000000000E+01 0.  0.
    9000005    1    3    3    0    0  0.35128859162E+02  0.18005026089E+02  0.57883731171E+02  0.70069565753E+02  0.10000000000E+01 0.  0.
<mgrwt>
<rscale>  0 0.12499967E+03</rscale>
<asrwt>0</asrwt>
<pdfrwt beam="1">  1        4 0.18020195E-01 0.12499967E+03</pdfrwt>
<pdfrwt beam="2">  1       -4 0.13548096E-01 0.12499967E+03</pdfrwt>
<totfact> 0.19766318E+03</totfact>
</mgrwt>
</event>
<event>
 5    1  0.1440092E-002  0.1249984E+03  0.7818608E-02  0.1235072E+00
          4   -1    0    0  501    0  0.00000000000E+00  0.00000000000E+00  0.15121541273E+03  0.15122074576E+03  0.12700000000E+01 0.  1.
         -4   -1    0    0    0  501 -0.00000000000E+00 -0.00000000000E+00 -0.25810285739E+02  0.25841512145E+02  0.12700000000E+01 0.  1.
         25    2    1    2    0    0  0.00000000000E+00  0.00000000000E+00  0.12540512699E+03  0.17706225790E+03  0.12499838918E+03 0.  0.
    9000005    1    3    3    0    0  0.47785906311E+02  0.40266649957E+02  0.63415598656E+02  0.89036139256E+02  0.10000000000E+01 0.  0.
    9000005    1    3    3    0    0 -0.47785906311E+02 -0.40266649957E+02  0.61989528336E+02  0.88026118647E+02  0.10000000000E+01 0.  0.
<mgrwt>
<rscale>  0 0.12499839E+03</rscale>
<asrwt>0</asrwt>
<pdfrwt beam="1">  1        4 0.37808422E-01 0.12499839E+03</pdfrwt>
<pdfrwt beam="2">  1       -4 0.64571415E-02 0.12499839E+03</pdfrwt>
<totfact> 0.17283780E+03</totfact>
</mgrwt>
</event>
<event>
 5    1  0.1440092E-002  0.1249954E+03  0.7818608E-02  0.1235076E+00
         -4   -1    0    0    0  501 -0.00000000000E+00  0.00000000000E+00  0.10613005583E+02  0.10688722445E+02  0.12700000000E+01 0.  1.
          4   -1    0    0  501    0  0.00000000000E+00 -0.00000000000E+00 -0.36665045019E+03  0.36665264969E+03  0.12700000000E+01 0.  1.
         25    2    1    2    0    0  0.00000000000E+00  0.00000000000E+00 -0.35603744461E+03  0.37734137214E+03  0.12499539656E+03 0.  0.
    9000005    1    3    3    0    0  0.12723319784E+02  0.17723057373E+02 -0.35479436176E+03  0.35546593194E+03  0.10000000000E+01 0.  0.
    9000005    1    3    3    0    0 -0.12723319784E+02 -0.17723057373E+02 -0.12430828466E+01  0.21875440200E+02  0.10000000000E+01 0.  0.
<mgrwt>
<rscale>  0 0.12499540E+03</rscale>
<asrwt>0</asrwt>
<pdfrwt beam="2">  1        4 0.91672310E-01 0.12499540E+03</pdfrwt>
<pdfrwt beam="1">  1       -4 0.26629922E-02 0.12499540E+03</pdfrwt>
<totfact> 0.11052481E+03</totfact>
</mgrwt>
</event>
<event>
 5    1  0.1440092E-002  0.1250025E+03  0.7818608E-02  0.1235065E+00
          4   -1    0    0  501    0  0.00000000000E+00  0.00000000000E+00  0.40007656708E+03  0.40007858281E+03  0.12700000000E+01 0.  1.
         -4   -1    0    0    0  501 -0.00000000000E+00 -0.00000000000E+00 -0.97207948199E+01  0.98034051192E+01  0.12700000000E+01 0.  1.
         25    2    1    2    0    0  0.00000000000E+00  0.00000000000E+00  0.39035577226E+03  0.40988198793E+03  0.12500246036E+03 0.  0.
    9000005    1    3    3    0    0 -0.47941811843E+01 -0.18555815457E+02  0.39021865718E+03  0.39069029022E+03  0.10000000000E+01 0.  0.
    9000005    1    3    3    0    0  0.47941811843E+01  0.18555815457E+02  0.13711507823E+00  0.19191697712E+02  0.10000000000E+01 0.  0.
<mgrwt>
<rscale>  0 0.12500246E+03</rscale>
<asrwt>0</asrwt>
<pdfrwt beam="1">  1        4 0.10002971E+00 0.12500246E+03</pdfrwt>
<pdfrwt beam="2">  1       -4 0.24407771E-02 0.12500246E+03</pdfrwt>
<totfact> 0.10367827E+03</totfact>
</mgrwt>
</event>
<event>
 5    1  0.1440092E-002  0.1250440E+03  0.7818608E-02  0.1235000E+00
          4   -1    0    0  501    0  0.00000000000E+00  0.00000000000E+00  0.52451339353E+01  0.53966962115E+01  0.12700000000E+01 0.  1.
         -4   -1    0    0    0  501 -0.00000000000E+00 -0.00000000000E+00 -0.73449662709E+03  0.73449772505E+03  0.12700000000E+01 0.  1.
         25    2    1    2    0    0  0.00000000000E+00  0.00000000000E+00 -0.72925149315E+03  0.73989442126E+03  0.12504404963E+03 0.  0.
    9000005    1    3    3    0    0  0.23658856648E+01 -0.61695577933E+02 -0.30663186689E+03  0.31278753739E+03  0.10000000000E+01 0.  0.
    9000005    1    3    3    0    0 -0.23658856648E+01  0.61695577933E+02 -0.42261962626E+03  0.42710688387E+03  0.10000000000E+01 0.  0.
<mgrwt>
<rscale>  0 0.12504405E+03</rscale>
<asrwt>0</asrwt>
<pdfrwt beam="1">  1        4 0.13303685E-02 0.12504405E+03</pdfrwt>
<pdfrwt beam="2">  1       -4 0.18364289E+00 0.12504405E+03</pdfrwt>
<totfact> 0.57986497E+02</totfact>
</mgrwt>
</event>
<event>
 5    1  0.1440092E-002  0.1250033E+03  0.7818608E-02  0.1235064E+00
          4   -1    0    0  501    0  0.00000000000E+00  0.00000000000E+00  0.44039361136E+02  0.44057669358E+02  0.12700000000E+01 0. -1.
         -4   -1    0    0    0  501 -0.00000000000E+00 -0.00000000000E+00 -0.88662472550E+02  0.88671567814E+02  0.12700000000E+01 0. -1.
         25    2    1    2    0    0  0.00000000000E+00  0.00000000000E+00 -0.44623111414E+02  0.13272923717E+03  0.12500331327E+03 0.  0.
    9000005    1    3    3    0    0 -0.40517825730E+02  0.44523827133E+02 -0.40123064672E+02  0.72352786423E+02  0.10000000000E+01 0.  0.
    9000005    1    3    3    0    0  0.40517825730E+02 -0.44523827133E+02 -0.45000467418E+01  0.60376450749E+02  0.10000000000E+01 0.  0.
<mgrwt>
<rscale>  0 0.12500331E+03</rscale>
<asrwt>0</asrwt>
<pdfrwt beam="1">  1        4 0.11013266E-01 0.12500331E+03</pdfrwt>
<pdfrwt beam="2">  1       -4 0.22169043E-01 0.12500331E+03</pdfrwt>
<totfact> 0.19417247E+03</totfact>
</mgrwt>
</event>
