<event>
 5    1  0.3401591E-002  0.1249990E+03  0.7818608E-02  0.1235071E+00
         -4   -1    0    0    0  501 -0.00000000000E+00  0.00000000000E+00  0.15598291169E+03  0.15598808172E+03  0.12700000000E+01 0.  1.
          4   -1    0    0  501    0  0.00000000000E+00 -0.00000000000E+00 -0.25020709060E+02  0.25052919628E+02  0.12700000000E+01 0.  1.
         25    2    1    2    0    0  0.00000000000E+00  0.00000000000E+00  0.13096220263E+03  0.18104100135E+03  0.12499898260E+03 0.  0.
    9000005    1    3    3    0    0 -0.14871115194E+02 -0.17120566771E+02 -0.18858083578E+02  0.29510865624E+02  0.10000000000E+01 0.  0.
    9000005    1    3    3    0    0  0.14871115194E+02  0.17120566771E+02  0.14982028621E+03  0.15153013573E+03  0.10000000000E+01 0.  0.
<mgrwt>
<rscale>  0 0.12499898E+03</rscale>
<asrwt>0</asrwt>
<pdfrwt beam="2">  1        4 0.38522154E-02 0.12499898E+03</pdfrwt>
<pdfrwt beam="1">  1       -4 0.24000246E-01 0.12499898E+03</pdfrwt>
<totfact> 0.93432086E+03</totfact>
</mgrwt>
</event>
<event>
 5    1  0.3401591E-002  0.1250017E+03  0.7818608E-02  0.1235067E+00
          4   -1    0    0  501    0  0.00000000000E+00  0.00000000000E+00  0.15152193583E+03  0.15152725807E+03  0.12700000000E+01 0.  1.
         -4   -1    0    0    0  501 -0.00000000000E+00 -0.00000000000E+00 -0.25759369292E+02  0.25790657346E+02  0.12700000000E+01 0.  1.
         25    2    1    2    0    0  0.00000000000E+00  0.00000000000E+00  0.12576256654E+03  0.17731791542E+03  0.12500167993E+03 0.  0.
    9000005    1    3    3    0    0 -0.33584545082E+02  0.40161235087E+02  0.14474290512E+02  0.54326343130E+02  0.10000000000E+01 0.  0.
    9000005    1    3    3    0    0  0.33584545082E+02 -0.40161235087E+02  0.11128827603E+03  0.12299157229E+03  0.10000000000E+01 0.  0.
<mgrwt>
<rscale>  0 0.12500168E+03</rscale>
<asrwt>0</asrwt>
<pdfrwt beam="1">  1        4 0.23313883E-01 0.12500168E+03</pdfrwt>
<pdfrwt beam="2">  1       -4 0.39657961E-02 0.12500168E+03</pdfrwt>
<totfact> 0.94098482E+03</totfact>
</mgrwt>
</event>
<event>
 5    1  0.3401591E-002  0.1250008E+03  0.7818608E-02  0.1235068E+00
          4   -1    0    0  501    0  0.00000000000E+00  0.00000000000E+00  0.64129231748E+02  0.64141805904E+02  0.12700000000E+01 0.  1.
         -4   -1    0    0    0  501 -0.00000000000E+00 -0.00000000000E+00 -0.60887816791E+02  0.60901060201E+02  0.12700000000E+01 0.  1.
         25    2    1    2    0    0  0.00000000000E+00  0.00000000000E+00  0.32414149563E+01  0.12504286610E+03  0.12500084637E+03 0.  0.
    9000005    1    3    3    0    0 -0.10291168360E+02  0.61637760202E+02  0.20466079189E+01  0.62532473427E+02  0.10000000000E+01 0.  0.
    9000005    1    3    3    0    0  0.10291168360E+02 -0.61637760202E+02  0.11948070374E+01  0.62510392678E+02  0.10000000000E+01 0.  0.
<mgrwt>
<rscale>  0 0.12500085E+03</rscale>
<asrwt>0</asrwt>
<pdfrwt beam="1">  1        4 0.98680215E-02 0.12500085E+03</pdfrwt>
<pdfrwt beam="2">  1       -4 0.93693425E-02 0.12500085E+03</pdfrwt>
<totfact> 0.10451732E+04</totfact>
</mgrwt>
</event>
<event>
 5    1  0.3401591E-002  0.1250002E+03  0.7818608E-02  0.1235069E+00
         -4   -1    0    0    0  501 -0.00000000000E+00  0.00000000000E+00  0.31274650300E+03  0.31274908160E+03  0.12700000000E+01 0. -1.
          4   -1    0    0  501    0  0.00000000000E+00 -0.00000000000E+00 -0.12455265236E+02  0.12519845530E+02  0.12700000000E+01 0. -1.
         25    2    1    2    0    0  0.00000000000E+00  0.00000000000E+00  0.30029123776E+03  0.32526892713E+03  0.12500018990E+03 0.  0.
    9000005    1    3    3    0    0 -0.88194499240E+01 -0.42362914817E+02  0.26746936448E+03  0.27094881469E+03  0.10000000000E+01 0.  0.
    9000005    1    3    3    0    0  0.88194499240E+01  0.42362914817E+02  0.32821873285E+02  0.54320112432E+02  0.10000000000E+01 0.  0.
<mgrwt>
<rscale>  0 0.12500019E+03</rscale>
<asrwt>0</asrwt>
<pdfrwt beam="2">  1        4 0.19213607E-02 0.12500019E+03</pdfrwt>
<pdfrwt beam="1">  1       -4 0.48120014E-01 0.12500019E+03</pdfrwt>
<totfact> 0.72533500E+03</totfact>
</mgrwt>
</event>
<event>
 5    1  0.3401591E-002  0.1250007E+03  0.7818608E-02  0.1235068E+00
         -4   -1    0    0    0  501 -0.00000000000E+00  0.00000000000E+00  0.41646597617E+03  0.41646791258E+03  0.12700000000E+01 0.  1.
          4   -1    0    0  501    0  0.00000000000E+00 -0.00000000000E+00 -0.93346708177E+01  0.94206676661E+01  0.12700000000E+01 0.  1.
         25    2    1    2    0    0  0.00000000000E+00  0.00000000000E+00  0.40713130535E+03  0.42588858025E+03  0.12500073194E+03 0.  0.
    9000005    1    3    3    0    0 -0.62020493780E+02 -0.56610796822E+01  0.22117284433E+03  0.22977601385E+03  0.10000000000E+01 0.  0.
    9000005    1    3    3    0    0  0.62020493780E+02  0.56610796822E+01  0.18595846102E+03  0.19611256640E+03  0.10000000000E+01 0.  0.
<mgrwt>
<rscale>  0 0.12500073E+03</rscale>
<asrwt>0</asrwt>
<pdfrwt beam="2">  1        4 0.14428673E-02 0.12500073E+03</pdfrwt>
<pdfrwt beam="1">  1       -4 0.64078451E-01 0.12500073E+03</pdfrwt>
<totfact> 0.62109439E+03</totfact>
</mgrwt>
</event>
<event>
 5    1  0.3401591E-002  0.1249832E+03  0.7818608E-02  0.1235096E+00
          4   -1    0    0  501    0  0.00000000000E+00  0.00000000000E+00  0.60065910558E+03  0.60066044818E+03  0.12700000000E+01 0.  1.
         -4   -1    0    0    0  501 -0.00000000000E+00 -0.00000000000E+00 -0.64381385943E+01  0.65622045502E+01  0.12700000000E+01 0.  1.
         25    2    1    2    0    0  0.00000000000E+00  0.00000000000E+00  0.59422096698E+03  0.60722265273E+03  0.12498316843E+03 0.  0.
    9000005    1    3    3    0    0  0.45500337276E+02 -0.34606455283E+02  0.17455548372E+03  0.18368044081E+03  0.10000000000E+01 0.  0.
    9000005    1    3    3    0    0 -0.45500337276E+02  0.34606455283E+02  0.41966548326E+03  0.42354221192E+03  0.10000000000E+01 0.  0.
<mgrwt>
<rscale>  0 0.12498317E+03</rscale>
<asrwt>0</asrwt>
<pdfrwt beam="1">  1        4 0.92418711E-01 0.12498317E+03</pdfrwt>
<pdfrwt beam="2">  1       -4 0.10001300E-02 0.12498317E+03</pdfrwt>
<totfact> 0.48432727E+03</totfact>
</mgrwt>
</event>
<event>
 5    1  0.3401591E-002  0.1250006E+03  0.7818608E-02  0.1235068E+00
         -4   -1    0    0    0  501 -0.00000000000E+00  0.00000000000E+00  0.10257802929E+02  0.10336122141E+02  0.12700000000E+01 0. -1.
          4   -1    0    0  501    0  0.00000000000E+00 -0.00000000000E+00 -0.37928372297E+03  0.37928584921E+03  0.12700000000E+01 0. -1.
         25    2    1    2    0    0  0.00000000000E+00  0.00000000000E+00 -0.36902592004E+03  0.38962197135E+03  0.12500060358E+03 0.  0.
    9000005    1    3    3    0    0  0.34573848266E+02 -0.36117414877E+02 -0.67659392036E+02  0.84134487411E+02  0.10000000000E+01 0.  0.
    9000005    1    3    3    0    0 -0.34573848266E+02  0.36117414877E+02 -0.30136652800E+03  0.30548748394E+03  0.10000000000E+01 0.  0.
<mgrwt>
<rscale>  0 0.12500060E+03</rscale>
<asrwt>0</asrwt>
<pdfrwt beam="2">  1        4 0.58357519E-01 0.12500060E+03</pdfrwt>
<pdfrwt beam="1">  1       -4 0.15843119E-02 0.12500060E+03</pdfrwt>
<totfact> 0.65573946E+03</totfact>
</mgrwt>
</event>
<event>
 5    1  0.3401591E-002  0.1250011E+03  0.7818608E-02  0.1235068E+00
          4   -1    0    0  501    0  0.00000000000E+00  0.00000000000E+00  0.64819288459E+03  0.64819412874E+03  0.12700000000E+01 0.  1.
         -4   -1    0    0    0  501 -0.00000000000E+00 -0.00000000000E+00 -0.59583053488E+01  0.60921509033E+01  0.12700000000E+01 0.  1.
         25    2    1    2    0    0  0.00000000000E+00  0.00000000000E+00  0.64223457925E+03  0.65428627965E+03  0.12500112382E+03 0.  0.
    9000005    1    3    3    0    0 -0.37181160273E+02  0.13766893911E+02  0.57395638599E+03  0.57532503776E+03  0.10000000000E+01 0.  0.
    9000005    1    3    3    0    0  0.37181160273E+02 -0.13766893911E+02  0.68278193253E+02  0.78961241892E+02  0.10000000000E+01 0.  0.
<mgrwt>
<rscale>  0 0.12500112E+03</rscale>
<asrwt>0</asrwt>
<pdfrwt beam="1">  1        4 0.99732338E-01 0.12500112E+03</pdfrwt>
<pdfrwt beam="2">  1       -4 0.92705421E-03 0.12500112E+03</pdfrwt>
<totfact> 0.45609572E+03</totfact>
</mgrwt>
</event>
<event>
 5    1  0.3401591E-002  0.1249975E+03  0.7818608E-02  0.1235073E+00
          4   -1    0    0  501    0  0.00000000000E+00  0.00000000000E+00  0.10691576366E+03  0.10692330625E+03  0.12700000000E+01 0.  1.
         -4   -1    0    0    0  501 -0.00000000000E+00 -0.00000000000E+00 -0.36514456617E+02  0.36536535715E+02  0.12700000000E+01 0.  1.
         25    2    1    2    0    0  0.00000000000E+00  0.00000000000E+00  0.70401307045E+02  0.14345984196E+03  0.12499752887E+03 0.  0.
    9000005    1    3    3    0    0 -0.59552568596E+02  0.18149944221E+02  0.41398948294E+02  0.74771664563E+02  0.10000000000E+01 0.  0.
    9000005    1    3    3    0    0  0.59552568596E+02 -0.18149944221E+02  0.29002358750E+02  0.68688177401E+02  0.10000000000E+01 0.  0.
<mgrwt>
<rscale>  0 0.12499753E+03</rscale>
<asrwt>0</asrwt>
<pdfrwt beam="1">  1        4 0.16450857E-01 0.12499753E+03</pdfrwt>
<pdfrwt beam="2">  1       -4 0.56198874E-02 0.12499753E+03</pdfrwt>
<totfact> 0.10062935E+04</totfact>
</mgrwt>
</event>
<event>
 5    1  0.3401591E-002  0.1250305E+03  0.7818608E-02  0.1235022E+00
          4   -1    0    0  501    0  0.00000000000E+00  0.00000000000E+00  0.10684797465E+02  0.10760009148E+02  0.12700000000E+01 0.  1.
         -4   -1    0    0    0  501 -0.00000000000E+00 -0.00000000000E+00 -0.36440881238E+03  0.36441102541E+03  0.12700000000E+01 0.  1.
         25    2    1    2    0    0  0.00000000000E+00  0.00000000000E+00 -0.35372401492E+03  0.37517103456E+03  0.12503050205E+03 0.  0.
    9000005    1    3    3    0    0 -0.16523738539E+02  0.53365628044E+02 -0.92724663237E+02  0.10825796675E+03  0.10000000000E+01 0.  0.
    9000005    1    3    3    0    0  0.16523738539E+02 -0.53365628044E+02 -0.26099935168E+03  0.26691306781E+03  0.10000000000E+01 0.  0.
<mgrwt>
<rscale>  0 0.12503050E+03</rscale>
<asrwt>0</asrwt>
<pdfrwt beam="1">  1        4 0.16497710E-02 0.12503050E+03</pdfrwt>
<pdfrwt beam="2">  1       -4 0.56068841E-01 0.12503050E+03</pdfrwt>
<totfact> 0.66996225E+03</totfact>
</mgrwt>
</event>
<event>
 5    1  0.3401591E-002  0.1249999E+03  0.7818608E-02  0.1235069E+00
         -4   -1    0    0    0  501 -0.00000000000E+00  0.00000000000E+00  0.57569345561E+02  0.57583352181E+02  0.12700000000E+01 0. -1.
          4   -1    0    0  501    0  0.00000000000E+00 -0.00000000000E+00 -0.67824667805E+02  0.67836556980E+02  0.12700000000E+01 0. -1.
         25    2    1    2    0    0  0.00000000000E+00  0.00000000000E+00 -0.10255322244E+02  0.12541990916E+03  0.12499992792E+03 0.  0.
    9000005    1    3    3    0    0 -0.38186923929E+02  0.41942021289E+02  0.21187757203E+02  0.60558198159E+02  0.10000000000E+01 0.  0.
    9000005    1    3    3    0    0  0.38186923929E+02 -0.41942021289E+02 -0.31443079447E+02  0.64861711001E+02  0.10000000000E+01 0.  0.
<mgrwt>
<rscale>  0 0.12499993E+03</rscale>
<asrwt>0</asrwt>
<pdfrwt beam="2">  1        4 0.10436556E-01 0.12499993E+03</pdfrwt>
<pdfrwt beam="1">  1       -4 0.88588144E-02 0.12499993E+03</pdfrwt>
<totfact> 0.10443743E+04</totfact>
</mgrwt>
</event>
<event>
 5    1  0.3401591E-002  0.1250003E+03  0.7818608E-02  0.1235069E+00
          4   -1    0    0  501    0  0.00000000000E+00  0.00000000000E+00  0.19741463685E+02  0.19782272075E+02  0.12700000000E+01 0.  1.
         -4   -1    0    0    0  501 -0.00000000000E+00 -0.00000000000E+00 -0.19762398324E+03  0.19762806392E+03  0.12700000000E+01 0.  1.
         25    2    1    2    0    0  0.00000000000E+00  0.00000000000E+00 -0.17788251955E+03  0.21741033600E+03  0.12500025375E+03 0.  0.
    9000005    1    3    3    0    0 -0.29680201522E+01  0.24261516925E+02  0.11091268444E+02  0.26859757683E+02  0.10000000000E+01 0.  0.
    9000005    1    3    3    0    0  0.29680201522E+01 -0.24261516925E+02 -0.18897378799E+03  0.19055057831E+03  0.10000000000E+01 0.  0.
<mgrwt>
<rscale>  0 0.12500025E+03</rscale>
<asrwt>0</asrwt>
<pdfrwt beam="1">  1        4 0.30406014E-02 0.12500025E+03</pdfrwt>
<pdfrwt beam="2">  1       -4 0.30407141E-01 0.12500025E+03</pdfrwt>
<totfact> 0.87279302E+03</totfact>
</mgrwt>
</event>
<event>
 5    1  0.3401591E-002  0.1249984E+03  0.7818608E-02  0.1235072E+00
          4   -1    0    0  501    0  0.00000000000E+00  0.00000000000E+00  0.93234167051E+02  0.93242816376E+02  0.12700000000E+01 0.  1.
         -4   -1    0    0    0  501 -0.00000000000E+00 -0.00000000000E+00 -0.41875924031E+02  0.41895177687E+02  0.12700000000E+01 0.  1.
         25    2    1    2    0    0  0.00000000000E+00  0.00000000000E+00  0.51358243020E+02  0.13513799406E+03  0.12499843324E+03 0.  0.
    9000005    1    3    3    0    0 -0.17616035143E+02  0.56207818442E+02  0.31174520910E+01  0.58994593445E+02  0.10000000000E+01 0.  0.
    9000005    1    3    3    0    0  0.17616035143E+02 -0.56207818442E+02  0.48240790929E+02  0.76143400618E+02  0.10000000000E+01 0.  0.
<mgrwt>
<rscale>  0 0.12499843E+03</rscale>
<asrwt>0</asrwt>
<pdfrwt beam="1">  1        4 0.14345864E-01 0.12499843E+03</pdfrwt>
<pdfrwt beam="2">  1       -4 0.64445962E-02 0.12499843E+03</pdfrwt>
<totfact> 0.10235525E+04</totfact>
</mgrwt>
</event>
<event>
 5    1  0.3401591E-002  0.1249997E+03  0.7818608E-02  0.1235070E+00
         -4   -1    0    0    0  501 -0.00000000000E+00  0.00000000000E+00  0.46850260134E+02  0.46867470324E+02  0.12700000000E+01 0.  1.
          4   -1    0    0  501    0  0.00000000000E+00 -0.00000000000E+00 -0.83339561507E+02  0.83349237622E+02  0.12700000000E+01 0.  1.
         25    2    1    2    0    0  0.00000000000E+00  0.00000000000E+00 -0.36489301373E+02  0.13021670795E+03  0.12499968765E+03 0.  0.
    9000005    1    3    3    0    0 -0.24305121303E+02  0.34749467368E+02 -0.66062116408E+02  0.78507755210E+02  0.10000000000E+01 0.  0.
    9000005    1    3    3    0    0  0.24305121303E+02 -0.34749467368E+02  0.29572815035E+02  0.51708952735E+02  0.10000000000E+01 0.  0.
<mgrwt>
<rscale>  0 0.12499969E+03</rscale>
<asrwt>0</asrwt>
<pdfrwt beam="2">  1        4 0.12823539E-01 0.12499969E+03</pdfrwt>
<pdfrwt beam="1">  1       -4 0.72098005E-02 0.12499969E+03</pdfrwt>
<totfact> 0.10339947E+04</totfact>
</mgrwt>
</event>
<event>
 5    1  0.3401591E-002  0.1249986E+03  0.7818608E-02  0.1235071E+00
         -4   -1    0    0    0  501 -0.00000000000E+00  0.00000000000E+00  0.34047724087E+01  0.36339200810E+01  0.12700000000E+01 0. -1.
          4   -1    0    0  501    0  0.00000000000E+00 -0.00000000000E+00 -0.11096827285E+04  0.11096834553E+04  0.12700000000E+01 0. -1.
         25    2    1    2    0    0  0.00000000000E+00  0.00000000000E+00 -0.11062779561E+04  0.11133173754E+04  0.12499864822E+03 0.  0.
    9000005    1    3    3    0    0  0.61533753625E+02  0.10749981575E+02 -0.53720487313E+03  0.54082533285E+03  0.10000000000E+01 0.  0.
    9000005    1    3    3    0    0 -0.61533753625E+02 -0.10749981575E+02 -0.56907308300E+03  0.57249204251E+03  0.10000000000E+01 0.  0.
<mgrwt>
<rscale>  0 0.12499865E+03</rscale>
<asrwt>0</asrwt>
<pdfrwt beam="2">  1        4 0.17073782E+00 0.12499865E+03</pdfrwt>
<pdfrwt beam="1">  1       -4 0.54149467E-03 0.12499865E+03</pdfrwt>
<totfact> 0.27097719E+03</totfact>
</mgrwt>
</event>
<event>
 5    1  0.3401591E-002  0.1249989E+03  0.7818608E-02  0.1235071E+00
          4   -1    0    0  501    0  0.00000000000E+00  0.00000000000E+00  0.13040398999E+03  0.13041017408E+03  0.12700000000E+01 0. -1.
         -4   -1    0    0    0  501 -0.00000000000E+00 -0.00000000000E+00 -0.29934091066E+02  0.29961019808E+02  0.12700000000E+01 0. -1.
         25    2    1    2    0    0  0.00000000000E+00  0.00000000000E+00  0.10046989892E+03  0.16037119389E+03  0.12499887696E+03 0.  0.
    9000005    1    3    3    0    0 -0.15739279184E+02  0.22773059625E+02 -0.21644546687E+02  0.35154282174E+02  0.10000000000E+01 0.  0.
    9000005    1    3    3    0    0  0.15739279184E+02 -0.22773059625E+02  0.12211444561E+03  0.12521691172E+03  0.10000000000E+01 0.  0.
<mgrwt>
<rscale>  0 0.12499888E+03</rscale>
<asrwt>0</asrwt>
<pdfrwt beam="1">  1        4 0.20064699E-01 0.12499888E+03</pdfrwt>
<pdfrwt beam="2">  1       -4 0.46077920E-02 0.12499888E+03</pdfrwt>
<totfact> 0.97273725E+03</totfact>
</mgrwt>
</event>
<event>
 5    1  0.3401591E-002  0.1249971E+03  0.7818608E-02  0.1235074E+00
         -4   -1    0    0    0  501 -0.00000000000E+00  0.00000000000E+00  0.14965209733E+03  0.14965748607E+03  0.12700000000E+01 0.  1.
          4   -1    0    0  501    0  0.00000000000E+00 -0.00000000000E+00 -0.26079665224E+02  0.26110569473E+02  0.12700000000E+01 0.  1.
         25    2    1    2    0    0  0.00000000000E+00  0.00000000000E+00  0.12357243211E+03  0.17576805554E+03  0.12499705345E+03 0.  0.
    9000005    1    3    3    0    0 -0.19732371643E+02 -0.17565882852E+02  0.14142031526E+03  0.14387019254E+03  0.10000000000E+01 0.  0.
    9000005    1    3    3    0    0  0.19732371643E+02  0.17565882852E+02 -0.17847883157E+02  0.31897863004E+02  0.10000000000E+01 0.  0.
<mgrwt>
<rscale>  0 0.12499705E+03</rscale>
<asrwt>0</asrwt>
<pdfrwt beam="2">  1        4 0.40150480E-02 0.12499705E+03</pdfrwt>
<pdfrwt beam="1">  1       -4 0.23026191E-01 0.12499705E+03</pdfrwt>
<totfact> 0.94390600E+03</totfact>
</mgrwt>
</event>
<event>
 5    1  0.3401591E-002  0.1249953E+03  0.7818608E-02  0.1235077E+00
         -4   -1    0    0    0  501 -0.00000000000E+00  0.00000000000E+00  0.44349691985E+02  0.44367872151E+02  0.12700000000E+01 0.  1.
          4   -1    0    0  501    0  0.00000000000E+00 -0.00000000000E+00 -0.88030913362E+02  0.88040073871E+02  0.12700000000E+01 0.  1.
         25    2    1    2    0    0  0.00000000000E+00  0.00000000000E+00 -0.43681221377E+02  0.13240794602E+03  0.12499526019E+03 0.  0.
    9000005    1    3    3    0    0  0.33339277207E+02 -0.42594321078E+02 -0.54988020063E+02  0.77139263305E+02  0.10000000000E+01 0.  0.
    9000005    1    3    3    0    0 -0.33339277207E+02  0.42594321078E+02  0.11306798686E+02  0.55268682717E+02  0.10000000000E+01 0.  0.
<mgrwt>
<rscale>  0 0.12499526E+03</rscale>
<asrwt>0</asrwt>
<pdfrwt beam="2">  1        4 0.13545320E-01 0.12499526E+03</pdfrwt>
<pdfrwt beam="1">  1       -4 0.68251327E-02 0.12499526E+03</pdfrwt>
<totfact> 0.10294099E+04</totfact>
</mgrwt>
</event>
<event>
 5    1  0.3401591E-002  0.1249982E+03  0.7818608E-02  0.1235072E+00
          4   -1    0    0  501    0  0.00000000000E+00  0.00000000000E+00  0.17619772509E+03  0.17620230199E+03  0.12700000000E+01 0. -1.
         -4   -1    0    0    0  501 -0.00000000000E+00 -0.00000000000E+00 -0.22145990382E+02  0.22182375662E+02  0.12700000000E+01 0. -1.
         25    2    1    2    0    0  0.00000000000E+00  0.00000000000E+00  0.15405173471E+03  0.19838467765E+03  0.12499817343E+03 0.  0.
    9000005    1    3    3    0    0  0.18164500103E+02  0.59791238519E+02  0.77725943515E+02  0.99735969253E+02  0.10000000000E+01 0.  0.
    9000005    1    3    3    0    0 -0.18164500103E+02 -0.59791238519E+02  0.76325791192E+02  0.98648708399E+02  0.10000000000E+01 0.  0.
<mgrwt>
<rscale>  0 0.12499817E+03</rscale>
<asrwt>0</asrwt>
<pdfrwt beam="1">  1        4 0.27110494E-01 0.12499817E+03</pdfrwt>
<pdfrwt beam="2">  1       -4 0.34102263E-02 0.12499817E+03</pdfrwt>
<totfact> 0.90412224E+03</totfact>
</mgrwt>
</event>
<event>
 5    1  0.3401591E-002  0.1250013E+03  0.7818608E-02  0.1235067E+00
         -4   -1    0    0    0  501 -0.00000000000E+00  0.00000000000E+00  0.24510036928E+02  0.24542917720E+02  0.12700000000E+01 0. -1.
          4   -1    0    0  501    0  0.00000000000E+00 -0.00000000000E+00 -0.15923445146E+03  0.15923951592E+03  0.12700000000E+01 0. -1.
         25    2    1    2    0    0  0.00000000000E+00  0.00000000000E+00 -0.13472441453E+03  0.18378243364E+03  0.12500126017E+03 0.  0.
    9000005    1    3    3    0    0 -0.90026130452E+00  0.34809266749E+02  0.89324869219E+01  0.35962269737E+02  0.10000000000E+01 0.  0.
    9000005    1    3    3    0    0  0.90026130452E+00 -0.34809266749E+02 -0.14365690145E+03  0.14782016391E+03  0.10000000000E+01 0.  0.
<mgrwt>
<rscale>  0 0.12500126E+03</rscale>
<asrwt>0</asrwt>
<pdfrwt beam="2">  1        4 0.24500526E-01 0.12500126E+03</pdfrwt>
<pdfrwt beam="1">  1       -4 0.37736939E-02 0.12500126E+03</pdfrwt>
<totfact> 0.92937925E+03</totfact>
</mgrwt>
</event>
<event>
 5    1  0.3401591E-002  0.1250022E+03  0.7818608E-02  0.1235066E+00
         -4   -1    0    0    0  501 -0.00000000000E+00  0.00000000000E+00  0.24516879207E+02  0.24549750835E+02  0.12700000000E+01 0. -1.
          4   -1    0    0  501    0  0.00000000000E+00 -0.00000000000E+00 -0.15919257756E+03  0.15919764336E+03  0.12700000000E+01 0. -1.
         25    2    1    2    0    0  0.00000000000E+00  0.00000000000E+00 -0.13467569835E+03  0.18374739419E+03  0.12500224456E+03 0.  0.
    9000005    1    3    3    0    0  0.11288522297E+02 -0.57646354281E+02 -0.98688098891E+02  0.11485152920E+03  0.10000000000E+01 0.  0.
    9000005    1    3    3    0    0 -0.11288522297E+02  0.57646354281E+02 -0.35987599463E+02  0.68895864989E+02  0.10000000000E+01 0.  0.
<mgrwt>
<rscale>  0 0.12500224E+03</rscale>
<asrwt>0</asrwt>
<pdfrwt beam="2">  1        4 0.24494083E-01 0.12500224E+03</pdfrwt>
<pdfrwt beam="1">  1       -4 0.37747459E-02 0.12500224E+03</pdfrwt>
<totfact> 0.92942101E+03</totfact>
</mgrwt>
</event>
<event>
 5    1  0.3401591E-002  0.1250066E+03  0.7818608E-02  0.1235059E+00
         -4   -1    0    0    0  501 -0.00000000000E+00  0.00000000000E+00  0.16933720091E+02  0.16981277223E+02  0.12700000000E+01 0.  1.
          4   -1    0    0  501    0  0.00000000000E+00 -0.00000000000E+00 -0.23033017890E+03  0.23033368015E+03  0.12700000000E+01 0.  1.
         25    2    1    2    0    0  0.00000000000E+00  0.00000000000E+00 -0.21339645881E+03  0.24731495738E+03  0.12500655787E+03 0.  0.
    9000005    1    3    3    0    0  0.60068099471E+02 -0.17225066690E+02 -0.10844594550E+03  0.12516550080E+03  0.10000000000E+01 0.  0.
    9000005    1    3    3    0    0 -0.60068099471E+02  0.17225066690E+02 -0.10495051331E+03  0.12214945657E+03  0.10000000000E+01 0.  0.
<mgrwt>
<rscale>  0 0.12500656E+03</rscale>
<asrwt>0</asrwt>
<pdfrwt beam="2">  1        4 0.35439337E-01 0.12500656E+03</pdfrwt>
<pdfrwt beam="1">  1       -4 0.26091154E-02 0.12500656E+03</pdfrwt>
<totfact> 0.82707771E+03</totfact>
</mgrwt>
</event>
<event>
 5    1  0.3401591E-002  0.1249996E+03  0.7818608E-02  0.1235070E+00
          4   -1    0    0  501    0  0.00000000000E+00  0.00000000000E+00  0.12549018963E+02  0.12613119239E+02  0.12700000000E+01 0.  1.
         -4   -1    0    0    0  501 -0.00000000000E+00 -0.00000000000E+00 -0.31041900715E+03  0.31042160508E+03  0.12700000000E+01 0.  1.
         25    2    1    2    0    0  0.00000000000E+00  0.00000000000E+00 -0.29786998819E+03  0.32303472432E+03  0.12499961301E+03 0.  0.
    9000005    1    3    3    0    0  0.13028595519E+01  0.58279947035E+02 -0.20712311095E+03  0.21517256507E+03  0.10000000000E+01 0.  0.
    9000005    1    3    3    0    0 -0.13028595519E+01 -0.58279947035E+02 -0.90746877239E+02  0.10786215925E+03  0.10000000000E+01 0.  0.
<mgrwt>
<rscale>  0 0.12499961E+03</rscale>
<asrwt>0</asrwt>
<pdfrwt beam="1">  1        4 0.19357492E-02 0.12499961E+03</pdfrwt>
<pdfrwt beam="2">  1       -4 0.47761895E-01 0.12499961E+03</pdfrwt>
<totfact> 0.72797260E+03</totfact>
</mgrwt>
</event>
<event>
 5    1  0.3401591E-002  0.1250028E+03  0.7818608E-02  0.1235065E+00
          4   -1    0    0  501    0  0.00000000000E+00  0.00000000000E+00  0.11238996934E+04  0.11239004109E+04  0.12700000000E+01 0. -1.
         -4   -1    0    0    0  501 -0.00000000000E+00 -0.00000000000E+00 -0.33590264508E+01  0.35910943593E+01  0.12700000000E+01 0. -1.
         25    2    1    2    0    0  0.00000000000E+00  0.00000000000E+00  0.11205406669E+04  0.11274915053E+04  0.12500283296E+03 0.  0.
    9000005    1    3    3    0    0 -0.14601721770E+02  0.52788087473E+02  0.83170788373E+03  0.83350992575E+03  0.10000000000E+01 0.  0.
    9000005    1    3    3    0    0  0.14601721770E+02 -0.52788087473E+02  0.28883278317E+03  0.29398157951E+03  0.10000000000E+01 0.  0.
<mgrwt>
<rscale>  0 0.12500283E+03</rscale>
<asrwt>0</asrwt>
<pdfrwt beam="1">  1        4 0.17292587E+00 0.12500283E+03</pdfrwt>
<pdfrwt beam="2">  1       -4 0.53467890E-03 0.12500283E+03</pdfrwt>
<totfact> 0.26690689E+03</totfact>
</mgrwt>
</event>
<event>
 5    1  0.3401591E-002  0.1249977E+03  0.7818608E-02  0.1235073E+00
         -4   -1    0    0    0  501 -0.00000000000E+00  0.00000000000E+00  0.15529326110E+04  0.15529331303E+04  0.12700000000E+01 0.  1.
          4   -1    0    0  501    0  0.00000000000E+00 -0.00000000000E+00 -0.23544502959E+01  0.26751329305E+01  0.12700000000E+01 0.  1.
         25    2    1    2    0    0  0.00000000000E+00  0.00000000000E+00  0.15505781607E+04  0.15556082632E+04  0.12499774479E+03 0.  0.
    9000005    1    3    3    0    0  0.24099018665E+02  0.27913901960E+02  0.14743944705E+03  0.15198466755E+03  0.10000000000E+01 0.  0.
    9000005    1    3    3    0    0 -0.24099018665E+02 -0.27913901960E+02  0.14031387137E+04  0.14036235957E+04  0.10000000000E+01 0.  0.
<mgrwt>
<rscale>  0 0.12499774E+03</rscale>
<asrwt>0</asrwt>
<pdfrwt beam="2">  1        4 0.38693022E-03 0.12499774E+03</pdfrwt>
<pdfrwt beam="1">  1       -4 0.23893788E+00 0.12499774E+03</pdfrwt>
<totfact> 0.16863632E+03</totfact>
</mgrwt>
</event>
<event>
 5    1  0.3401591E-002  0.1250021E+03  0.7818608E-02  0.1235066E+00
          4   -1    0    0  501    0  0.00000000000E+00  0.00000000000E+00  0.44023620676E+02  0.44041935441E+02  0.12700000000E+01 0. -1.
         -4   -1    0    0    0  501 -0.00000000000E+00 -0.00000000000E+00 -0.88692489185E+02  0.88701581372E+02  0.12700000000E+01 0. -1.
         25    2    1    2    0    0  0.00000000000E+00  0.00000000000E+00 -0.44668868509E+02  0.13274351681E+03  0.12500213375E+03 0.  0.
    9000005    1    3    3    0    0 -0.22226951844E+02 -0.49248404230E+02  0.11009840823E+02  0.55151240262E+02  0.10000000000E+01 0.  0.
    9000005    1    3    3    0    0  0.22226951844E+02  0.49248404230E+02 -0.55678709332E+02  0.77592276551E+02  0.10000000000E+01 0.  0.
<mgrwt>
<rscale>  0 0.12500213E+03</rscale>
<asrwt>0</asrwt>
<pdfrwt beam="1">  1        4 0.67749729E-02 0.12500213E+03</pdfrwt>
<pdfrwt beam="2">  1       -4 0.13647107E-01 0.12500213E+03</pdfrwt>
<totfact> 0.10285359E+04</totfact>
</mgrwt>
</event>
<event>
 5    1  0.3401591E-002  0.1249944E+03  0.7818608E-02  0.1235078E+00
          4   -1    0    0  501    0  0.00000000000E+00  0.00000000000E+00  0.25200361968E+03  0.25200681981E+03  0.12700000000E+01 0.  1.
         -4   -1    0    0    0  501 -0.00000000000E+00 -0.00000000000E+00 -0.15470058154E+02  0.15522100350E+02  0.12700000000E+01 0.  1.
         25    2    1    2    0    0  0.00000000000E+00  0.00000000000E+00  0.23653356152E+03  0.26752892016E+03  0.12499438945E+03 0.  0.
    9000005    1    3    3    0    0 -0.48252708262E+02  0.15172798508E+02  0.39732171350E+02  0.64328711392E+02  0.10000000000E+01 0.  0.
    9000005    1    3    3    0    0  0.48252708262E+02 -0.15172798508E+02  0.19680139017E+03  0.20320020877E+03  0.10000000000E+01 0.  0.
<mgrwt>
<rscale>  0 0.12499439E+03</rscale>
<asrwt>0</asrwt>
<pdfrwt beam="1">  1        4 0.38774034E-01 0.12499439E+03</pdfrwt>
<pdfrwt beam="2">  1       -4 0.23842585E-02 0.12499439E+03</pdfrwt>
<totfact> 0.79870928E+03</totfact>
</mgrwt>
</event>
<event>
 5    1  0.3401591E-002  0.1250005E+03  0.7818608E-02  0.1235069E+00
          4   -1    0    0  501    0  0.00000000000E+00  0.00000000000E+00  0.95801291493E+02  0.95809709068E+02  0.12700000000E+01 0.  1.
         -4   -1    0    0    0  501 -0.00000000000E+00 -0.00000000000E+00 -0.40754719340E+02  0.40774502431E+02  0.12700000000E+01 0.  1.
         25    2    1    2    0    0  0.00000000000E+00  0.00000000000E+00  0.55046572153E+02  0.13658421150E+03  0.12500048690E+03 0.  0.
    9000005    1    3    3    0    0 -0.59596324252E+02 -0.18803147422E+02  0.27539269540E+02  0.68298547452E+02  0.10000000000E+01 0.  0.
    9000005    1    3    3    0    0  0.59596324252E+02  0.18803147422E+02  0.27507302614E+02  0.68285664047E+02  0.10000000000E+01 0.  0.
<mgrwt>
<rscale>  0 0.12500049E+03</rscale>
<asrwt>0</asrwt>
<pdfrwt beam="1">  1        4 0.14740829E-01 0.12500049E+03</pdfrwt>
<pdfrwt beam="2">  1       -4 0.62721261E-02 0.12500049E+03</pdfrwt>
<totfact> 0.10204675E+04</totfact>
</mgrwt>
</event>
<event>
 5    1  0.3401591E-002  0.1249996E+03  0.7818608E-02  0.1235070E+00
          4   -1    0    0  501    0  0.00000000000E+00  0.00000000000E+00  0.24196553803E+02  0.24229860007E+02  0.12700000000E+01 0.  1.
         -4   -1    0    0    0  501 -0.00000000000E+00 -0.00000000000E+00 -0.16129039128E+03  0.16129539119E+03  0.12700000000E+01 0.  1.
         25    2    1    2    0    0  0.00000000000E+00  0.00000000000E+00 -0.13709383748E+03  0.18552525120E+03  0.12499959423E+03 0.  0.
    9000005    1    3    3    0    0  0.11062938847E+02  0.61204096569E+02 -0.59531710767E+02  0.86100839947E+02  0.10000000000E+01 0.  0.
    9000005    1    3    3    0    0 -0.11062938847E+02 -0.61204096569E+02 -0.77562126709E+02  0.99424411250E+02  0.10000000000E+01 0.  0.
<mgrwt>
<rscale>  0 0.12499959E+03</rscale>
<asrwt>0</asrwt>
<pdfrwt beam="1">  1        4 0.37254935E-02 0.12499959E+03</pdfrwt>
<pdfrwt beam="2">  1       -4 0.24816852E-01 0.12499959E+03</pdfrwt>
<totfact> 0.92632631E+03</totfact>
</mgrwt>
</event>
<event>
 5    1  0.3401591E-002  0.1249913E+03  0.7818608E-02  0.1235083E+00
         -4   -1    0    0    0  501 -0.00000000000E+00  0.00000000000E+00  0.82687452436E+02  0.82697204853E+02  0.12700000000E+01 0. -1.
          4   -1    0    0  501    0  0.00000000000E+00 -0.00000000000E+00 -0.47213484110E+02  0.47230561946E+02  0.12700000000E+01 0. -1.
         25    2    1    2    0    0  0.00000000000E+00  0.00000000000E+00  0.35473968327E+02  0.12992776680E+03  0.12499128832E+03 0.  0.
    9000005    1    3    3    0    0 -0.17064955729E+02  0.49804627015E+02 -0.17252347096E+02  0.55410802796E+02  0.10000000000E+01 0.  0.
    9000005    1    3    3    0    0  0.17064955729E+02 -0.49804627015E+02  0.52726315423E+02  0.74516964003E+02  0.10000000000E+01 0.  0.
<mgrwt>
<rscale>  0 0.12499129E+03</rscale>
<asrwt>0</asrwt>
<pdfrwt beam="2">  1        4 0.72656769E-02 0.12499129E+03</pdfrwt>
<pdfrwt beam="1">  1       -4 0.12723210E-01 0.12499129E+03</pdfrwt>
<totfact> 0.10348088E+04</totfact>
</mgrwt>
</event>
<event>
 5    1  0.3401591E-002  0.1249963E+03  0.7818608E-02  0.1235075E+00
         -4   -1    0    0    0  501 -0.00000000000E+00  0.00000000000E+00  0.17105393940E+04  0.17105398655E+04  0.12700000000E+01 0. -1.
          4   -1    0    0  501    0  0.00000000000E+00 -0.00000000000E+00 -0.21064125385E+01  0.24596491177E+01  0.12700000000E+01 0. -1.
         25    2    1    2    0    0  0.00000000000E+00  0.00000000000E+00  0.17084329815E+04  0.17129995146E+04  0.12499633913E+03 0.  0.
    9000005    1    3    3    0    0 -0.16546034655E+02 -0.36670804240E+02  0.19890807703E+03  0.20293827203E+03  0.10000000000E+01 0.  0.
    9000005    1    3    3    0    0  0.16546034655E+02  0.36670804240E+02  0.15095249044E+04  0.15100612426E+04  0.10000000000E+01 0.  0.
<mgrwt>
<rscale>  0 0.12499634E+03</rscale>
<asrwt>0</asrwt>
<pdfrwt beam="2">  1        4 0.35127225E-03 0.12499634E+03</pdfrwt>
<pdfrwt beam="1">  1       -4 0.26318676E+00 0.12499634E+03</pdfrwt>
<totfact> 0.14093343E+03</totfact>
</mgrwt>
</event>
<event>
 5    1  0.3401591E-002  0.1250179E+03  0.7818608E-02  0.1235041E+00
         -4   -1    0    0    0  501 -0.00000000000E+00  0.00000000000E+00  0.99611505685E+02  0.99619601308E+02  0.12700000000E+01 0.  1.
          4   -1    0    0  501    0  0.00000000000E+00 -0.00000000000E+00 -0.39206130701E+02  0.39226694795E+02  0.12700000000E+01 0.  1.
         25    2    1    2    0    0  0.00000000000E+00  0.00000000000E+00  0.60405374984E+02  0.13884629610E+03  0.12501793717E+03 0.  0.
    9000005    1    3    3    0    0  0.52103798974E+02  0.11477134580E+02  0.66358844223E+02  0.85152960561E+02  0.10000000000E+01 0.  0.
    9000005    1    3    3    0    0 -0.52103798974E+02 -0.11477134580E+02 -0.59534692395E+01  0.53693335543E+02  0.10000000000E+01 0.  0.
<mgrwt>
<rscale>  0 0.12501794E+03</rscale>
<asrwt>0</asrwt>
<pdfrwt beam="2">  1        4 0.60339170E-02 0.12501794E+03</pdfrwt>
<pdfrwt beam="1">  1       -4 0.15327052E-01 0.12501794E+03</pdfrwt>
<totfact> 0.10153449E+04</totfact>
</mgrwt>
</event>
<event>
 5    1  0.3401591E-002  0.1250008E+03  0.7818608E-02  0.1235068E+00
          4   -1    0    0  501    0  0.00000000000E+00  0.00000000000E+00  0.12603291523E+04  0.12603297922E+04  0.12700000000E+01 0.  1.
         -4   -1    0    0    0  501 -0.00000000000E+00 -0.00000000000E+00 -0.29686643174E+01  0.32289112452E+01  0.12700000000E+01 0.  1.
         25    2    1    2    0    0  0.00000000000E+00  0.00000000000E+00  0.12573604880E+04  0.12635587034E+04  0.12500080097E+03 0.  0.
    9000005    1    3    3    0    0 -0.54058634475E+02  0.23706498631E+02  0.83607900110E+03  0.83816074241E+03  0.10000000000E+01 0.  0.
    9000005    1    3    3    0    0  0.54058634475E+02 -0.23706498631E+02  0.42128148690E+03  0.42539796103E+03  0.10000000000E+01 0.  0.
<mgrwt>
<rscale>  0 0.12500080E+03</rscale>
<asrwt>0</asrwt>
<pdfrwt beam="1">  1        4 0.19391721E+00 0.12500080E+03</pdfrwt>
<pdfrwt beam="2">  1       -4 0.47678495E-03 0.12500080E+03</pdfrwt>
<totfact> 0.23104806E+03</totfact>
</mgrwt>
</event>
<event>
 5    1  0.3401591E-002  0.1250016E+03  0.7818608E-02  0.1235067E+00
          4   -1    0    0  501    0  0.00000000000E+00  0.00000000000E+00  0.38625449085E+01  0.40659750577E+01  0.12700000000E+01 0. -1.
         -4   -1    0    0    0  501 -0.00000000000E+00 -0.00000000000E+00 -0.98518873991E+03  0.98518955848E+03  0.12700000000E+01 0. -1.
         25    2    1    2    0    0  0.00000000000E+00  0.00000000000E+00 -0.98132619500E+03  0.98925553354E+03  0.12500163857E+03 0.  0.
    9000005    1    3    3    0    0  0.42979935119E+02 -0.24893603938E+02 -0.19051850956E+03  0.19688897588E+03  0.10000000000E+01 0.  0.
    9000005    1    3    3    0    0 -0.42979935119E+02  0.24893603938E+02 -0.79080768544E+03  0.79236655766E+03  0.10000000000E+01 0.  0.
<mgrwt>
<rscale>  0 0.12500164E+03</rscale>
<asrwt>0</asrwt>
<pdfrwt beam="1">  1        4 0.60994990E-03 0.12500164E+03</pdfrwt>
<pdfrwt beam="2">  1       -4 0.15158301E+00 0.12500164E+03</pdfrwt>
<totfact> 0.30960855E+03</totfact>
</mgrwt>
</event>
<event>
 5    1  0.3401591E-002  0.1249985E+03  0.7818608E-02  0.1235072E+00
         -4   -1    0    0    0  501 -0.00000000000E+00  0.00000000000E+00  0.11108232760E+04  0.11108240020E+04  0.12700000000E+01 0.  1.
          4   -1    0    0  501    0  0.00000000000E+00 -0.00000000000E+00 -0.34010306174E+01  0.36304144751E+01  0.12700000000E+01 0.  1.
         25    2    1    2    0    0  0.00000000000E+00  0.00000000000E+00  0.11074222453E+04  0.11144544164E+04  0.12499846726E+03 0.  0.
    9000005    1    3    3    0    0  0.60110502656E+02  0.17071002108E+02  0.55977488800E+03  0.56325271138E+03  0.10000000000E+01 0.  0.
    9000005    1    3    3    0    0 -0.60110502656E+02 -0.17071002108E+02  0.54764735735E+03  0.55120170505E+03  0.10000000000E+01 0.  0.
<mgrwt>
<rscale>  0 0.12499847E+03</rscale>
<asrwt>0</asrwt>
<pdfrwt beam="2">  1        4 0.54093620E-03 0.12499847E+03</pdfrwt>
<pdfrwt beam="1">  1       -4 0.17091360E+00 0.12499847E+03</pdfrwt>
<totfact> 0.27065065E+03</totfact>
</mgrwt>
</event>
<event>
 5    1  0.3401591E-002  0.1250104E+03  0.7818608E-02  0.1235053E+00
          4   -1    0    0  501    0  0.00000000000E+00  0.00000000000E+00  0.20995253979E+02  0.21033629968E+02  0.12700000000E+01 0. -1.
         -4   -1    0    0    0  501 -0.00000000000E+00 -0.00000000000E+00 -0.18587454145E+03  0.18587888008E+03  0.12700000000E+01 0. -1.
         25    2    1    2    0    0  0.00000000000E+00  0.00000000000E+00 -0.16487928747E+03  0.20691251005E+03  0.12501042907E+03 0.  0.
    9000005    1    3    3    0    0 -0.53328167858E+02  0.18876362182E+02 -0.38470512223E+02  0.68419228635E+02  0.10000000000E+01 0.  0.
    9000005    1    3    3    0    0  0.53328167858E+02 -0.18876362182E+02 -0.12640877525E+03  0.13849328141E+03  0.10000000000E+01 0.  0.
<mgrwt>
<rscale>  0 0.12501043E+03</rscale>
<asrwt>0</asrwt>
<pdfrwt beam="1">  1        4 0.32333249E-02 0.12501043E+03</pdfrwt>
<pdfrwt beam="2">  1       -4 0.28599368E-01 0.12501043E+03</pdfrwt>
<totfact> 0.88961854E+03</totfact>
</mgrwt>
</event>
<event>
 5    1  0.3401591E-002  0.1250022E+03  0.7818608E-02  0.1235066E+00
         -4   -1    0    0    0  501 -0.00000000000E+00  0.00000000000E+00  0.67540114746E+02  0.67552054002E+02  0.12700000000E+01 0. -1.
          4   -1    0    0  501    0  0.00000000000E+00 -0.00000000000E+00 -0.57813966587E+02  0.57827913956E+02  0.12700000000E+01 0. -1.
         25    2    1    2    0    0  0.00000000000E+00  0.00000000000E+00  0.97261481592E+01  0.12537996796E+03  0.12500215361E+03 0.  0.
    9000005    1    3    3    0    0 -0.53252476196E+02  0.21606883198E+02 -0.19761096315E+02  0.60779803800E+02  0.10000000000E+01 0.  0.
    9000005    1    3    3    0    0  0.53252476196E+02 -0.21606883198E+02  0.29487244474E+02  0.64600164157E+02  0.10000000000E+01 0.  0.
<mgrwt>
<rscale>  0 0.12500215E+03</rscale>
<asrwt>0</asrwt>
<pdfrwt beam="2">  1        4 0.88964477E-02 0.12500215E+03</pdfrwt>
<pdfrwt beam="1">  1       -4 0.10392778E-01 0.12500215E+03</pdfrwt>
<totfact> 0.10444104E+04</totfact>
</mgrwt>
</event>
<event>
 5    1  0.3401591E-002  0.1250024E+03  0.7818608E-02  0.1235066E+00
         -4   -1    0    0    0  501 -0.00000000000E+00  0.00000000000E+00  0.50818022334E+02  0.50833889227E+02  0.12700000000E+01 0. -1.
          4   -1    0    0  501    0  0.00000000000E+00 -0.00000000000E+00 -0.76837192211E+02  0.76847687063E+02  0.12700000000E+01 0. -1.
         25    2    1    2    0    0  0.00000000000E+00  0.00000000000E+00 -0.26019169877E+02  0.12768157629E+03  0.12500235087E+03 0.  0.
    9000005    1    3    3    0    0  0.52306714263E+02 -0.14095123967E+02 -0.44833949451E+02  0.70326011546E+02  0.10000000000E+01 0.  0.
    9000005    1    3    3    0    0 -0.52306714263E+02  0.14095123967E+02  0.18814779574E+02  0.57355564744E+02  0.10000000000E+01 0.  0.
<mgrwt>
<rscale>  0 0.12500235E+03</rscale>
<asrwt>0</asrwt>
<pdfrwt beam="2">  1        4 0.11823134E-01 0.12500235E+03</pdfrwt>
<pdfrwt beam="1">  1       -4 0.78201851E-02 0.12500235E+03</pdfrwt>
<totfact> 0.10393819E+04</totfact>
</mgrwt>
</event>
<event>
 5    1  0.3401591E-002  0.1250001E+03  0.7818608E-02  0.1235069E+00
          4   -1    0    0  501    0  0.00000000000E+00  0.00000000000E+00  0.59965624682E+03  0.59965759168E+03  0.12700000000E+01 0.  1.
         -4   -1    0    0    0  501 -0.00000000000E+00 -0.00000000000E+00 -0.64508918993E+01  0.65747172028E+01  0.12700000000E+01 0.  1.
         25    2    1    2    0    0  0.00000000000E+00  0.00000000000E+00  0.59320535492E+03  0.60623230888E+03  0.12500007687E+03 0.  0.
    9000005    1    3    3    0    0  0.42939510063E+02 -0.33528840085E+02  0.14812499029E+03  0.15782901315E+03  0.10000000000E+01 0.  0.
    9000005    1    3    3    0    0 -0.42939510063E+02  0.33528840085E+02  0.44508036463E+03  0.44840329573E+03  0.10000000000E+01 0.  0.
<mgrwt>
<rscale>  0 0.12500008E+03</rscale>
<asrwt>0</asrwt>
<pdfrwt beam="1">  1        4 0.92264454E-01 0.12500008E+03</pdfrwt>
<pdfrwt beam="2">  1       -4 0.10020732E-02 0.12500008E+03</pdfrwt>
<totfact> 0.48476468E+03</totfact>
</mgrwt>
</event>
<event>
 5    1  0.3401591E-002  0.1249902E+03  0.7818608E-02  0.1235085E+00
         -4   -1    0    0    0  501 -0.00000000000E+00  0.00000000000E+00  0.49587650553E+03  0.49587813184E+03  0.12700000000E+01 0. -1.
          4   -1    0    0  501    0  0.00000000000E+00 -0.00000000000E+00 -0.78233895260E+01  0.79258011378E+01  0.12700000000E+01 0. -1.
         25    2    1    2    0    0  0.00000000000E+00  0.00000000000E+00  0.48805311600E+03  0.50380393298E+03  0.12499023499E+03 0.  0.
    9000005    1    3    3    0    0  0.29824408762E+02  0.40929055969E+02  0.39157371853E+03  0.39483624457E+03  0.10000000000E+01 0.  0.
    9000005    1    3    3    0    0 -0.29824408762E+02 -0.40929055969E+02  0.96479397474E+02  0.10896768841E+03  0.10000000000E+01 0.  0.
<mgrwt>
<rscale>  0 0.12499023E+03</rscale>
<asrwt>0</asrwt>
<pdfrwt beam="2">  1        4 0.12116011E-02 0.12499023E+03</pdfrwt>
<pdfrwt beam="1">  1       -4 0.76296707E-01 0.12499023E+03</pdfrwt>
<totfact> 0.55582357E+03</totfact>
</mgrwt>
</event>
<event>
 5    1  0.3401591E-002  0.1250002E+03  0.7818608E-02  0.1235069E+00
         -4   -1    0    0    0  501 -0.00000000000E+00  0.00000000000E+00  0.46865510425E+03  0.46865682503E+03  0.12700000000E+01 0.  1.
          4   -1    0    0  501    0  0.00000000000E+00 -0.00000000000E+00 -0.82849196366E+01  0.83816939449E+01  0.12700000000E+01 0.  1.
         25    2    1    2    0    0  0.00000000000E+00  0.00000000000E+00  0.46037018462E+03  0.47703851897E+03  0.12500016679E+03 0.  0.
    9000005    1    3    3    0    0  0.22311679796E+02  0.35881010588E+02  0.54469202227E+02  0.68943106743E+02  0.10000000000E+01 0.  0.
    9000005    1    3    3    0    0 -0.22311679796E+02 -0.35881010588E+02  0.40590098239E+03  0.40809541223E+03  0.10000000000E+01 0.  0.
<mgrwt>
<rscale>  0 0.12500017E+03</rscale>
<asrwt>0</asrwt>
<pdfrwt beam="2">  1        4 0.12821796E-02 0.12500017E+03</pdfrwt>
<pdfrwt beam="1">  1       -4 0.72108360E-01 0.12500017E+03</pdfrwt>
<totfact> 0.57690758E+03</totfact>
</mgrwt>
</event>
<event>
 5    1  0.3401591E-002  0.1250005E+03  0.7818608E-02  0.1235069E+00
         -4   -1    0    0    0  501 -0.00000000000E+00  0.00000000000E+00  0.97205350708E+02  0.97213646708E+02  0.12700000000E+01 0.  1.
          4   -1    0    0  501    0  0.00000000000E+00 -0.00000000000E+00 -0.40165789666E+02  0.40185862682E+02  0.12700000000E+01 0.  1.
         25    2    1    2    0    0  0.00000000000E+00  0.00000000000E+00  0.57039561041E+02  0.13739950939E+03  0.12500045463E+03 0.  0.
    9000005    1    3    3    0    0  0.49947206077E+02 -0.29860784239E+02  0.53558415414E+02  0.79094207701E+02  0.10000000000E+01 0.  0.
    9000005    1    3    3    0    0 -0.49947206077E+02  0.29860784239E+02  0.34811456277E+01  0.58305301689E+02  0.10000000000E+01 0.  0.
<mgrwt>
<rscale>  0 0.12500045E+03</rscale>
<asrwt>0</asrwt>
<pdfrwt beam="2">  1        4 0.61815345E-02 0.12500045E+03</pdfrwt>
<pdfrwt beam="1">  1       -4 0.14956852E-01 0.12500045E+03</pdfrwt>
<totfact> 0.10187635E+04</totfact>
</mgrwt>
</event>
<event>
 5    1  0.3401591E-002  0.1250002E+03  0.7818608E-02  0.1235069E+00
         -4   -1    0    0    0  501 -0.00000000000E+00  0.00000000000E+00  0.46280415017E+02  0.46297837035E+02  0.12700000000E+01 0. -1.
          4   -1    0    0  501    0  0.00000000000E+00 -0.00000000000E+00 -0.84366138545E+02  0.84375696933E+02  0.12700000000E+01 0. -1.
         25    2    1    2    0    0  0.00000000000E+00  0.00000000000E+00 -0.38085723529E+02  0.13067353397E+03  0.12500020057E+03 0.  0.
    9000005    1    3    3    0    0 -0.24047520672E+02  0.36981618161E+01  0.41130946220E+02  0.47798686051E+02  0.10000000000E+01 0.  0.
    9000005    1    3    3    0    0  0.24047520672E+02 -0.36981618161E+01 -0.79216669748E+02  0.82874847917E+02  0.10000000000E+01 0.  0.
<mgrwt>
<rscale>  0 0.12500020E+03</rscale>
<asrwt>0</asrwt>
<pdfrwt beam="2">  1        4 0.12981481E-01 0.12500020E+03</pdfrwt>
<pdfrwt beam="1">  1       -4 0.71221393E-02 0.12500020E+03</pdfrwt>
<totfact> 0.10330046E+04</totfact>
</mgrwt>
</event>
<event>
 5    1  0.3401591E-002  0.1250002E+03  0.7818608E-02  0.1235069E+00
         -4   -1    0    0    0  501 -0.00000000000E+00  0.00000000000E+00  0.27439100281E+03  0.27439394185E+03  0.12700000000E+01 0. -1.
          4   -1    0    0  501    0  0.00000000000E+00 -0.00000000000E+00 -0.14204765045E+02  0.14261425243E+02  0.12700000000E+01 0. -1.
         25    2    1    2    0    0  0.00000000000E+00  0.00000000000E+00  0.26018623777E+03  0.28865536709E+03  0.12500017051E+03 0.  0.
    9000005    1    3    3    0    0 -0.34908909454E+02  0.45372270274E+02  0.18796184726E+03  0.19648900960E+03  0.10000000000E+01 0.  0.
    9000005    1    3    3    0    0  0.34908909454E+02 -0.45372270274E+02  0.72224390507E+02  0.92166357491E+02  0.10000000000E+01 0.  0.
<mgrwt>
<rscale>  0 0.12500017E+03</rscale>
<asrwt>0</asrwt>
<pdfrwt beam="2">  1        4 0.21899329E-02 0.12500017E+03</pdfrwt>
<pdfrwt beam="1">  1       -4 0.42218587E-01 0.12500017E+03</pdfrwt>
<totfact> 0.77043992E+03</totfact>
</mgrwt>
</event>
<event>
 5    1  0.3401591E-002  0.1249796E+03  0.7818608E-02  0.1235101E+00
          4   -1    0    0  501    0  0.00000000000E+00  0.00000000000E+00  0.47334968663E+01  0.49009073224E+01  0.12700000000E+01 0. -1.
         -4   -1    0    0    0  501 -0.00000000000E+00 -0.00000000000E+00 -0.81046385894E+03  0.81046485399E+03  0.12700000000E+01 0. -1.
         25    2    1    2    0    0  0.00000000000E+00  0.00000000000E+00 -0.80573036208E+03  0.81536576131E+03  0.12497963173E+03 0.  0.
    9000005    1    3    3    0    0  0.49412906560E+02  0.20784282724E+02 -0.19345068355E+03  0.20074309131E+03  0.10000000000E+01 0.  0.
    9000005    1    3    3    0    0 -0.49412906560E+02 -0.20784282724E+02 -0.61227967853E+03  0.61462267000E+03  0.10000000000E+01 0.  0.
<mgrwt>
<rscale>  0 0.12497963E+03</rscale>
<asrwt>0</asrwt>
<pdfrwt beam="1">  1        4 0.74118520E-03 0.12497963E+03</pdfrwt>
<pdfrwt beam="2">  1       -4 0.12469959E+00 0.12497963E+03</pdfrwt>
<totfact> 0.37604656E+03</totfact>
</mgrwt>
</event>
<event>
 5    1  0.3401591E-002  0.1250006E+03  0.7818608E-02  0.1235068E+00
         -4   -1    0    0    0  501 -0.00000000000E+00  0.00000000000E+00  0.31283125819E+03  0.31283383609E+03  0.12700000000E+01 0.  1.
          4   -1    0    0  501    0  0.00000000000E+00 -0.00000000000E+00 -0.12451954991E+02  0.12516552364E+02  0.12700000000E+01 0.  1.
         25    2    1    2    0    0  0.00000000000E+00  0.00000000000E+00  0.30037930320E+03  0.32535038845E+03  0.12500059790E+03 0.  0.
    9000005    1    3    3    0    0 -0.59416157713E+02 -0.19352291055E+02  0.15202346911E+03  0.16436826374E+03  0.10000000000E+01 0.  0.
    9000005    1    3    3    0    0  0.59416157713E+02  0.19352291055E+02  0.14835583409E+03  0.16098212471E+03  0.10000000000E+01 0.  0.
<mgrwt>
<rscale>  0 0.12500060E+03</rscale>
<asrwt>0</asrwt>
<pdfrwt beam="2">  1        4 0.19208527E-02 0.12500060E+03</pdfrwt>
<pdfrwt beam="1">  1       -4 0.48133054E-01 0.12500060E+03</pdfrwt>
<totfact> 0.72523291E+03</totfact>
</mgrwt>
</event>
<event>
 5    1  0.3401591E-002  0.1249976E+03  0.7818608E-02  0.1235073E+00
         -4   -1    0    0    0  501 -0.00000000000E+00  0.00000000000E+00  0.69716399372E+02  0.69727965992E+02  0.12700000000E+01 0.  1.
          4   -1    0    0  501    0  0.00000000000E+00 -0.00000000000E+00 -0.56005049883E+02  0.56019447627E+02  0.12700000000E+01 0.  1.
         25    2    1    2    0    0  0.00000000000E+00  0.00000000000E+00  0.13711349489E+02  0.12574741362E+03  0.12499764369E+03 0.  0.
    9000005    1    3    3    0    0 -0.30638468785E+02 -0.52122574637E+02  0.22749943663E+02  0.64606799123E+02  0.10000000000E+01 0.  0.
    9000005    1    3    3    0    0  0.30638468785E+02  0.52122574637E+02 -0.90385941744E+01  0.61140614496E+02  0.10000000000E+01 0.  0.
<mgrwt>
<rscale>  0 0.12499764E+03</rscale>
<asrwt>0</asrwt>
<pdfrwt beam="2">  1        4 0.86181588E-02 0.12499764E+03</pdfrwt>
<pdfrwt beam="1">  1       -4 0.10727597E-01 0.12499764E+03</pdfrwt>
<totfact> 0.10437056E+04</totfact>
</mgrwt>
</event>
<event>
 5    1  0.3401591E-002  0.1249971E+03  0.7818608E-02  0.1235074E+00
          4   -1    0    0  501    0  0.00000000000E+00  0.00000000000E+00  0.44254074947E+02  0.44272294377E+02  0.12700000000E+01 0.  1.
         -4   -1    0    0    0  501 -0.00000000000E+00 -0.00000000000E+00 -0.88223591462E+02  0.88232731968E+02  0.12700000000E+01 0.  1.
         25    2    1    2    0    0  0.00000000000E+00  0.00000000000E+00 -0.43969516516E+02  0.13250502634E+03  0.12499705446E+03 0.  0.
    9000005    1    3    3    0    0 -0.56194475699E+02  0.12484721364E+02  0.37941994418E+01  0.57698208950E+02  0.10000000000E+01 0.  0.
    9000005    1    3    3    0    0  0.56194475699E+02 -0.12484721364E+02 -0.47763715957E+02  0.74806817394E+02  0.10000000000E+01 0.  0.
<mgrwt>
<rscale>  0 0.12499705E+03</rscale>
<asrwt>0</asrwt>
<pdfrwt beam="1">  1        4 0.68104238E-02 0.12499705E+03</pdfrwt>
<pdfrwt beam="2">  1       -4 0.13574965E-01 0.12499705E+03</pdfrwt>
<totfact> 0.10291615E+04</totfact>
</mgrwt>
</event>
<event>
 5    1  0.3401591E-002  0.1250052E+03  0.7818608E-02  0.1235061E+00
          4   -1    0    0  501    0  0.00000000000E+00  0.00000000000E+00  0.25079493962E+02  0.25111629126E+02  0.12700000000E+01 0. -1.
         -4   -1    0    0    0  501 -0.00000000000E+00 -0.00000000000E+00 -0.15563333627E+03  0.15563851792E+03  0.12700000000E+01 0. -1.
         25    2    1    2    0    0  0.00000000000E+00  0.00000000000E+00 -0.13055384231E+03  0.18075014704E+03  0.12500523954E+03 0.  0.
    9000005    1    3    3    0    0  0.43450368027E+02  0.40656184918E+02 -0.37662953107E+02  0.70429808252E+02  0.10000000000E+01 0.  0.
    9000005    1    3    3    0    0 -0.43450368027E+02 -0.40656184918E+02 -0.92890889202E+02  0.11032033879E+03  0.10000000000E+01 0.  0.
<mgrwt>
<rscale>  0 0.12500524E+03</rscale>
<asrwt>0</asrwt>
<pdfrwt beam="1">  1        4 0.38612543E-02 0.12500524E+03</pdfrwt>
<pdfrwt beam="2">  1       -4 0.23946460E-01 0.12500524E+03</pdfrwt>
<totfact> 0.93471168E+03</totfact>
</mgrwt>
</event>
<event>
 5    1  0.3401591E-002  0.1249981E+03  0.7818608E-02  0.1235072E+00
          4   -1    0    0  501    0  0.00000000000E+00  0.00000000000E+00  0.15745035109E+02  0.15796171390E+02  0.12700000000E+01 0. -1.
         -4   -1    0    0    0  501 -0.00000000000E+00 -0.00000000000E+00 -0.24763168385E+03  0.24763494047E+03  0.12700000000E+01 0. -1.
         25    2    1    2    0    0  0.00000000000E+00  0.00000000000E+00 -0.23188664874E+03  0.26343111186E+03  0.12499813133E+03 0.  0.
    9000005    1    3    3    0    0  0.26557702985E+02  0.10016031475E+01  0.32517579606E+01  0.26793445589E+02  0.10000000000E+01 0.  0.
    9000005    1    3    3    0    0 -0.26557702985E+02 -0.10016031475E+01 -0.23513840670E+03  0.23663766628E+03  0.10000000000E+01 0.  0.
<mgrwt>
<rscale>  0 0.12499813E+03</rscale>
<asrwt>0</asrwt>
<pdfrwt beam="1">  1        4 0.24264973E-02 0.12499813E+03</pdfrwt>
<pdfrwt beam="2">  1       -4 0.38101363E-01 0.12499813E+03</pdfrwt>
<totfact> 0.80430297E+03</totfact>
</mgrwt>
</event>
<event>
 5    1  0.3401591E-002  0.1250010E+03  0.7818608E-02  0.1235068E+00
         -4   -1    0    0    0  501 -0.00000000000E+00  0.00000000000E+00  0.12371850599E+04  0.12371857118E+04  0.12700000000E+01 0.  1.
          4   -1    0    0  501    0  0.00000000000E+00 -0.00000000000E+00 -0.30290325225E+01  0.32844996609E+01  0.12700000000E+01 0.  1.
         25    2    1    2    0    0  0.00000000000E+00  0.00000000000E+00  0.12341560274E+04  0.12404702114E+04  0.12500098187E+03 0.  0.
    9000005    1    3    3    0    0  0.32390647291E+00 -0.58185616340E+02  0.39086144411E+03  0.39517001323E+03  0.10000000000E+01 0.  0.
    9000005    1    3    3    0    0 -0.32390647291E+00  0.58185616340E+02  0.84329458331E+03  0.84530019822E+03  0.10000000000E+01 0.  0.
<mgrwt>
<rscale>  0 0.12500098E+03</rscale>
<asrwt>0</asrwt>
<pdfrwt beam="2">  1        4 0.48570667E-03 0.12500098E+03</pdfrwt>
<pdfrwt beam="1">  1       -4 0.19035578E+00 0.12500098E+03</pdfrwt>
<totfact> 0.23676839E+03</totfact>
</mgrwt>
</event>
<event>
 5    1  0.3401591E-002  0.1249947E+03  0.7818608E-02  0.1235078E+00
          4   -1    0    0  501    0  0.00000000000E+00  0.00000000000E+00  0.54538238408E+03  0.54538386276E+03  0.12700000000E+01 0.  1.
         -4   -1    0    0    0  501 -0.00000000000E+00 -0.00000000000E+00 -0.71040001180E+01  0.72166278604E+01  0.12700000000E+01 0.  1.
         25    2    1    2    0    0  0.00000000000E+00  0.00000000000E+00  0.53827838396E+03  0.55260049062E+03  0.12499473428E+03 0.  0.
    9000005    1    3    3    0    0  0.55743360706E+02  0.58626503952E+01  0.14700235000E+03  0.15732890338E+03  0.10000000000E+01 0.  0.
    9000005    1    3    3    0    0 -0.55743360706E+02 -0.58626503952E+01  0.39127603396E+03  0.39527158725E+03  0.10000000000E+01 0.  0.
<mgrwt>
<rscale>  0 0.12499473E+03</rscale>
<asrwt>0</asrwt>
<pdfrwt beam="1">  1        4 0.83913743E-01 0.12499473E+03</pdfrwt>
<pdfrwt beam="2">  1       -4 0.11017007E-02 0.12499473E+03</pdfrwt>
<totfact> 0.52009172E+03</totfact>
</mgrwt>
</event>
<event>
 5    1  0.3401591E-002  0.1250016E+03  0.7818608E-02  0.1235067E+00
          4   -1    0    0  501    0  0.00000000000E+00  0.00000000000E+00  0.12860842258E+03  0.12861469302E+03  0.12700000000E+01 0. -1.
         -4   -1    0    0    0  501 -0.00000000000E+00 -0.00000000000E+00 -0.30353695932E+02  0.30380252743E+02  0.12700000000E+01 0. -1.
         25    2    1    2    0    0  0.00000000000E+00  0.00000000000E+00  0.98254726653E+02  0.15899494576E+03  0.12500160586E+03 0.  0.
    9000005    1    3    3    0    0  0.28893774851E+01 -0.61583732911E+02  0.36128271246E+02  0.71464373255E+02  0.10000000000E+01 0.  0.
    9000005    1    3    3    0    0 -0.28893774851E+01  0.61583732911E+02  0.62126455407E+02  0.87530572504E+02  0.10000000000E+01 0.  0.
<mgrwt>
<rscale>  0 0.12500161E+03</rscale>
<asrwt>0</asrwt>
<pdfrwt beam="1">  1        4 0.19788437E-01 0.12500161E+03</pdfrwt>
<pdfrwt beam="2">  1       -4 0.46723245E-02 0.12500161E+03</pdfrwt>
<totfact> 0.97533380E+03</totfact>
</mgrwt>
</event>
<event>
 5    1  0.3401591E-002  0.1249992E+03  0.7818608E-02  0.1235071E+00
          4   -1    0    0  501    0  0.00000000000E+00  0.00000000000E+00  0.15153859712E+02  0.15206984059E+02  0.12700000000E+01 0.  1.
         -4   -1    0    0    0  501 -0.00000000000E+00 -0.00000000000E+00 -0.25726343693E+03  0.25726657164E+03  0.12700000000E+01 0.  1.
         25    2    1    2    0    0  0.00000000000E+00  0.00000000000E+00 -0.24210957722E+03  0.27247355570E+03  0.12499916469E+03 0.  0.
    9000005    1    3    3    0    0 -0.49887423189E+02 -0.16483917796E+02 -0.47303858617E+02  0.70704523041E+02  0.10000000000E+01 0.  0.
    9000005    1    3    3    0    0  0.49887423189E+02  0.16483917796E+02 -0.19480571860E+03  0.20176903266E+03  0.10000000000E+01 0.  0.
<mgrwt>
<rscale>  0 0.12499916E+03</rscale>
<asrwt>0</asrwt>
<pdfrwt beam="1">  1        4 0.23356908E-02 0.12499916E+03</pdfrwt>
<pdfrwt beam="2">  1       -4 0.39583315E-01 0.12499916E+03</pdfrwt>
<totfact> 0.79188231E+03</totfact>
</mgrwt>
</event>
<event>
 5    1  0.3401591E-002  0.1249980E+03  0.7818608E-02  0.1235072E+00
         -4   -1    0    0    0  501 -0.00000000000E+00  0.00000000000E+00  0.18823590182E+02  0.18866384056E+02  0.12700000000E+01 0.  1.
          4   -1    0    0  501    0  0.00000000000E+00 -0.00000000000E+00 -0.20723180156E+03  0.20723569306E+03  0.12700000000E+01 0.  1.
         25    2    1    2    0    0  0.00000000000E+00  0.00000000000E+00 -0.18840821138E+03  0.22610207712E+03  0.12499798063E+03 0.  0.
    9000005    1    3    3    0    0  0.53531384296E+02 -0.29978210498E+02 -0.72738845204E+02  0.95164288528E+02  0.10000000000E+01 0.  0.
    9000005    1    3    3    0    0 -0.53531384296E+02  0.29978210498E+02 -0.11566936618E+03  0.13093778859E+03  0.10000000000E+01 0.  0.
<mgrwt>
<rscale>  0 0.12499798E+03</rscale>
<asrwt>0</asrwt>
<pdfrwt beam="2">  1        4 0.31885405E-01 0.12499798E+03</pdfrwt>
<pdfrwt beam="1">  1       -4 0.28995283E-02 0.12499798E+03</pdfrwt>
<totfact> 0.85915616E+03</totfact>
</mgrwt>
</event>
<event>
 5    1  0.3401591E-002  0.1249973E+03  0.7818608E-02  0.1235073E+00
         -4   -1    0    0    0  501 -0.00000000000E+00  0.00000000000E+00  0.95958611374E+01  0.96795377456E+01  0.12700000000E+01 0.  1.
          4   -1    0    0  501    0  0.00000000000E+00 -0.00000000000E+00 -0.40520747359E+03  0.40520946380E+03  0.12700000000E+01 0.  1.
         25    2    1    2    0    0  0.00000000000E+00  0.00000000000E+00 -0.39561161245E+03  0.41488900154E+03  0.12499734276E+03 0.  0.
    9000005    1    3    3    0    0  0.19161786437E+02 -0.57958689333E+02 -0.24217623802E+03  0.24975330626E+03  0.10000000000E+01 0.  0.
    9000005    1    3    3    0    0 -0.19161786437E+02  0.57958689333E+02 -0.15343537443E+03  0.16513569528E+03  0.10000000000E+01 0.  0.
<mgrwt>
<rscale>  0 0.12499734E+03</rscale>
<asrwt>0</asrwt>
<pdfrwt beam="2">  1        4 0.62346188E-01 0.12499734E+03</pdfrwt>
<pdfrwt beam="1">  1       -4 0.14828764E-02 0.12499734E+03</pdfrwt>
<totfact> 0.63133720E+03</totfact>
</mgrwt>
</event>
<event>
 5    1  0.3401591E-002  0.1249826E+03  0.7818608E-02  0.1235096E+00
         -4   -1    0    0    0  501 -0.00000000000E+00  0.00000000000E+00  0.44688019599E+02  0.44706062181E+02  0.12700000000E+01 0.  1.
          4   -1    0    0  501    0  0.00000000000E+00 -0.00000000000E+00 -0.87346992708E+02  0.87356224937E+02  0.12700000000E+01 0.  1.
         25    2    1    2    0    0  0.00000000000E+00  0.00000000000E+00 -0.42658973109E+02  0.13206228712E+03  0.12498263756E+03 0.  0.
    9000005    1    3    3    0    0 -0.32637744272E+02 -0.19052179429E+02 -0.73907077164E+02  0.83014841728E+02  0.10000000000E+01 0.  0.
    9000005    1    3    3    0    0  0.32637744272E+02  0.19052179429E+02  0.31248104055E+02  0.49047445389E+02  0.10000000000E+01 0.  0.
<mgrwt>
<rscale>  0 0.12498264E+03</rscale>
<asrwt>0</asrwt>
<pdfrwt beam="2">  1        4 0.13440097E-01 0.12498264E+03</pdfrwt>
<pdfrwt beam="1">  1       -4 0.68771780E-02 0.12498264E+03</pdfrwt>
<totfact> 0.10304405E+04</totfact>
</mgrwt>
</event>
<event>
 5    1  0.3401591E-002  0.1250011E+03  0.7818608E-02  0.1235068E+00
          4   -1    0    0  501    0  0.00000000000E+00  0.00000000000E+00  0.90178473015E+03  0.90178562443E+03  0.12700000000E+01 0. -1.
         -4   -1    0    0    0  501 -0.00000000000E+00 -0.00000000000E+00 -0.42377640985E+01  0.44239738420E+01  0.12700000000E+01 0. -1.
         25    2    1    2    0    0  0.00000000000E+00  0.00000000000E+00  0.89754696605E+03  0.90620959827E+03  0.12500111893E+03 0.  0.
    9000005    1    3    3    0    0  0.44328008017E+02  0.43876225340E+02  0.47706043278E+03  0.48112134848E+03  0.10000000000E+01 0.  0.
    9000005    1    3    3    0    0 -0.44328008017E+02 -0.43876225340E+02  0.42048653327E+03  0.42508824978E+03  0.10000000000E+01 0.  0.
<mgrwt>
<rscale>  0 0.12500112E+03</rscale>
<asrwt>0</asrwt>
<pdfrwt beam="1">  1        4 0.13875039E+00 0.12500112E+03</pdfrwt>
<pdfrwt beam="2">  1       -4 0.66635687E-03 0.12500112E+03</pdfrwt>
<totfact> 0.33922457E+03</totfact>
</mgrwt>
</event>
<event>
 5    1  0.3401591E-002  0.1250009E+03  0.7818608E-02  0.1235068E+00
         -4   -1    0    0    0  501 -0.00000000000E+00  0.00000000000E+00  0.15799479470E+03  0.15799989890E+03  0.12700000000E+01 0. -1.
          4   -1    0    0  501    0  0.00000000000E+00 -0.00000000000E+00 -0.24702467214E+02  0.24735092207E+02  0.12700000000E+01 0. -1.
         25    2    1    2    0    0  0.00000000000E+00  0.00000000000E+00  0.13329232749E+03  0.18273499111E+03  0.12500092963E+03 0.  0.
    9000005    1    3    3    0    0 -0.49280908534E+02 -0.20713221575E+02  0.11396338098E+03  0.12588207854E+03  0.10000000000E+01 0.  0.
    9000005    1    3    3    0    0  0.49280908534E+02  0.20713221575E+02  0.19328946508E+02  0.56852912565E+02  0.10000000000E+01 0.  0.
<mgrwt>
<rscale>  0 0.12500093E+03</rscale>
<asrwt>0</asrwt>
<pdfrwt beam="2">  1        4 0.38032818E-02 0.12500093E+03</pdfrwt>
<pdfrwt beam="1">  1       -4 0.24309794E-01 0.12500093E+03</pdfrwt>
<totfact> 0.93125059E+03</totfact>
</mgrwt>
</event>
<event>
 5    1  0.3401591E-002  0.1249993E+03  0.7818608E-02  0.1235070E+00
          4   -1    0    0  501    0  0.00000000000E+00  0.00000000000E+00  0.20470464535E+03  0.20470858489E+03  0.12700000000E+01 0. -1.
         -4   -1    0    0    0  501 -0.00000000000E+00 -0.00000000000E+00 -0.19056898148E+02  0.19099169275E+02  0.12700000000E+01 0. -1.
         25    2    1    2    0    0  0.00000000000E+00  0.00000000000E+00  0.18564774721E+03  0.22380775417E+03  0.12499929913E+03 0.  0.
    9000005    1    3    3    0    0  0.66407786960E+01  0.58008553856E+02  0.13270415956E+03  0.14498443443E+03  0.10000000000E+01 0.  0.
    9000005    1    3    3    0    0 -0.66407786960E+01 -0.58008553856E+02  0.52943587647E+02  0.78823319741E+02  0.10000000000E+01 0.  0.
<mgrwt>
<rscale>  0 0.12499930E+03</rscale>
<asrwt>0</asrwt>
<pdfrwt beam="1">  1        4 0.31496578E-01 0.12499930E+03</pdfrwt>
<pdfrwt beam="2">  1       -4 0.29353850E-02 0.12499930E+03</pdfrwt>
<totfact> 0.86270734E+03</totfact>
</mgrwt>
</event>
<event>
 5    1  0.3401591E-002  0.1249963E+03  0.7818608E-02  0.1235075E+00
         -4   -1    0    0    0  501 -0.00000000000E+00  0.00000000000E+00  0.69838181893E+02  0.69849728347E+02  0.12700000000E+01 0. -1.
          4   -1    0    0  501    0  0.00000000000E+00 -0.00000000000E+00 -0.55906211144E+02  0.55920634335E+02  0.12700000000E+01 0. -1.
         25    2    1    2    0    0  0.00000000000E+00  0.00000000000E+00  0.13931970749E+02  0.12577036268E+03  0.12499633723E+03 0.  0.
    9000005    1    3    3    0    0  0.95776766294E+01  0.30402277500E+02  0.61048154151E+02  0.68876029880E+02  0.10000000000E+01 0.  0.
    9000005    1    3    3    0    0 -0.95776766294E+01 -0.30402277500E+02 -0.47116183401E+02  0.56894332803E+02  0.10000000000E+01 0.  0.
<mgrwt>
<rscale>  0 0.12499634E+03</rscale>
<asrwt>0</asrwt>
<pdfrwt beam="2">  1        4 0.86029532E-02 0.12499634E+03</pdfrwt>
<pdfrwt beam="1">  1       -4 0.10746333E-01 0.12499634E+03</pdfrwt>
<totfact> 0.10436859E+04</totfact>
</mgrwt>
</event>
<event>
 5    1  0.3401591E-002  0.1249999E+03  0.7818608E-02  0.1235069E+00
         -4   -1    0    0    0  501 -0.00000000000E+00  0.00000000000E+00  0.19239496384E+03  0.19239915543E+03  0.12700000000E+01 0.  1.
          4   -1    0    0  501    0  0.00000000000E+00 -0.00000000000E+00 -0.20278963529E+02  0.20318692424E+02  0.12700000000E+01 0.  1.
         25    2    1    2    0    0  0.00000000000E+00  0.00000000000E+00  0.17211600031E+03  0.21271784786E+03  0.12499986093E+03 0.  0.
    9000005    1    3    3    0    0 -0.47088806163E+02  0.34185569694E+02  0.12483509965E+03  0.13773456700E+03  0.10000000000E+01 0.  0.
    9000005    1    3    3    0    0  0.47088806163E+02 -0.34185569694E+02  0.47280900663E+02  0.74983280861E+02  0.10000000000E+01 0.  0.
<mgrwt>
<rscale>  0 0.12499986E+03</rscale>
<asrwt>0</asrwt>
<pdfrwt beam="2">  1        4 0.31232190E-02 0.12499986E+03</pdfrwt>
<pdfrwt beam="1">  1       -4 0.29602604E-01 0.12499986E+03</pdfrwt>
<totfact> 0.88034208E+03</totfact>
</mgrwt>
</event>
<event>
 4    1  0.3401591E-002  0.1244885E+03  0.7818608E-02  0.1235871E+00
         -4   -1    0    0    0  501 -0.00000000000E+00  0.00000000000E+00  0.16265105366E+03  0.16265601174E+03  0.12700000000E+01 0.  1.
          4   -1    0    0  501    0  0.00000000000E+00 -0.00000000000E+00 -0.23797744475E+02  0.23831608047E+02  0.12700000000E+01 0.  1.
    9000005    1    1    2    0    0 -0.50060556737E+02  0.12981560753E+02  0.17560006231E+02  0.54625397749E+02  0.10000000000E+01 0.  0.
    9000005    1    1    2    0    0  0.50060556737E+02 -0.12981560753E+02  0.12129330295E+03  0.13186222204E+03  0.10000000000E+01 0.  0.
<mgrwt>
<rscale>  0 0.12448852E+03</rscale>
<asrwt>0</asrwt>
<pdfrwt beam="2">  1        4 0.36641777E-02 0.12448852E+03</pdfrwt>
<pdfrwt beam="1">  1       -4 0.25026226E-01 0.12448852E+03</pdfrwt>
<totfact> 0.93529821E+03</totfact>
</mgrwt>
</event>
<event>
 5    1  0.3401591E-002  0.1249848E+03  0.7818608E-02  0.1235093E+00
          4   -1    0    0  501    0  0.00000000000E+00  0.00000000000E+00  0.71449123483E+02  0.71460409644E+02  0.12700000000E+01 0.  1.
         -4   -1    0    0    0  501 -0.00000000000E+00 -0.00000000000E+00 -0.54635459698E+02  0.54650218265E+02  0.12700000000E+01 0.  1.
         25    2    1    2    0    0  0.00000000000E+00  0.00000000000E+00  0.16813663785E+02  0.12611062791E+03  0.12498476380E+03 0.  0.
    9000005    1    3    3    0    0  0.13711520442E+02 -0.53864267553E+02 -0.20397345854E+02  0.59215005107E+02  0.10000000000E+01 0.  0.
    9000005    1    3    3    0    0 -0.13711520442E+02  0.53864267553E+02  0.37211009638E+02  0.66895622803E+02  0.10000000000E+01 0.  0.
<mgrwt>
<rscale>  0 0.12498476E+03</rscale>
<asrwt>0</asrwt>
<pdfrwt beam="1">  1        4 0.10994176E-01 0.12498476E+03</pdfrwt>
<pdfrwt beam="2">  1       -4 0.84074588E-02 0.12498476E+03</pdfrwt>
<totfact> 0.10432121E+04</totfact>
</mgrwt>
</event>
<event>
 5    1  0.3401591E-002  0.1250073E+03  0.7818608E-02  0.1235058E+00
         -4   -1    0    0    0  501 -0.00000000000E+00  0.00000000000E+00  0.18990876528E+03  0.18991301175E+03  0.12700000000E+01 0.  1.
          4   -1    0    0  501    0  0.00000000000E+00 -0.00000000000E+00 -0.20547397701E+02  0.20586608567E+02  0.12700000000E+01 0.  1.
         25    2    1    2    0    0  0.00000000000E+00  0.00000000000E+00  0.16936136758E+03  0.21049962031E+03  0.12500726908E+03 0.  0.
    9000005    1    3    3    0    0  0.40092448219E+02  0.12729498253E+02  0.68513911592E+01  0.42630811519E+02  0.10000000000E+01 0.  0.
    9000005    1    3    3    0    0 -0.40092448219E+02 -0.12729498253E+02  0.16250997642E+03  0.16786880880E+03  0.10000000000E+01 0.  0.
<mgrwt>
<rscale>  0 0.12500727E+03</rscale>
<asrwt>0</asrwt>
<pdfrwt beam="2">  1        4 0.31644810E-02 0.12500727E+03</pdfrwt>
<pdfrwt beam="1">  1       -4 0.29220075E-01 0.12500727E+03</pdfrwt>
<totfact> 0.88379988E+03</totfact>
</mgrwt>
</event>
<event>
 5    1  0.3401591E-002  0.1249839E+03  0.7818608E-02  0.1235095E+00
         -4   -1    0    0    0  501 -0.00000000000E+00  0.00000000000E+00  0.42927572635E+02  0.42946354820E+02  0.12700000000E+01 0. -1.
          4   -1    0    0  501    0  0.00000000000E+00 -0.00000000000E+00 -0.90929672761E+02  0.90938541271E+02  0.12700000000E+01 0. -1.
         25    2    1    2    0    0  0.00000000000E+00  0.00000000000E+00 -0.48002100127E+02  0.13388489609E+03  0.12498385410E+03 0.  0.
    9000005    1    3    3    0    0 -0.29207820089E+02  0.39261548353E+02 -0.65622710957E+02  0.81865170414E+02  0.10000000000E+01 0.  0.
    9000005    1    3    3    0    0  0.29207820089E+02 -0.39261548353E+02  0.17620610831E+02  0.52019725677E+02  0.10000000000E+01 0.  0.
<mgrwt>
<rscale>  0 0.12498385E+03</rscale>
<asrwt>0</asrwt>
<pdfrwt beam="2">  1        4 0.13991307E-01 0.12498385E+03</pdfrwt>
<pdfrwt beam="1">  1       -4 0.66063690E-02 0.12498385E+03</pdfrwt>
<totfact> 0.10265366E+04</totfact>
</mgrwt>
</event>
<event>
 5    1  0.3401591E-002  0.1250090E+03  0.7818608E-02  0.1235055E+00
          4   -1    0    0  501    0  0.00000000000E+00  0.00000000000E+00  0.21449456739E+02  0.21487021533E+02  0.12700000000E+01 0. -1.
         -4   -1    0    0    0  501 -0.00000000000E+00 -0.00000000000E+00 -0.18194128368E+03  0.18194571610E+03  0.12700000000E+01 0. -1.
         25    2    1    2    0    0  0.00000000000E+00  0.00000000000E+00 -0.16049182694E+03  0.20343273763E+03  0.12500900858E+03 0.  0.
    9000005    1    3    3    0    0  0.54978430675E+02 -0.14888830191E+02 -0.12210088660E+03  0.13473652664E+03  0.10000000000E+01 0.  0.
    9000005    1    3    3    0    0 -0.54978430675E+02  0.14888830191E+02 -0.38390940344E+02  0.68696210991E+02  0.10000000000E+01 0.  0.
<mgrwt>
<rscale>  0 0.12500901E+03</rscale>
<asrwt>0</asrwt>
<pdfrwt beam="1">  1        4 0.33031471E-02 0.12500901E+03</pdfrwt>
<pdfrwt beam="2">  1       -4 0.27994196E-01 0.12500901E+03</pdfrwt>
<totfact> 0.89541714E+03</totfact>
</mgrwt>
</event>
<event>
 5    1  0.3401591E-002  0.1249998E+03  0.7818608E-02  0.1235070E+00
         -4   -1    0    0    0  501 -0.00000000000E+00  0.00000000000E+00  0.90622328699E+02  0.90631227283E+02  0.12700000000E+01 0.  1.
          4   -1    0    0  501    0  0.00000000000E+00 -0.00000000000E+00 -0.43084185101E+02  0.43102899042E+02  0.12700000000E+01 0.  1.
         25    2    1    2    0    0  0.00000000000E+00  0.00000000000E+00  0.47538143598E+02  0.13373412632E+03  0.12499976579E+03 0.  0.
    9000005    1    3    3    0    0 -0.46708069284E+02  0.21057396542E+02  0.62048740499E+02  0.80474243600E+02  0.10000000000E+01 0.  0.
    9000005    1    3    3    0    0  0.46708069284E+02 -0.21057396542E+02 -0.14510596902E+02  0.53259882725E+02  0.10000000000E+01 0.  0.
<mgrwt>
<rscale>  0 0.12499977E+03</rscale>
<asrwt>0</asrwt>
<pdfrwt beam="2">  1        4 0.66304603E-02 0.12499977E+03</pdfrwt>
<pdfrwt beam="1">  1       -4 0.13944021E-01 0.12499977E+03</pdfrwt>
<totfact> 0.10264876E+04</totfact>
</mgrwt>
</event>
<event>
 5    1  0.3401591E-002  0.1249952E+03  0.7818608E-02  0.1235077E+00
          4   -1    0    0  501    0  0.00000000000E+00  0.00000000000E+00  0.18162918871E+03  0.18163362875E+03  0.12700000000E+01 0.  1.
         -4   -1    0    0    0  501 -0.00000000000E+00 -0.00000000000E+00 -0.21481634745E+02  0.21519143369E+02  0.12700000000E+01 0.  1.
         25    2    1    2    0    0  0.00000000000E+00  0.00000000000E+00  0.16014755397E+03  0.20315277212E+03  0.12499523902E+03 0.  0.
    9000005    1    3    3    0    0  0.18916122315E+02  0.31468338829E+02 -0.21096316124E+01  0.36790305484E+02  0.10000000000E+01 0.  0.
    9000005    1    3    3    0    0 -0.18916122315E+02 -0.31468338829E+02  0.16225718558E+03  0.16636246663E+03  0.10000000000E+01 0.  0.
<mgrwt>
<rscale>  0 0.12499524E+03</rscale>
<asrwt>0</asrwt>
<pdfrwt beam="1">  1        4 0.27946179E-01 0.12499524E+03</pdfrwt>
<pdfrwt beam="2">  1       -4 0.33080937E-02 0.12499524E+03</pdfrwt>
<totfact> 0.89616020E+03</totfact>
</mgrwt>
</event>
<event>
 5    1  0.3401591E-002  0.1249990E+03  0.7818608E-02  0.1235071E+00
         -4   -1    0    0    0  501 -0.00000000000E+00  0.00000000000E+00  0.71611852104E+02  0.71623112623E+02  0.12700000000E+01 0.  1.
          4   -1    0    0  501    0  0.00000000000E+00 -0.00000000000E+00 -0.54523710543E+02  0.54538499351E+02  0.12700000000E+01 0.  1.
         25    2    1    2    0    0  0.00000000000E+00  0.00000000000E+00  0.17088141561E+02  0.12616161197E+03  0.12499899101E+03 0.  0.
    9000005    1    3    3    0    0 -0.36688083872E+02 -0.49084253982E+02  0.20901619522E+02  0.64754592006E+02  0.10000000000E+01 0.  0.
    9000005    1    3    3    0    0  0.36688083872E+02  0.49084253982E+02 -0.38134779606E+01  0.61407019968E+02  0.10000000000E+01 0.  0.
<mgrwt>
<rscale>  0 0.12499899E+03</rscale>
<asrwt>0</asrwt>
<pdfrwt beam="2">  1        4 0.83902670E-02 0.12499899E+03</pdfrwt>
<pdfrwt beam="1">  1       -4 0.11019212E-01 0.12499899E+03</pdfrwt>
<totfact> 0.10427656E+04</totfact>
</mgrwt>
</event>
<event>
 5    1  0.3401591E-002  0.1250073E+03  0.7818608E-02  0.1235058E+00
         -4   -1    0    0    0  501 -0.00000000000E+00  0.00000000000E+00  0.13069166487E+02  0.13130727804E+02  0.12700000000E+01 0. -1.
          4   -1    0    0  501    0  0.00000000000E+00 -0.00000000000E+00 -0.29816000206E+03  0.29816270680E+03  0.12700000000E+01 0. -1.
         25    2    1    2    0    0  0.00000000000E+00  0.00000000000E+00 -0.28509083557E+03  0.31129343461E+03  0.12500727140E+03 0.  0.
    9000005    1    3    3    0    0  0.59039717502E+02 -0.14987310811E+02 -0.10773627322E+03  0.12376757368E+03  0.10000000000E+01 0.  0.
    9000005    1    3    3    0    0 -0.59039717502E+02  0.14987310811E+02 -0.17735456236E+03  0.18752586093E+03  0.10000000000E+01 0.  0.
<mgrwt>
<rscale>  0 0.12500727E+03</rscale>
<asrwt>0</asrwt>
<pdfrwt beam="2">  1        4 0.45875708E-01 0.12500727E+03</pdfrwt>
<pdfrwt beam="1">  1       -4 0.20155848E-02 0.12500727E+03</pdfrwt>
<totfact> 0.74191736E+03</totfact>
</mgrwt>
</event>
<event>
 5    1  0.3401591E-002  0.1249964E+03  0.7818608E-02  0.1235075E+00
         -4   -1    0    0    0  501 -0.00000000000E+00  0.00000000000E+00  0.48279381935E+02  0.48296082865E+02  0.12700000000E+01 0. -1.
          4   -1    0    0  501    0  0.00000000000E+00 -0.00000000000E+00 -0.80868924158E+02  0.80878895853E+02  0.12700000000E+01 0. -1.
         25    2    1    2    0    0  0.00000000000E+00  0.00000000000E+00 -0.32589542222E+02  0.12917497872E+03  0.12499638741E+03 0.  0.
    9000005    1    3    3    0    0 -0.58489822042E+02 -0.45920206382E+01 -0.38528604073E+02  0.70196860812E+02  0.10000000000E+01 0.  0.
    9000005    1    3    3    0    0  0.58489822042E+02  0.45920206382E+01  0.59390618510E+01  0.58978117906E+02  0.10000000000E+01 0.  0.
<mgrwt>
<rscale>  0 0.12499639E+03</rscale>
<asrwt>0</asrwt>
<pdfrwt beam="2">  1        4 0.12443425E-01 0.12499639E+03</pdfrwt>
<pdfrwt beam="1">  1       -4 0.74296490E-02 0.12499639E+03</pdfrwt>
<totfact> 0.10363033E+04</totfact>
</mgrwt>
</event>
<event>
 5    1  0.3401591E-002  0.1249994E+03  0.7818608E-02  0.1235070E+00
          4   -1    0    0  501    0  0.00000000000E+00  0.00000000000E+00  0.20402606871E+02  0.20442095468E+02  0.12700000000E+01 0.  1.
         -4   -1    0    0    0  501 -0.00000000000E+00 -0.00000000000E+00 -0.19122978657E+03  0.19123400370E+03  0.12700000000E+01 0.  1.
         25    2    1    2    0    0  0.00000000000E+00  0.00000000000E+00 -0.17082717970E+03  0.21167609917E+03  0.12499938254E+03 0.  0.
    9000005    1    3    3    0    0  0.27645391828E+02 -0.41303391781E+02 -0.14956200091E+03  0.15760720154E+03  0.10000000000E+01 0.  0.
    9000005    1    3    3    0    0 -0.27645391828E+02  0.41303391781E+02 -0.21265178794E+02  0.54068897631E+02  0.10000000000E+01 0.  0.
<mgrwt>
<rscale>  0 0.12499938E+03</rscale>
<asrwt>0</asrwt>
<pdfrwt beam="1">  1        4 0.31422247E-02 0.12499938E+03</pdfrwt>
<pdfrwt beam="2">  1       -4 0.29423328E-01 0.12499938E+03</pdfrwt>
<totfact> 0.88204099E+03</totfact>
</mgrwt>
</event>
<event>
 5    1  0.3401591E-002  0.1250062E+03  0.7818608E-02  0.1235060E+00
          4   -1    0    0  501    0  0.00000000000E+00  0.00000000000E+00  0.11087525941E+04  0.11087533214E+04  0.12700000000E+01 0. -1.
         -4   -1    0    0    0  501 -0.00000000000E+00 -0.00000000000E+00 -0.34082611386E+01  0.36371890230E+01  0.12700000000E+01 0. -1.
         25    2    1    2    0    0  0.00000000000E+00  0.00000000000E+00  0.11053443329E+04  0.11123905104E+04  0.12500621336E+03 0.  0.
    9000005    1    3    3    0    0  0.47900545640E+02  0.31149900991E+02  0.77794414327E+03  0.78004029938E+03  0.10000000000E+01 0.  0.
    9000005    1    3    3    0    0 -0.47900545640E+02 -0.31149900991E+02  0.32740018967E+03  0.33235021107E+03  0.10000000000E+01 0.  0.
<mgrwt>
<rscale>  0 0.12500621E+03</rscale>
<asrwt>0</asrwt>
<pdfrwt beam="1">  1        4 0.17059490E+00 0.12500621E+03</pdfrwt>
<pdfrwt beam="2">  1       -4 0.54201393E-03 0.12500621E+03</pdfrwt>
<totfact> 0.27119903E+03</totfact>
</mgrwt>
</event>
<event>
 5    1  0.3401591E-002  0.1250018E+03  0.7818608E-02  0.1235066E+00
         -4   -1    0    0    0  501 -0.00000000000E+00  0.00000000000E+00  0.32603619798E+03  0.32603867147E+03  0.12700000000E+01 0.  1.
          4   -1    0    0  501    0  0.00000000000E+00 -0.00000000000E+00 -0.11945200389E+02  0.12012523146E+02  0.12700000000E+01 0.  1.
         25    2    1    2    0    0  0.00000000000E+00  0.00000000000E+00  0.31409099759E+03  0.33805119462E+03  0.12500182164E+03 0.  0.
    9000005    1    3    3    0    0 -0.50557440053E+02  0.22267747100E+02  0.78040087134E+02  0.95619885512E+02  0.10000000000E+01 0.  0.
    9000005    1    3    3    0    0  0.50557440053E+02 -0.22267747100E+02  0.23605091046E+03  0.24243130910E+03  0.10000000000E+01 0.  0.
<mgrwt>
<rscale>  0 0.12500182E+03</rscale>
<asrwt>0</asrwt>
<pdfrwt beam="2">  1        4 0.18430920E-02 0.12500182E+03</pdfrwt>
<pdfrwt beam="1">  1       -4 0.50164787E-01 0.12500182E+03</pdfrwt>
<totfact> 0.71056518E+03</totfact>
</mgrwt>
</event>
<event>
 5    1  0.3401591E-002  0.1249999E+03  0.7818608E-02  0.1235069E+00
          4   -1    0    0  501    0  0.00000000000E+00  0.00000000000E+00  0.27229936742E+02  0.27259536955E+02  0.12700000000E+01 0.  1.
         -4   -1    0    0    0  501 -0.00000000000E+00 -0.00000000000E+00 -0.14334362513E+03  0.14334925101E+03  0.12700000000E+01 0.  1.
         25    2    1    2    0    0  0.00000000000E+00  0.00000000000E+00 -0.11611368839E+03  0.17060878797E+03  0.12499987960E+03 0.  0.
    9000005    1    3    3    0    0  0.40971363615E+02 -0.37278861341E+02 -0.18572725684E+02  0.58432116842E+02  0.10000000000E+01 0.  0.
    9000005    1    3    3    0    0 -0.40971363615E+02  0.37278861341E+02 -0.97540962706E+02  0.11217667113E+03  0.10000000000E+01 0.  0.
<mgrwt>
<rscale>  0 0.12499988E+03</rscale>
<asrwt>0</asrwt>
<pdfrwt beam="1">  1        4 0.41919308E-02 0.12499988E+03</pdfrwt>
<pdfrwt beam="2">  1       -4 0.22055575E-01 0.12499988E+03</pdfrwt>
<totfact> 0.95335546E+03</totfact>
</mgrwt>
</event>
<event>
 5    1  0.3401591E-002  0.1250002E+03  0.7818608E-02  0.1235069E+00
          4   -1    0    0  501    0  0.00000000000E+00  0.00000000000E+00  0.14643260141E+02  0.14698230082E+02  0.12700000000E+01 0. -1.
         -4   -1    0    0    0  501 -0.00000000000E+00 -0.00000000000E+00 -0.26620534694E+03  0.26620837635E+03  0.12700000000E+01 0. -1.
         25    2    1    2    0    0  0.00000000000E+00  0.00000000000E+00 -0.25156208680E+03  0.28090660643E+03  0.12500015209E+03 0.  0.
    9000005    1    3    3    0    0  0.16812721656E+02 -0.52169179563E+02 -0.58327271531E+02  0.80045996215E+02  0.10000000000E+01 0.  0.
    9000005    1    3    3    0    0 -0.16812721656E+02  0.52169179563E+02 -0.19323481527E+03  0.20086061022E+03  0.10000000000E+01 0.  0.
<mgrwt>
<rscale>  0 0.12500015E+03</rscale>
<asrwt>0</asrwt>
<pdfrwt beam="1">  1        4 0.22572709E-02 0.12500015E+03</pdfrwt>
<pdfrwt beam="2">  1       -4 0.40959127E-01 0.12500015E+03</pdfrwt>
<totfact> 0.78057787E+03</totfact>
</mgrwt>
</event>
<event>
 4    1  0.3401591E-002  0.1252600E+03  0.7818608E-02  0.1234663E+00
         -4   -1    0    0    0  501 -0.00000000000E+00  0.00000000000E+00  0.91371488056E+03  0.91371576316E+03  0.12700000000E+01 0. -1.
          4   -1    0    0  501    0  0.00000000000E+00 -0.00000000000E+00 -0.41981048930E+01  0.43859987110E+01  0.12700000000E+01 0. -1.
    9000005    1    1    2    0    0  0.21179705251E+02  0.43320247864E+02  0.74760147864E+03  0.74915565449E+03  0.10000000000E+01 0.  0.
    9000005    1    1    2    0    0 -0.21179705251E+02 -0.43320247864E+02  0.16191529702E+03  0.16894610738E+03  0.10000000000E+01 0.  0.
<mgrwt>
<rscale>  0 0.12526005E+03</rscale>
<asrwt>0</asrwt>
<pdfrwt beam="2">  1        4 0.66038355E-03 0.12526005E+03</pdfrwt>
<pdfrwt beam="1">  1       -4 0.14058604E+00 0.12526005E+03</pdfrwt>
<totfact> 0.33286930E+03</totfact>
</mgrwt>
</event>
<event>
 5    1  0.3401591E-002  0.1250038E+03  0.7818608E-02  0.1235063E+00
         -4   -1    0    0    0  501 -0.00000000000E+00  0.00000000000E+00  0.85474134883E+01  0.86412485984E+01  0.12700000000E+01 0. -1.
          4   -1    0    0  501    0  0.00000000000E+00 -0.00000000000E+00 -0.45444740108E+03  0.45444917565E+03  0.12700000000E+01 0. -1.
         25    2    1    2    0    0  0.00000000000E+00  0.00000000000E+00 -0.44589998759E+03  0.46309042424E+03  0.12500376833E+03 0.  0.
    9000005    1    3    3    0    0  0.80565356322E+01 -0.27348178074E+02 -0.42896954035E+03  0.42991708172E+03  0.10000000000E+01 0.  0.
    9000005    1    3    3    0    0 -0.80565356322E+01  0.27348178074E+02 -0.16930447241E+02  0.33173342523E+02  0.10000000000E+01 0.  0.
<mgrwt>
<rscale>  0 0.12500377E+03</rscale>
<asrwt>0</asrwt>
<pdfrwt beam="2">  1        4 0.69922321E-01 0.12500377E+03</pdfrwt>
<pdfrwt beam="1">  1       -4 0.13223416E-02 0.12500377E+03</pdfrwt>
<totfact> 0.58841439E+03</totfact>
</mgrwt>
</event>
<event>
 5    1  0.3401591E-002  0.1250099E+03  0.7818608E-02  0.1235054E+00
          4   -1    0    0  501    0  0.00000000000E+00  0.00000000000E+00  0.45271891369E+02  0.45289701347E+02  0.12700000000E+01 0.  1.
         -4   -1    0    0    0  501 -0.00000000000E+00 -0.00000000000E+00 -0.86258465788E+02  0.86267814509E+02  0.12700000000E+01 0.  1.
         25    2    1    2    0    0  0.00000000000E+00  0.00000000000E+00 -0.40986574419E+02  0.13155751586E+03  0.12500992239E+03 0.  0.
    9000005    1    3    3    0    0  0.32741244572E+02 -0.39181885731E+02  0.17431142837E+02  0.53963450651E+02  0.10000000000E+01 0.  0.
    9000005    1    3    3    0    0 -0.32741244572E+02  0.39181885731E+02 -0.58417717257E+02  0.77594065205E+02  0.10000000000E+01 0.  0.
<mgrwt>
<rscale>  0 0.12500992E+03</rscale>
<asrwt>0</asrwt>
<pdfrwt beam="1">  1        4 0.69669955E-02 0.12500992E+03</pdfrwt>
<pdfrwt beam="2">  1       -4 0.13272622E-01 0.12500992E+03</pdfrwt>
<totfact> 0.10308844E+04</totfact>
</mgrwt>
</event>
<event>
 5    1  0.3401591E-002  0.1249998E+03  0.7818608E-02  0.1235070E+00
          4   -1    0    0  501    0  0.00000000000E+00  0.00000000000E+00  0.74381524550E+02  0.74392365834E+02  0.12700000000E+01 0. -1.
         -4   -1    0    0    0  501 -0.00000000000E+00 -0.00000000000E+00 -0.52493906934E+02  0.52509267422E+02  0.12700000000E+01 0. -1.
         25    2    1    2    0    0  0.00000000000E+00  0.00000000000E+00  0.21887617616E+02  0.12690163326E+03  0.12499982687E+03 0.  0.
    9000005    1    3    3    0    0 -0.32767658340E+02  0.52949638294E+02  0.55856734948E+01  0.62526661329E+02  0.10000000000E+01 0.  0.
    9000005    1    3    3    0    0  0.32767658340E+02 -0.52949638294E+02  0.16301944121E+02  0.64374971927E+02  0.10000000000E+01 0.  0.
<mgrwt>
<rscale>  0 0.12499983E+03</rscale>
<asrwt>0</asrwt>
<pdfrwt beam="1">  1        4 0.11445327E-01 0.12499983E+03</pdfrwt>
<pdfrwt beam="2">  1       -4 0.80780012E-02 0.12499983E+03</pdfrwt>
<totfact> 0.10411324E+04</totfact>
</mgrwt>
</event>
<event>
 5    1  0.3401591E-002  0.1250013E+03  0.7818608E-02  0.1235067E+00
          4   -1    0    0  501    0  0.00000000000E+00  0.00000000000E+00  0.21193687679E+03  0.21194068190E+03  0.12700000000E+01 0.  1.
         -4   -1    0    0    0  501 -0.00000000000E+00 -0.00000000000E+00 -0.18405730075E+02  0.18449493206E+02  0.12700000000E+01 0.  1.
         25    2    1    2    0    0  0.00000000000E+00  0.00000000000E+00  0.19353114671E+03  0.23039017510E+03  0.12500131214E+03 0.  0.
    9000005    1    3    3    0    0 -0.42922249613E+02  0.32786042368E+01  0.18026162081E+03  0.18533299948E+03  0.10000000000E+01 0.  0.
    9000005    1    3    3    0    0  0.42922249613E+02 -0.32786042368E+01  0.13269525901E+02  0.45057175624E+02  0.10000000000E+01 0.  0.
<mgrwt>
<rscale>  0 0.12500131E+03</rscale>
<asrwt>0</asrwt>
<pdfrwt beam="1">  1        4 0.32609333E-01 0.12500131E+03</pdfrwt>
<pdfrwt beam="2">  1       -4 0.28353099E-02 0.12500131E+03</pdfrwt>
<totfact> 0.85247224E+03</totfact>
</mgrwt>
</event>
<event>
 5    1  0.3401591E-002  0.1250016E+03  0.7818608E-02  0.1235067E+00
          4   -1    0    0  501    0  0.00000000000E+00  0.00000000000E+00  0.24287655190E+03  0.24287987229E+03  0.12700000000E+01 0.  1.
         -4   -1    0    0    0  501 -0.00000000000E+00 -0.00000000000E+00 -0.16055167588E+02  0.16105319192E+02  0.12700000000E+01 0.  1.
         25    2    1    2    0    0  0.00000000000E+00  0.00000000000E+00  0.22682138431E+03  0.25898519148E+03  0.12500155609E+03 0.  0.
    9000005    1    3    3    0    0  0.57458014693E+02 -0.18690384448E+01  0.62642595101E+02  0.85029474173E+02  0.10000000000E+01 0.  0.
    9000005    1    3    3    0    0 -0.57458014693E+02  0.18690384448E+01  0.16417878921E+03  0.17395571731E+03  0.10000000000E+01 0.  0.
<mgrwt>
<rscale>  0 0.12500156E+03</rscale>
<asrwt>0</asrwt>
<pdfrwt beam="1">  1        4 0.37369736E-01 0.12500156E+03</pdfrwt>
<pdfrwt beam="2">  1       -4 0.24741391E-02 0.12500156E+03</pdfrwt>
<totfact> 0.81045878E+03</totfact>
</mgrwt>
</event>
<event>
 5    1  0.3401591E-002  0.1249943E+03  0.7818608E-02  0.1235078E+00
         -4   -1    0    0    0  501 -0.00000000000E+00  0.00000000000E+00  0.18423067101E+02  0.18466789147E+02  0.12700000000E+01 0. -1.
          4   -1    0    0  501    0  0.00000000000E+00 -0.00000000000E+00 -0.21171419123E+03  0.21171800034E+03  0.12700000000E+01 0. -1.
         25    2    1    2    0    0  0.00000000000E+00  0.00000000000E+00 -0.19329112413E+03  0.23018478949E+03  0.12499431445E+03 0.  0.
    9000005    1    3    3    0    0 -0.61601693524E+02 -0.39049176740E+01 -0.78707798868E+02  0.10002966875E+03  0.10000000000E+01 0.  0.
    9000005    1    3    3    0    0  0.61601693524E+02  0.39049176740E+01 -0.11458332526E+03  0.13015512074E+03  0.10000000000E+01 0.  0.
<mgrwt>
<rscale>  0 0.12499431E+03</rscale>
<asrwt>0</asrwt>
<pdfrwt beam="2">  1        4 0.32575068E-01 0.12499431E+03</pdfrwt>
<pdfrwt beam="1">  1       -4 0.28379744E-02 0.12499431E+03</pdfrwt>
<totfact> 0.85292050E+03</totfact>
</mgrwt>
</event>
<event>
 5    1  0.3401591E-002  0.1249956E+03  0.7818608E-02  0.1235076E+00
          4   -1    0    0  501    0  0.00000000000E+00  0.00000000000E+00  0.90782954796E+02  0.90791837637E+02  0.12700000000E+01 0. -1.
         -4   -1    0    0    0  501 -0.00000000000E+00 -0.00000000000E+00 -0.43005046691E+02  0.43023795054E+02  0.12700000000E+01 0. -1.
         25    2    1    2    0    0  0.00000000000E+00  0.00000000000E+00  0.47777908106E+02  0.13381563269E+03  0.12499558012E+03 0.  0.
    9000005    1    3    3    0    0  0.40134498333E+02  0.15772645568E+01 -0.27360806393E+02  0.48609458405E+02  0.10000000000E+01 0.  0.
    9000005    1    3    3    0    0 -0.40134498333E+02 -0.15772645568E+01  0.75138714499E+02  0.85206174286E+02  0.10000000000E+01 0.  0.
<mgrwt>
<rscale>  0 0.12499558E+03</rscale>
<asrwt>0</asrwt>
<pdfrwt beam="1">  1        4 0.13968734E-01 0.12499558E+03</pdfrwt>
<pdfrwt beam="2">  1       -4 0.66182865E-02 0.12499558E+03</pdfrwt>
<totfact> 0.10264118E+04</totfact>
</mgrwt>
</event>
<event>
 5    1  0.3401591E-002  0.1249985E+03  0.7818608E-02  0.1235072E+00
         -4   -1    0    0    0  501 -0.00000000000E+00  0.00000000000E+00  0.17907789907E+04  0.17907794411E+04  0.12700000000E+01 0.  1.
          4   -1    0    0  501    0  0.00000000000E+00 -0.00000000000E+00 -0.19959119776E+01  0.23657059458E+01  0.12700000000E+01 0.  1.
         25    2    1    2    0    0  0.00000000000E+00  0.00000000000E+00  0.17887830788E+04  0.17931451470E+04  0.12499846166E+03 0.  0.
    9000005    1    3    3    0    0  0.47865143633E+02  0.38964824297E+02  0.75396515619E+03  0.75648779650E+03  0.10000000000E+01 0.  0.
    9000005    1    3    3    0    0 -0.47865143633E+02 -0.38964824297E+02  0.10348179226E+04  0.10366573505E+04  0.10000000000E+01 0.  0.
<mgrwt>
<rscale>  0 0.12499846E+03</rscale>
<asrwt>0</asrwt>
<pdfrwt beam="2">  1        4 0.33554233E-03 0.12499846E+03</pdfrwt>
<pdfrwt beam="1">  1       -4 0.27553408E+00 0.12499846E+03</pdfrwt>
<totfact> 0.12809710E+03</totfact>
</mgrwt>
</event>
<event>
 5    1  0.3401591E-002  0.1250009E+03  0.7818608E-02  0.1235068E+00
          4   -1    0    0  501    0  0.00000000000E+00  0.00000000000E+00  0.25456298458E+02  0.25487958553E+02  0.12700000000E+01 0. -1.
         -4   -1    0    0    0  501 -0.00000000000E+00 -0.00000000000E+00 -0.15332174071E+03  0.15332700048E+03  0.12700000000E+01 0. -1.
         25    2    1    2    0    0  0.00000000000E+00  0.00000000000E+00 -0.12786544225E+03  0.17881495903E+03  0.12500087300E+03 0.  0.
    9000005    1    3    3    0    0 -0.17095885071E+02 -0.29010585994E+02  0.11375444132E+02  0.35556773128E+02  0.10000000000E+01 0.  0.
    9000005    1    3    3    0    0  0.17095885071E+02  0.29010585994E+02 -0.13924088639E+03  0.14325818590E+03  0.10000000000E+01 0.  0.
<mgrwt>
<rscale>  0 0.12500087E+03</rscale>
<asrwt>0</asrwt>
<pdfrwt beam="1">  1        4 0.39191937E-02 0.12500087E+03</pdfrwt>
<pdfrwt beam="2">  1       -4 0.23590800E-01 0.12500087E+03</pdfrwt>
<totfact> 0.93828914E+03</totfact>
</mgrwt>
</event>
<event>
 5    1  0.3401591E-002  0.1249839E+03  0.7818608E-02  0.1235094E+00
          4   -1    0    0  501    0  0.00000000000E+00  0.00000000000E+00  0.51213146092E+02  0.51228890605E+02  0.12700000000E+01 0. -1.
         -4   -1    0    0    0  501 -0.00000000000E+00 -0.00000000000E+00 -0.76222004778E+02  0.76232584322E+02  0.12700000000E+01 0. -1.
         25    2    1    2    0    0  0.00000000000E+00  0.00000000000E+00 -0.25008858686E+02  0.12746147493E+03  0.12498393728E+03 0.  0.
    9000005    1    3    3    0    0 -0.25476398219E+02  0.51245019157E+02 -0.38084450709E+02  0.68749721748E+02  0.10000000000E+01 0.  0.
    9000005    1    3    3    0    0  0.25476398219E+02 -0.51245019157E+02  0.13075592023E+02  0.58711753179E+02  0.10000000000E+01 0.  0.
<mgrwt>
<rscale>  0 0.12498394E+03</rscale>
<asrwt>0</asrwt>
<pdfrwt beam="1">  1        4 0.78809704E-02 0.12498394E+03</pdfrwt>
<pdfrwt beam="2">  1       -4 0.11728487E-01 0.12498394E+03</pdfrwt>
<totfact> 0.10402907E+04</totfact>
</mgrwt>
</event>
<event>
 5    1  0.3401591E-002  0.1249990E+03  0.7818608E-02  0.1235071E+00
          4   -1    0    0  501    0  0.00000000000E+00  0.00000000000E+00  0.41082714721E+02  0.41102339944E+02  0.12700000000E+01 0. -1.
         -4   -1    0    0    0  501 -0.00000000000E+00 -0.00000000000E+00 -0.95034528082E+02  0.95043013567E+02  0.12700000000E+01 0. -1.
         25    2    1    2    0    0  0.00000000000E+00  0.00000000000E+00 -0.53951813361E+02  0.13614535351E+03  0.12499903647E+03 0.  0.
    9000005    1    3    3    0    0 -0.10348699586E+02  0.27801623442E+02  0.32930133766E+02  0.44333052669E+02  0.10000000000E+01 0.  0.
    9000005    1    3    3    0    0  0.10348699586E+02 -0.27801623442E+02 -0.86881947127E+02  0.91812300841E+02  0.10000000000E+01 0.  0.
<mgrwt>
<rscale>  0 0.12499904E+03</rscale>
<asrwt>0</asrwt>
<pdfrwt beam="1">  1        4 0.63225800E-02 0.12499904E+03</pdfrwt>
<pdfrwt beam="2">  1       -4 0.14622859E-01 0.12499904E+03</pdfrwt>
<totfact> 0.10214208E+04</totfact>
</mgrwt>
</event>
<event>
 5    1  0.3401591E-002  0.1250064E+03  0.7818608E-02  0.1235059E+00
          4   -1    0    0  501    0  0.00000000000E+00  0.00000000000E+00  0.96176406804E+02  0.96184791551E+02  0.12700000000E+01 0.  1.
         -4   -1    0    0    0  501 -0.00000000000E+00 -0.00000000000E+00 -0.40599562506E+02  0.40619421164E+02  0.12700000000E+01 0.  1.
         25    2    1    2    0    0  0.00000000000E+00  0.00000000000E+00  0.55576844298E+02  0.13680421271E+03  0.12500642781E+03 0.  0.
    9000005    1    3    3    0    0 -0.22276149350E+02 -0.31020776557E+02 -0.26348830121E+02  0.46408795037E+02  0.10000000000E+01 0.  0.
    9000005    1    3    3    0    0  0.22276149350E+02  0.31020776557E+02  0.81925674419E+02  0.90395417677E+02  0.10000000000E+01 0.  0.
<mgrwt>
<rscale>  0 0.12500643E+03</rscale>
<asrwt>0</asrwt>
<pdfrwt beam="1">  1        4 0.14798543E-01 0.12500643E+03</pdfrwt>
<pdfrwt beam="2">  1       -4 0.62482591E-02 0.12500643E+03</pdfrwt>
<totfact> 0.10198703E+04</totfact>
</mgrwt>
</event>
<event>
 5    1  0.3401591E-002  0.1250114E+03  0.7818608E-02  0.1235051E+00
          4   -1    0    0  501    0  0.00000000000E+00  0.00000000000E+00  0.18632716049E+03  0.18633148858E+03  0.12700000000E+01 0. -1.
         -4   -1    0    0    0  501 -0.00000000000E+00 -0.00000000000E+00 -0.20944486101E+02  0.20982954941E+02  0.12700000000E+01 0. -1.
         25    2    1    2    0    0  0.00000000000E+00  0.00000000000E+00  0.16538267439E+03  0.20731444352E+03  0.12501139750E+03 0.  0.
    9000005    1    3    3    0    0 -0.72836483479E+01 -0.38285902535E+02  0.16371564003E+03  0.16829341240E+03  0.10000000000E+01 0.  0.
    9000005    1    3    3    0    0  0.72836483479E+01  0.38285902535E+02  0.16670343570E+01  0.39021031120E+02  0.10000000000E+01 0.  0.
<mgrwt>
<rscale>  0 0.12501140E+03</rscale>
<asrwt>0</asrwt>
<pdfrwt beam="1">  1        4 0.28669008E-01 0.12501140E+03</pdfrwt>
<pdfrwt beam="2">  1       -4 0.32255209E-02 0.12501140E+03</pdfrwt>
<totfact> 0.88893696E+03</totfact>
</mgrwt>
</event>
<event>
 5    1  0.3401591E-002  0.1249989E+03  0.7818608E-02  0.1235071E+00
         -4   -1    0    0    0  501 -0.00000000000E+00  0.00000000000E+00  0.87868583203E+02  0.87877760634E+02  0.12700000000E+01 0.  1.
          4   -1    0    0  501    0  0.00000000000E+00 -0.00000000000E+00 -0.44434250333E+02  0.44452395915E+02  0.12700000000E+01 0.  1.
         25    2    1    2    0    0  0.00000000000E+00  0.00000000000E+00  0.43434332870E+02  0.13233015655E+03  0.12499891624E+03 0.  0.
    9000005    1    3    3    0    0  0.50207747477E+02  0.18637435954E+02 -0.12374177482E+02  0.54975378071E+02  0.10000000000E+01 0.  0.
    9000005    1    3    3    0    0 -0.50207747477E+02 -0.18637435954E+02  0.55808510352E+02  0.77354778478E+02  0.10000000000E+01 0.  0.
<mgrwt>
<rscale>  0 0.12499892E+03</rscale>
<asrwt>0</asrwt>
<pdfrwt beam="2">  1        4 0.68381403E-02 0.12499892E+03</pdfrwt>
<pdfrwt beam="1">  1       -4 0.13520345E-01 0.12499892E+03</pdfrwt>
<totfact> 0.10294908E+04</totfact>
</mgrwt>
</event>
<event>
 5    1  0.3401591E-002  0.1249940E+03  0.7818608E-02  0.1235079E+00
         -4   -1    0    0    0  501 -0.00000000000E+00  0.00000000000E+00  0.78594830734E+02  0.78605090917E+02  0.12700000000E+01 0. -1.
          4   -1    0    0  501    0  0.00000000000E+00 -0.00000000000E+00 -0.49674728488E+02  0.49690960450E+02  0.12700000000E+01 0. -1.
         25    2    1    2    0    0  0.00000000000E+00  0.00000000000E+00  0.28920102245E+02  0.12829605137E+03  0.12499401779E+03 0.  0.
    9000005    1    3    3    0    0  0.19389799046E+02  0.42085205897E+02  0.57493115824E+02  0.73848407089E+02  0.10000000000E+01 0.  0.
    9000005    1    3    3    0    0 -0.19389799046E+02 -0.42085205897E+02 -0.28573013579E+02  0.54447644278E+02  0.10000000000E+01 0.  0.
<mgrwt>
<rscale>  0 0.12499402E+03</rscale>
<asrwt>0</asrwt>
<pdfrwt beam="2">  1        4 0.76443038E-02 0.12499402E+03</pdfrwt>
<pdfrwt beam="1">  1       -4 0.12093550E-01 0.12499402E+03</pdfrwt>
<totfact> 0.10382501E+04</totfact>
</mgrwt>
</event>
<event>
 5    1  0.3401591E-002  0.1250000E+03  0.7818608E-02  0.1235069E+00
          4   -1    0    0  501    0  0.00000000000E+00  0.00000000000E+00  0.21925488794E+03  0.21925856605E+03  0.12700000000E+01 0. -1.
         -4   -1    0    0    0  501 -0.00000000000E+00 -0.00000000000E+00 -0.17789550590E+02  0.17834825768E+02  0.12700000000E+01 0. -1.
         25    2    1    2    0    0  0.00000000000E+00  0.00000000000E+00  0.20146533735E+03  0.23709339182E+03  0.12499997716E+03 0.  0.
    9000005    1    3    3    0    0 -0.30651903711E+02  0.52675802035E+02  0.12694413027E+03  0.14081935780E+03  0.10000000000E+01 0.  0.
    9000005    1    3    3    0    0  0.30651903711E+02 -0.52675802035E+02  0.74521207080E+02  0.96274034017E+02  0.10000000000E+01 0.  0.
<mgrwt>
<rscale>  0 0.12499998E+03</rscale>
<asrwt>0</asrwt>
<pdfrwt beam="1">  1        4 0.33735288E-01 0.12499998E+03</pdfrwt>
<pdfrwt beam="2">  1       -4 0.27406195E-02 0.12499998E+03</pdfrwt>
<totfact> 0.84232209E+03</totfact>
</mgrwt>
</event>
<event>
 5    1  0.3401591E-002  0.1249578E+03  0.7818608E-02  0.1235135E+00
         -4   -1    0    0    0  501 -0.00000000000E+00  0.00000000000E+00  0.44563078952E+01  0.46337436330E+01  0.12700000000E+01 0. -1.
          4   -1    0    0  501    0  0.00000000000E+00 -0.00000000000E+00 -0.85869749024E+03  0.85869842939E+03  0.12700000000E+01 0. -1.
         25    2    1    2    0    0  0.00000000000E+00  0.00000000000E+00 -0.85424118234E+03  0.86333217303E+03  0.12495776635E+03 0.  0.
    9000005    1    3    3    0    0  0.60640452992E+02  0.63717954108E+01 -0.33321254314E+03  0.33874690142E+03  0.10000000000E+01 0.  0.
    9000005    1    3    3    0    0 -0.60640452992E+02 -0.63717954108E+01 -0.52102863920E+03  0.52458527161E+03  0.10000000000E+01 0.  0.
<mgrwt>
<rscale>  0 0.12495777E+03</rscale>
<asrwt>0</asrwt>
<pdfrwt beam="2">  1        4 0.13212090E+00 0.12495777E+03</pdfrwt>
<pdfrwt beam="1">  1       -4 0.69930766E-03 0.12495777E+03</pdfrwt>
<totfact> 0.35620755E+03</totfact>
</mgrwt>
</event>
<event>
 5    1  0.3401591E-002  0.1249987E+03  0.7818608E-02  0.1235071E+00
          4   -1    0    0  501    0  0.00000000000E+00  0.00000000000E+00  0.70313323355E+03  0.70313438048E+03  0.12700000000E+01 0.  1.
         -4   -1    0    0    0  501 -0.00000000000E+00 -0.00000000000E+00 -0.54816283300E+01  0.56268240730E+01  0.12700000000E+01 0.  1.
         25    2    1    2    0    0  0.00000000000E+00  0.00000000000E+00  0.69765160522E+03  0.70876120456E+03  0.12499873128E+03 0.  0.
    9000005    1    3    3    0    0 -0.57467265444E+02 -0.22104101893E+02  0.40939104062E+03  0.41399650005E+03  0.10000000000E+01 0.  0.
    9000005    1    3    3    0    0  0.57467265444E+02  0.22104101893E+02  0.28826056460E+03  0.29476470450E+03  0.10000000000E+01 0.  0.
<mgrwt>
<rscale>  0 0.12499873E+03</rscale>
<asrwt>0</asrwt>
<pdfrwt beam="1">  1        4 0.10818558E+00 0.12499873E+03</pdfrwt>
<pdfrwt beam="2">  1       -4 0.85458475E-03 0.12499873E+03</pdfrwt>
<totfact> 0.42629414E+03</totfact>
</mgrwt>
</event>
<event>
 5    1  0.3401591E-002  0.1249978E+03  0.7818608E-02  0.1235073E+00
          4   -1    0    0  501    0  0.00000000000E+00  0.00000000000E+00  0.10246500882E+02  0.10324905827E+02  0.12700000000E+01 0.  1.
         -4   -1    0    0    0  501 -0.00000000000E+00 -0.00000000000E+00 -0.37968192337E+03  0.37968404738E+03  0.12700000000E+01 0.  1.
         25    2    1    2    0    0  0.00000000000E+00  0.00000000000E+00 -0.36943542249E+03  0.39000895320E+03  0.12499780875E+03 0.  0.
    9000005    1    3    3    0    0 -0.44430644291E+02  0.43222912725E+02 -0.20944571359E+03  0.21842804142E+03  0.10000000000E+01 0.  0.
    9000005    1    3    3    0    0  0.44430644291E+02 -0.43222912725E+02 -0.15998970890E+03  0.17158091179E+03  0.10000000000E+01 0.  0.
<mgrwt>
<rscale>  0 0.12499781E+03</rscale>
<asrwt>0</asrwt>
<pdfrwt beam="1">  1        4 0.15825796E-02 0.12499781E+03</pdfrwt>
<pdfrwt beam="2">  1       -4 0.58418787E-01 0.12499781E+03</pdfrwt>
<totfact> 0.65539422E+03</totfact>
</mgrwt>
</event>
<event>
 5    1  0.3401591E-002  0.1249853E+03  0.7818608E-02  0.1235092E+00
          4   -1    0    0  501    0  0.00000000000E+00  0.00000000000E+00  0.16457708867E+03  0.16458198873E+03  0.12700000000E+01 0. -1.
         -4   -1    0    0    0  501 -0.00000000000E+00 -0.00000000000E+00 -0.23707257458E+02  0.23741250098E+02  0.12700000000E+01 0. -1.
         25    2    1    2    0    0  0.00000000000E+00  0.00000000000E+00  0.14086983121E+03  0.18832323883E+03  0.12498533089E+03 0.  0.
    9000005    1    3    3    0    0  0.16290986675E+02  0.56554864253E+02  0.10205842731E+03  0.11781668601E+03  0.10000000000E+01 0.  0.
    9000005    1    3    3    0    0 -0.16290986675E+02 -0.56554864253E+02  0.38811403898E+02  0.70506552816E+02  0.10000000000E+01 0.  0.
<mgrwt>
<rscale>  0 0.12498533E+03</rscale>
<asrwt>0</asrwt>
<pdfrwt beam="1">  1        4 0.25322545E-01 0.12498533E+03</pdfrwt>
<pdfrwt beam="2">  1       -4 0.36502620E-02 0.12498533E+03</pdfrwt>
<totfact> 0.92170173E+03</totfact>
</mgrwt>
</event>
<event>
 5    1  0.3401591E-002  0.1250214E+03  0.7818608E-02  0.1235036E+00
         -4   -1    0    0    0  501 -0.00000000000E+00  0.00000000000E+00  0.40419034471E+03  0.40419233992E+03  0.12700000000E+01 0. -1.
          4   -1    0    0  501    0  0.00000000000E+00 -0.00000000000E+00 -0.96239525306E+01  0.97073869971E+01  0.12700000000E+01 0. -1.
         25    2    1    2    0    0  0.00000000000E+00  0.00000000000E+00  0.39456639218E+03  0.41389972692E+03  0.12502138262E+03 0.  0.
    9000005    1    3    3    0    0 -0.22158564380E+02  0.66519083566E+01  0.50572954230E+01  0.23702871074E+02  0.10000000000E+01 0.  0.
    9000005    1    3    3    0    0  0.22158564380E+02 -0.66519083566E+01  0.38950909675E+03  0.39019685585E+03  0.10000000000E+01 0.  0.
<mgrwt>
<rscale>  0 0.12502138E+03</rscale>
<asrwt>0</asrwt>
<pdfrwt beam="2">  1        4 0.14871795E-02 0.12502138E+03</pdfrwt>
<pdfrwt beam="1">  1       -4 0.62189706E-01 0.12502138E+03</pdfrwt>
<totfact> 0.63193180E+03</totfact>
</mgrwt>
</event>
<event>
 4    1  0.3401591E-002  0.1246394E+03  0.7818608E-02  0.1235634E+00
          4   -1    0    0  501    0  0.00000000000E+00  0.00000000000E+00  0.38729434337E+02  0.38750251407E+02  0.12700000000E+01 0. -1.
         -4   -1    0    0    0  501 -0.00000000000E+00 -0.00000000000E+00 -0.10022717631E+03  0.10023522221E+03  0.12700000000E+01 0. -1.
    9000005    1    1    2    0    0 -0.23420122329E+02  0.48005795047E+02  0.50333213924E+01  0.53659974024E+02  0.10000000000E+01 0.  0.
    9000005    1    1    2    0    0  0.23420122329E+02 -0.48005795047E+02 -0.66531063367E+02  0.85325499593E+02  0.10000000000E+01 0.  0.
<mgrwt>
<rscale>  0 0.12463944E+03</rscale>
<asrwt>0</asrwt>
<pdfrwt beam="1">  1        4 0.59605948E-02 0.12463944E+03</pdfrwt>
<pdfrwt beam="2">  1       -4 0.15421786E-01 0.12463944E+03</pdfrwt>
<totfact> 0.10237595E+04</totfact>
</mgrwt>
</event>
<event>
 5    1  0.3401591E-002  0.1250006E+03  0.7818608E-02  0.1235068E+00
         -4   -1    0    0    0  501 -0.00000000000E+00  0.00000000000E+00  0.35006303838E+02  0.35029333542E+02  0.12700000000E+01 0. -1.
          4   -1    0    0  501    0  0.00000000000E+00 -0.00000000000E+00 -0.11152478091E+03  0.11153201181E+03  0.12700000000E+01 0. -1.
         25    2    1    2    0    0  0.00000000000E+00  0.00000000000E+00 -0.76518477075E+02  0.14656134535E+03  0.12500060246E+03 0.  0.
    9000005    1    3    3    0    0 -0.33805436955E+02  0.52551646409E+02 -0.39310916577E+02  0.73829745158E+02  0.10000000000E+01 0.  0.
    9000005    1    3    3    0    0  0.33805436955E+02 -0.52551646409E+02 -0.37207560498E+02  0.72731600190E+02  0.10000000000E+01 0.  0.
<mgrwt>
<rscale>  0 0.12500060E+03</rscale>
<asrwt>0</asrwt>
<pdfrwt beam="2">  1        4 0.17159986E-01 0.12500060E+03</pdfrwt>
<pdfrwt beam="1">  1       -4 0.53879130E-02 0.12500060E+03</pdfrwt>
<totfact> 0.99992257E+03</totfact>
</mgrwt>
</event>
<event>
 5    1  0.3401591E-002  0.1250054E+03  0.7818608E-02  0.1235061E+00
         -4   -1    0    0    0  501 -0.00000000000E+00  0.00000000000E+00  0.51087148633E+03  0.51087306490E+03  0.12700000000E+01 0.  1.
          4   -1    0    0  501    0  0.00000000000E+00 -0.00000000000E+00 -0.75925721117E+01  0.76980550318E+01  0.12700000000E+01 0.  1.
         25    2    1    2    0    0  0.00000000000E+00  0.00000000000E+00  0.50327891422E+03  0.51857111993E+03  0.12500536363E+03 0.  0.
    9000005    1    3    3    0    0 -0.43160588836E+01 -0.90020071604E+01 -0.42836786663E+01  0.10909372123E+02  0.10000000000E+01 0.  0.
    9000005    1    3    3    0    0  0.43160588836E+01  0.90020071604E+01  0.50756259288E+03  0.50766174781E+03  0.10000000000E+01 0.  0.
<mgrwt>
<rscale>  0 0.12500536E+03</rscale>
<asrwt>0</asrwt>
<pdfrwt beam="2">  1        4 0.11763230E-02 0.12500536E+03</pdfrwt>
<pdfrwt beam="1">  1       -4 0.78603882E-01 0.12500536E+03</pdfrwt>
<totfact> 0.54445292E+03</totfact>
</mgrwt>
</event>
<event>
 5    1  0.3401591E-002  0.1250027E+03  0.7818608E-02  0.1235065E+00
         -4   -1    0    0    0  501 -0.00000000000E+00  0.00000000000E+00  0.20179644806E+03  0.20180044437E+03  0.12700000000E+01 0. -1.
          4   -1    0    0  501    0  0.00000000000E+00 -0.00000000000E+00 -0.19333200550E+02  0.19374868864E+02  0.12700000000E+01 0. -1.
         25    2    1    2    0    0  0.00000000000E+00  0.00000000000E+00  0.18246324751E+03  0.22117531324E+03  0.12500272995E+03 0.  0.
    9000005    1    3    3    0    0 -0.25968311516E+02 -0.67193867000E+01 -0.86382267707E+01  0.28197913440E+02  0.10000000000E+01 0.  0.
    9000005    1    3    3    0    0  0.25968311516E+02  0.67193867000E+01  0.19110147428E+03  0.19297739980E+03  0.10000000000E+01 0.  0.
<mgrwt>
<rscale>  0 0.12500273E+03</rscale>
<asrwt>0</asrwt>
<pdfrwt beam="2">  1        4 0.29778514E-02 0.12500273E+03</pdfrwt>
<pdfrwt beam="1">  1       -4 0.31049119E-01 0.12500273E+03</pdfrwt>
<totfact> 0.86677428E+03</totfact>
</mgrwt>
</event>
<event>
 5    1  0.3401591E-002  0.1250050E+03  0.7818608E-02  0.1235062E+00
         -4   -1    0    0    0  501 -0.00000000000E+00  0.00000000000E+00  0.10624405297E+03  0.10625164325E+03  0.12700000000E+01 0.  1.
          4   -1    0    0  501    0  0.00000000000E+00 -0.00000000000E+00 -0.36749808702E+02  0.36771746487E+02  0.12700000000E+01 0.  1.
         25    2    1    2    0    0  0.00000000000E+00  0.00000000000E+00  0.69494244272E+02  0.14302338973E+03  0.12500496000E+03 0.  0.
    9000005    1    3    3    0    0 -0.38546494364E+02 -0.47224035026E+02  0.18992066585E+02  0.63856403791E+02  0.10000000000E+01 0.  0.
    9000005    1    3    3    0    0  0.38546494364E+02  0.47224035026E+02  0.50502177687E+02  0.79166985942E+02  0.10000000000E+01 0.  0.
<mgrwt>
<rscale>  0 0.12500496E+03</rscale>
<asrwt>0</asrwt>
<pdfrwt beam="2">  1        4 0.56560882E-02 0.12500496E+03</pdfrwt>
<pdfrwt beam="1">  1       -4 0.16347510E-01 0.12500496E+03</pdfrwt>
<totfact> 0.10070179E+04</totfact>
</mgrwt>
</event>
<event>
 5    1  0.3401591E-002  0.1249990E+03  0.7818608E-02  0.1235071E+00
          4   -1    0    0  501    0  0.00000000000E+00  0.00000000000E+00  0.68607545996E+02  0.68619299528E+02  0.12700000000E+01 0. -1.
         -4   -1    0    0    0  501 -0.00000000000E+00 -0.00000000000E+00 -0.56911574892E+02  0.56925743357E+02  0.12700000000E+01 0. -1.
         25    2    1    2    0    0  0.00000000000E+00  0.00000000000E+00  0.11695971104E+02  0.12554504288E+03  0.12499904821E+03 0.  0.
    9000005    1    3    3    0    0 -0.60207471827E+02 -0.12964461553E+02 -0.47894799655E+01  0.61781518640E+02  0.10000000000E+01 0.  0.
    9000005    1    3    3    0    0  0.60207471827E+02  0.12964461553E+02  0.16485451070E+02  0.63763524244E+02  0.10000000000E+01 0.  0.
<mgrwt>
<rscale>  0 0.12499905E+03</rscale>
<asrwt>0</asrwt>
<pdfrwt beam="1">  1        4 0.10557001E-01 0.12499905E+03</pdfrwt>
<pdfrwt beam="2">  1       -4 0.87576210E-02 0.12499905E+03</pdfrwt>
<totfact> 0.10441184E+04</totfact>
</mgrwt>
</event>
<event>
 5    1  0.3401591E-002  0.1249987E+03  0.7818608E-02  0.1235071E+00
          4   -1    0    0  501    0  0.00000000000E+00  0.00000000000E+00  0.27173149550E+02  0.27202811555E+02  0.12700000000E+01 0.  1.
         -4   -1    0    0    0  501 -0.00000000000E+00 -0.00000000000E+00 -0.14364018016E+03  0.14364579443E+03  0.12700000000E+01 0.  1.
         25    2    1    2    0    0  0.00000000000E+00  0.00000000000E+00 -0.11646703061E+03  0.17084860598E+03  0.12499870778E+03 0.  0.
    9000005    1    3    3    0    0 -0.76702091063E+01 -0.54700222073E+02 -0.98181189979E+02  0.11265652430E+03  0.10000000000E+01 0.  0.
    9000005    1    3    3    0    0  0.76702091063E+01  0.54700222073E+02 -0.18285840634E+02  0.58192081680E+02  0.10000000000E+01 0.  0.
<mgrwt>
<rscale>  0 0.12499871E+03</rscale>
<asrwt>0</asrwt>
<pdfrwt beam="1">  1        4 0.41831982E-02 0.12499871E+03</pdfrwt>
<pdfrwt beam="2">  1       -4 0.22101202E-01 0.12499871E+03</pdfrwt>
<totfact> 0.95293468E+03</totfact>
</mgrwt>
</event>
<event>
 5    1  0.3401591E-002  0.1250026E+03  0.7818608E-02  0.1235065E+00
         -4   -1    0    0    0  501 -0.00000000000E+00  0.00000000000E+00  0.19638552810E+03  0.19638963452E+03  0.12700000000E+01 0. -1.
          4   -1    0    0  501    0  0.00000000000E+00 -0.00000000000E+00 -0.19866957580E+02  0.19907508722E+02  0.12700000000E+01 0. -1.
         25    2    1    2    0    0  0.00000000000E+00  0.00000000000E+00  0.17651857052E+03  0.21629714324E+03  0.12500259372E+03 0.  0.
    9000005    1    3    3    0    0  0.42123460513E+02 -0.33802268807E+02  0.33858479177E+02  0.63752458104E+02  0.10000000000E+01 0.  0.
    9000005    1    3    3    0    0 -0.42123460513E+02  0.33802268807E+02  0.14266009134E+03  0.15254468514E+03  0.10000000000E+01 0.  0.
<mgrwt>
<rscale>  0 0.12500259E+03</rscale>
<asrwt>0</asrwt>
<pdfrwt beam="2">  1        4 0.30598903E-02 0.12500259E+03</pdfrwt>
<pdfrwt beam="1">  1       -4 0.30216593E-01 0.12500259E+03</pdfrwt>
<totfact> 0.87452622E+03</totfact>
</mgrwt>
</event>
<event>
 4    1  0.3401591E-002  0.1249000E+03  0.7818608E-02  0.1235226E+00
          4   -1    0    0  501    0  0.00000000000E+00  0.00000000000E+00  0.69839706562E+02  0.69851252763E+02  0.12700000000E+01 0.  1.
         -4   -1    0    0    0  501 -0.00000000000E+00 -0.00000000000E+00 -0.55818810872E+02  0.55833256641E+02  0.12700000000E+01 0.  1.
    9000005    1    1    2    0    0 -0.38377317495E+02 -0.47450014201E+02 -0.62892328560E+01  0.61358591865E+02  0.10000000000E+01 0.  0.
    9000005    1    1    2    0    0  0.38377317495E+02  0.47450014201E+02  0.20310128545E+02  0.64325917539E+02  0.10000000000E+01 0.  0.
<mgrwt>
<rscale>  0 0.12490000E+03</rscale>
<asrwt>0</asrwt>
<pdfrwt beam="1">  1        4 0.10746570E-01 0.12490000E+03</pdfrwt>
<pdfrwt beam="2">  1       -4 0.85895087E-02 0.12490000E+03</pdfrwt>
<totfact> 0.10461470E+04</totfact>
</mgrwt>
</event>
<event>
 5    1  0.3401591E-002  0.1250008E+03  0.7818608E-02  0.1235068E+00
          4   -1    0    0  501    0  0.00000000000E+00  0.00000000000E+00  0.10376295561E+04  0.10376303333E+04  0.12700000000E+01 0. -1.
         -4   -1    0    0    0  501 -0.00000000000E+00 -0.00000000000E+00 -0.36567281158E+01  0.38709896038E+01  0.12700000000E+01 0. -1.
         25    2    1    2    0    0  0.00000000000E+00  0.00000000000E+00  0.10339728280E+04  0.10415013230E+04  0.12500078643E+03 0.  0.
    9000005    1    3    3    0    0 -0.31745367934E+01 -0.94236470198E+01  0.10310362506E+04  0.10310846875E+04  0.10000000000E+01 0.  0.
    9000005    1    3    3    0    0  0.31745367934E+01  0.94236470198E+01  0.29365774608E+01  0.10416635454E+02  0.10000000000E+01 0.  0.
<mgrwt>
<rscale>  0 0.12500079E+03</rscale>
<asrwt>0</asrwt>
<pdfrwt beam="1">  1        4 0.15965197E+00 0.12500079E+03</pdfrwt>
<pdfrwt beam="2">  1       -4 0.57911459E-03 0.12500079E+03</pdfrwt>
<totfact> 0.29261094E+03</totfact>
</mgrwt>
</event>
<event>
 5    1  0.3401591E-002  0.1249955E+03  0.7818608E-02  0.1235076E+00
          4   -1    0    0  501    0  0.00000000000E+00  0.00000000000E+00  0.27400358059E+02  0.27429774366E+02  0.12700000000E+01 0.  1.
         -4   -1    0    0    0  501 -0.00000000000E+00 -0.00000000000E+00 -0.14244309255E+03  0.14244875400E+03  0.12700000000E+01 0.  1.
         25    2    1    2    0    0  0.00000000000E+00  0.00000000000E+00 -0.11504273449E+03  0.16987852836E+03  0.12499553448E+03 0.  0.
    9000005    1    3    3    0    0 -0.53224000551E+01 -0.30427625018E+02 -0.13134817178E+03  0.13493520866E+03  0.10000000000E+01 0.  0.
    9000005    1    3    3    0    0  0.53224000551E+01  0.30427625018E+02  0.16305437288E+02  0.34943319701E+02  0.10000000000E+01 0.  0.
<mgrwt>
<rscale>  0 0.12499553E+03</rscale>
<asrwt>0</asrwt>
<pdfrwt beam="1">  1        4 0.42181381E-02 0.12499553E+03</pdfrwt>
<pdfrwt beam="2">  1       -4 0.21917020E-01 0.12499553E+03</pdfrwt>
<totfact> 0.95480852E+03</totfact>
</mgrwt>
</event>
<event>
 5    1  0.3401591E-002  0.1250051E+03  0.7818608E-02  0.1235061E+00
          4   -1    0    0  501    0  0.00000000000E+00  0.00000000000E+00  0.20601102011E+01  0.24201144685E+01  0.12700000000E+01 0.  1.
         -4   -1    0    0    0  501 -0.00000000000E+00 -0.00000000000E+00 -0.17435548639E+04  0.17435553264E+04  0.12700000000E+01 0.  1.
         25    2    1    2    0    0  0.00000000000E+00  0.00000000000E+00 -0.17414947537E+04  0.17459754409E+04  0.12500505217E+03 0.  0.
    9000005    1    3    3    0    0 -0.53245386924E+02 -0.30089898247E+02 -0.69128462703E+03  0.69398552490E+03  0.10000000000E+01 0.  0.
    9000005    1    3    3    0    0  0.53245386924E+02  0.30089898247E+02 -0.10502101266E+04  0.10519899160E+04  0.10000000000E+01 0.  0.
<mgrwt>
<rscale>  0 0.12500505E+03</rscale>
<asrwt>0</asrwt>
<pdfrwt beam="1">  1        4 0.34466964E-03 0.12500505E+03</pdfrwt>
<pdfrwt beam="2">  1       -4 0.26826585E+00 0.12500505E+03</pdfrwt>
<totfact> 0.13553078E+03</totfact>
</mgrwt>
</event>
<event>
 5    1  0.3401591E-002  0.1249998E+03  0.7818608E-02  0.1235070E+00
         -4   -1    0    0    0  501 -0.00000000000E+00  0.00000000000E+00  0.17745343366E+03  0.17745797818E+03  0.12700000000E+01 0.  1.
          4   -1    0    0  501    0  0.00000000000E+00 -0.00000000000E+00 -0.21989596245E+02  0.22026239875E+02  0.12700000000E+01 0.  1.
         25    2    1    2    0    0  0.00000000000E+00  0.00000000000E+00  0.15546383742E+03  0.19948421805E+03  0.12499979403E+03 0.  0.
    9000005    1    3    3    0    0 -0.92697211357E+01 -0.51889635956E+02  0.13130145185E+03  0.14149040006E+03  0.10000000000E+01 0.  0.
    9000005    1    3    3    0    0  0.92697211357E+01  0.51889635956E+02  0.24162385566E+02  0.57993817997E+02  0.10000000000E+01 0.  0.
<mgrwt>
<rscale>  0 0.12499979E+03</rscale>
<asrwt>0</asrwt>
<pdfrwt beam="2">  1        4 0.33861833E-02 0.12499979E+03</pdfrwt>
<pdfrwt beam="1">  1       -4 0.27303695E-01 0.12499979E+03</pdfrwt>
<totfact> 0.90222987E+03</totfact>
</mgrwt>
</event>
<event>
 5    1  0.3401591E-002  0.1249997E+03  0.7818608E-02  0.1235070E+00
         -4   -1    0    0    0  501 -0.00000000000E+00  0.00000000000E+00  0.35290977711E+02  0.35313821767E+02  0.12700000000E+01 0. -1.
          4   -1    0    0  501    0  0.00000000000E+00 -0.00000000000E+00 -0.11062403510E+03  0.11063132487E+03  0.12700000000E+01 0. -1.
         25    2    1    2    0    0  0.00000000000E+00  0.00000000000E+00 -0.75333057389E+02  0.14594514663E+03  0.12499966516E+03 0.  0.
    9000005    1    3    3    0    0  0.37879922377E+02  0.42237248570E+02 -0.68254827976E+02  0.88761451251E+02  0.10000000000E+01 0.  0.
    9000005    1    3    3    0    0 -0.37879922377E+02 -0.42237248570E+02 -0.70782294124E+01  0.57183695383E+02  0.10000000000E+01 0.  0.
<mgrwt>
<rscale>  0 0.12499967E+03</rscale>
<asrwt>0</asrwt>
<pdfrwt beam="2">  1        4 0.17021400E-01 0.12499967E+03</pdfrwt>
<pdfrwt beam="1">  1       -4 0.54316992E-02 0.12499967E+03</pdfrwt>
<totfact> 0.10011896E+04</totfact>
</mgrwt>
</event>
<event>
 5    1  0.3401591E-002  0.1249971E+03  0.7818608E-02  0.1235074E+00
          4   -1    0    0  501    0  0.00000000000E+00  0.00000000000E+00  0.17229065649E+02  0.17275809768E+02  0.12700000000E+01 0.  1.
         -4   -1    0    0    0  501 -0.00000000000E+00 -0.00000000000E+00 -0.22635832924E+03  0.22636189192E+03  0.12700000000E+01 0.  1.
         25    2    1    2    0    0  0.00000000000E+00  0.00000000000E+00 -0.20912926359E+03  0.24363770169E+03  0.12499712315E+03 0.  0.
    9000005    1    3    3    0    0  0.30731981726E+02 -0.43396963321E+02 -0.16854056810E+03  0.17673334213E+03  0.10000000000E+01 0.  0.
    9000005    1    3    3    0    0 -0.30731981726E+02  0.43396963321E+02 -0.40588695488E+02  0.66904359557E+02  0.10000000000E+01 0.  0.
<mgrwt>
<rscale>  0 0.12499712E+03</rscale>
<asrwt>0</asrwt>
<pdfrwt beam="1">  1        4 0.26544954E-02 0.12499712E+03</pdfrwt>
<pdfrwt beam="2">  1       -4 0.34828226E-01 0.12499712E+03</pdfrwt>
<totfact> 0.83263901E+03</totfact>
</mgrwt>
</event>
<event>
 5    1  0.3401591E-002  0.1249956E+03  0.7818608E-02  0.1235076E+00
         -4   -1    0    0    0  501 -0.00000000000E+00  0.00000000000E+00  0.82405251287E+03  0.82405349151E+03  0.12700000000E+01 0.  1.
          4   -1    0    0  501    0  0.00000000000E+00 -0.00000000000E+00 -0.46538925458E+01  0.48240663167E+01  0.12700000000E+01 0.  1.
         25    2    1    2    0    0  0.00000000000E+00  0.00000000000E+00  0.81939862032E+03  0.82887755782E+03  0.12499562743E+03 0.  0.
    9000005    1    3    3    0    0 -0.15316794567E+02 -0.43097376951E+02  0.12734585949E+03  0.13531428611E+03  0.10000000000E+01 0.  0.
    9000005    1    3    3    0    0  0.15316794567E+02  0.43097376951E+02  0.69205276083E+03  0.69356327171E+03  0.10000000000E+01 0.  0.
<mgrwt>
<rscale>  0 0.12499563E+03</rscale>
<asrwt>0</asrwt>
<pdfrwt beam="2">  1        4 0.72914980E-03 0.12499563E+03</pdfrwt>
<pdfrwt beam="1">  1       -4 0.12679034E+00 0.12499563E+03</pdfrwt>
<totfact> 0.37011166E+03</totfact>
</mgrwt>
</event>
<event>
 5    1  0.3401591E-002  0.1250293E+03  0.7818608E-02  0.1235023E+00
         -4   -1    0    0    0  501 -0.00000000000E+00  0.00000000000E+00  0.47920483731E+03  0.47920652020E+03  0.12700000000E+01 0. -1.
          4   -1    0    0  501    0  0.00000000000E+00 -0.00000000000E+00 -0.81042010243E+01  0.82031075967E+01  0.12700000000E+01 0. -1.
         25    2    1    2    0    0  0.00000000000E+00  0.00000000000E+00  0.47110063629E+03  0.48740962780E+03  0.12502933959E+03 0.  0.
    9000005    1    3    3    0    0 -0.25347111297E+02 -0.66109299219E+01  0.14306562237E+02  0.29863994518E+02  0.10000000000E+01 0.  0.
    9000005    1    3    3    0    0  0.25347111297E+02  0.66109299219E+01  0.45679407405E+03  0.45754563328E+03  0.10000000000E+01 0.  0.
<mgrwt>
<rscale>  0 0.12502934E+03</rscale>
<asrwt>0</asrwt>
<pdfrwt beam="2">  1        4 0.12545376E-02 0.12502934E+03</pdfrwt>
<pdfrwt beam="1">  1       -4 0.73731571E-01 0.12502934E+03</pdfrwt>
<totfact> 0.56817944E+03</totfact>
</mgrwt>
</event>
<event>
 5    1  0.3401591E-002  0.1249946E+03  0.7818608E-02  0.1235078E+00
          4   -1    0    0  501    0  0.00000000000E+00  0.00000000000E+00  0.37014354603E+03  0.37014572477E+03  0.12700000000E+01 0. -1.
         -4   -1    0    0    0  501 -0.00000000000E+00 -0.00000000000E+00 -0.10511989531E+02  0.10588428774E+02  0.12700000000E+01 0. -1.
         25    2    1    2    0    0  0.00000000000E+00  0.00000000000E+00  0.35963155650E+03  0.38073415354E+03  0.12499455687E+03 0.  0.
    9000005    1    3    3    0    0 -0.30896312543E+02  0.53851635390E+02  0.20142504828E+03  0.21077862993E+03  0.10000000000E+01 0.  0.
    9000005    1    3    3    0    0  0.30896312543E+02 -0.53851635390E+02  0.15820650822E+03  0.16995552361E+03  0.10000000000E+01 0.  0.
<mgrwt>
<rscale>  0 0.12499456E+03</rscale>
<asrwt>0</asrwt>
<pdfrwt beam="1">  1        4 0.56951203E-01 0.12499456E+03</pdfrwt>
<pdfrwt beam="2">  1       -4 0.16232768E-02 0.12499456E+03</pdfrwt>
<totfact> 0.66478693E+03</totfact>
</mgrwt>
</event>
<event>
 5    1  0.3401591E-002  0.1249979E+03  0.7818608E-02  0.1235073E+00
          4   -1    0    0  501    0  0.00000000000E+00  0.00000000000E+00  0.35449238621E+03  0.35449466114E+03  0.12700000000E+01 0. -1.
         -4   -1    0    0    0  501 -0.00000000000E+00 -0.00000000000E+00 -0.10979990650E+02  0.11053193867E+02  0.12700000000E+01 0. -1.
         25    2    1    2    0    0  0.00000000000E+00  0.00000000000E+00  0.34351239556E+03  0.36554785501E+03  0.12499787358E+03 0.  0.
    9000005    1    3    3    0    0  0.36376635065E+02 -0.13888725009E+02  0.31469368074E+03  0.31709504720E+03  0.10000000000E+01 0.  0.
    9000005    1    3    3    0    0 -0.36376635065E+02  0.13888725009E+02  0.28818714819E+02  0.48452807812E+02  0.10000000000E+01 0.  0.
<mgrwt>
<rscale>  0 0.12499787E+03</rscale>
<asrwt>0</asrwt>
<pdfrwt beam="1">  1        4 0.54543100E-01 0.12499787E+03</pdfrwt>
<pdfrwt beam="2">  1       -4 0.16950352E-02 0.12499787E+03</pdfrwt>
<totfact> 0.68050496E+03</totfact>
</mgrwt>
</event>
<event>
 5    1  0.3401591E-002  0.1249984E+03  0.7818608E-02  0.1235072E+00
          4   -1    0    0  501    0  0.00000000000E+00  0.00000000000E+00  0.56056175203E+03  0.56056319068E+03  0.12700000000E+01 0. -1.
         -4   -1    0    0    0  501 -0.00000000000E+00 -0.00000000000E+00 -0.69089477192E+01  0.70247034519E+01  0.12700000000E+01 0. -1.
         25    2    1    2    0    0  0.00000000000E+00  0.00000000000E+00  0.55365280431E+03  0.56758789413E+03  0.12499835934E+03 0.  0.
    9000005    1    3    3    0    0 -0.21336416467E+02  0.51872047537E+01  0.54249003969E+03  0.54293516457E+03  0.10000000000E+01 0.  0.
    9000005    1    3    3    0    0  0.21336416467E+02 -0.51872047537E+01  0.11162764624E+02  0.24652729563E+02  0.10000000000E+01 0.  0.
<mgrwt>
<rscale>  0 0.12499836E+03</rscale>
<asrwt>0</asrwt>
<pdfrwt beam="1">  1        4 0.86249305E-01 0.12499836E+03</pdfrwt>
<pdfrwt beam="2">  1       -4 0.10719297E-02 0.12499836E+03</pdfrwt>
<totfact> 0.50981455E+03</totfact>
</mgrwt>
</event>
<event>
 5    1  0.3401591E-002  0.1249999E+03  0.7818608E-02  0.1235069E+00
         -4   -1    0    0    0  501 -0.00000000000E+00  0.00000000000E+00  0.89065903503E+02  0.89074957574E+02  0.12700000000E+01 0. -1.
          4   -1    0    0  501    0  0.00000000000E+00 -0.00000000000E+00 -0.43837412502E+02  0.43855805030E+02  0.12700000000E+01 0. -1.
         25    2    1    2    0    0  0.00000000000E+00  0.00000000000E+00  0.45228491001E+02  0.13293076260E+03  0.12499988499E+03 0.  0.
    9000005    1    3    3    0    0 -0.47523429106E+02 -0.38518316806E+02  0.36195833227E+02  0.71086393822E+02  0.10000000000E+01 0.  0.
    9000005    1    3    3    0    0  0.47523429106E+02  0.38518316806E+02  0.90326577742E+01  0.61844368782E+02  0.10000000000E+01 0.  0.
<mgrwt>
<rscale>  0 0.12499988E+03</rscale>
<asrwt>0</asrwt>
<pdfrwt beam="2">  1        4 0.67463286E-02 0.12499988E+03</pdfrwt>
<pdfrwt beam="1">  1       -4 0.13704558E-01 0.12499988E+03</pdfrwt>
<totfact> 0.10281898E+04</totfact>
</mgrwt>
</event>
<event>
 5    1  0.3401591E-002  0.1249930E+03  0.7818608E-02  0.1235080E+00
          4   -1    0    0  501    0  0.00000000000E+00  0.00000000000E+00  0.41429956678E+01  0.43332797168E+01  0.12700000000E+01 0.  1.
         -4   -1    0    0    0  501 -0.00000000000E+00 -0.00000000000E+00 -0.92139632565E+03  0.92139720090E+03  0.12700000000E+01 0.  1.
         25    2    1    2    0    0  0.00000000000E+00  0.00000000000E+00 -0.91725332998E+03  0.92573048061E+03  0.12499300530E+03 0.  0.
    9000005    1    3    3    0    0 -0.48849908017E+02  0.16979675708E+02 -0.71839423960E+03  0.72025405684E+03  0.10000000000E+01 0.  0.
    9000005    1    3    3    0    0  0.48849908017E+02 -0.16979675708E+02 -0.19885909038E+03  0.20547642378E+03  0.10000000000E+01 0.  0.
<mgrwt>
<rscale>  0 0.12499301E+03</rscale>
<asrwt>0</asrwt>
<pdfrwt beam="1">  1        4 0.65208924E-03 0.12499301E+03</pdfrwt>
<pdfrwt beam="2">  1       -4 0.14176783E+00 0.12499301E+03</pdfrwt>
<totfact> 0.33198705E+03</totfact>
</mgrwt>
</event>
<event>
 5    1  0.3401591E-002  0.1250002E+03  0.7818608E-02  0.1235069E+00
          4   -1    0    0  501    0  0.00000000000E+00  0.00000000000E+00  0.39075131249E+02  0.39095764248E+02  0.12700000000E+01 0. -1.
         -4   -1    0    0    0  501 -0.00000000000E+00 -0.00000000000E+00 -0.99916922650E+02  0.99924993529E+02  0.12700000000E+01 0. -1.
         25    2    1    2    0    0  0.00000000000E+00  0.00000000000E+00 -0.60841791401E+02  0.13902075778E+03  0.12500019005E+03 0.  0.
    9000005    1    3    3    0    0  0.17998171523E+01 -0.62447005912E+02 -0.32141694285E+02  0.70263478427E+02  0.10000000000E+01 0.  0.
    9000005    1    3    3    0    0 -0.17998171523E+01  0.62447005912E+02 -0.28700097116E+02  0.68757279350E+02  0.10000000000E+01 0.  0.
<mgrwt>
<rscale>  0 0.12500019E+03</rscale>
<asrwt>0</asrwt>
<pdfrwt beam="1">  1        4 0.60137667E-02 0.12500019E+03</pdfrwt>
<pdfrwt beam="2">  1       -4 0.15374042E-01 0.12500019E+03</pdfrwt>
<totfact> 0.10153878E+04</totfact>
</mgrwt>
</event>
<event>
 5    1  0.3401591E-002  0.1249807E+03  0.7818608E-02  0.1235099E+00
         -4   -1    0    0    0  501 -0.00000000000E+00  0.00000000000E+00  0.16839922719E+03  0.16840401604E+03  0.12700000000E+01 0.  1.
          4   -1    0    0  501    0  0.00000000000E+00 -0.00000000000E+00 -0.23166700587E+02  0.23201485213E+02  0.12700000000E+01 0.  1.
         25    2    1    2    0    0  0.00000000000E+00  0.00000000000E+00  0.14523252661E+03  0.19160550125E+03  0.12498072382E+03 0.  0.
    9000005    1    3    3    0    0  0.59102817804E+02 -0.88683792199E+01  0.10056100625E+03  0.11698421774E+03  0.10000000000E+01 0.  0.
    9000005    1    3    3    0    0 -0.59102817804E+02  0.88683792199E+01  0.44671520357E+02  0.74621283515E+02  0.10000000000E+01 0.  0.
<mgrwt>
<rscale>  0 0.12498072E+03</rscale>
<asrwt>0</asrwt>
<pdfrwt beam="2">  1        4 0.35671519E-02 0.12498072E+03</pdfrwt>
<pdfrwt beam="1">  1       -4 0.25910618E-01 0.12498072E+03</pdfrwt>
<totfact> 0.91608253E+03</totfact>
</mgrwt>
</event>
<event>
 5    1  0.3401591E-002  0.1250110E+03  0.7818608E-02  0.1235052E+00
          4   -1    0    0  501    0  0.00000000000E+00  0.00000000000E+00  0.20951977150E+02  0.20990432261E+02  0.12700000000E+01 0. -1.
         -4   -1    0    0    0  501 -0.00000000000E+00 -0.00000000000E+00 -0.18625949238E+03  0.18626382204E+03  0.12700000000E+01 0. -1.
         25    2    1    2    0    0  0.00000000000E+00  0.00000000000E+00 -0.16530751523E+03  0.20725425430E+03  0.12501100486E+03 0.  0.
    9000005    1    3    3    0    0 -0.56582745340E+02 -0.90899087337E+01 -0.41315977436E+02  0.70655810111E+02  0.10000000000E+01 0.  0.
    9000005    1    3    3    0    0  0.56582745340E+02  0.90899087337E+01 -0.12399153780E+03  0.13659844419E+03  0.10000000000E+01 0.  0.
<mgrwt>
<rscale>  0 0.12501100E+03</rscale>
<asrwt>0</asrwt>
<pdfrwt beam="1">  1        4 0.32266724E-02 0.12501100E+03</pdfrwt>
<pdfrwt beam="2">  1       -4 0.28658597E-01 0.12501100E+03</pdfrwt>
<totfact> 0.88904389E+03</totfact>
</mgrwt>
</event>
<event>
 5    1  0.3401591E-002  0.1249992E+03  0.7818608E-02  0.1235071E+00
          4   -1    0    0  501    0  0.00000000000E+00  0.00000000000E+00  0.11897702002E+03  0.11898379803E+03  0.12700000000E+01 0.  1.
         -4   -1    0    0    0  501 -0.00000000000E+00 -0.00000000000E+00 -0.32811545817E+02  0.32836114857E+02  0.12700000000E+01 0.  1.
         25    2    1    2    0    0  0.00000000000E+00  0.00000000000E+00  0.86165474203E+02  0.15181991288E+03  0.12499918801E+03 0.  0.
    9000005    1    3    3    0    0 -0.32498013500E+02  0.39490952131E+02  0.86698098143E+02  0.10066387834E+03  0.10000000000E+01 0.  0.
    9000005    1    3    3    0    0  0.32498013500E+02 -0.39490952131E+02 -0.53262393999E+00  0.51156034541E+02  0.10000000000E+01 0.  0.
<mgrwt>
<rscale>  0 0.12499919E+03</rscale>
<asrwt>0</asrwt>
<pdfrwt beam="1">  1        4 0.18306568E-01 0.12499919E+03</pdfrwt>
<pdfrwt beam="2">  1       -4 0.50503415E-02 0.12499919E+03</pdfrwt>
<totfact> 0.98943963E+03</totfact>
</mgrwt>
</event>
<event>
 5    1  0.3401591E-002  0.1249983E+03  0.7818608E-02  0.1235072E+00
         -4   -1    0    0    0  501 -0.00000000000E+00  0.00000000000E+00  0.42087433531E+03  0.42087625144E+03  0.12700000000E+01 0. -1.
          4   -1    0    0  501    0  0.00000000000E+00 -0.00000000000E+00 -0.92356298563E+01  0.93225403643E+01  0.12700000000E+01 0. -1.
         25    2    1    2    0    0  0.00000000000E+00  0.00000000000E+00  0.41163870545E+03  0.43019879180E+03  0.12499830654E+03 0.  0.
    9000005    1    3    3    0    0 -0.58089122289E+02 -0.10093007365E+02  0.27709774254E+03  0.28330261885E+03  0.10000000000E+01 0.  0.
    9000005    1    3    3    0    0  0.58089122289E+02  0.10093007365E+02  0.13454096292E+03  0.14689617295E+03  0.10000000000E+01 0.  0.
<mgrwt>
<rscale>  0 0.12499831E+03</rscale>
<asrwt>0</asrwt>
<pdfrwt beam="2">  1        4 0.14276993E-02 0.12499831E+03</pdfrwt>
<pdfrwt beam="1">  1       -4 0.64756713E-01 0.12499831E+03</pdfrwt>
<totfact> 0.61720289E+03</totfact>
</mgrwt>
</event>
<event>
 5    1  0.3401591E-002  0.1249998E+03  0.7818608E-02  0.1235070E+00
          4   -1    0    0  501    0  0.00000000000E+00  0.00000000000E+00  0.11767941697E+03  0.11768626971E+03  0.12700000000E+01 0.  1.
         -4   -1    0    0    0  501 -0.00000000000E+00 -0.00000000000E+00 -0.33173914737E+02  0.33198215599E+02  0.12700000000E+01 0.  1.
         25    2    1    2    0    0  0.00000000000E+00  0.00000000000E+00  0.84505502230E+02  0.15088448531E+03  0.12499979200E+03 0.  0.
    9000005    1    3    3    0    0  0.59504965007E+02 -0.34143160815E+01  0.64923286664E+02  0.88139273687E+02  0.10000000000E+01 0.  0.
    9000005    1    3    3    0    0 -0.59504965007E+02  0.34143160815E+01  0.19582215566E+02  0.62745211620E+02  0.10000000000E+01 0.  0.
<mgrwt>
<rscale>  0 0.12499979E+03</rscale>
<asrwt>0</asrwt>
<pdfrwt beam="1">  1        4 0.18106922E-01 0.12499979E+03</pdfrwt>
<pdfrwt beam="2">  1       -4 0.51060756E-02 0.12499979E+03</pdfrwt>
<totfact> 0.99128145E+03</totfact>
</mgrwt>
</event>
<event>
 5    1  0.3401591E-002  0.1250012E+03  0.7818608E-02  0.1235067E+00
          4   -1    0    0  501    0  0.00000000000E+00  0.00000000000E+00  0.33809347689E+02  0.33833192151E+02  0.12700000000E+01 0.  1.
         -4   -1    0    0    0  501 -0.00000000000E+00 -0.00000000000E+00 -0.11547165630E+03  0.11547864006E+03  0.12700000000E+01 0.  1.
         25    2    1    2    0    0  0.00000000000E+00  0.00000000000E+00 -0.81662308616E+02  0.14931183221E+03  0.12500116235E+03 0.  0.
    9000005    1    3    3    0    0 -0.11572691248E+02  0.53715055748E+02 -0.52746823412E+01  0.55209208204E+02  0.10000000000E+01 0.  0.
    9000005    1    3    3    0    0  0.11572691248E+02 -0.53715055748E+02 -0.76387626275E+02  0.94102624005E+02  0.10000000000E+01 0.  0.
<mgrwt>
<rscale>  0 0.12500116E+03</rscale>
<asrwt>0</asrwt>
<pdfrwt beam="1">  1        4 0.52038096E-02 0.12500116E+03</pdfrwt>
<pdfrwt beam="2">  1       -4 0.17767241E-01 0.12500116E+03</pdfrwt>
<totfact> 0.99438449E+03</totfact>
</mgrwt>
</event>
<event>
 5    1  0.3401591E-002  0.1250103E+03  0.7818608E-02  0.1235053E+00
         -4   -1    0    0    0  501 -0.00000000000E+00  0.00000000000E+00  0.25422610579E+02  0.25454312575E+02  0.12700000000E+01 0. -1.
          4   -1    0    0  501    0  0.00000000000E+00 -0.00000000000E+00 -0.15354781754E+03  0.15355306956E+03  0.12700000000E+01 0. -1.
         25    2    1    2    0    0  0.00000000000E+00  0.00000000000E+00 -0.12812520696E+03  0.17900738214E+03  0.12501029638E+03 0.  0.
    9000005    1    3    3    0    0 -0.51745885781E+02  0.34751190978E+02 -0.57561593938E+02  0.84850569040E+02  0.10000000000E+01 0.  0.
    9000005    1    3    3    0    0  0.51745885781E+02 -0.34751190978E+02 -0.70563613023E+02  0.94156813097E+02  0.10000000000E+01 0.  0.
<mgrwt>
<rscale>  0 0.12501030E+03</rscale>
<asrwt>0</asrwt>
<pdfrwt beam="2">  1        4 0.23625583E-01 0.12501030E+03</pdfrwt>
<pdfrwt beam="1">  1       -4 0.39140136E-02 0.12501030E+03</pdfrwt>
<totfact> 0.93774331E+03</totfact>
</mgrwt>
</event>
<event>
 5    1  0.3401591E-002  0.1250049E+03  0.7818608E-02  0.1235062E+00
          4   -1    0    0  501    0  0.00000000000E+00  0.00000000000E+00  0.13575257402E+02  0.13634533858E+02  0.12700000000E+01 0.  1.
         -4   -1    0    0    0  501 -0.00000000000E+00 -0.00000000000E+00 -0.28708266183E+03  0.28708547093E+03  0.12700000000E+01 0.  1.
         25    2    1    2    0    0  0.00000000000E+00  0.00000000000E+00 -0.27350740443E+03  0.30072000479E+03  0.12500488393E+03 0.  0.
    9000005    1    3    3    0    0  0.60182147217E+01 -0.51608945908E+02 -0.22029140546E+03  0.22633825466E+03  0.10000000000E+01 0.  0.
    9000005    1    3    3    0    0 -0.60182147217E+01  0.51608945908E+02 -0.53215998968E+02  0.74381750129E+02  0.10000000000E+01 0.  0.
<mgrwt>
<rscale>  0 0.12500488E+03</rscale>
<asrwt>0</asrwt>
<pdfrwt beam="1">  1        4 0.20932772E-02 0.12500488E+03</pdfrwt>
<pdfrwt beam="2">  1       -4 0.44171335E-01 0.12500488E+03</pdfrwt>
<totfact> 0.75500428E+03</totfact>
</mgrwt>
</event>
<event>
 5    1  0.3401591E-002  0.1249994E+03  0.7818608E-02  0.1235070E+00
          4   -1    0    0  501    0  0.00000000000E+00  0.00000000000E+00  0.56276381197E+02  0.56290709541E+02  0.12700000000E+01 0. -1.
         -4   -1    0    0    0  501 -0.00000000000E+00 -0.00000000000E+00 -0.69382246291E+02  0.69393868608E+02  0.12700000000E+01 0. -1.
         25    2    1    2    0    0  0.00000000000E+00  0.00000000000E+00 -0.13105865094E+02  0.12568457815E+03  0.12499939794E+03 0.  0.
    9000005    1    3    3    0    0  0.48862705281E+02 -0.29144811595E+02  0.19438877388E+02  0.60131971233E+02  0.10000000000E+01 0.  0.
    9000005    1    3    3    0    0 -0.48862705281E+02  0.29144811595E+02 -0.32544742482E+02  0.65552606916E+02  0.10000000000E+01 0.  0.
<mgrwt>
<rscale>  0 0.12499940E+03</rscale>
<asrwt>0</asrwt>
<pdfrwt beam="1">  1        4 0.86599010E-02 0.12499940E+03</pdfrwt>
<pdfrwt beam="2">  1       -4 0.10676188E-01 0.12499940E+03</pdfrwt>
<totfact> 0.10438025E+04</totfact>
</mgrwt>
</event>
<event>
 5    1  0.3401591E-002  0.1249985E+03  0.7818608E-02  0.1235072E+00
         -4   -1    0    0    0  501 -0.00000000000E+00  0.00000000000E+00  0.17174550537E+03  0.17175020091E+03  0.12700000000E+01 0. -1.
          4   -1    0    0  501    0  0.00000000000E+00 -0.00000000000E+00 -0.22721121349E+02  0.22756587077E+02  0.12700000000E+01 0. -1.
         25    2    1    2    0    0  0.00000000000E+00  0.00000000000E+00  0.14902438402E+03  0.19450678799E+03  0.12499849416E+03 0.  0.
    9000005    1    3    3    0    0 -0.27194649311E+02  0.56261802268E+02  0.73788091191E+02  0.96698612954E+02  0.10000000000E+01 0.  0.
    9000005    1    3    3    0    0  0.27194649311E+02 -0.56261802268E+02  0.75236292826E+02  0.97808175036E+02  0.10000000000E+01 0.  0.
<mgrwt>
<rscale>  0 0.12499849E+03</rscale>
<asrwt>0</asrwt>
<pdfrwt beam="2">  1        4 0.34986465E-02 0.12499849E+03</pdfrwt>
<pdfrwt beam="1">  1       -4 0.26425475E-01 0.12499849E+03</pdfrwt>
<totfact> 0.91072078E+03</totfact>
</mgrwt>
</event>
<event>
 5    1  0.3401591E-002  0.1249980E+03  0.7818608E-02  0.1235072E+00
          4   -1    0    0  501    0  0.00000000000E+00  0.00000000000E+00  0.15620406981E+02  0.15671949919E+02  0.12700000000E+01 0.  1.
         -4   -1    0    0    0  501 -0.00000000000E+00 -0.00000000000E+00 -0.24960030459E+03  0.24960353554E+03  0.12700000000E+01 0.  1.
         25    2    1    2    0    0  0.00000000000E+00  0.00000000000E+00 -0.23397989761E+03  0.26527548546E+03  0.12499796278E+03 0.  0.
    9000005    1    3    3    0    0  0.53798230230E+02  0.10838733580E+02 -0.18042304799E+03  0.18858739079E+03  0.10000000000E+01 0.  0.
    9000005    1    3    3    0    0 -0.53798230230E+02 -0.10838733580E+02 -0.53556849627E+02  0.76688094666E+02  0.10000000000E+01 0.  0.
<mgrwt>
<rscale>  0 0.12499796E+03</rscale>
<asrwt>0</asrwt>
<pdfrwt beam="1">  1        4 0.24073531E-02 0.12499796E+03</pdfrwt>
<pdfrwt beam="2">  1       -4 0.38404257E-01 0.12499796E+03</pdfrwt>
<totfact> 0.80175011E+03</totfact>
</mgrwt>
</event>
<event>
 5    1  0.3401591E-002  0.1250011E+03  0.7818608E-02  0.1235068E+00
          4   -1    0    0  501    0  0.00000000000E+00  0.00000000000E+00  0.83552910913E+02  0.83562562323E+02  0.12700000000E+01 0. -1.
         -4   -1    0    0    0  501 -0.00000000000E+00 -0.00000000000E+00 -0.46731663468E+02  0.46748917319E+02  0.12700000000E+01 0. -1.
         25    2    1    2    0    0  0.00000000000E+00  0.00000000000E+00  0.36821247445E+02  0.13031147964E+03  0.12500110985E+03 0.  0.
    9000005    1    3    3    0    0  0.61401407132E+01  0.32008043400E+02  0.73996584779E+02  0.80862294855E+02  0.10000000000E+01 0.  0.
    9000005    1    3    3    0    0 -0.61401407132E+01 -0.32008043400E+02 -0.37175337333E+02  0.49449184787E+02  0.10000000000E+01 0.  0.
<mgrwt>
<rscale>  0 0.12500111E+03</rscale>
<asrwt>0</asrwt>
<pdfrwt beam="1">  1        4 0.12856363E-01 0.12500111E+03</pdfrwt>
<pdfrwt beam="2">  1       -4 0.71915564E-02 0.12500111E+03</pdfrwt>
<totfact> 0.10337590E+04</totfact>
</mgrwt>
</event>
<event>
 5    1  0.3401591E-002  0.1249953E+03  0.7818608E-02  0.1235077E+00
          4   -1    0    0  501    0  0.00000000000E+00  0.00000000000E+00  0.84605896405E+01  0.85553770849E+01  0.12700000000E+01 0. -1.
         -4   -1    0    0    0  501 -0.00000000000E+00 -0.00000000000E+00 -0.45899730165E+03  0.45899905863E+03  0.12700000000E+01 0. -1.
         25    2    1    2    0    0  0.00000000000E+00  0.00000000000E+00 -0.45053671201E+03  0.46755443571E+03  0.12499528586E+03 0.  0.
    9000005    1    3    3    0    0 -0.60475964365E+02 -0.11696031832E+02 -0.18589162351E+03  0.19583369250E+03  0.10000000000E+01 0.  0.
    9000005    1    3    3    0    0  0.60475964365E+02  0.11696031832E+02 -0.26464508850E+03  0.27172074322E+03  0.10000000000E+01 0.  0.
<mgrwt>
<rscale>  0 0.12499529E+03</rscale>
<asrwt>0</asrwt>
<pdfrwt beam="1">  1        4 0.13090560E-02 0.12499529E+03</pdfrwt>
<pdfrwt beam="2">  1       -4 0.70622377E-01 0.12499529E+03</pdfrwt>
<totfact> 0.58478735E+03</totfact>
</mgrwt>
</event>
<event>
 5    1  0.3401591E-002  0.1249986E+03  0.7818608E-02  0.1235071E+00
         -4   -1    0    0    0  501 -0.00000000000E+00  0.00000000000E+00  0.40999159565E+03  0.40999356264E+03  0.12700000000E+01 0. -1.
          4   -1    0    0  501    0  0.00000000000E+00 -0.00000000000E+00 -0.94831011646E+01  0.95677639863E+01  0.12700000000E+01 0. -1.
         25    2    1    2    0    0  0.00000000000E+00  0.00000000000E+00  0.40050849449E+03  0.41956132663E+03  0.12499861056E+03 0.  0.
    9000005    1    3    3    0    0 -0.35633929942E+02 -0.34927070483E+02  0.73971783848E+02  0.89232852814E+02  0.10000000000E+01 0.  0.
    9000005    1    3    3    0    0  0.35633929942E+02  0.34927070483E+02  0.32653671064E+03  0.33032847381E+03  0.10000000000E+01 0.  0.
<mgrwt>
<rscale>  0 0.12499861E+03</rscale>
<asrwt>0</asrwt>
<pdfrwt beam="2">  1        4 0.14656029E-02 0.12499861E+03</pdfrwt>
<pdfrwt beam="1">  1       -4 0.63082277E-01 0.12499861E+03</pdfrwt>
<totfact> 0.62695656E+03</totfact>
</mgrwt>
</event>
<event>
 5    1  0.3401591E-002  0.1250010E+03  0.7818608E-02  0.1235068E+00
          4   -1    0    0  501    0  0.00000000000E+00  0.00000000000E+00  0.17579265585E+03  0.17579724330E+03  0.12700000000E+01 0.  1.
         -4   -1    0    0    0  501 -0.00000000000E+00 -0.00000000000E+00 -0.22198110969E+02  0.22234410957E+02  0.12700000000E+01 0.  1.
         25    2    1    2    0    0  0.00000000000E+00  0.00000000000E+00  0.15359454488E+03  0.19803165426E+03  0.12500100747E+03 0.  0.
    9000005    1    3    3    0    0 -0.74451200246E+01  0.62011803306E+02  0.80127723434E+02  0.10159894500E+03  0.10000000000E+01 0.  0.
    9000005    1    3    3    0    0  0.74451200246E+01 -0.62011803306E+02  0.73466821448E+02  0.96432709260E+02  0.10000000000E+01 0.  0.
<mgrwt>
<rscale>  0 0.12500101E+03</rscale>
<asrwt>0</asrwt>
<pdfrwt beam="1">  1        4 0.27048170E-01 0.12500101E+03</pdfrwt>
<pdfrwt beam="2">  1       -4 0.34182391E-02 0.12500101E+03</pdfrwt>
<totfact> 0.90466267E+03</totfact>
</mgrwt>
</event>
<event>
 5    1  0.3401591E-002  0.1249971E+03  0.7818608E-02  0.1235074E+00
         -4   -1    0    0    0  501 -0.00000000000E+00  0.00000000000E+00  0.92105589776E+02  0.92114345072E+02  0.12700000000E+01 0. -1.
          4   -1    0    0  501    0  0.00000000000E+00 -0.00000000000E+00 -0.42388304378E+02  0.42407325406E+02  0.12700000000E+01 0. -1.
         25    2    1    2    0    0  0.00000000000E+00  0.00000000000E+00  0.49717285398E+02  0.13452167048E+03  0.12499708541E+03 0.  0.
    9000005    1    3    3    0    0 -0.59859480261E+02 -0.73523377300E+01  0.42471957744E+02  0.73770464563E+02  0.10000000000E+01 0.  0.
    9000005    1    3    3    0    0  0.59859480261E+02  0.73523377300E+01  0.72453276532E+01  0.60751205914E+02  0.10000000000E+01 0.  0.
<mgrwt>
<rscale>  0 0.12499709E+03</rscale>
<asrwt>0</asrwt>
<pdfrwt beam="2">  1        4 0.65234142E-02 0.12499709E+03</pdfrwt>
<pdfrwt beam="1">  1       -4 0.14172227E-01 0.12499709E+03</pdfrwt>
<totfact> 0.10248836E+04</totfact>
</mgrwt>
</event>
<event>
 5    1  0.3401591E-002  0.1250008E+03  0.7818608E-02  0.1235068E+00
         -4   -1    0    0    0  501 -0.00000000000E+00  0.00000000000E+00  0.45907623525E+02  0.45925186965E+02  0.12700000000E+01 0. -1.
          4   -1    0    0  501    0  0.00000000000E+00 -0.00000000000E+00 -0.85051862510E+02  0.85061343843E+02  0.12700000000E+01 0. -1.
         25    2    1    2    0    0  0.00000000000E+00  0.00000000000E+00 -0.39144238984E+02  0.13098653081E+03  0.12500079923E+03 0.  0.
    9000005    1    3    3    0    0 -0.40596888911E+02  0.20880343982E+02 -0.64291226626E+02  0.78857199894E+02  0.10000000000E+01 0.  0.
    9000005    1    3    3    0    0  0.40596888911E+02 -0.20880343982E+02  0.25146987642E+02  0.52129330914E+02  0.10000000000E+01 0.  0.
<mgrwt>
<rscale>  0 0.12500080E+03</rscale>
<asrwt>0</asrwt>
<pdfrwt beam="2">  1        4 0.13086982E-01 0.12500080E+03</pdfrwt>
<pdfrwt beam="1">  1       -4 0.70647917E-02 0.12500080E+03</pdfrwt>
<totfact> 0.10323192E+04</totfact>
</mgrwt>
</event>
<event>
 5    1  0.3401591E-002  0.1250007E+03  0.7818608E-02  0.1235068E+00
         -4   -1    0    0    0  501 -0.00000000000E+00  0.00000000000E+00  0.46489767509E+02  0.46507111102E+02  0.12700000000E+01 0. -1.
          4   -1    0    0  501    0  0.00000000000E+00 -0.00000000000E+00 -0.83986929594E+02  0.83996531134E+02  0.12700000000E+01 0. -1.
         25    2    1    2    0    0  0.00000000000E+00  0.00000000000E+00 -0.37497162085E+02  0.13050364224E+03  0.12500065389E+03 0.  0.
    9000005    1    3    3    0    0 -0.47745263953E+02 -0.60990355770E+01 -0.60358948579E+02  0.77207584721E+02  0.10000000000E+01 0.  0.
    9000005    1    3    3    0    0  0.47745263953E+02  0.60990355770E+01  0.22861786494E+02  0.53296057515E+02  0.10000000000E+01 0.  0.
<mgrwt>
<rscale>  0 0.12500065E+03</rscale>
<asrwt>0</asrwt>
<pdfrwt beam="2">  1        4 0.12923139E-01 0.12500065E+03</pdfrwt>
<pdfrwt beam="1">  1       -4 0.71543447E-02 0.12500065E+03</pdfrwt>
<totfact> 0.10333590E+04</totfact>
</mgrwt>
</event>
<event>
 5    1  0.3401591E-002  0.1249727E+03  0.7818608E-02  0.1235112E+00
         -4   -1    0    0    0  501 -0.00000000000E+00  0.00000000000E+00  0.13353628364E+02  0.13413884243E+02  0.12700000000E+01 0.  1.
          4   -1    0    0  501    0  0.00000000000E+00 -0.00000000000E+00 -0.29167585645E+03  0.29167862133E+03  0.12700000000E+01 0.  1.
         25    2    1    2    0    0  0.00000000000E+00  0.00000000000E+00 -0.27832222809E+03  0.30509250557E+03  0.12497269424E+03 0.  0.
    9000005    1    3    3    0    0 -0.50396957824E+02  0.14493644661E+02 -0.22207907982E+03  0.22818859916E+03  0.10000000000E+01 0.  0.
    9000005    1    3    3    0    0  0.50396957824E+02 -0.14493644661E+02 -0.56243148275E+02  0.76903906411E+02  0.10000000000E+01 0.  0.
<mgrwt>
<rscale>  0 0.12497269E+03</rscale>
<asrwt>0</asrwt>
<pdfrwt beam="2">  1        4 0.44878052E-01 0.12497269E+03</pdfrwt>
<pdfrwt beam="1">  1       -4 0.20592523E-02 0.12497269E+03</pdfrwt>
<totfact> 0.75009899E+03</totfact>
</mgrwt>
</event>
<event>
 5    1  0.3401591E-002  0.1250031E+03  0.7818608E-02  0.1235065E+00
          4   -1    0    0  501    0  0.00000000000E+00  0.00000000000E+00  0.17464233189E+02  0.17510349537E+02  0.12700000000E+01 0. -1.
         -4   -1    0    0    0  501 -0.00000000000E+00 -0.00000000000E+00 -0.22333950137E+03  0.22334311221E+03  0.12700000000E+01 0. -1.
         25    2    1    2    0    0  0.00000000000E+00  0.00000000000E+00 -0.20587526818E+03  0.24085346175E+03  0.12500305591E+03 0.  0.
    9000005    1    3    3    0    0  0.10539929656E+02  0.32273761121E+02 -0.20402946452E+03  0.20683739547E+03  0.10000000000E+01 0.  0.
    9000005    1    3    3    0    0 -0.10539929656E+02 -0.32273761121E+02 -0.18458036676E+01  0.34016066281E+02  0.10000000000E+01 0.  0.
<mgrwt>
<rscale>  0 0.12500306E+03</rscale>
<asrwt>0</asrwt>
<pdfrwt beam="1">  1        4 0.26906304E-02 0.12500306E+03</pdfrwt>
<pdfrwt beam="2">  1       -4 0.34363746E-01 0.12500306E+03</pdfrwt>
<totfact> 0.83664725E+03</totfact>
</mgrwt>
</event>
<event>
 5    1  0.3401591E-002  0.1249984E+03  0.7818608E-02  0.1235072E+00
          4   -1    0    0  501    0  0.00000000000E+00  0.00000000000E+00  0.39659862148E+02  0.39680191098E+02  0.12700000000E+01 0.  1.
         -4   -1    0    0    0  501 -0.00000000000E+00 -0.00000000000E+00 -0.98441543328E+02  0.98449735158E+02  0.12700000000E+01 0.  1.
         25    2    1    2    0    0  0.00000000000E+00  0.00000000000E+00 -0.58781681180E+02  0.13812992626E+03  0.12499836193E+03 0.  0.
    9000005    1    3    3    0    0 -0.43634241725E+02  0.28870375285E+02 -0.67152360853E+02  0.85134512321E+02  0.10000000000E+01 0.  0.
    9000005    1    3    3    0    0  0.43634241725E+02 -0.28870375285E+02  0.83706796729E+01  0.52995413936E+02  0.10000000000E+01 0.  0.
<mgrwt>
<rscale>  0 0.12499836E+03</rscale>
<asrwt>0</asrwt>
<pdfrwt beam="1">  1        4 0.61037112E-02 0.12499836E+03</pdfrwt>
<pdfrwt beam="2">  1       -4 0.15147047E-01 0.12499836E+03</pdfrwt>
<totfact> 0.10172867E+04</totfact>
</mgrwt>
</event>
<event>
 5    1  0.3401591E-002  0.1250030E+03  0.7818608E-02  0.1235065E+00
         -4   -1    0    0    0  501 -0.00000000000E+00  0.00000000000E+00  0.23610926785E+01  0.26809809094E+01  0.12700000000E+01 0.  1.
          4   -1    0    0  501    0  0.00000000000E+00 -0.00000000000E+00 -0.15492170978E+04  0.15492176184E+04  0.12700000000E+01 0.  1.
         25    2    1    2    0    0  0.00000000000E+00  0.00000000000E+00 -0.15468560051E+04  0.15518985993E+04  0.12500304721E+03 0.  0.
    9000005    1    3    3    0    0  0.48301305669E+02  0.63041978388E+01 -0.28739172441E+03  0.29149230230E+03  0.10000000000E+01 0.  0.
    9000005    1    3    3    0    0 -0.48301305669E+02 -0.63041978388E+01 -0.12594642807E+04  0.12604062970E+04  0.10000000000E+01 0.  0.
<mgrwt>
<rscale>  0 0.12500305E+03</rscale>
<asrwt>0</asrwt>
<pdfrwt beam="2">  1        4 0.23836498E+00 0.12500305E+03</pdfrwt>
<pdfrwt beam="1">  1       -4 0.38789309E-03 0.12500305E+03</pdfrwt>
<totfact> 0.16931466E+03</totfact>
</mgrwt>
</event>
<event>
 5    1  0.3401591E-002  0.1249973E+03  0.7818608E-02  0.1235073E+00
         -4   -1    0    0    0  501 -0.00000000000E+00  0.00000000000E+00  0.17227201375E+02  0.17273950539E+02  0.12700000000E+01 0.  1.
          4   -1    0    0  501    0  0.00000000000E+00 -0.00000000000E+00 -0.22638355574E+03  0.22638711803E+03  0.12700000000E+01 0.  1.
         25    2    1    2    0    0  0.00000000000E+00  0.00000000000E+00 -0.20915635436E+03  0.24366106857E+03  0.12499734303E+03 0.  0.
    9000005    1    3    3    0    0 -0.13517687706E+02 -0.97611371951E+00 -0.22349374934E+03  0.22390653558E+03  0.10000000000E+01 0.  0.
    9000005    1    3    3    0    0  0.13517687706E+02  0.97611371951E+00  0.14337394979E+02  0.19754532990E+02  0.10000000000E+01 0.  0.
<mgrwt>
<rscale>  0 0.12499734E+03</rscale>
<asrwt>0</asrwt>
<pdfrwt beam="2">  1        4 0.34832107E-01 0.12499734E+03</pdfrwt>
<pdfrwt beam="1">  1       -4 0.26542089E-02 0.12499734E+03</pdfrwt>
<totfact> 0.83260051E+03</totfact>
</mgrwt>
</event>
<event>
 5    1  0.3401591E-002  0.1250003E+03  0.7818608E-02  0.1235069E+00
          4   -1    0    0  501    0  0.00000000000E+00  0.00000000000E+00  0.16424892203E+03  0.16425383188E+03  0.12700000000E+01 0.  1.
         -4   -1    0    0    0  501 -0.00000000000E+00 -0.00000000000E+00 -0.23760393149E+02  0.23794309879E+02  0.12700000000E+01 0.  1.
         25    2    1    2    0    0  0.00000000000E+00  0.00000000000E+00  0.14048852888E+03  0.18804814176E+03  0.12500030749E+03 0.  0.
    9000005    1    3    3    0    0  0.23555509161E+02 -0.56400992509E+02  0.89820611317E+02  0.10864932667E+03  0.10000000000E+01 0.  0.
    9000005    1    3    3    0    0 -0.23555509161E+02  0.56400992509E+02  0.50667917563E+02  0.79398815092E+02  0.10000000000E+01 0.  0.
<mgrwt>
<rscale>  0 0.12500031E+03</rscale>
<asrwt>0</asrwt>
<pdfrwt beam="1">  1        4 0.25272052E-01 0.12500031E+03</pdfrwt>
<pdfrwt beam="2">  1       -4 0.36584317E-02 0.12500031E+03</pdfrwt>
<totfact> 0.92187409E+03</totfact>
</mgrwt>
</event>
<event>
 5    1  0.3401591E-002  0.1250006E+03  0.7818608E-02  0.1235068E+00
         -4   -1    0    0    0  501 -0.00000000000E+00  0.00000000000E+00  0.47806417485E+02  0.47823283584E+02  0.12700000000E+01 0. -1.
          4   -1    0    0  501    0  0.00000000000E+00 -0.00000000000E+00 -0.81674273181E+02  0.81684146562E+02  0.12700000000E+01 0. -1.
         25    2    1    2    0    0  0.00000000000E+00  0.00000000000E+00 -0.33867855696E+02  0.12950743015E+03  0.12500057125E+03 0.  0.
    9000005    1    3    3    0    0  0.32545437260E+02 -0.76566471529E+01  0.37765992766E+02  0.50448983554E+02  0.10000000000E+01 0.  0.
    9000005    1    3    3    0    0 -0.32545437260E+02  0.76566471529E+01 -0.71633848462E+02  0.79058446592E+02  0.10000000000E+01 0.  0.
<mgrwt>
<rscale>  0 0.12500057E+03</rscale>
<asrwt>0</asrwt>
<pdfrwt beam="2">  1        4 0.12567330E-01 0.12500057E+03</pdfrwt>
<pdfrwt beam="1">  1       -4 0.73568903E-02 0.12500057E+03</pdfrwt>
<totfact> 0.10354922E+04</totfact>
</mgrwt>
</event>
<event>
 5    1  0.3401591E-002  0.1250013E+03  0.7818608E-02  0.1235067E+00
          4   -1    0    0  501    0  0.00000000000E+00  0.00000000000E+00  0.19146977840E+02  0.19189050534E+02  0.12700000000E+01 0. -1.
         -4   -1    0    0    0  501 -0.00000000000E+00 -0.00000000000E+00 -0.20375021698E+03  0.20375417497E+03  0.12700000000E+01 0. -1.
         25    2    1    2    0    0  0.00000000000E+00  0.00000000000E+00 -0.18460323914E+03  0.22294322550E+03  0.12500130359E+03 0.  0.
    9000005    1    3    3    0    0  0.19440866522E+02  0.53719768570E+02 -0.13747701695E+03  0.14887810791E+03  0.10000000000E+01 0.  0.
    9000005    1    3    3    0    0 -0.19440866522E+02 -0.53719768570E+02 -0.47126222187E+02  0.74065117592E+02  0.10000000000E+01 0.  0.
<mgrwt>
<rscale>  0 0.12500130E+03</rscale>
<asrwt>0</asrwt>
<pdfrwt beam="1">  1        4 0.29492299E-02 0.12500130E+03</pdfrwt>
<pdfrwt beam="2">  1       -4 0.31349727E-01 0.12500130E+03</pdfrwt>
<totfact> 0.86402240E+03</totfact>
</mgrwt>
</event>
<event>
 5    1  0.3401591E-002  0.1249903E+03  0.7818608E-02  0.1235084E+00
          4   -1    0    0  501    0  0.00000000000E+00  0.00000000000E+00  0.10569725285E+03  0.10570488239E+03  0.12700000000E+01 0. -1.
         -4   -1    0    0    0  501 -0.00000000000E+00 -0.00000000000E+00 -0.36931340452E+02  0.36953170467E+02  0.12700000000E+01 0. -1.
         25    2    1    2    0    0  0.00000000000E+00  0.00000000000E+00  0.68765912401E+02  0.14265805285E+03  0.12499027697E+03 0.  0.
    9000005    1    3    3    0    0  0.12474719910E+01 -0.27902662901E+02  0.98181716644E+02  0.10208214470E+03  0.10000000000E+01 0.  0.
    9000005    1    3    3    0    0 -0.12474719910E+01  0.27902662901E+02 -0.29415804243E+02  0.40575908155E+02  0.10000000000E+01 0.  0.
<mgrwt>
<rscale>  0 0.12499028E+03</rscale>
<asrwt>0</asrwt>
<pdfrwt beam="1">  1        4 0.16263382E-01 0.12499028E+03</pdfrwt>
<pdfrwt beam="2">  1       -4 0.56840109E-02 0.12499028E+03</pdfrwt>
<totfact> 0.10080998E+04</totfact>
</mgrwt>
</event>
<event>
 5    1  0.3401591E-002  0.1250006E+03  0.7818608E-02  0.1235068E+00
         -4   -1    0    0    0  501 -0.00000000000E+00  0.00000000000E+00  0.83123781947E+02  0.83133483177E+02  0.12700000000E+01 0.  1.
          4   -1    0    0  501    0  0.00000000000E+00 -0.00000000000E+00 -0.46972611190E+02  0.46989776569E+02  0.12700000000E+01 0.  1.
         25    2    1    2    0    0  0.00000000000E+00  0.00000000000E+00  0.36151170757E+02  0.13012325975E+03  0.12500062232E+03 0.  0.
    9000005    1    3    3    0    0  0.11479824233E+02  0.22471657382E+02 -0.41438368935E+02  0.48527313648E+02  0.10000000000E+01 0.  0.
    9000005    1    3    3    0    0 -0.11479824233E+02 -0.22471657382E+02  0.77589539692E+02  0.81595946097E+02  0.10000000000E+01 0.  0.
<mgrwt>
<rscale>  0 0.12500062E+03</rscale>
<asrwt>0</asrwt>
<pdfrwt beam="2">  1        4 0.72286222E-02 0.12500062E+03</pdfrwt>
<pdfrwt beam="1">  1       -4 0.12790341E-01 0.12500062E+03</pdfrwt>
<totfact> 0.10341726E+04</totfact>
</mgrwt>
</event>
<event>
 5    1  0.3401591E-002  0.1249974E+03  0.7818608E-02  0.1235073E+00
          4   -1    0    0  501    0  0.00000000000E+00  0.00000000000E+00  0.20352321751E+02  0.20391907724E+02  0.12700000000E+01 0.  1.
         -4   -1    0    0    0  501 -0.00000000000E+00 -0.00000000000E+00 -0.19169518605E+03  0.19169939294E+03  0.12700000000E+01 0.  1.
         25    2    1    2    0    0  0.00000000000E+00  0.00000000000E+00 -0.17134286430E+03  0.21209130067E+03  0.12499737066E+03 0.  0.
    9000005    1    3    3    0    0 -0.19073076371E+02 -0.30118103523E+02  0.14142222652E+01  0.35691489555E+02  0.10000000000E+01 0.  0.
    9000005    1    3    3    0    0  0.19073076371E+02  0.30118103523E+02 -0.17275708657E+03  0.17639981111E+03  0.10000000000E+01 0.  0.
<mgrwt>
<rscale>  0 0.12499737E+03</rscale>
<asrwt>0</asrwt>
<pdfrwt beam="1">  1        4 0.31344952E-02 0.12499737E+03</pdfrwt>
<pdfrwt beam="2">  1       -4 0.29494935E-01 0.12499737E+03</pdfrwt>
<totfact> 0.88140660E+03</totfact>
</mgrwt>
</event>
<event>
 5    1  0.3401591E-002  0.1249792E+03  0.7818608E-02  0.1235102E+00
         -4   -1    0    0    0  501 -0.00000000000E+00  0.00000000000E+00  0.81323507048E+01  0.82309190243E+01  0.12700000000E+01 0. -1.
          4   -1    0    0  501    0  0.00000000000E+00 -0.00000000000E+00 -0.47718276128E+03  0.47718445130E+03  0.12700000000E+01 0. -1.
         25    2    1    2    0    0  0.00000000000E+00  0.00000000000E+00 -0.46905041058E+03  0.48541537033E+03  0.12497917461E+03 0.  0.
    9000005    1    3    3    0    0  0.61848739942E+02 -0.74063005531E+01 -0.25348462969E+03  0.26102792458E+03  0.10000000000E+01 0.  0.
    9000005    1    3    3    0    0 -0.61848739942E+02  0.74063005531E+01 -0.21556578089E+03  0.22438744575E+03  0.10000000000E+01 0.  0.
<mgrwt>
<rscale>  0 0.12497917E+03</rscale>
<asrwt>0</asrwt>
<pdfrwt beam="2">  1        4 0.73420423E-01 0.12497917E+03</pdfrwt>
<pdfrwt beam="1">  1       -4 0.12588434E-02 0.12497917E+03</pdfrwt>
<totfact> 0.57040118E+03</totfact>
</mgrwt>
</event>
<event>
 5    1  0.3401591E-002  0.1250056E+03  0.7818608E-02  0.1235061E+00
          4   -1    0    0  501    0  0.00000000000E+00  0.00000000000E+00  0.27029599221E+03  0.27029897577E+03  0.12700000000E+01 0. -1.
         -4   -1    0    0    0  501 -0.00000000000E+00 -0.00000000000E+00 -0.14422067962E+02  0.14477877755E+02  0.12700000000E+01 0. -1.
         25    2    1    2    0    0  0.00000000000E+00  0.00000000000E+00  0.25587392425E+03  0.28477685353E+03  0.12500556466E+03 0.  0.
    9000005    1    3    3    0    0 -0.54948341268E+02 -0.24343594898E+02  0.88897583329E+02  0.10731128152E+03  0.10000000000E+01 0.  0.
    9000005    1    3    3    0    0  0.54948341268E+02  0.24343594898E+02  0.16697634092E+03  0.17746557200E+03  0.10000000000E+01 0.  0.
<mgrwt>
<rscale>  0 0.12500556E+03</rscale>
<asrwt>0</asrwt>
<pdfrwt beam="1">  1        4 0.41588519E-01 0.12500556E+03</pdfrwt>
<pdfrwt beam="2">  1       -4 0.22233024E-02 0.12500556E+03</pdfrwt>
<totfact> 0.77539375E+03</totfact>
</mgrwt>
</event>
<event>
 5    1  0.3401591E-002  0.1250105E+03  0.7818608E-02  0.1235053E+00
         -4   -1    0    0    0  501 -0.00000000000E+00  0.00000000000E+00  0.30449215926E+01  0.32991586057E+01  0.12700000000E+01 0. -1.
          4   -1    0    0  501    0  0.00000000000E+00 -0.00000000000E+00 -0.12314160825E+04  0.12314167374E+04  0.12700000000E+01 0. -1.
         25    2    1    2    0    0  0.00000000000E+00  0.00000000000E+00 -0.12283711609E+04  0.12347158960E+04  0.12501053912E+03 0.  0.
    9000005    1    3    3    0    0  0.18653302469E+02  0.23978867652E+01 -0.12028528933E+04  0.12030003236E+04  0.10000000000E+01 0.  0.
    9000005    1    3    3    0    0 -0.18653302469E+02 -0.23978867652E+01 -0.25518267607E+02  0.31715572447E+02  0.10000000000E+01 0.  0.
<mgrwt>
<rscale>  0 0.12501054E+03</rscale>
<asrwt>0</asrwt>
<pdfrwt beam="2">  1        4 0.18946785E+00 0.12501054E+03</pdfrwt>
<pdfrwt beam="1">  1       -4 0.48805753E-03 0.12501054E+03</pdfrwt>
<totfact> 0.23816307E+03</totfact>
</mgrwt>
</event>
<event>
 5    1  0.3401591E-002  0.1249997E+03  0.7818608E-02  0.1235070E+00
          4   -1    0    0  501    0  0.00000000000E+00  0.00000000000E+00  0.18800926821E+02  0.18843772163E+02  0.12700000000E+01 0.  1.
         -4   -1    0    0    0  501 -0.00000000000E+00 -0.00000000000E+00 -0.20748678464E+03  0.20749067136E+03  0.12700000000E+01 0.  1.
         25    2    1    2    0    0  0.00000000000E+00  0.00000000000E+00 -0.18868585782E+03  0.22633444352E+03  0.12499970953E+03 0.  0.
    9000005    1    3    3    0    0 -0.30659951082E+02  0.54150554357E+02 -0.83954500660E+02  0.10450680992E+03  0.10000000000E+01 0.  0.
    9000005    1    3    3    0    0  0.30659951082E+02 -0.54150554357E+02 -0.10473135716E+03  0.12182763360E+03  0.10000000000E+01 0.  0.
<mgrwt>
<rscale>  0 0.12499971E+03</rscale>
<asrwt>0</asrwt>
<pdfrwt beam="1">  1        4 0.28960452E-02 0.12499971E+03</pdfrwt>
<pdfrwt beam="2">  1       -4 0.31924637E-01 0.12499971E+03</pdfrwt>
<totfact> 0.85876200E+03</totfact>
</mgrwt>
</event>
<event>
 5    1  0.3401591E-002  0.1249923E+03  0.7818608E-02  0.1235081E+00
         -4   -1    0    0    0  501 -0.00000000000E+00  0.00000000000E+00  0.11069884512E+03  0.11070612996E+03  0.12700000000E+01 0. -1.
          4   -1    0    0  501    0  0.00000000000E+00 -0.00000000000E+00 -0.35262927995E+02  0.35285790211E+02  0.12700000000E+01 0. -1.
         25    2    1    2    0    0  0.00000000000E+00  0.00000000000E+00  0.75435917128E+02  0.14599192017E+03  0.12499225241E+03 0.  0.
    9000005    1    3    3    0    0  0.52303140965E+02 -0.19520746149E+02  0.70507323300E+02  0.89938649778E+02  0.10000000000E+01 0.  0.
    9000005    1    3    3    0    0 -0.52303140965E+02  0.19520746149E+02  0.49285938281E+01  0.56053270396E+02  0.10000000000E+01 0.  0.
<mgrwt>
<rscale>  0 0.12499225E+03</rscale>
<asrwt>0</asrwt>
<pdfrwt beam="2">  1        4 0.54273849E-02 0.12499225E+03</pdfrwt>
<pdfrwt beam="1">  1       -4 0.17032910E-01 0.12499225E+03</pdfrwt>
<totfact> 0.10012620E+04</totfact>
</mgrwt>
</event>
<event>
 5    1  0.3401591E-002  0.1250036E+03  0.7818608E-02  0.1235064E+00
          4   -1    0    0  501    0  0.00000000000E+00  0.00000000000E+00  0.25582198766E+02  0.25613703241E+02  0.12700000000E+01 0.  1.
         -4   -1    0    0    0  501 -0.00000000000E+00 -0.00000000000E+00 -0.15257473237E+03  0.15258001789E+03  0.12700000000E+01 0.  1.
         25    2    1    2    0    0  0.00000000000E+00  0.00000000000E+00 -0.12699253361E+03  0.17819372113E+03  0.12500359458E+03 0.  0.
    9000005    1    3    3    0    0 -0.29380810288E+02 -0.50852066556E+01 -0.14178750489E+03  0.14489233204E+03  0.10000000000E+01 0.  0.
    9000005    1    3    3    0    0  0.29380810288E+02  0.50852066556E+01  0.14794971286E+02  0.33301389089E+02  0.10000000000E+01 0.  0.
<mgrwt>
<rscale>  0 0.12500359E+03</rscale>
<asrwt>0</asrwt>
<pdfrwt beam="1">  1        4 0.39385530E-02 0.12500359E+03</pdfrwt>
<pdfrwt beam="2">  1       -4 0.23475865E-01 0.12500359E+03</pdfrwt>
<totfact> 0.93935581E+03</totfact>
</mgrwt>
</event>
<event>
 5    1  0.3401591E-002  0.1249963E+03  0.7818608E-02  0.1235075E+00
          4   -1    0    0  501    0  0.00000000000E+00  0.00000000000E+00  0.80450577487E+02  0.80460601029E+02  0.12700000000E+01 0. -1.
         -4   -1    0    0    0  501 -0.00000000000E+00 -0.00000000000E+00 -0.48530428494E+02  0.48547043059E+02  0.12700000000E+01 0. -1.
         25    2    1    2    0    0  0.00000000000E+00  0.00000000000E+00  0.31920148993E+02  0.12900764409E+03  0.12499630523E+03 0.  0.
    9000005    1    3    3    0    0 -0.60706686935E+02  0.12244315094E+02  0.24582456916E+02  0.66637243931E+02  0.10000000000E+01 0.  0.
    9000005    1    3    3    0    0  0.60706686935E+02 -0.12244315094E+02  0.73376920770E+01  0.62370400157E+02  0.10000000000E+01 0.  0.
<mgrwt>
<rscale>  0 0.12499631E+03</rscale>
<asrwt>0</asrwt>
<pdfrwt beam="1">  1        4 0.12379061E-01 0.12499631E+03</pdfrwt>
<pdfrwt beam="2">  1       -4 0.74682689E-02 0.12499631E+03</pdfrwt>
<totfact> 0.10366647E+04</totfact>
</mgrwt>
</event>
<event>
 5    1  0.3401591E-002  0.1249923E+03  0.7818608E-02  0.1235081E+00
         -4   -1    0    0    0  501 -0.00000000000E+00  0.00000000000E+00  0.66886128117E+02  0.66898184090E+02  0.12700000000E+01 0.  1.
          4   -1    0    0  501    0  0.00000000000E+00 -0.00000000000E+00 -0.58370038075E+02  0.58383852604E+02  0.12700000000E+01 0.  1.
         25    2    1    2    0    0  0.00000000000E+00  0.00000000000E+00  0.85160900426E+01  0.12528203669E+03  0.12499225947E+03 0.  0.
    9000005    1    3    3    0    0 -0.16809994963E+01  0.25534836032E+01 -0.58299952984E+02  0.58388616662E+02  0.10000000000E+01 0.  0.
    9000005    1    3    3    0    0  0.16809994963E+01 -0.25534836032E+01  0.66816043026E+02  0.66893420031E+02  0.10000000000E+01 0.  0.
<mgrwt>
<rscale>  0 0.12499226E+03</rscale>
<asrwt>0</asrwt>
<pdfrwt beam="2">  1        4 0.89819959E-02 0.12499226E+03</pdfrwt>
<pdfrwt beam="1">  1       -4 0.10292164E-01 0.12499226E+03</pdfrwt>
<totfact> 0.10448567E+04</totfact>
</mgrwt>
</event>
<event>
 5    1  0.3401591E-002  0.1250001E+03  0.7818608E-02  0.1235069E+00
          4   -1    0    0  501    0  0.00000000000E+00  0.00000000000E+00  0.42403155278E+02  0.42422169646E+02  0.12700000000E+01 0.  1.
         -4   -1    0    0    0  501 -0.00000000000E+00 -0.00000000000E+00 -0.92077713020E+02  0.92086470966E+02  0.12700000000E+01 0.  1.
         25    2    1    2    0    0  0.00000000000E+00  0.00000000000E+00 -0.49674557743E+02  0.13450864061E+03  0.12500005085E+03 0.  0.
    9000005    1    3    3    0    0  0.26700639251E+02 -0.31705071826E+02 -0.75161382495E+02  0.85839205113E+02  0.10000000000E+01 0.  0.
    9000005    1    3    3    0    0 -0.26700639251E+02  0.31705071826E+02  0.25486824752E+02  0.48669435500E+02  0.10000000000E+01 0.  0.
<mgrwt>
<rscale>  0 0.12500005E+03</rscale>
<asrwt>0</asrwt>
<pdfrwt beam="1">  1        4 0.65256987E-02 0.12500005E+03</pdfrwt>
<pdfrwt beam="2">  1       -4 0.14167938E-01 0.12500005E+03</pdfrwt>
<totfact> 0.10248426E+04</totfact>
</mgrwt>
</event>
<event>
 5    1  0.3401591E-002  0.1249873E+03  0.7818608E-02  0.1235089E+00
         -4   -1    0    0    0  501 -0.00000000000E+00  0.00000000000E+00  0.96286000153E+00  0.15937375513E+01  0.12700000000E+01 0.  1.
          4   -1    0    0  501    0  0.00000000000E+00 -0.00000000000E+00 -0.30545654732E+04  0.30545657372E+04  0.12700000000E+01 0.  1.
         25    2    1    2    0    0  0.00000000000E+00  0.00000000000E+00 -0.30536026131E+04  0.30561594747E+04  0.12498726283E+03 0.  0.
    9000005    1    3    3    0    0  0.14954279067E+02 -0.60669750704E+02 -0.15250976762E+04  0.15263775323E+04  0.10000000000E+01 0.  0.
    9000005    1    3    3    0    0 -0.14954279067E+02  0.60669750704E+02 -0.15285049370E+04  0.15297819425E+04  0.10000000000E+01 0.  0.
<mgrwt>
<rscale>  0 0.12498726E+03</rscale>
<asrwt>0</asrwt>
<pdfrwt beam="2">  1        4 0.46997586E+00 0.12498726E+03</pdfrwt>
<pdfrwt beam="1">  1       -4 0.19668410E-03 0.12498726E+03</pdfrwt>
<totfact> 0.16145351E+02</totfact>
</mgrwt>
</event>
<event>
 5    1  0.3401591E-002  0.1250044E+03  0.7818608E-02  0.1235062E+00
          4   -1    0    0  501    0  0.00000000000E+00  0.00000000000E+00  0.12025060135E+03  0.12025730758E+03  0.12700000000E+01 0.  1.
         -4   -1    0    0    0  501 -0.00000000000E+00 -0.00000000000E+00 -0.32466520571E+02  0.32491350511E+02  0.12700000000E+01 0.  1.
         25    2    1    2    0    0  0.00000000000E+00  0.00000000000E+00  0.87784080783E+02  0.15274865809E+03  0.12500443076E+03 0.  0.
    9000005    1    3    3    0    0 -0.59118124786E+02 -0.13510589206E+02  0.25439514384E+02  0.65769731571E+02  0.10000000000E+01 0.  0.
    9000005    1    3    3    0    0  0.59118124786E+02  0.13510589206E+02  0.62344566399E+02  0.86978926519E+02  0.10000000000E+01 0.  0.
<mgrwt>
<rscale>  0 0.12500443E+03</rscale>
<asrwt>0</asrwt>
<pdfrwt beam="1">  1        4 0.18502518E-01 0.12500443E+03</pdfrwt>
<pdfrwt beam="2">  1       -4 0.49972753E-02 0.12500443E+03</pdfrwt>
<totfact> 0.98748745E+03</totfact>
</mgrwt>
</event>
<event>
 5    1  0.3401591E-002  0.1249937E+03  0.7818608E-02  0.1235079E+00
          4   -1    0    0  501    0  0.00000000000E+00  0.00000000000E+00  0.26865830023E+03  0.26866130199E+03  0.12700000000E+01 0.  1.
         -4   -1    0    0    0  501 -0.00000000000E+00 -0.00000000000E+00 -0.14507564956E+02  0.14563047104E+02  0.12700000000E+01 0.  1.
         25    2    1    2    0    0  0.00000000000E+00  0.00000000000E+00  0.25415073528E+03  0.28322434909E+03  0.12499374254E+03 0.  0.
    9000005    1    3    3    0    0  0.58664173059E+02  0.20571608601E+02  0.11271182609E+03  0.12872308271E+03  0.10000000000E+01 0.  0.
    9000005    1    3    3    0    0 -0.58664173059E+02 -0.20571608601E+02  0.14143890919E+03  0.15450126638E+03  0.10000000000E+01 0.  0.
<mgrwt>
<rscale>  0 0.12499374E+03</rscale>
<asrwt>0</asrwt>
<pdfrwt beam="1">  1        4 0.41336542E-01 0.12499374E+03</pdfrwt>
<pdfrwt beam="2">  1       -4 0.22364320E-02 0.12499374E+03</pdfrwt>
<totfact> 0.77763328E+03</totfact>
</mgrwt>
</event>
<event>
 5    1  0.3401591E-002  0.1250108E+03  0.7818608E-02  0.1235052E+00
         -4   -1    0    0    0  501 -0.00000000000E+00  0.00000000000E+00  0.85950215709E+01  0.86883425234E+01  0.12700000000E+01 0.  1.
          4   -1    0    0  501    0  0.00000000000E+00 -0.00000000000E+00 -0.45200781309E+03  0.45200959724E+03  0.12700000000E+01 0.  1.
         25    2    1    2    0    0  0.00000000000E+00  0.00000000000E+00 -0.44341279152E+03  0.46069793976E+03  0.12501075160E+03 0.  0.
    9000005    1    3    3    0    0  0.46698275904E+02  0.36903927583E+02 -0.29194850025E+03  0.29795562697E+03  0.10000000000E+01 0.  0.
    9000005    1    3    3    0    0 -0.46698275904E+02 -0.36903927583E+02 -0.15146429127E+03  0.16274231279E+03  0.10000000000E+01 0.  0.
<mgrwt>
<rscale>  0 0.12501075E+03</rscale>
<asrwt>0</asrwt>
<pdfrwt beam="2">  1        4 0.69546961E-01 0.12501075E+03</pdfrwt>
<pdfrwt beam="1">  1       -4 0.13296271E-02 0.12501075E+03</pdfrwt>
<totfact> 0.59034141E+03</totfact>
</mgrwt>
</event>
<event>
 5    1  0.3401591E-002  0.1249952E+03  0.7818608E-02  0.1235077E+00
          4   -1    0    0  501    0  0.00000000000E+00  0.00000000000E+00  0.29245737305E+03  0.29246013053E+03  0.12700000000E+01 0.  1.
         -4   -1    0    0    0  501 -0.00000000000E+00 -0.00000000000E+00 -0.13322596996E+02  0.13382992592E+02  0.12700000000E+01 0.  1.
         25    2    1    2    0    0  0.00000000000E+00  0.00000000000E+00  0.27913477605E+03  0.30584312312E+03  0.12499517095E+03 0.  0.
    9000005    1    3    3    0    0 -0.13485799095E+02  0.53262260056E+02  0.66726612748E+02  0.86441749012E+02  0.10000000000E+01 0.  0.
    9000005    1    3    3    0    0  0.13485799095E+02 -0.53262260056E+02  0.21240816330E+03  0.21940137411E+03  0.10000000000E+01 0.  0.
<mgrwt>
<rscale>  0 0.12499517E+03</rscale>
<asrwt>0</asrwt>
<pdfrwt beam="1">  1        4 0.44998296E-01 0.12499517E+03</pdfrwt>
<pdfrwt beam="2">  1       -4 0.20544884E-02 0.12499517E+03</pdfrwt>
<totfact> 0.74879711E+03</totfact>
</mgrwt>
</event>
<event>
 5    1  0.3401591E-002  0.1250118E+03  0.7818608E-02  0.1235051E+00
          4   -1    0    0  501    0  0.00000000000E+00  0.00000000000E+00  0.15629400428E+02  0.15680913804E+02  0.12700000000E+01 0. -1.
         -4   -1    0    0    0  501 -0.00000000000E+00 -0.00000000000E+00 -0.24951246493E+03  0.24951569701E+03  0.12700000000E+01 0. -1.
         25    2    1    2    0    0  0.00000000000E+00  0.00000000000E+00 -0.23388306450E+03  0.26519661082E+03  0.12501181755E+03 0.  0.
    9000005    1    3    3    0    0  0.80864967791E+01  0.40277983110E+02 -0.17027794293E+02  0.44482054044E+02  0.10000000000E+01 0.  0.
    9000005    1    3    3    0    0 -0.80864967791E+01 -0.40277983110E+02 -0.21685527021E+03  0.22071455677E+03  0.10000000000E+01 0.  0.
<mgrwt>
<rscale>  0 0.12501182E+03</rscale>
<asrwt>0</asrwt>
<pdfrwt beam="1">  1        4 0.24087345E-02 0.12501182E+03</pdfrwt>
<pdfrwt beam="2">  1       -4 0.38390741E-01 0.12501182E+03</pdfrwt>
<totfact> 0.80161197E+03</totfact>
</mgrwt>
</event>
<event>
 5    1  0.3401591E-002  0.1250007E+03  0.7818608E-02  0.1235068E+00
         -4   -1    0    0    0  501 -0.00000000000E+00  0.00000000000E+00  0.19725086924E+03  0.19725495764E+03  0.12700000000E+01 0. -1.
          4   -1    0    0  501    0  0.00000000000E+00 -0.00000000000E+00 -0.19779027969E+02  0.19819759014E+02  0.12700000000E+01 0. -1.
         25    2    1    2    0    0  0.00000000000E+00  0.00000000000E+00  0.17747184127E+03  0.21707471666E+03  0.12500071267E+03 0.  0.
    9000005    1    3    3    0    0  0.39044413166E+02 -0.35669994392E+02  0.30918241614E+02  0.61267873832E+02  0.10000000000E+01 0.  0.
    9000005    1    3    3    0    0 -0.39044413166E+02  0.35669994392E+02  0.14655359966E+03  0.15580684283E+03  0.10000000000E+01 0.  0.
<mgrwt>
<rscale>  0 0.12500071E+03</rscale>
<asrwt>0</asrwt>
<pdfrwt beam="2">  1        4 0.30463751E-02 0.12500071E+03</pdfrwt>
<pdfrwt beam="1">  1       -4 0.30349734E-01 0.12500071E+03</pdfrwt>
<totfact> 0.87331974E+03</totfact>
</mgrwt>
</event>
<event>
 5    1  0.3401591E-002  0.1249985E+03  0.7818608E-02  0.1235072E+00
          4   -1    0    0  501    0  0.00000000000E+00  0.00000000000E+00  0.50917327569E+03  0.50917485953E+03  0.12700000000E+01 0. -1.
         -4   -1    0    0    0  501 -0.00000000000E+00 -0.00000000000E+00 -0.76173992120E+01  0.77225430238E+01  0.12700000000E+01 0. -1.
         25    2    1    2    0    0  0.00000000000E+00  0.00000000000E+00  0.50155587647E+03  0.51689740255E+03  0.12499851014E+03 0.  0.
    9000005    1    3    3    0    0  0.24510301097E+01  0.31917271005E+02  0.47271442898E+03  0.47379811218E+03  0.10000000000E+01 0.  0.
    9000005    1    3    3    0    0 -0.24510301097E+01 -0.31917271005E+02  0.28841447494E+02  0.43099290371E+02  0.10000000000E+01 0.  0.
<mgrwt>
<rscale>  0 0.12499851E+03</rscale>
<asrwt>0</asrwt>
<pdfrwt beam="1">  1        4 0.78342534E-01 0.12499851E+03</pdfrwt>
<pdfrwt beam="2">  1       -4 0.11801178E-02 0.12499851E+03</pdfrwt>
<totfact> 0.54578561E+03</totfact>
</mgrwt>
</event>
<event>
 5    1  0.3401591E-002  0.1250011E+03  0.7818608E-02  0.1235068E+00
         -4   -1    0    0    0  501 -0.00000000000E+00  0.00000000000E+00  0.20809150398E+02  0.20847868962E+02  0.12700000000E+01 0. -1.
          4   -1    0    0  501    0  0.00000000000E+00 -0.00000000000E+00 -0.18750580151E+03  0.18751010240E+03  0.12700000000E+01 0. -1.
         25    2    1    2    0    0  0.00000000000E+00  0.00000000000E+00 -0.16669665112E+03  0.20835797136E+03  0.12500108294E+03 0.  0.
    9000005    1    3    3    0    0 -0.36340998693E+02 -0.90185067735E+01 -0.16674604703E+03  0.17090127516E+03  0.10000000000E+01 0.  0.
    9000005    1    3    3    0    0  0.36340998693E+02  0.90185067735E+01  0.49395914531E-01  0.37456696202E+02  0.10000000000E+01 0.  0.
<mgrwt>
<rscale>  0 0.12500108E+03</rscale>
<asrwt>0</asrwt>
<pdfrwt beam="2">  1        4 0.28850355E-01 0.12500108E+03</pdfrwt>
<pdfrwt beam="1">  1       -4 0.32047171E-02 0.12500108E+03</pdfrwt>
<totfact> 0.88742601E+03</totfact>
</mgrwt>
</event>
<event>
 5    1  0.3401591E-002  0.1249987E+03  0.7818608E-02  0.1235071E+00
         -4   -1    0    0    0  501 -0.00000000000E+00  0.00000000000E+00  0.27785162995E+03  0.27785453239E+03  0.12700000000E+01 0.  1.
          4   -1    0    0  501    0  0.00000000000E+00 -0.00000000000E+00 -0.14026806279E+02  0.14084182418E+02  0.12700000000E+01 0.  1.
         25    2    1    2    0    0  0.00000000000E+00  0.00000000000E+00  0.26382482368E+03  0.29193871481E+03  0.12499870245E+03 0.  0.
    9000005    1    3    3    0    0 -0.41944452907E+01  0.36338260272E+02  0.13578800295E+02  0.39031350839E+02  0.10000000000E+01 0.  0.
    9000005    1    3    3    0    0  0.41944452907E+01 -0.36338260272E+02  0.25024602338E+03  0.25290736397E+03  0.10000000000E+01 0.  0.
<mgrwt>
<rscale>  0 0.12499870E+03</rscale>
<asrwt>0</asrwt>
<pdfrwt beam="2">  1        4 0.21626074E-02 0.12499870E+03</pdfrwt>
<pdfrwt beam="1">  1       -4 0.42751034E-01 0.12499870E+03</pdfrwt>
<totfact> 0.76623499E+03</totfact>
</mgrwt>
</event>
<event>
 5    1  0.3401591E-002  0.1249996E+03  0.7818608E-02  0.1235070E+00
          4   -1    0    0  501    0  0.00000000000E+00  0.00000000000E+00  0.34722475841E+02  0.34745693668E+02  0.12700000000E+01 0. -1.
         -4   -1    0    0    0  501 -0.00000000000E+00 -0.00000000000E+00 -0.11243405659E+03  0.11244122901E+03  0.12700000000E+01 0. -1.
         25    2    1    2    0    0  0.00000000000E+00  0.00000000000E+00 -0.77711580752E+02  0.14718692268E+03  0.12499960170E+03 0.  0.
    9000005    1    3    3    0    0 -0.22576457702E+02  0.51154361567E+02 -0.71715400202E+02  0.90942640031E+02  0.10000000000E+01 0.  0.
    9000005    1    3    3    0    0  0.22576457702E+02 -0.51154361567E+02 -0.59961805501E+01  0.56244282650E+02  0.10000000000E+01 0.  0.
<mgrwt>
<rscale>  0 0.12499960E+03</rscale>
<asrwt>0</asrwt>
<pdfrwt beam="1">  1        4 0.53442571E-02 0.12499960E+03</pdfrwt>
<pdfrwt beam="2">  1       -4 0.17299885E-01 0.12499960E+03</pdfrwt>
<totfact> 0.99868323E+03</totfact>
</mgrwt>
</event>
<event>
 5    1  0.3401591E-002  0.1250051E+03  0.7818608E-02  0.1235061E+00
          4   -1    0    0  501    0  0.00000000000E+00  0.00000000000E+00  0.11588842120E+04  0.11588849079E+04  0.12700000000E+01 0. -1.
         -4   -1    0    0    0  501 -0.00000000000E+00 -0.00000000000E+00 -0.32506352400E+01  0.34899182603E+01  0.12700000000E+01 0. -1.
         25    2    1    2    0    0  0.00000000000E+00  0.00000000000E+00  0.11556335768E+04  0.11623748262E+04  0.12500509078E+03 0.  0.
    9000005    1    3    3    0    0 -0.21004248234E+02  0.41571825945E+02  0.19036738370E+03  0.19598504007E+03  0.10000000000E+01 0.  0.
    9000005    1    3    3    0    0  0.21004248234E+02 -0.41571825945E+02  0.96526619309E+03  0.96638978610E+03  0.10000000000E+01 0.  0.
<mgrwt>
<rscale>  0 0.12500509E+03</rscale>
<asrwt>0</asrwt>
<pdfrwt beam="1">  1        4 0.17830874E+00 0.12500509E+03</pdfrwt>
<pdfrwt beam="2">  1       -4 0.51855647E-03 0.12500509E+03</pdfrwt>
<totfact> 0.25716435E+03</totfact>
</mgrwt>
</event>
<event>
 5    1  0.3401591E-002  0.1250012E+03  0.7818608E-02  0.1235067E+00
          4   -1    0    0  501    0  0.00000000000E+00  0.00000000000E+00  0.38244202773E+03  0.38244413641E+03  0.12700000000E+01 0. -1.
         -4   -1    0    0    0  501 -0.00000000000E+00 -0.00000000000E+00 -0.10172540910E+02  0.10251511526E+02  0.12700000000E+01 0. -1.
         25    2    1    2    0    0  0.00000000000E+00  0.00000000000E+00  0.37226948682E+03  0.39269564793E+03  0.12500120435E+03 0.  0.
    9000005    1    3    3    0    0  0.15584394440E+02 -0.31760287268E+02  0.24300375824E+02  0.42931310982E+02  0.10000000000E+01 0.  0.
    9000005    1    3    3    0    0 -0.15584394440E+02  0.31760287268E+02  0.34796911099E+03  0.34976433695E+03  0.10000000000E+01 0.  0.
<mgrwt>
<rscale>  0 0.12500120E+03</rscale>
<asrwt>0</asrwt>
<pdfrwt beam="1">  1        4 0.58843480E-01 0.12500120E+03</pdfrwt>
<pdfrwt beam="2">  1       -4 0.15712430E-02 0.12500120E+03</pdfrwt>
<totfact> 0.65267713E+03</totfact>
</mgrwt>
</event>
<event>
 5    1  0.3401591E-002  0.1250007E+03  0.7818608E-02  0.1235068E+00
          4   -1    0    0  501    0  0.00000000000E+00  0.00000000000E+00  0.66457445919E+03  0.66457567267E+03  0.12700000000E+01 0.  1.
         -4   -1    0    0    0  501 -0.00000000000E+00 -0.00000000000E+00 -0.58080576802E+01  0.59452867060E+01  0.12700000000E+01 0.  1.
         25    2    1    2    0    0  0.00000000000E+00  0.00000000000E+00  0.65876640151E+03  0.67052095938E+03  0.12500074083E+03 0.  0.
    9000005    1    3    3    0    0 -0.60390714677E+02  0.19278391917E+01  0.24380189358E+03  0.25117945437E+03  0.10000000000E+01 0.  0.
    9000005    1    3    3    0    0  0.60390714677E+02 -0.19278391917E+01  0.41496450793E+03  0.41934150501E+03  0.10000000000E+01 0.  0.
<mgrwt>
<rscale>  0 0.12500074E+03</rscale>
<asrwt>0</asrwt>
<pdfrwt beam="1">  1        4 0.10225292E+00 0.12500074E+03</pdfrwt>
<pdfrwt beam="2">  1       -4 0.90419631E-03 0.12500074E+03</pdfrwt>
<totfact> 0.44688445E+03</totfact>
</mgrwt>
</event>
<event>
 5    1  0.3401591E-002  0.1250003E+03  0.7818608E-02  0.1235069E+00
          4   -1    0    0  501    0  0.00000000000E+00  0.00000000000E+00  0.17125977683E+02  0.17173002405E+02  0.12700000000E+01 0.  1.
         -4   -1    0    0    0  501 -0.00000000000E+00 -0.00000000000E+00 -0.22772874267E+03  0.22773228392E+03  0.12700000000E+01 0.  1.
         25    2    1    2    0    0  0.00000000000E+00  0.00000000000E+00 -0.21060276499E+03  0.24490528632E+03  0.12500029859E+03 0.  0.
    9000005    1    3    3    0    0  0.46099477199E+02 -0.76143383674E+01 -0.18660688032E+03  0.19237013211E+03  0.10000000000E+01 0.  0.
    9000005    1    3    3    0    0 -0.46099477199E+02  0.76143383674E+01 -0.23995884670E+02  0.52535154210E+02  0.10000000000E+01 0.  0.
<mgrwt>
<rscale>  0 0.12500030E+03</rscale>
<asrwt>0</asrwt>
<pdfrwt beam="1">  1        4 0.26386556E-02 0.12500030E+03</pdfrwt>
<pdfrwt beam="2">  1       -4 0.35039079E-01 0.12500030E+03</pdfrwt>
<totfact> 0.83071642E+03</totfact>
</mgrwt>
</event>
<event>
 5    1  0.3401591E-002  0.1250008E+03  0.7818608E-02  0.1235068E+00
          4   -1    0    0  501    0  0.00000000000E+00  0.00000000000E+00  0.45628838113E+01  0.47363286072E+01  0.12700000000E+01 0. -1.
         -4   -1    0    0    0  501 -0.00000000000E+00 -0.00000000000E+00 -0.83996207957E+03  0.83996303968E+03  0.12700000000E+01 0. -1.
         25    2    1    2    0    0  0.00000000000E+00  0.00000000000E+00 -0.83539919576E+03  0.84469936828E+03  0.12500082599E+03 0.  0.
    9000005    1    3    3    0    0 -0.16351897713E+01 -0.39037641162E+02 -0.88121576528E+02  0.96400329474E+02  0.10000000000E+01 0.  0.
    9000005    1    3    3    0    0  0.16351897713E+01  0.39037641162E+02 -0.74727761923E+03  0.74829903881E+03  0.10000000000E+01 0.  0.
<mgrwt>
<rscale>  0 0.12500083E+03</rscale>
<asrwt>0</asrwt>
<pdfrwt beam="1">  1        4 0.71539855E-03 0.12500083E+03</pdfrwt>
<pdfrwt beam="2">  1       -4 0.12923823E+00 0.12500083E+03</pdfrwt>
<totfact> 0.36344593E+03</totfact>
</mgrwt>
</event>
<event>
 5    1  0.3401591E-002  0.1250183E+03  0.7818608E-02  0.1235041E+00
          4   -1    0    0  501    0  0.00000000000E+00  0.00000000000E+00  0.36129048762E+01  0.38296189947E+01  0.12700000000E+01 0. -1.
         -4   -1    0    0    0  501 -0.00000000000E+00 -0.00000000000E+00 -0.10498018741E+04  0.10498026423E+04  0.12700000000E+01 0. -1.
         25    2    1    2    0    0  0.00000000000E+00  0.00000000000E+00 -0.10461889692E+04  0.10536322613E+04  0.12501832945E+03 0.  0.
    9000005    1    3    3    0    0  0.18397215774E+02  0.10723808326E+02 -0.27861272270E+02  0.35081449596E+02  0.10000000000E+01 0.  0.
    9000005    1    3    3    0    0 -0.18397215774E+02 -0.10723808326E+02 -0.10183276969E+04  0.10185508117E+04  0.10000000000E+01 0.  0.
<mgrwt>
<rscale>  0 0.12501833E+03</rscale>
<asrwt>0</asrwt>
<pdfrwt beam="1">  1        4 0.57256177E-03 0.12501833E+03</pdfrwt>
<pdfrwt beam="2">  1       -4 0.16152447E+00 0.12501833E+03</pdfrwt>
<totfact> 0.28870128E+03</totfact>
</mgrwt>
</event>
<event>
 5    1  0.3401591E-002  0.1249992E+03  0.7818608E-02  0.1235070E+00
         -4   -1    0    0    0  501 -0.00000000000E+00  0.00000000000E+00  0.20291780601E+02  0.20331484450E+02  0.12700000000E+01 0. -1.
          4   -1    0    0  501    0  0.00000000000E+00 -0.00000000000E+00 -0.19227178350E+03  0.19227597778E+03  0.12700000000E+01 0. -1.
         25    2    1    2    0    0  0.00000000000E+00  0.00000000000E+00 -0.17198000290E+03  0.21260746223E+03  0.12499924639E+03 0.  0.
    9000005    1    3    3    0    0 -0.10288484550E+02  0.57711106089E+02 -0.49163978342E+02  0.76514844617E+02  0.10000000000E+01 0.  0.
    9000005    1    3    3    0    0  0.10288484550E+02 -0.57711106089E+02 -0.12281602456E+03  0.13609261762E+03  0.10000000000E+01 0.  0.
<mgrwt>
<rscale>  0 0.12499925E+03</rscale>
<asrwt>0</asrwt>
<pdfrwt beam="2">  1        4 0.29583650E-01 0.12499925E+03</pdfrwt>
<pdfrwt beam="1">  1       -4 0.31251893E-02 0.12499925E+03</pdfrwt>
<totfact> 0.88053295E+03</totfact>
</mgrwt>
</event>
<event>
 5    1  0.3401591E-002  0.1250007E+03  0.7818608E-02  0.1235068E+00
          4   -1    0    0  501    0  0.00000000000E+00  0.00000000000E+00  0.10573515540E+03  0.10574278220E+03  0.12700000000E+01 0. -1.
         -4   -1    0    0    0  501 -0.00000000000E+00 -0.00000000000E+00 -0.36924282018E+02  0.36946116203E+02  0.12700000000E+01 0. -1.
         25    2    1    2    0    0  0.00000000000E+00  0.00000000000E+00  0.68810873384E+02  0.14268889840E+03  0.12500074173E+03 0.  0.
    9000005    1    3    3    0    0 -0.59791814239E+01 -0.48669173865E+02  0.78628344004E+02  0.92670683477E+02  0.10000000000E+01 0.  0.
    9000005    1    3    3    0    0  0.59791814239E+01  0.48669173865E+02 -0.98174706208E+01  0.50018214928E+02  0.10000000000E+01 0.  0.
<mgrwt>
<rscale>  0 0.12500074E+03</rscale>
<asrwt>0</asrwt>
<pdfrwt beam="1">  1        4 0.16269213E-01 0.12500074E+03</pdfrwt>
<pdfrwt beam="2">  1       -4 0.56829250E-02 0.12500074E+03</pdfrwt>
<totfact> 0.10077989E+04</totfact>
</mgrwt>
</event>
<event>
 5    1  0.3401591E-002  0.1250002E+03  0.7818608E-02  0.1235069E+00
          4   -1    0    0  501    0  0.00000000000E+00  0.00000000000E+00  0.12246230317E+02  0.12311907122E+02  0.12700000000E+01 0.  1.
         -4   -1    0    0    0  501 -0.00000000000E+00 -0.00000000000E+00 -0.31805679408E+03  0.31805932963E+03  0.12700000000E+01 0.  1.
         25    2    1    2    0    0  0.00000000000E+00  0.00000000000E+00 -0.30581056377E+03  0.33037123675E+03  0.12500021264E+03 0.  0.
    9000005    1    3    3    0    0 -0.30701849310E+02 -0.11328663968E+02 -0.12198184822E+02  0.34939059680E+02  0.10000000000E+01 0.  0.
    9000005    1    3    3    0    0  0.30701849310E+02  0.11328663968E+02 -0.29361237894E+03  0.29543217707E+03  0.10000000000E+01 0.  0.
<mgrwt>
<rscale>  0 0.12500021E+03</rscale>
<asrwt>0</asrwt>
<pdfrwt beam="1">  1        4 0.18892828E-02 0.12500021E+03</pdfrwt>
<pdfrwt beam="2">  1       -4 0.48937055E-01 0.12500021E+03</pdfrwt>
<totfact> 0.71939013E+03</totfact>
</mgrwt>
</event>
<event>
 5    1  0.3401591E-002  0.1250008E+03  0.7818608E-02  0.1235068E+00
         -4   -1    0    0    0  501 -0.00000000000E+00  0.00000000000E+00  0.10199233397E+03  0.10200024063E+03  0.12700000000E+01 0.  1.
          4   -1    0    0  501    0  0.00000000000E+00 -0.00000000000E+00 -0.38280033501E+02  0.38301094826E+02  0.12700000000E+01 0.  1.
         25    2    1    2    0    0  0.00000000000E+00  0.00000000000E+00  0.63712300471E+02  0.14030133546E+03  0.12500083000E+03 0.  0.
    9000005    1    3    3    0    0 -0.49975099812E+01  0.62287873404E+02  0.31025575035E+02  0.69773494863E+02  0.10000000000E+01 0.  0.
    9000005    1    3    3    0    0  0.49975099812E+01 -0.62287873404E+02  0.32686725436E+02  0.70527840595E+02  0.10000000000E+01 0.  0.
<mgrwt>
<rscale>  0 0.12500083E+03</rscale>
<asrwt>0</asrwt>
<pdfrwt beam="2">  1        4 0.58914644E-02 0.12500083E+03</pdfrwt>
<pdfrwt beam="1">  1       -4 0.15693356E-01 0.12500083E+03</pdfrwt>
<totfact> 0.10127155E+04</totfact>
</mgrwt>
</event>
<event>
 5    1  0.3401591E-002  0.1249967E+03  0.7818608E-02  0.1235074E+00
          4   -1    0    0  501    0  0.00000000000E+00  0.00000000000E+00  0.44232905451E+03  0.44233087770E+03  0.12700000000E+01 0.  1.
         -4   -1    0    0    0  501 -0.00000000000E+00 -0.00000000000E+00 -0.87831192169E+01  0.88744624163E+01  0.12700000000E+01 0.  1.
         25    2    1    2    0    0  0.00000000000E+00  0.00000000000E+00  0.43354593529E+03  0.45120534011E+03  0.12499672371E+03 0.  0.
    9000005    1    3    3    0    0  0.52502536963E+02 -0.30837931106E+02  0.26750883094E+03  0.27435281849E+03  0.10000000000E+01 0.  0.
    9000005    1    3    3    0    0 -0.52502536963E+02  0.30837931106E+02  0.16603710435E+03  0.17685252162E+03  0.10000000000E+01 0.  0.
<mgrwt>
<rscale>  0 0.12499672E+03</rscale>
<asrwt>0</asrwt>
<pdfrwt beam="1">  1        4 0.68057774E-01 0.12499672E+03</pdfrwt>
<pdfrwt beam="2">  1       -4 0.13584161E-02 0.12499672E+03</pdfrwt>
<totfact> 0.59863845E+03</totfact>
</mgrwt>
</event>
<event>
 5    1  0.3401591E-002  0.1250098E+03  0.7818608E-02  0.1235054E+00
         -4   -1    0    0    0  501 -0.00000000000E+00  0.00000000000E+00  0.68147962359E+03  0.68148080697E+03  0.12700000000E+01 0. -1.
          4   -1    0    0  501    0  0.00000000000E+00 -0.00000000000E+00 -0.56613690016E+01  0.58020685080E+01  0.12700000000E+01 0. -1.
         25    2    1    2    0    0  0.00000000000E+00  0.00000000000E+00  0.67581825459E+03  0.68728287548E+03  0.12500975038E+03 0.  0.
    9000005    1    3    3    0    0  0.12784931396E+02  0.59471802688E+02  0.41672391879E+03  0.42114151336E+03  0.10000000000E+01 0.  0.
    9000005    1    3    3    0    0 -0.12784931396E+02 -0.59471802688E+02  0.25909433580E+03  0.26614136212E+03  0.10000000000E+01 0.  0.
<mgrwt>
<rscale>  0 0.12500975E+03</rscale>
<asrwt>0</asrwt>
<pdfrwt beam="2">  1        4 0.88189398E-03 0.12500975E+03</pdfrwt>
<pdfrwt beam="1">  1       -4 0.10485393E+00 0.12500975E+03</pdfrwt>
<totfact> 0.43757233E+03</totfact>
</mgrwt>
</event>
<event>
 5    1  0.3401591E-002  0.1250012E+03  0.7818608E-02  0.1235067E+00
         -4   -1    0    0    0  501 -0.00000000000E+00  0.00000000000E+00  0.46553033693E+03  0.46553206925E+03  0.12700000000E+01 0.  1.
          4   -1    0    0  501    0  0.00000000000E+00 -0.00000000000E+00 -0.83413133833E+01  0.84374409010E+01  0.12700000000E+01 0.  1.
         25    2    1    2    0    0  0.00000000000E+00  0.00000000000E+00  0.45718902354E+03  0.47396951015E+03  0.12500117321E+03 0.  0.
    9000005    1    3    3    0    0  0.24809393186E+02  0.15219052210E+02  0.43828035025E+03  0.43924684513E+03  0.10000000000E+01 0.  0.
    9000005    1    3    3    0    0 -0.24809393186E+02 -0.15219052210E+02  0.18908673292E+02  0.34722665020E+02  0.10000000000E+01 0.  0.
<mgrwt>
<rscale>  0 0.12500117E+03</rscale>
<asrwt>0</asrwt>
<pdfrwt beam="2">  1        4 0.12908068E-02 0.12500117E+03</pdfrwt>
<pdfrwt beam="1">  1       -4 0.71627573E-01 0.12500117E+03</pdfrwt>
<totfact> 0.57940637E+03</totfact>
</mgrwt>
</event>
<event>
 5    1  0.3401591E-002  0.1249980E+03  0.7818608E-02  0.1235072E+00
          4   -1    0    0  501    0  0.00000000000E+00  0.00000000000E+00  0.29315702630E+01  0.31948402474E+01  0.12700000000E+01 0. -1.
         -4   -1    0    0    0  501 -0.00000000000E+00 -0.00000000000E+00 -0.12749111342E+04  0.12749117667E+04  0.12700000000E+01 0. -1.
         25    2    1    2    0    0  0.00000000000E+00  0.00000000000E+00 -0.12719795639E+04  0.12781066070E+04  0.12499795113E+03 0.  0.
    9000005    1    3    3    0    0  0.14133955306E+02  0.18465589222E+02 -0.12290740460E+04  0.12292944144E+04  0.10000000000E+01 0.  0.
    9000005    1    3    3    0    0 -0.14133955306E+02 -0.18465589222E+02 -0.42905517850E+02  0.48812192533E+02  0.10000000000E+01 0.  0.
<mgrwt>
<rscale>  0 0.12499795E+03</rscale>
<asrwt>0</asrwt>
<pdfrwt beam="1">  1        4 0.47131202E-03 0.12499795E+03</pdfrwt>
<pdfrwt beam="2">  1       -4 0.19616005E+00 0.12499795E+03</pdfrwt>
<totfact> 0.22752293E+03</totfact>
</mgrwt>
</event>
<event>
 5    1  0.3401591E-002  0.1250014E+03  0.7818608E-02  0.1235067E+00
         -4   -1    0    0    0  501 -0.00000000000E+00  0.00000000000E+00  0.95102225985E+02  0.95110705430E+02  0.12700000000E+01 0. -1.
          4   -1    0    0  501    0  0.00000000000E+00 -0.00000000000E+00 -0.41054983978E+02  0.41074622450E+02  0.12700000000E+01 0. -1.
         25    2    1    2    0    0  0.00000000000E+00  0.00000000000E+00  0.54047242007E+02  0.13618532788E+03  0.12500135664E+03 0.  0.
    9000005    1    3    3    0    0 -0.45912340419E+02  0.23927116891E+02 -0.11106064968E+02  0.52960311597E+02  0.10000000000E+01 0.  0.
    9000005    1    3    3    0    0  0.45912340419E+02 -0.23927116891E+02  0.65153306975E+02  0.83225016282E+02  0.10000000000E+01 0.  0.
<mgrwt>
<rscale>  0 0.12500136E+03</rscale>
<asrwt>0</asrwt>
<pdfrwt beam="2">  1        4 0.63183143E-02 0.12500136E+03</pdfrwt>
<pdfrwt beam="1">  1       -4 0.14633275E-01 0.12500136E+03</pdfrwt>
<totfact> 0.10212835E+04</totfact>
</mgrwt>
</event>
<event>
 5    1  0.3401591E-002  0.1250001E+03  0.7818608E-02  0.1235069E+00
         -4   -1    0    0    0  501 -0.00000000000E+00  0.00000000000E+00  0.31385336298E+02  0.31411020909E+02  0.12700000000E+01 0.  1.
          4   -1    0    0  501    0  0.00000000000E+00 -0.00000000000E+00 -0.12438129205E+03  0.12438777557E+03  0.12700000000E+01 0.  1.
         25    2    1    2    0    0  0.00000000000E+00  0.00000000000E+00 -0.92995955753E+02  0.15579879648E+03  0.12500006880E+03 0.  0.
    9000005    1    3    3    0    0  0.47424323766E+02 -0.34643084668E+02 -0.73114876934E+02  0.93786966200E+02  0.10000000000E+01 0.  0.
    9000005    1    3    3    0    0 -0.47424323766E+02  0.34643084668E+02 -0.19881078819E+02  0.62011830283E+02  0.10000000000E+01 0.  0.
<mgrwt>
<rscale>  0 0.12500007E+03</rscale>
<asrwt>0</asrwt>
<pdfrwt beam="2">  1        4 0.19138058E-01 0.12500007E+03</pdfrwt>
<pdfrwt beam="1">  1       -4 0.48309878E-02 0.12500007E+03</pdfrwt>
<totfact> 0.98158761E+03</totfact>
</mgrwt>
</event>
<event>
 5    1  0.3401591E-002  0.1249964E+03  0.7818608E-02  0.1235075E+00
         -4   -1    0    0    0  501 -0.00000000000E+00  0.00000000000E+00  0.51909424972E+01  0.53440419169E+01  0.12700000000E+01 0.  1.
          4   -1    0    0  501    0  0.00000000000E+00 -0.00000000000E+00 -0.74138082146E+03  0.74138190923E+03  0.12700000000E+01 0.  1.
         25    2    1    2    0    0  0.00000000000E+00  0.00000000000E+00 -0.73618987897E+03  0.74672595115E+03  0.12499643285E+03 0.  0.
    9000005    1    3    3    0    0 -0.40931524074E+02  0.34831541182E+02 -0.17763826564E+03  0.18559358649E+03  0.10000000000E+01 0.  0.
    9000005    1    3    3    0    0  0.40931524074E+02 -0.34831541182E+02 -0.55855161332E+03  0.56113236466E+03  0.10000000000E+01 0.  0.
<mgrwt>
<rscale>  0 0.12499643E+03</rscale>
<asrwt>0</asrwt>
<pdfrwt beam="2">  1        4 0.11407037E+00 0.12499643E+03</pdfrwt>
<pdfrwt beam="1">  1       -4 0.81046768E-03 0.12499643E+03</pdfrwt>
<totfact> 0.40734426E+03</totfact>
</mgrwt>
</event>
<event>
 5    1  0.3401591E-002  0.1249746E+03  0.7818608E-02  0.1235109E+00
         -4   -1    0    0    0  501 -0.00000000000E+00  0.00000000000E+00  0.57275088120E+03  0.57275228922E+03  0.12700000000E+01 0.  1.
          4   -1    0    0  501    0  0.00000000000E+00 -0.00000000000E+00 -0.67568123682E+01  0.68751300627E+01  0.12700000000E+01 0.  1.
         25    2    1    2    0    0  0.00000000000E+00  0.00000000000E+00  0.56599406883E+03  0.57962741929E+03  0.12497463439E+03 0.  0.
    9000005    1    3    3    0    0  0.21630481280E+02  0.44539415865E+02  0.10626532787E+03  0.11723888943E+03  0.10000000000E+01 0.  0.
    9000005    1    3    3    0    0 -0.21630481280E+02 -0.44539415865E+02  0.45972874096E+03  0.46238852986E+03  0.10000000000E+01 0.  0.
<mgrwt>
<rscale>  0 0.12497463E+03</rscale>
<asrwt>0</asrwt>
<pdfrwt beam="2">  1        4 0.10487194E-02 0.12497463E+03</pdfrwt>
<pdfrwt beam="1">  1       -4 0.88124721E-01 0.12497463E+03</pdfrwt>
<totfact> 0.50207304E+03</totfact>
</mgrwt>
</event>
<event>
 5    1  0.3401591E-002  0.1250034E+03  0.7818608E-02  0.1235064E+00
          4   -1    0    0  501    0  0.00000000000E+00  0.00000000000E+00  0.22947827583E+04  0.22947831097E+04  0.12700000000E+01 0. -1.
         -4   -1    0    0    0  501 -0.00000000000E+00 -0.00000000000E+00 -0.14650539926E+01  0.19388871038E+01  0.12700000000E+01 0. -1.
         25    2    1    2    0    0  0.00000000000E+00  0.00000000000E+00  0.22933177043E+04  0.22967219968E+04  0.12500335131E+03 0.  0.
    9000005    1    3    3    0    0 -0.30329519679E+02  0.50908765304E+02  0.15113013271E+04  0.15124629858E+04  0.10000000000E+01 0.  0.
    9000005    1    3    3    0    0  0.30329519679E+02 -0.50908765304E+02  0.78201637718E+03  0.78425901100E+03  0.10000000000E+01 0.  0.
<mgrwt>
<rscale>  0 0.12500335E+03</rscale>
<asrwt>0</asrwt>
<pdfrwt beam="1">  1        4 0.35308315E+00 0.12500335E+03</pdfrwt>
<pdfrwt beam="2">  1       -4 0.26186630E-03 0.12500335E+03</pdfrwt>
<totfact> 0.64678699E+02</totfact>
</mgrwt>
</event>
<event>
 5    1  0.3401591E-002  0.1250028E+03  0.7818608E-02  0.1235065E+00
         -4   -1    0    0    0  501 -0.00000000000E+00  0.00000000000E+00  0.36579817107E+02  0.36601856778E+02  0.12700000000E+01 0. -1.
          4   -1    0    0  501    0  0.00000000000E+00 -0.00000000000E+00 -0.10673379409E+03  0.10674134954E+03  0.12700000000E+01 0. -1.
         25    2    1    2    0    0  0.00000000000E+00  0.00000000000E+00 -0.70153976984E+02  0.14334320632E+03  0.12500277721E+03 0.  0.
    9000005    1    3    3    0    0 -0.19141231998E+02  0.13302008538E+02 -0.10156790797E+03  0.10421309957E+03  0.10000000000E+01 0.  0.
    9000005    1    3    3    0    0  0.19141231998E+02 -0.13302008538E+02  0.31413930986E+02  0.39130106741E+02  0.10000000000E+01 0.  0.
<mgrwt>
<rscale>  0 0.12500278E+03</rscale>
<asrwt>0</asrwt>
<pdfrwt beam="2">  1        4 0.16422860E-01 0.12500278E+03</pdfrwt>
<pdfrwt beam="1">  1       -4 0.56299408E-02 0.12500278E+03</pdfrwt>
<totfact> 0.10064130E+04</totfact>
</mgrwt>
</event>
<event>
 5    1  0.3401591E-002  0.1249848E+03  0.7818608E-02  0.1235093E+00
         -4   -1    0    0    0  501 -0.00000000000E+00  0.00000000000E+00  0.65677767286E+03  0.65677890075E+03  0.12700000000E+01 0.  1.
          4   -1    0    0  501    0  0.00000000000E+00 -0.00000000000E+00 -0.58770884448E+01  0.60127421854E+01  0.12700000000E+01 0.  1.
         25    2    1    2    0    0  0.00000000000E+00  0.00000000000E+00  0.65090058441E+03  0.66279164293E+03  0.12498476367E+03 0.  0.
    9000005    1    3    3    0    0 -0.42686417911E+01 -0.60401953367E+02  0.40720574715E+03  0.41168451245E+03  0.10000000000E+01 0.  0.
    9000005    1    3    3    0    0  0.42686417911E+01  0.60401953367E+02  0.24369483726E+03  0.25110713048E+03  0.10000000000E+01 0.  0.
<mgrwt>
<rscale>  0 0.12498476E+03</rscale>
<asrwt>0</asrwt>
<pdfrwt beam="2">  1        4 0.91469757E-03 0.12498476E+03</pdfrwt>
<pdfrwt beam="1">  1       -4 0.10105316E+00 0.12498476E+03</pdfrwt>
<totfact> 0.45139976E+03</totfact>
</mgrwt>
</event>
<event>
 5    1  0.3401591E-002  0.1250033E+03  0.7818608E-02  0.1235064E+00
          4   -1    0    0  501    0  0.00000000000E+00  0.00000000000E+00  0.12142021261E+03  0.12142685424E+03  0.12700000000E+01 0.  1.
         -4   -1    0    0    0  501 -0.00000000000E+00 -0.00000000000E+00 -0.32152955343E+02  0.32178027243E+02  0.12700000000E+01 0.  1.
         25    2    1    2    0    0  0.00000000000E+00  0.00000000000E+00  0.89267257267E+02  0.15360488148E+03  0.12500326554E+03 0.  0.
    9000005    1    3    3    0    0  0.21078260694E+02 -0.42170734355E+01  0.11674038606E+03  0.11870717973E+03  0.10000000000E+01 0.  0.
    9000005    1    3    3    0    0 -0.21078260694E+02  0.42170734355E+01 -0.27473128789E+02  0.34897701754E+02  0.10000000000E+01 0.  0.
<mgrwt>
<rscale>  0 0.12500327E+03</rscale>
<asrwt>0</asrwt>
<pdfrwt beam="1">  1        4 0.18682472E-01 0.12500327E+03</pdfrwt>
<pdfrwt beam="2">  1       -4 0.49490480E-02 0.12500327E+03</pdfrwt>
<totfact> 0.98582669E+03</totfact>
</mgrwt>
</event>
<event>
 5    1  0.3401591E-002  0.1250004E+03  0.7818608E-02  0.1235069E+00
         -4   -1    0    0    0  501 -0.00000000000E+00  0.00000000000E+00  0.26196950062E+02  0.26227716114E+02  0.12700000000E+01 0. -1.
          4   -1    0    0  501    0  0.00000000000E+00 -0.00000000000E+00 -0.14899078867E+03  0.14899620133E+03  0.12700000000E+01 0. -1.
         25    2    1    2    0    0  0.00000000000E+00  0.00000000000E+00 -0.12279383861E+03  0.17522391744E+03  0.12500037777E+03 0.  0.
    9000005    1    3    3    0    0 -0.93040630169E+01  0.43233260057E+02 -0.12329170534E+03  0.13098673585E+03  0.10000000000E+01 0.  0.
    9000005    1    3    3    0    0  0.93040630169E+01 -0.43233260057E+02  0.49786672456E+00  0.44237181591E+02  0.10000000000E+01 0.  0.
<mgrwt>
<rscale>  0 0.12500038E+03</rscale>
<asrwt>0</asrwt>
<pdfrwt beam="2">  1        4 0.22924442E-01 0.12500038E+03</pdfrwt>
<pdfrwt beam="1">  1       -4 0.40330831E-02 0.12500038E+03</pdfrwt>
<totfact> 0.94483046E+03</totfact>
</mgrwt>
</event>
<event>
 5    1  0.3401591E-002  0.1250047E+03  0.7818608E-02  0.1235062E+00
          4   -1    0    0  501    0  0.00000000000E+00  0.00000000000E+00  0.21428849994E+02  0.21466450849E+02  0.12700000000E+01 0.  1.
         -4   -1    0    0    0  501 -0.00000000000E+00 -0.00000000000E+00 -0.18210344675E+03  0.18210787523E+03  0.12700000000E+01 0.  1.
         25    2    1    2    0    0  0.00000000000E+00  0.00000000000E+00 -0.16067459676E+03  0.20357432608E+03  0.12500472068E+03 0.  0.
    9000005    1    3    3    0    0  0.48944851717E+02  0.38671815503E+02 -0.74149467374E+02  0.96903309209E+02  0.10000000000E+01 0.  0.
    9000005    1    3    3    0    0 -0.48944851717E+02 -0.38671815503E+02 -0.86525129387E+02  0.10667101687E+03  0.10000000000E+01 0.  0.
<mgrwt>
<rscale>  0 0.12500472E+03</rscale>
<asrwt>0</asrwt>
<pdfrwt beam="1">  1        4 0.32999793E-02 0.12500472E+03</pdfrwt>
<pdfrwt beam="2">  1       -4 0.28019147E-01 0.12500472E+03</pdfrwt>
<totfact> 0.89526695E+03</totfact>
</mgrwt>
</event>
<event>
 5    1  0.3401591E-002  0.1250031E+03  0.7818608E-02  0.1235064E+00
          4   -1    0    0  501    0  0.00000000000E+00  0.00000000000E+00  0.11631937053E+03  0.11632630339E+03  0.12700000000E+01 0.  1.
         -4   -1    0    0    0  501 -0.00000000000E+00 -0.00000000000E+00 -0.33563835432E+02  0.33587854187E+02  0.12700000000E+01 0.  1.
         25    2    1    2    0    0  0.00000000000E+00  0.00000000000E+00  0.82755535102E+02  0.14991415758E+03  0.12500310417E+03 0.  0.
    9000005    1    3    3    0    0 -0.46611614251E+02 -0.28984954661E+02  0.55459982633E+01  0.55177244191E+02  0.10000000000E+01 0.  0.
    9000005    1    3    3    0    0  0.46611614251E+02  0.28984954661E+02  0.77209536839E+02  0.94736913390E+02  0.10000000000E+01 0.  0.
<mgrwt>
<rscale>  0 0.12500310E+03</rscale>
<asrwt>0</asrwt>
<pdfrwt beam="1">  1        4 0.17897668E-01 0.12500310E+03</pdfrwt>
<pdfrwt beam="2">  1       -4 0.51660479E-02 0.12500310E+03</pdfrwt>
<totfact> 0.99313874E+03</totfact>
</mgrwt>
</event>
<event>
 5    1  0.3401591E-002  0.1250001E+03  0.7818608E-02  0.1235069E+00
          4   -1    0    0  501    0  0.00000000000E+00  0.00000000000E+00  0.20543685550E+02  0.20582903487E+02  0.12700000000E+01 0.  1.
         -4   -1    0    0    0  501 -0.00000000000E+00 -0.00000000000E+00 -0.18992133968E+03  0.18992558586E+03  0.12700000000E+01 0.  1.
         25    2    1    2    0    0  0.00000000000E+00  0.00000000000E+00 -0.16937765413E+03  0.21050848935E+03  0.12500013748E+03 0.  0.
    9000005    1    3    3    0    0  0.45237894214E+02 -0.39757303326E+02 -0.56602343456E+02  0.82655523260E+02  0.10000000000E+01 0.  0.
    9000005    1    3    3    0    0 -0.45237894214E+02  0.39757303326E+02 -0.11277531067E+03  0.12785296609E+03  0.10000000000E+01 0.  0.
<mgrwt>
<rscale>  0 0.12500014E+03</rscale>
<asrwt>0</asrwt>
<pdfrwt beam="1">  1        4 0.31639105E-02 0.12500014E+03</pdfrwt>
<pdfrwt beam="2">  1       -4 0.29222010E-01 0.12500014E+03</pdfrwt>
<totfact> 0.88392634E+03</totfact>
</mgrwt>
</event>
<event>
 5    1  0.3401591E-002  0.1250058E+03  0.7818608E-02  0.1235060E+00
         -4   -1    0    0    0  501 -0.00000000000E+00  0.00000000000E+00  0.19997266942E+02  0.20037554370E+02  0.12700000000E+01 0. -1.
          4   -1    0    0  501    0  0.00000000000E+00 -0.00000000000E+00 -0.19511826509E+03  0.19512239818E+03  0.12700000000E+01 0. -1.
         25    2    1    2    0    0  0.00000000000E+00  0.00000000000E+00 -0.17512099815E+03  0.21515995255E+03  0.12500576462E+03 0.  0.
    9000005    1    3    3    0    0  0.14895506315E+02 -0.35080760566E+02 -0.17280900210E+03  0.17696464923E+03  0.10000000000E+01 0.  0.
    9000005    1    3    3    0    0 -0.14895506315E+02  0.35080760566E+02 -0.23119960523E+01  0.38195303324E+02  0.10000000000E+01 0.  0.
<mgrwt>
<rscale>  0 0.12500576E+03</rscale>
<asrwt>0</asrwt>
<pdfrwt beam="2">  1        4 0.30021610E-01 0.12500576E+03</pdfrwt>
<pdfrwt beam="1">  1       -4 0.30799197E-02 0.12500576E+03</pdfrwt>
<totfact> 0.87628778E+03</totfact>
</mgrwt>
</event>
<event>
 5    1  0.3401591E-002  0.1249936E+03  0.7818608E-02  0.1235079E+00
          4   -1    0    0  501    0  0.00000000000E+00  0.00000000000E+00  0.11140178892E+03  0.11140902780E+03  0.12700000000E+01 0. -1.
         -4   -1    0    0    0  501 -0.00000000000E+00 -0.00000000000E+00 -0.35041044813E+02  0.35064051700E+02  0.12700000000E+01 0. -1.
         25    2    1    2    0    0  0.00000000000E+00  0.00000000000E+00  0.76360744109E+02  0.14647307950E+03  0.12499359894E+03 0.  0.
    9000005    1    3    3    0    0 -0.93413727196E+01 -0.58255147885E+02  0.62308037038E+02  0.85815004393E+02  0.10000000000E+01 0.  0.
    9000005    1    3    3    0    0  0.93413727196E+01  0.58255147885E+02  0.14052707070E+02  0.60658075105E+02  0.10000000000E+01 0.  0.
<mgrwt>
<rscale>  0 0.12499360E+03</rscale>
<asrwt>0</asrwt>
<pdfrwt beam="1">  1        4 0.17141063E-01 0.12499360E+03</pdfrwt>
<pdfrwt beam="2">  1       -4 0.53932567E-02 0.12499360E+03</pdfrwt>
<totfact> 0.10002586E+04</totfact>
</mgrwt>
</event>
<event>
 5    1  0.3401591E-002  0.1249969E+03  0.7818608E-02  0.1235074E+00
         -4   -1    0    0    0  501 -0.00000000000E+00  0.00000000000E+00  0.51790226246E+03  0.51790381960E+03  0.12700000000E+01 0.  1.
          4   -1    0    0  501    0  0.00000000000E+00 -0.00000000000E+00 -0.74870247784E+01  0.75939739289E+01  0.12700000000E+01 0.  1.
         25    2    1    2    0    0  0.00000000000E+00  0.00000000000E+00  0.51041523768E+03  0.52549779353E+03  0.12499686457E+03 0.  0.
    9000005    1    3    3    0    0  0.26379171351E+02 -0.46595989449E+02  0.11975982221E+03  0.13118865015E+03  0.10000000000E+01 0.  0.
    9000005    1    3    3    0    0 -0.26379171351E+02  0.46595989449E+02  0.39065541547E+03  0.39430914338E+03  0.10000000000E+01 0.  0.
<mgrwt>
<rscale>  0 0.12499686E+03</rscale>
<asrwt>0</asrwt>
<pdfrwt beam="2">  1        4 0.11601964E-02 0.12499686E+03</pdfrwt>
<pdfrwt beam="1">  1       -4 0.79685631E-01 0.12499686E+03</pdfrwt>
<totfact> 0.53942644E+03</totfact>
</mgrwt>
</event>
<event>
 5    1  0.3401591E-002  0.1250032E+03  0.7818608E-02  0.1235064E+00
         -4   -1    0    0    0  501 -0.00000000000E+00  0.00000000000E+00  0.77076634227E+02  0.77087096480E+02  0.12700000000E+01 0. -1.
          4   -1    0    0  501    0  0.00000000000E+00 -0.00000000000E+00 -0.50660829010E+02  0.50676745120E+02  0.12700000000E+01 0. -1.
         25    2    1    2    0    0  0.00000000000E+00  0.00000000000E+00  0.26415805217E+02  0.12776384160E+03  0.12500321778E+03 0.  0.
    9000005    1    3    3    0    0 -0.41609902837E+02 -0.13217695732E+02  0.58909589160E+02  0.73330970194E+02  0.10000000000E+01 0.  0.
    9000005    1    3    3    0    0  0.41609902837E+02  0.13217695732E+02 -0.32493783943E+02  0.54432871406E+02  0.10000000000E+01 0.  0.
<mgrwt>
<rscale>  0 0.12500322E+03</rscale>
<asrwt>0</asrwt>
<pdfrwt beam="2">  1        4 0.77960029E-02 0.12500322E+03</pdfrwt>
<pdfrwt beam="1">  1       -4 0.11859973E-01 0.12500322E+03</pdfrwt>
<totfact> 0.10391836E+04</totfact>
</mgrwt>
</event>
<event>
 5    1  0.3401591E-002  0.1250005E+03  0.7818608E-02  0.1235069E+00
          4   -1    0    0  501    0  0.00000000000E+00  0.00000000000E+00  0.67095751754E+01  0.68287113743E+01  0.12700000000E+01 0. -1.
         -4   -1    0    0    0  501 -0.00000000000E+00 -0.00000000000E+00 -0.57695174040E+03  0.57695313818E+03  0.12700000000E+01 0. -1.
         25    2    1    2    0    0  0.00000000000E+00  0.00000000000E+00 -0.57024216523E+03  0.58378184955E+03  0.12500048345E+03 0.  0.
    9000005    1    3    3    0    0  0.28406306445E+02  0.15507210997E+02 -0.53478830322E+03  0.53576759990E+03  0.10000000000E+01 0.  0.
    9000005    1    3    3    0    0 -0.28406306445E+02 -0.15507210997E+02 -0.35453862009E+02  0.48014249657E+02  0.10000000000E+01 0.  0.
<mgrwt>
<rscale>  0 0.12500048E+03</rscale>
<asrwt>0</asrwt>
<pdfrwt beam="1">  1        4 0.10415146E-02 0.12500048E+03</pdfrwt>
<pdfrwt beam="2">  1       -4 0.88771039E-01 0.12500048E+03</pdfrwt>
<totfact> 0.49907102E+03</totfact>
</mgrwt>
</event>
<event>
 5    1  0.3401591E-002  0.1249998E+03  0.7818608E-02  0.1235070E+00
          4   -1    0    0  501    0  0.00000000000E+00  0.00000000000E+00  0.13806557124E+02  0.13864844738E+02  0.12700000000E+01 0. -1.
         -4   -1    0    0    0  501 -0.00000000000E+00 -0.00000000000E+00 -0.28227048472E+03  0.28227334172E+03  0.12700000000E+01 0. -1.
         25    2    1    2    0    0  0.00000000000E+00  0.00000000000E+00 -0.26846392760E+03  0.29613818646E+03  0.12499978023E+03 0.  0.
    9000005    1    3    3    0    0  0.28821401793E+02  0.46282851718E+02 -0.20657561624E+03  0.21365219585E+03  0.10000000000E+01 0.  0.
    9000005    1    3    3    0    0 -0.28821401793E+02 -0.46282851718E+02 -0.61888311357E+02  0.82485990611E+02  0.10000000000E+01 0.  0.
<mgrwt>
<rscale>  0 0.12499978E+03</rscale>
<asrwt>0</asrwt>
<pdfrwt beam="1">  1        4 0.21287894E-02 0.12499978E+03</pdfrwt>
<pdfrwt beam="2">  1       -4 0.43430927E-01 0.12499978E+03</pdfrwt>
<totfact> 0.76086198E+03</totfact>
</mgrwt>
</event>
<event>
 5    1  0.3401591E-002  0.1249961E+03  0.7818608E-02  0.1235075E+00
         -4   -1    0    0    0  501 -0.00000000000E+00  0.00000000000E+00  0.23463679236E+01  0.26680221950E+01  0.12700000000E+01 0.  1.
          4   -1    0    0  501    0  0.00000000000E+00 -0.00000000000E+00 -0.15575967433E+04  0.15575972610E+04  0.12700000000E+01 0.  1.
         25    2    1    2    0    0  0.00000000000E+00  0.00000000000E+00 -0.15552503753E+04  0.15602652832E+04  0.12499609593E+03 0.  0.
    9000005    1    3    3    0    0 -0.38480946973E+02 -0.19920970404E+02 -0.13396679049E+04  0.13403688760E+04  0.10000000000E+01 0.  0.
    9000005    1    3    3    0    0  0.38480946973E+02  0.19920970404E+02 -0.21558247047E+03  0.21989640724E+03  0.10000000000E+01 0.  0.
<mgrwt>
<rscale>  0 0.12499610E+03</rscale>
<asrwt>0</asrwt>
<pdfrwt beam="2">  1        4 0.23965428E+00 0.12499610E+03</pdfrwt>
<pdfrwt beam="1">  1       -4 0.38576339E-03 0.12499610E+03</pdfrwt>
<totfact> 0.16777260E+03</totfact>
</mgrwt>
</event>
<event>
 5    1  0.3401591E-002  0.1250114E+03  0.7818608E-02  0.1235051E+00
         -4   -1    0    0    0  501 -0.00000000000E+00  0.00000000000E+00  0.12611011801E+02  0.12674798564E+02  0.12700000000E+01 0.  1.
          4   -1    0    0  501    0  0.00000000000E+00 -0.00000000000E+00 -0.30895923924E+03  0.30896184944E+03  0.12700000000E+01 0.  1.
         25    2    1    2    0    0  0.00000000000E+00  0.00000000000E+00 -0.29634822743E+03  0.32163664800E+03  0.12501144522E+03 0.  0.
    9000005    1    3    3    0    0 -0.32854176032E+02 -0.51751642683E+02 -0.17950978253E+03  0.18969025127E+03  0.10000000000E+01 0.  0.
    9000005    1    3    3    0    0  0.32854176032E+02  0.51751642683E+02 -0.11683844490E+03  0.13194639673E+03  0.10000000000E+01 0.  0.
<mgrwt>
<rscale>  0 0.12501145E+03</rscale>
<asrwt>0</asrwt>
<pdfrwt beam="2">  1        4 0.47537292E-01 0.12501145E+03</pdfrwt>
<pdfrwt beam="1">  1       -4 0.19452634E-02 0.12501145E+03</pdfrwt>
<totfact> 0.72943386E+03</totfact>
</mgrwt>
</event>
<event>
 5    1  0.3401591E-002  0.1250013E+03  0.7818608E-02  0.1235067E+00
         -4   -1    0    0    0  501 -0.00000000000E+00  0.00000000000E+00  0.14565783644E+03  0.14566337294E+03  0.12700000000E+01 0.  1.
          4   -1    0    0  501    0  0.00000000000E+00 -0.00000000000E+00 -0.26797454004E+02  0.26827531402E+02  0.12700000000E+01 0.  1.
         25    2    1    2    0    0  0.00000000000E+00  0.00000000000E+00  0.11886038244E+03  0.17249090434E+03  0.12500128626E+03 0.  0.
    9000005    1    3    3    0    0  0.50132566116E+02 -0.31535773780E+02  0.86943843217E+02  0.10520461533E+03  0.10000000000E+01 0.  0.
    9000005    1    3    3    0    0 -0.50132566116E+02  0.31535773780E+02  0.31916539218E+02  0.67286289012E+02  0.10000000000E+01 0.  0.
<mgrwt>
<rscale>  0 0.12500129E+03</rscale>
<asrwt>0</asrwt>
<pdfrwt beam="2">  1        4 0.41254247E-02 0.12500129E+03</pdfrwt>
<pdfrwt beam="1">  1       -4 0.22411638E-01 0.12500129E+03</pdfrwt>
<totfact> 0.94983653E+03</totfact>
</mgrwt>
</event>
<event>
 5    1  0.3401591E-002  0.1249895E+03  0.7818608E-02  0.1235086E+00
         -4   -1    0    0    0  501 -0.00000000000E+00  0.00000000000E+00  0.13524917437E+03  0.13525513694E+03  0.12700000000E+01 0. -1.
          4   -1    0    0  501    0  0.00000000000E+00 -0.00000000000E+00 -0.28856480703E+02  0.28884414112E+02  0.12700000000E+01 0. -1.
         25    2    1    2    0    0  0.00000000000E+00  0.00000000000E+00  0.10639269367E+03  0.16413955105E+03  0.12498954737E+03 0.  0.
    9000005    1    3    3    0    0 -0.57644408791E+02  0.23085529829E+02  0.62368006178E+02  0.88014701880E+02  0.10000000000E+01 0.  0.
    9000005    1    3    3    0    0  0.57644408791E+02 -0.23085529829E+02  0.44024687488E+02  0.76124849168E+02  0.10000000000E+01 0.  0.
<mgrwt>
<rscale>  0 0.12498955E+03</rscale>
<asrwt>0</asrwt>
<pdfrwt beam="2">  1        4 0.44420660E-02 0.12498955E+03</pdfrwt>
<pdfrwt beam="1">  1       -4 0.20810172E-01 0.12498955E+03</pdfrwt>
<totfact> 0.96573273E+03</totfact>
</mgrwt>
</event>
<event>
 5    1  0.3401591E-002  0.1249988E+03  0.7818608E-02  0.1235071E+00
         -4   -1    0    0    0  501 -0.00000000000E+00  0.00000000000E+00  0.98380864356E+01  0.99197199918E+01  0.12700000000E+01 0. -1.
          4   -1    0    0  501    0  0.00000000000E+00 -0.00000000000E+00 -0.39532336216E+03  0.39532540213E+03  0.12700000000E+01 0. -1.
         25    2    1    2    0    0  0.00000000000E+00  0.00000000000E+00 -0.38548527573E+03  0.40524512212E+03  0.12499884481E+03 0.  0.
    9000005    1    3    3    0    0  0.45866898117E+02 -0.41764474283E+02 -0.16823735802E+03  0.17931216436E+03  0.10000000000E+01 0.  0.
    9000005    1    3    3    0    0 -0.45866898117E+02  0.41764474283E+02 -0.21724791771E+03  0.22593295776E+03  0.10000000000E+01 0.  0.
<mgrwt>
<rscale>  0 0.12499884E+03</rscale>
<asrwt>0</asrwt>
<pdfrwt beam="2">  1        4 0.60825403E-01 0.12499884E+03</pdfrwt>
<pdfrwt beam="1">  1       -4 0.15199885E-02 0.12499884E+03</pdfrwt>
<totfact> 0.64047471E+03</totfact>
</mgrwt>
</event>
<event>
 5    1  0.3401591E-002  0.1249971E+03  0.7818608E-02  0.1235074E+00
          4   -1    0    0  501    0  0.00000000000E+00  0.00000000000E+00  0.29107050100E+01  0.31757052217E+01  0.12700000000E+01 0. -1.
         -4   -1    0    0    0  501 -0.00000000000E+00 -0.00000000000E+00 -0.12832720304E+04  0.12832726588E+04  0.12700000000E+01 0. -1.
         25    2    1    2    0    0  0.00000000000E+00  0.00000000000E+00 -0.12803613254E+04  0.12864483640E+04  0.12499707926E+03 0.  0.
    9000005    1    3    3    0    0 -0.26071216758E+02  0.54016188327E+02 -0.45967406539E+03  0.46357168090E+03  0.10000000000E+01 0.  0.
    9000005    1    3    3    0    0  0.26071216758E+02 -0.54016188327E+02 -0.82068725997E+03  0.82287668312E+03  0.10000000000E+01 0.  0.
<mgrwt>
<rscale>  0 0.12499708E+03</rscale>
<asrwt>0</asrwt>
<pdfrwt beam="1">  1        4 0.46823477E-03 0.12499708E+03</pdfrwt>
<pdfrwt beam="2">  1       -4 0.19744647E+00 0.12499708E+03</pdfrwt>
<totfact> 0.22552139E+03</totfact>
</mgrwt>
</event>
<event>
 5    1  0.3401591E-002  0.1249999E+03  0.7818608E-02  0.1235069E+00
         -4   -1    0    0    0  501 -0.00000000000E+00  0.00000000000E+00  0.35713216740E+03  0.35713442553E+03  0.12700000000E+01 0.  1.
          4   -1    0    0  501    0  0.00000000000E+00 -0.00000000000E+00 -0.10898648664E+02  0.10972394575E+02  0.12700000000E+01 0.  1.
         25    2    1    2    0    0  0.00000000000E+00  0.00000000000E+00  0.34623351874E+03  0.36810682010E+03  0.12499992602E+03 0.  0.
    9000005    1    3    3    0    0  0.42942767397E+02  0.57319052403E+01  0.40489985360E+02  0.59307460946E+02  0.10000000000E+01 0.  0.
    9000005    1    3    3    0    0 -0.42942767397E+02 -0.57319052403E+01  0.30574353338E+03  0.30879935915E+03  0.10000000000E+01 0.  0.
<mgrwt>
<rscale>  0 0.12499993E+03</rscale>
<asrwt>0</asrwt>
<pdfrwt beam="2">  1        4 0.16825618E-02 0.12499993E+03</pdfrwt>
<pdfrwt beam="1">  1       -4 0.54949253E-01 0.12499993E+03</pdfrwt>
<totfact> 0.67777577E+03</totfact>
</mgrwt>
</event>
<event>
 5    1  0.3401591E-002  0.1249891E+03  0.7818608E-02  0.1235086E+00
          4   -1    0    0  501    0  0.00000000000E+00  0.00000000000E+00  0.45359781294E+02  0.45377556777E+02  0.12700000000E+01 0.  1.
         -4   -1    0    0    0  501 -0.00000000000E+00 -0.00000000000E+00 -0.86062661315E+02  0.86072031303E+02  0.12700000000E+01 0.  1.
         25    2    1    2    0    0  0.00000000000E+00  0.00000000000E+00 -0.40702880021E+02  0.13144958808E+03  0.12498907858E+03 0.  0.
    9000005    1    3    3    0    0 -0.50376768750E+02 -0.31659629467E+01 -0.59089076845E+02  0.77719760380E+02  0.10000000000E+01 0.  0.
    9000005    1    3    3    0    0  0.50376768750E+02  0.31659629467E+01  0.18386196824E+02  0.53729827701E+02  0.10000000000E+01 0.  0.
<mgrwt>
<rscale>  0 0.12498908E+03</rscale>
<asrwt>0</asrwt>
<pdfrwt beam="1">  1        4 0.69805160E-02 0.12498908E+03</pdfrwt>
<pdfrwt beam="2">  1       -4 0.13242498E-01 0.12498908E+03</pdfrwt>
<totfact> 0.10316002E+04</totfact>
</mgrwt>
</event>
<event>
 5    1  0.3401591E-002  0.1249984E+03  0.7818608E-02  0.1235072E+00
          4   -1    0    0  501    0  0.00000000000E+00  0.00000000000E+00  0.34034460755E+02  0.34058147614E+02  0.12700000000E+01 0.  1.
         -4   -1    0    0    0  501 -0.00000000000E+00 -0.00000000000E+00 -0.11470323200E+03  0.11471026253E+03  0.12700000000E+01 0.  1.
         25    2    1    2    0    0  0.00000000000E+00  0.00000000000E+00 -0.80668771242E+02  0.14876841015E+03  0.12499835681E+03 0.  0.
    9000005    1    3    3    0    0  0.31688271043E+02 -0.94914304908E+00 -0.10442772469E+03  0.10913843080E+03  0.10000000000E+01 0.  0.
    9000005    1    3    3    0    0 -0.31688271043E+02  0.94914304908E+00  0.23758953445E+02  0.39629979347E+02  0.10000000000E+01 0.  0.
<mgrwt>
<rscale>  0 0.12499836E+03</rscale>
<asrwt>0</asrwt>
<pdfrwt beam="1">  1        4 0.52384338E-02 0.12499836E+03</pdfrwt>
<pdfrwt beam="2">  1       -4 0.17649014E-01 0.12499836E+03</pdfrwt>
<totfact> 0.99553447E+03</totfact>
</mgrwt>
</event>
<event>
 5    1  0.3401591E-002  0.1249945E+03  0.7818608E-02  0.1235078E+00
         -4   -1    0    0    0  501 -0.00000000000E+00  0.00000000000E+00  0.19532476910E+03  0.19532889782E+03  0.12700000000E+01 0. -1.
          4   -1    0    0  501    0  0.00000000000E+00 -0.00000000000E+00 -0.19972470983E+02  0.20012808327E+02  0.12700000000E+01 0. -1.
         25    2    1    2    0    0  0.00000000000E+00  0.00000000000E+00  0.17535229812E+03  0.21534170615E+03  0.12499448769E+03 0.  0.
    9000005    1    3    3    0    0 -0.49315048346E+02  0.65515191534E+01  0.15282498917E+03  0.16072141647E+03  0.10000000000E+01 0.  0.
    9000005    1    3    3    0    0  0.49315048346E+02 -0.65515191534E+01  0.22527308950E+02  0.54620289683E+02  0.10000000000E+01 0.  0.
<mgrwt>
<rscale>  0 0.12499449E+03</rscale>
<asrwt>0</asrwt>
<pdfrwt beam="2">  1        4 0.30761083E-02 0.12499449E+03</pdfrwt>
<pdfrwt beam="1">  1       -4 0.30053385E-01 0.12499449E+03</pdfrwt>
<totfact> 0.87621665E+03</totfact>
</mgrwt>
</event>
<event>
 5    1  0.3401591E-002  0.1250409E+03  0.7818608E-02  0.1235005E+00
          4   -1    0    0  501    0  0.00000000000E+00  0.00000000000E+00  0.55736227650E+03  0.55736372340E+03  0.12700000000E+01 0. -1.
         -4   -1    0    0    0  501 -0.00000000000E+00 -0.00000000000E+00 -0.69540775050E+01  0.70690942804E+01  0.12700000000E+01 0. -1.
         25    2    1    2    0    0  0.00000000000E+00  0.00000000000E+00  0.55040819899E+03  0.56443281768E+03  0.12504087394E+03 0.  0.
    9000005    1    3    3    0    0 -0.56137304417E+02  0.27262158400E+02  0.29159354550E+03  0.29819862174E+03  0.10000000000E+01 0.  0.
    9000005    1    3    3    0    0  0.56137304417E+02 -0.27262158400E+02  0.25881465349E+03  0.26623419594E+03  0.10000000000E+01 0.  0.
<mgrwt>
<rscale>  0 0.12504087E+03</rscale>
<asrwt>0</asrwt>
<pdfrwt beam="1">  1        4 0.85757045E-01 0.12504087E+03</pdfrwt>
<pdfrwt beam="2">  1       -4 0.10788163E-02 0.12504087E+03</pdfrwt>
<totfact> 0.51146623E+03</totfact>
</mgrwt>
</event>
<event>
 5    1  0.3401591E-002  0.1249998E+03  0.7818608E-02  0.1235070E+00
          4   -1    0    0  501    0  0.00000000000E+00  0.00000000000E+00  0.89393467444E+01  0.90291096027E+01  0.12700000000E+01 0.  1.
         -4   -1    0    0    0  501 -0.00000000000E+00 -0.00000000000E+00 -0.43469751662E+03  0.43469937181E+03  0.12700000000E+01 0.  1.
         25    2    1    2    0    0  0.00000000000E+00  0.00000000000E+00 -0.42575816987E+03  0.44372848141E+03  0.12499978402E+03 0.  0.
    9000005    1    3    3    0    0 -0.30827768734E+01 -0.43843267218E+02 -0.55180895150E+02  0.70552581691E+02  0.10000000000E+01 0.  0.
    9000005    1    3    3    0    0  0.30827768734E+01  0.43843267218E+02 -0.37057727472E+03  0.37317589972E+03  0.10000000000E+01 0.  0.
<mgrwt>
<rscale>  0 0.12499978E+03</rscale>
<asrwt>0</asrwt>
<pdfrwt beam="1">  1        4 0.13823320E-02 0.12499978E+03</pdfrwt>
<pdfrwt beam="2">  1       -4 0.66883572E-01 0.12499978E+03</pdfrwt>
<totfact> 0.60511268E+03</totfact>
</mgrwt>
</event>
<event>
 5    1  0.3401591E-002  0.1249975E+03  0.7818608E-02  0.1235073E+00
         -4   -1    0    0    0  501 -0.00000000000E+00  0.00000000000E+00  0.87949595837E+03  0.87949687532E+03  0.12700000000E+01 0. -1.
          4   -1    0    0  501    0  0.00000000000E+00 -0.00000000000E+00 -0.43495595300E+01  0.45311773420E+01  0.12700000000E+01 0. -1.
         25    2    1    2    0    0  0.00000000000E+00  0.00000000000E+00  0.87514639884E+03  0.88402805266E+03  0.12499751390E+03 0.  0.
    9000005    1    3    3    0    0 -0.27643903295E+02  0.29989066798E+02  0.10273087370E+03  0.11053579479E+03  0.10000000000E+01 0.  0.
    9000005    1    3    3    0    0  0.27643903295E+02 -0.29989066798E+02  0.77241552514E+03  0.77349225787E+03  0.10000000000E+01 0.  0.
<mgrwt>
<rscale>  0 0.12499751E+03</rscale>
<asrwt>0</asrwt>
<pdfrwt beam="2">  1        4 0.68320366E-03 0.12499751E+03</pdfrwt>
<pdfrwt beam="1">  1       -4 0.13532121E+00 0.12499751E+03</pdfrwt>
<totfact> 0.34775708E+03</totfact>
</mgrwt>
</event>
<event>
 5    1  0.3401591E-002  0.1250021E+03  0.7818608E-02  0.1235066E+00
          4   -1    0    0  501    0  0.00000000000E+00  0.00000000000E+00  0.13022437844E+03  0.13023057107E+03  0.12700000000E+01 0. -1.
         -4   -1    0    0    0  501 -0.00000000000E+00 -0.00000000000E+00 -0.29976969768E+02  0.30003860027E+02  0.12700000000E+01 0. -1.
         25    2    1    2    0    0  0.00000000000E+00  0.00000000000E+00  0.10024740867E+03  0.16023443109E+03  0.12500211983E+03 0.  0.
    9000005    1    3    3    0    0 -0.21724084670E+02 -0.50535226466E+02  0.12105610530E+02  0.56331969387E+02  0.10000000000E+01 0.  0.
    9000005    1    3    3    0    0  0.21724084670E+02  0.50535226466E+02  0.88141798145E+02  0.10390246171E+03  0.10000000000E+01 0.  0.
<mgrwt>
<rscale>  0 0.12500212E+03</rscale>
<asrwt>0</asrwt>
<pdfrwt beam="1">  1        4 0.20037064E-01 0.12500212E+03</pdfrwt>
<pdfrwt beam="2">  1       -4 0.46143865E-02 0.12500212E+03</pdfrwt>
<totfact> 0.97292972E+03</totfact>
</mgrwt>
</event>
<event>
 5    1  0.3401591E-002  0.1250003E+03  0.7818608E-02  0.1235069E+00
          4   -1    0    0  501    0  0.00000000000E+00  0.00000000000E+00  0.22434880179E+02  0.22470797686E+02  0.12700000000E+01 0.  1.
         -4   -1    0    0    0  501 -0.00000000000E+00 -0.00000000000E+00 -0.17393847766E+03  0.17394311401E+03  0.12700000000E+01 0.  1.
         25    2    1    2    0    0  0.00000000000E+00  0.00000000000E+00 -0.15150359748E+03  0.19641391169E+03  0.12500033863E+03 0.  0.
    9000005    1    3    3    0    0  0.33693378719E+02  0.52417678095E+02 -0.68312623545E+02  0.92468758411E+02  0.10000000000E+01 0.  0.
    9000005    1    3    3    0    0 -0.33693378719E+02 -0.52417678095E+02 -0.83190973935E+02  0.10394515328E+03  0.10000000000E+01 0.  0.
<mgrwt>
<rscale>  0 0.12500034E+03</rscale>
<asrwt>0</asrwt>
<pdfrwt beam="1">  1        4 0.34546397E-02 0.12500034E+03</pdfrwt>
<pdfrwt beam="2">  1       -4 0.26762884E-01 0.12500034E+03</pdfrwt>
<totfact> 0.90742449E+03</totfact>
</mgrwt>
</event>
<event>
 5    1  0.3401591E-002  0.1250040E+03  0.7818608E-02  0.1235063E+00
          4   -1    0    0  501    0  0.00000000000E+00  0.00000000000E+00  0.10801063882E+03  0.10801810496E+03  0.12700000000E+01 0.  1.
         -4   -1    0    0    0  501 -0.00000000000E+00 -0.00000000000E+00 -0.36147875533E+02  0.36170178401E+02  0.12700000000E+01 0.  1.
         25    2    1    2    0    0  0.00000000000E+00  0.00000000000E+00  0.71862763286E+02  0.14418828336E+03  0.12500401718E+03 0.  0.
    9000005    1    3    3    0    0  0.55920003204E+02 -0.18417633067E+02  0.60105991270E+02  0.84142653587E+02  0.10000000000E+01 0.  0.
    9000005    1    3    3    0    0 -0.55920003204E+02  0.18417633067E+02  0.11756772016E+02  0.60045629769E+02  0.10000000000E+01 0.  0.
<mgrwt>
<rscale>  0 0.12500402E+03</rscale>
<asrwt>0</asrwt>
<pdfrwt beam="1">  1        4 0.16619311E-01 0.12500402E+03</pdfrwt>
<pdfrwt beam="2">  1       -4 0.55635016E-02 0.12500402E+03</pdfrwt>
<totfact> 0.10046598E+04</totfact>
</mgrwt>
</event>
<event>
 5    1  0.3401591E-002  0.1250003E+03  0.7818608E-02  0.1235069E+00
         -4   -1    0    0    0  501 -0.00000000000E+00  0.00000000000E+00  0.36453689571E+02  0.36475805452E+02  0.12700000000E+01 0. -1.
          4   -1    0    0  501    0  0.00000000000E+00 -0.00000000000E+00 -0.10709855929E+03  0.10710608900E+03  0.12700000000E+01 0. -1.
         25    2    1    2    0    0  0.00000000000E+00  0.00000000000E+00 -0.70644869718E+02  0.14358189446E+03  0.12500025119E+03 0.  0.
    9000005    1    3    3    0    0 -0.37281735286E+02  0.14032957067E+02  0.19985098708E+02  0.44578647808E+02  0.10000000000E+01 0.  0.
    9000005    1    3    3    0    0  0.37281735286E+02 -0.14032957067E+02 -0.90629968427E+02  0.99003246649E+02  0.10000000000E+01 0.  0.
<mgrwt>
<rscale>  0 0.12500025E+03</rscale>
<asrwt>0</asrwt>
<pdfrwt beam="2">  1        4 0.16478982E-01 0.12500025E+03</pdfrwt>
<pdfrwt beam="1">  1       -4 0.56105404E-02 0.12500025E+03</pdfrwt>
<totfact> 0.10059824E+04</totfact>
</mgrwt>
</event>
<event>
 5    1  0.3401591E-002  0.1249985E+03  0.7818608E-02  0.1235072E+00
         -4   -1    0    0    0  501 -0.00000000000E+00  0.00000000000E+00  0.11452976474E+02  0.11523175348E+02  0.12700000000E+01 0.  1.
          4   -1    0    0  501    0  0.00000000000E+00 -0.00000000000E+00 -0.33994705602E+03  0.33994942830E+03  0.12700000000E+01 0.  1.
         25    2    1    2    0    0  0.00000000000E+00  0.00000000000E+00 -0.32849407955E+03  0.35147260364E+03  0.12499852324E+03 0.  0.
    9000005    1    3    3    0    0  0.52005586828E+02 -0.32356608714E+02 -0.19909839615E+03  0.20830915135E+03  0.10000000000E+01 0.  0.
    9000005    1    3    3    0    0 -0.52005586828E+02  0.32356608714E+02 -0.12939568340E+03  0.14316345229E+03  0.10000000000E+01 0.  0.
<mgrwt>
<rscale>  0 0.12499852E+03</rscale>
<asrwt>0</asrwt>
<pdfrwt beam="2">  1        4 0.52305122E-01 0.12499852E+03</pdfrwt>
<pdfrwt beam="1">  1       -4 0.17675790E-02 0.12499852E+03</pdfrwt>
<totfact> 0.69565131E+03</totfact>
</mgrwt>
</event>
<event>
 5    1  0.3401591E-002  0.1249975E+03  0.7818608E-02  0.1235073E+00
          4   -1    0    0  501    0  0.00000000000E+00  0.00000000000E+00  0.67734227630E+01  0.68914552836E+01  0.12700000000E+01 0.  1.
         -4   -1    0    0    0  501 -0.00000000000E+00 -0.00000000000E+00 -0.57157926907E+03  0.57158067999E+03  0.12700000000E+01 0.  1.
         25    2    1    2    0    0  0.00000000000E+00  0.00000000000E+00 -0.56480584631E+03  0.57847213527E+03  0.12499746901E+03 0.  0.
    9000005    1    3    3    0    0  0.61940333582E+02  0.34544679845E+01 -0.24760036826E+03  0.25525571617E+03  0.10000000000E+01 0.  0.
    9000005    1    3    3    0    0 -0.61940333582E+02 -0.34544679845E+01 -0.31720547805E+03  0.32321641910E+03  0.10000000000E+01 0.  0.
<mgrwt>
<rscale>  0 0.12499747E+03</rscale>
<asrwt>0</asrwt>
<pdfrwt beam="1">  1        4 0.10512534E-02 0.12499747E+03</pdfrwt>
<pdfrwt beam="2">  1       -4 0.87944422E-01 0.12499747E+03</pdfrwt>
<totfact> 0.50258138E+03</totfact>
</mgrwt>
</event>
<event>
 5    1  0.3401591E-002  0.1250244E+03  0.7818608E-02  0.1235031E+00
         -4   -1    0    0    0  501 -0.00000000000E+00  0.00000000000E+00  0.47965455589E+03  0.47965623720E+03  0.12700000000E+01 0.  1.
          4   -1    0    0  501    0  0.00000000000E+00 -0.00000000000E+00 -0.80958576483E+01  0.81948649203E+01  0.12700000000E+01 0.  1.
         25    2    1    2    0    0  0.00000000000E+00  0.00000000000E+00  0.47155869824E+03  0.48785110212E+03  0.12502436544E+03 0.  0.
    9000005    1    3    3    0    0  0.10917997373E+02 -0.53129906748E+02  0.11457797962E+03  0.12677185442E+03  0.10000000000E+01 0.  0.
    9000005    1    3    3    0    0 -0.10917997373E+02  0.53129906748E+02  0.35698071862E+03  0.36107924770E+03  0.10000000000E+01 0.  0.
<mgrwt>
<rscale>  0 0.12502437E+03</rscale>
<asrwt>0</asrwt>
<pdfrwt beam="2">  1        4 0.12532617E-02 0.12502437E+03</pdfrwt>
<pdfrwt beam="1">  1       -4 0.73800760E-01 0.12502437E+03</pdfrwt>
<totfact> 0.56789000E+03</totfact>
</mgrwt>
</event>
<event>
 5    1  0.3401591E-002  0.1249872E+03  0.7818608E-02  0.1235089E+00
          4   -1    0    0  501    0  0.00000000000E+00  0.00000000000E+00  0.13035469256E+03  0.13036087899E+03  0.12700000000E+01 0. -1.
         -4   -1    0    0    0  501 -0.00000000000E+00 -0.00000000000E+00 -0.29939799258E+02  0.29966722871E+02  0.12700000000E+01 0. -1.
         25    2    1    2    0    0  0.00000000000E+00  0.00000000000E+00  0.10041489330E+03  0.16032760187E+03  0.12498715583E+03 0.  0.
    9000005    1    3    3    0    0 -0.49480456428E+02  0.16169897290E+02  0.94544434762E+02  0.10793253120E+03  0.10000000000E+01 0.  0.
    9000005    1    3    3    0    0  0.49480456428E+02 -0.16169897290E+02  0.58704585399E+01  0.52395070666E+02  0.10000000000E+01 0.  0.
<mgrwt>
<rscale>  0 0.12498716E+03</rscale>
<asrwt>0</asrwt>
<pdfrwt beam="1">  1        4 0.20057116E-01 0.12498716E+03</pdfrwt>
<pdfrwt beam="2">  1       -4 0.46086697E-02 0.12498716E+03</pdfrwt>
<totfact> 0.97307751E+03</totfact>
</mgrwt>
</event>
<event>
 5    1  0.3401591E-002  0.1250040E+03  0.7818608E-02  0.1235063E+00
          4   -1    0    0  501    0  0.00000000000E+00  0.00000000000E+00  0.13582734387E+03  0.13583328106E+03  0.12700000000E+01 0. -1.
         -4   -1    0    0    0  501 -0.00000000000E+00 -0.00000000000E+00 -0.28740191557E+02  0.28768237881E+02  0.12700000000E+01 0. -1.
         25    2    1    2    0    0  0.00000000000E+00  0.00000000000E+00  0.10708715231E+03  0.16460151894E+03  0.12500400732E+03 0.  0.
    9000005    1    3    3    0    0 -0.43283598193E+02 -0.25306088527E+02  0.44220128445E+01  0.50343045068E+02  0.10000000000E+01 0.  0.
    9000005    1    3    3    0    0  0.43283598193E+02  0.25306088527E+02  0.10266513947E+03  0.11425847387E+03  0.10000000000E+01 0.  0.
<mgrwt>
<rscale>  0 0.12500401E+03</rscale>
<asrwt>0</asrwt>
<pdfrwt beam="1">  1        4 0.20899129E-01 0.12500401E+03</pdfrwt>
<pdfrwt beam="2">  1       -4 0.44241820E-02 0.12500401E+03</pdfrwt>
<totfact> 0.96454227E+03</totfact>
</mgrwt>
</event>
<event>
 5    1  0.3401591E-002  0.1249997E+03  0.7818608E-02  0.1235070E+00
          4   -1    0    0  501    0  0.00000000000E+00  0.00000000000E+00  0.61361983542E+02  0.61375124637E+02  0.12700000000E+01 0. -1.
         -4   -1    0    0    0  501 -0.00000000000E+00 -0.00000000000E+00 -0.63632499041E+02  0.63645171335E+02  0.12700000000E+01 0. -1.
         25    2    1    2    0    0  0.00000000000E+00  0.00000000000E+00 -0.22705154988E+01  0.12502029597E+03  0.12499967666E+03 0.  0.
    9000005    1    3    3    0    0 -0.33599682712E+02  0.52663354105E+02 -0.28273545296E+01  0.62540878452E+02  0.10000000000E+01 0.  0.
    9000005    1    3    3    0    0  0.33599682712E+02 -0.52663354105E+02  0.55683903077E+00  0.62479417520E+02  0.10000000000E+01 0.  0.
<mgrwt>
<rscale>  0 0.12499968E+03</rscale>
<asrwt>0</asrwt>
<pdfrwt beam="1">  1        4 0.94422908E-02 0.12499968E+03</pdfrwt>
<pdfrwt beam="2">  1       -4 0.97916009E-02 0.12499968E+03</pdfrwt>
<totfact> 0.10452498E+04</totfact>
</mgrwt>
</event>
<event>
 5    1  0.3401591E-002  0.1249987E+03  0.7818608E-02  0.1235071E+00
         -4   -1    0    0    0  501 -0.00000000000E+00  0.00000000000E+00  0.77739148719E+01  0.78769697496E+01  0.12700000000E+01 0.  1.
          4   -1    0    0  501    0  0.00000000000E+00 -0.00000000000E+00 -0.49905887228E+03  0.49906048822E+03  0.12700000000E+01 0.  1.
         25    2    1    2    0    0  0.00000000000E+00  0.00000000000E+00 -0.49128495741E+03  0.50693745797E+03  0.12499870766E+03 0.  0.
    9000005    1    3    3    0    0 -0.22450076751E+02  0.57307458233E+02 -0.28951333879E+03  0.29598500647E+03  0.10000000000E+01 0.  0.
    9000005    1    3    3    0    0  0.22450076751E+02 -0.57307458233E+02 -0.20177161862E+03  0.21095245150E+03  0.10000000000E+01 0.  0.
<mgrwt>
<rscale>  0 0.12499871E+03</rscale>
<asrwt>0</asrwt>
<pdfrwt beam="2">  1        4 0.76786314E-01 0.12499871E+03</pdfrwt>
<pdfrwt beam="1">  1       -4 0.12040389E-02 0.12499871E+03</pdfrwt>
<totfact> 0.55331677E+03</totfact>
</mgrwt>
</event>
<event>
 5    1  0.3401591E-002  0.1250005E+03  0.7818608E-02  0.1235069E+00
         -4   -1    0    0    0  501 -0.00000000000E+00  0.00000000000E+00  0.25186638251E+02  0.25218636886E+02  0.12700000000E+01 0. -1.
          4   -1    0    0  501    0  0.00000000000E+00 -0.00000000000E+00 -0.15496030576E+03  0.15496550991E+03  0.12700000000E+01 0. -1.
         25    2    1    2    0    0  0.00000000000E+00  0.00000000000E+00 -0.12977366751E+03  0.18018414679E+03  0.12500048791E+03 0.  0.
    9000005    1    3    3    0    0  0.54353070526E+01  0.59413149074E+02 -0.91692536072E+02  0.10939829074E+03  0.10000000000E+01 0.  0.
    9000005    1    3    3    0    0 -0.54353070526E+01 -0.59413149074E+02 -0.38081131435E+02  0.70785856051E+02  0.10000000000E+01 0.  0.
<mgrwt>
<rscale>  0 0.12500049E+03</rscale>
<asrwt>0</asrwt>
<pdfrwt beam="2">  1        4 0.23842908E-01 0.12500049E+03</pdfrwt>
<pdfrwt beam="1">  1       -4 0.38777293E-02 0.12500049E+03</pdfrwt>
<totfact> 0.93582843E+03</totfact>
</mgrwt>
</event>
<event>
 5    1  0.3401591E-002  0.1249963E+03  0.7818608E-02  0.1235075E+00
          4   -1    0    0  501    0  0.00000000000E+00  0.00000000000E+00  0.59114438066E+02  0.59128078675E+02  0.12700000000E+01 0.  1.
         -4   -1    0    0    0  501 -0.00000000000E+00 -0.00000000000E+00 -0.66048185323E+02  0.66060394220E+02  0.12700000000E+01 0.  1.
         25    2    1    2    0    0  0.00000000000E+00  0.00000000000E+00 -0.69337472578E+01  0.12518847290E+03  0.12499630752E+03 0.  0.
    9000005    1    3    3    0    0 -0.27519935348E+02 -0.28623109961E+02  0.44860702843E+02  0.59917542715E+02  0.10000000000E+01 0.  0.
    9000005    1    3    3    0    0  0.27519935348E+02  0.28623109961E+02 -0.51794450101E+02  0.65270930181E+02  0.10000000000E+01 0.  0.
<mgrwt>
<rscale>  0 0.12499631E+03</rscale>
<asrwt>0</asrwt>
<pdfrwt beam="1">  1        4 0.90965174E-02 0.12499631E+03</pdfrwt>
<pdfrwt beam="2">  1       -4 0.10163248E-01 0.12499631E+03</pdfrwt>
<totfact> 0.10449642E+04</totfact>
</mgrwt>
</event>
<event>
 5    1  0.3401591E-002  0.1249998E+03  0.7818608E-02  0.1235070E+00
          4   -1    0    0  501    0  0.00000000000E+00  0.00000000000E+00  0.48678528443E+01  0.50307943025E+01  0.12700000000E+01 0. -1.
         -4   -1    0    0    0  501 -0.00000000000E+00 -0.00000000000E+00 -0.78908349774E+03  0.78908451975E+03  0.12700000000E+01 0. -1.
         25    2    1    2    0    0  0.00000000000E+00  0.00000000000E+00 -0.78421564489E+03  0.79411531405E+03  0.12499981724E+03 0.  0.
    9000005    1    3    3    0    0 -0.38527582469E+02 -0.47101667988E+02 -0.30174937881E+03  0.30782564765E+03  0.10000000000E+01 0.  0.
    9000005    1    3    3    0    0  0.38527582469E+02  0.47101667988E+02 -0.48246626608E+03  0.48628966640E+03  0.10000000000E+01 0.  0.
<mgrwt>
<rscale>  0 0.12499982E+03</rscale>
<asrwt>0</asrwt>
<pdfrwt beam="1">  1        4 0.76151364E-03 0.12499982E+03</pdfrwt>
<pdfrwt beam="2">  1       -4 0.12140997E+00 0.12499982E+03</pdfrwt>
<totfact> 0.38528970E+03</totfact>
</mgrwt>
</event>
<event>
 5    1  0.3401591E-002  0.1250010E+03  0.7818608E-02  0.1235068E+00
         -4   -1    0    0    0  501 -0.00000000000E+00  0.00000000000E+00  0.19976433222E+04  0.19976437259E+04  0.12700000000E+01 0.  1.
          4   -1    0    0  501    0  0.00000000000E+00 -0.00000000000E+00 -0.17488107195E+01  0.21613049143E+01  0.12700000000E+01 0.  1.
         25    2    1    2    0    0  0.00000000000E+00  0.00000000000E+00  0.19958945115E+04  0.19998050309E+04  0.12500104126E+03 0.  0.
    9000005    1    3    3    0    0 -0.28439199958E+01 -0.29360226184E+02  0.18793369973E+04  0.18795687432E+04  0.10000000000E+01 0.  0.
    9000005    1    3    3    0    0  0.28439199958E+01  0.29360226184E+02  0.11655751421E+03  0.12023628771E+03  0.10000000000E+01 0.  0.
<mgrwt>
<rscale>  0 0.12500104E+03</rscale>
<asrwt>0</asrwt>
<pdfrwt beam="2">  1        4 0.30080916E-03 0.12500104E+03</pdfrwt>
<pdfrwt beam="1">  1       -4 0.30736152E+00 0.12500104E+03</pdfrwt>
<totfact> 0.98635221E+02</totfact>
</mgrwt>
</event>
<event>
 5    1  0.3401591E-002  0.1249991E+03  0.7818608E-02  0.1235071E+00
         -4   -1    0    0    0  501 -0.00000000000E+00  0.00000000000E+00  0.81607764848E+03  0.81607863669E+03  0.12700000000E+01 0.  1.
          4   -1    0    0  501    0  0.00000000000E+00 -0.00000000000E+00 -0.47012985704E+01  0.48698160384E+01  0.12700000000E+01 0.  1.
         25    2    1    2    0    0  0.00000000000E+00  0.00000000000E+00  0.81137634991E+03  0.82094845272E+03  0.12499912332E+03 0.  0.
    9000005    1    3    3    0    0  0.21648846231E+02 -0.10877493251E+02  0.78400911892E+03  0.78438402008E+03  0.10000000000E+01 0.  0.
    9000005    1    3    3    0    0 -0.21648846231E+02  0.10877493251E+02  0.27367230994E+02  0.36564432648E+02  0.10000000000E+01 0.  0.
<mgrwt>
<rscale>  0 0.12499912E+03</rscale>
<asrwt>0</asrwt>
<pdfrwt beam="2">  1        4 0.73631554E-03 0.12499912E+03</pdfrwt>
<pdfrwt beam="1">  1       -4 0.12556346E+00 0.12499912E+03</pdfrwt>
<totfact> 0.37347181E+03</totfact>
</mgrwt>
</event>
<event>
 5    1  0.3401591E-002  0.1250020E+03  0.7818608E-02  0.1235066E+00
         -4   -1    0    0    0  501 -0.00000000000E+00  0.00000000000E+00  0.26729877110E+01  0.29593518383E+01  0.12700000000E+01 0. -1.
          4   -1    0    0  501    0  0.00000000000E+00 -0.00000000000E+00 -0.13868372765E+04  0.13868378580E+04  0.12700000000E+01 0. -1.
         25    2    1    2    0    0  0.00000000000E+00  0.00000000000E+00 -0.13841642887E+04  0.13897972098E+04  0.12500202448E+03 0.  0.
    9000005    1    3    3    0    0  0.53356704266E+02 -0.88157396705E+01 -0.10402648607E+04  0.10416701184E+04  0.10000000000E+01 0.  0.
    9000005    1    3    3    0    0 -0.53356704266E+02  0.88157396705E+01 -0.34389942800E+03  0.34812709136E+03  0.10000000000E+01 0.  0.
<mgrwt>
<rscale>  0 0.12500202E+03</rscale>
<asrwt>0</asrwt>
<pdfrwt beam="2">  1        4 0.21338111E+00 0.12500202E+03</pdfrwt>
<pdfrwt beam="1">  1       -4 0.43330273E-03 0.12500202E+03</pdfrwt>
<totfact> 0.20200117E+03</totfact>
</mgrwt>
</event>
<event>
 5    1  0.3401591E-002  0.1250093E+03  0.7818608E-02  0.1235055E+00
         -4   -1    0    0    0  501 -0.00000000000E+00  0.00000000000E+00  0.96214123115E+02  0.96222504576E+02  0.12700000000E+01 0.  1.
          4   -1    0    0  501    0  0.00000000000E+00 -0.00000000000E+00 -0.40585514413E+02  0.40605379941E+02  0.12700000000E+01 0.  1.
         25    2    1    2    0    0  0.00000000000E+00  0.00000000000E+00  0.55628608702E+02  0.13682788452E+03  0.12500931115E+03 0.  0.
    9000005    1    3    3    0    0  0.97318459795E+01  0.61308441882E+02  0.35737310739E+02  0.71635111859E+02  0.10000000000E+01 0.  0.
    9000005    1    3    3    0    0 -0.97318459795E+01 -0.61308441882E+02  0.19891297963E+02  0.65192772658E+02  0.10000000000E+01 0.  0.
<mgrwt>
<rscale>  0 0.12500931E+03</rscale>
<asrwt>0</asrwt>
<pdfrwt beam="2">  1        4 0.62460982E-02 0.12500931E+03</pdfrwt>
<pdfrwt beam="1">  1       -4 0.14804346E-01 0.12500931E+03</pdfrwt>
<totfact> 0.10197545E+04</totfact>
</mgrwt>
</event>
<event>
 5    1  0.3401591E-002  0.1250052E+03  0.7818608E-02  0.1235061E+00
         -4   -1    0    0    0  501 -0.00000000000E+00  0.00000000000E+00  0.68501624549E+02  0.68513396251E+02  0.12700000000E+01 0.  1.
          4   -1    0    0  501    0  0.00000000000E+00 -0.00000000000E+00 -0.57005188285E+02  0.57019333488E+02  0.12700000000E+01 0.  1.
         25    2    1    2    0    0  0.00000000000E+00  0.00000000000E+00  0.11496436264E+02  0.12553272974E+03  0.12500519265E+03 0.  0.
    9000005    1    3    3    0    0 -0.44972665959E+02  0.62556950463E+01  0.48870091318E+02  0.66715517156E+02  0.10000000000E+01 0.  0.
    9000005    1    3    3    0    0  0.44972665959E+02 -0.62556950463E+01 -0.37373655053E+02  0.58817212583E+02  0.10000000000E+01 0.  0.
<mgrwt>
<rscale>  0 0.12500519E+03</rscale>
<asrwt>0</asrwt>
<pdfrwt beam="2">  1        4 0.87720226E-02 0.12500519E+03</pdfrwt>
<pdfrwt beam="1">  1       -4 0.10540705E-01 0.12500519E+03</pdfrwt>
<totfact> 0.10440008E+04</totfact>
</mgrwt>
</event>
<event>
 5    1  0.3401591E-002  0.1249967E+03  0.7818608E-02  0.1235074E+00
         -4   -1    0    0    0  501 -0.00000000000E+00  0.00000000000E+00  0.58263342536E+03  0.58263480951E+03  0.12700000000E+01 0. -1.
          4   -1    0    0  501    0  0.00000000000E+00 -0.00000000000E+00 -0.66425677811E+01  0.67628844975E+01  0.12700000000E+01 0. -1.
         25    2    1    2    0    0  0.00000000000E+00  0.00000000000E+00  0.57599085758E+03  0.58939769401E+03  0.12499669468E+03 0.  0.
    9000005    1    3    3    0    0 -0.77545182289E+01 -0.49730700170E+02  0.46263806930E+03  0.46536894853E+03  0.10000000000E+01 0.  0.
    9000005    1    3    3    0    0  0.77545182289E+01  0.49730700170E+02  0.11335278828E+03  0.12402874547E+03  0.10000000000E+01 0.  0.
<mgrwt>
<rscale>  0 0.12499669E+03</rscale>
<asrwt>0</asrwt>
<pdfrwt beam="2">  1        4 0.10312952E-02 0.12499669E+03</pdfrwt>
<pdfrwt beam="1">  1       -4 0.89645269E-01 0.12499669E+03</pdfrwt>
<totfact> 0.49547364E+03</totfact>
</mgrwt>
</event>
<event>
 5    1  0.3401591E-002  0.1250022E+03  0.7818608E-02  0.1235066E+00
          4   -1    0    0  501    0  0.00000000000E+00  0.00000000000E+00  0.37001375416E+02  0.37023164136E+02  0.12700000000E+01 0.  1.
         -4   -1    0    0    0  501 -0.00000000000E+00 -0.00000000000E+00 -0.10551735368E+03  0.10552499622E+03  0.12700000000E+01 0.  1.
         25    2    1    2    0    0  0.00000000000E+00  0.00000000000E+00 -0.68515978263E+02  0.14254816036E+03  0.12500215496E+03 0.  0.
    9000005    1    3    3    0    0  0.12260377365E+02  0.55638180395E+02 -0.49734373331E+01  0.57198418245E+02  0.10000000000E+01 0.  0.
    9000005    1    3    3    0    0 -0.12260377365E+02 -0.55638180395E+02 -0.63542540930E+02  0.85349742112E+02  0.10000000000E+01 0.  0.
<mgrwt>
<rscale>  0 0.12500215E+03</rscale>
<asrwt>0</asrwt>
<pdfrwt beam="1">  1        4 0.56947833E-02 0.12500215E+03</pdfrwt>
<pdfrwt beam="2">  1       -4 0.16235703E-01 0.12500215E+03</pdfrwt>
<totfact> 0.10080555E+04</totfact>
</mgrwt>
</event>
<event>
 5    1  0.3401591E-002  0.1249996E+03  0.7818608E-02  0.1235070E+00
          4   -1    0    0  501    0  0.00000000000E+00  0.00000000000E+00  0.78825629672E+02  0.78835859818E+02  0.12700000000E+01 0.  1.
         -4   -1    0    0    0  501 -0.00000000000E+00 -0.00000000000E+00 -0.49533674877E+02  0.49549953046E+02  0.12700000000E+01 0.  1.
         25    2    1    2    0    0  0.00000000000E+00  0.00000000000E+00  0.29291954795E+02  0.12838581286E+03  0.12499959331E+03 0.  0.
    9000005    1    3    3    0    0 -0.32581741794E+02  0.23409702456E+02  0.63856771763E+02  0.75420629587E+02  0.10000000000E+01 0.  0.
    9000005    1    3    3    0    0  0.32581741794E+02 -0.23409702456E+02 -0.34564816968E+02  0.52965183276E+02  0.10000000000E+01 0.  0.
<mgrwt>
<rscale>  0 0.12499959E+03</rscale>
<asrwt>0</asrwt>
<pdfrwt beam="1">  1        4 0.12129059E-01 0.12499959E+03</pdfrwt>
<pdfrwt beam="2">  1       -4 0.76226045E-02 0.12499959E+03</pdfrwt>
<totfact> 0.10379259E+04</totfact>
</mgrwt>
</event>
<event>
 5    1  0.3401591E-002  0.1250012E+03  0.7818608E-02  0.1235067E+00
          4   -1    0    0  501    0  0.00000000000E+00  0.00000000000E+00  0.21072776642E+03  0.21073159336E+03  0.12700000000E+01 0.  1.
         -4   -1    0    0    0  501 -0.00000000000E+00 -0.00000000000E+00 -0.18511554016E+02  0.18555067558E+02  0.12700000000E+01 0.  1.
         25    2    1    2    0    0  0.00000000000E+00  0.00000000000E+00  0.19221621240E+03  0.22928666092E+03  0.12500120225E+03 0.  0.
    9000005    1    3    3    0    0  0.12166415368E+02  0.72099721706E+01  0.20776291883E+03  0.20824609433E+03  0.10000000000E+01 0.  0.
    9000005    1    3    3    0    0 -0.12166415368E+02 -0.72099721706E+01 -0.15546706429E+02  0.21040566589E+02  0.10000000000E+01 0.  0.
<mgrwt>
<rscale>  0 0.12500120E+03</rscale>
<asrwt>0</asrwt>
<pdfrwt beam="1">  1        4 0.32423300E-01 0.12500120E+03</pdfrwt>
<pdfrwt beam="2">  1       -4 0.28515728E-02 0.12500120E+03</pdfrwt>
<totfact> 0.85416957E+03</totfact>
</mgrwt>
</event>
<event>
 5    1  0.3401591E-002  0.1250055E+03  0.7818608E-02  0.1235061E+00
         -4   -1    0    0    0  501 -0.00000000000E+00  0.00000000000E+00  0.42748348009E+02  0.42767208905E+02  0.12700000000E+01 0.  1.
          4   -1    0    0  501    0  0.00000000000E+00 -0.00000000000E+00 -0.91342477687E+02  0.91351306121E+02  0.12700000000E+01 0.  1.
         25    2    1    2    0    0  0.00000000000E+00  0.00000000000E+00 -0.48594129678E+02  0.13411851503E+03  0.12500554641E+03 0.  0.
    9000005    1    3    3    0    0  0.57622825264E+02 -0.46457489830E+01  0.11744087279E+01  0.57830374466E+02  0.10000000000E+01 0.  0.
    9000005    1    3    3    0    0 -0.57622825264E+02  0.46457489830E+01 -0.49768538406E+02  0.76288140560E+02  0.10000000000E+01 0.  0.
<mgrwt>
<rscale>  0 0.12500555E+03</rscale>
<asrwt>0</asrwt>
<pdfrwt beam="2">  1        4 0.14054819E-01 0.12500555E+03</pdfrwt>
<pdfrwt beam="1">  1       -4 0.65787989E-02 0.12500555E+03</pdfrwt>
<totfact> 0.10255401E+04</totfact>
</mgrwt>
</event>
<event>
 5    1  0.3401591E-002  0.1250023E+03  0.7818608E-02  0.1235066E+00
         -4   -1    0    0    0  501 -0.00000000000E+00  0.00000000000E+00  0.41804716340E+02  0.41824002777E+02  0.12700000000E+01 0. -1.
          4   -1    0    0  501    0  0.00000000000E+00 -0.00000000000E+00 -0.93398648713E+02  0.93407282807E+02  0.12700000000E+01 0. -1.
         25    2    1    2    0    0  0.00000000000E+00  0.00000000000E+00 -0.51593932373E+02  0.13523128558E+03  0.12500226695E+03 0.  0.
    9000005    1    3    3    0    0 -0.25038300276E+02 -0.34850002215E+02 -0.74945338779E+02  0.86366908824E+02  0.10000000000E+01 0.  0.
    9000005    1    3    3    0    0  0.25038300276E+02  0.34850002215E+02  0.23351406406E+02  0.48864376760E+02  0.10000000000E+01 0.  0.
<mgrwt>
<rscale>  0 0.12500227E+03</rscale>
<asrwt>0</asrwt>
<pdfrwt beam="2">  1        4 0.14371171E-01 0.12500227E+03</pdfrwt>
<pdfrwt beam="1">  1       -4 0.64336426E-02 0.12500227E+03</pdfrwt>
<totfact> 0.10232675E+04</totfact>
</mgrwt>
</event>
<event>
 5    1  0.3401591E-002  0.1249983E+03  0.7818608E-02  0.1235072E+00
          4   -1    0    0  501    0  0.00000000000E+00  0.00000000000E+00  0.83820009086E+02  0.83829629745E+02  0.12700000000E+01 0. -1.
         -4   -1    0    0    0  501 -0.00000000000E+00 -0.00000000000E+00 -0.46580635916E+02  0.46597945688E+02  0.12700000000E+01 0. -1.
         25    2    1    2    0    0  0.00000000000E+00  0.00000000000E+00  0.37239373170E+02  0.13042757543E+03  0.12499832607E+03 0.  0.
    9000005    1    3    3    0    0  0.26020367518E+02 -0.14614960712E+02  0.75908794504E+02  0.81570838449E+02  0.10000000000E+01 0.  0.
    9000005    1    3    3    0    0 -0.26020367518E+02  0.14614960712E+02 -0.38669421334E+02  0.48856736983E+02  0.10000000000E+01 0.  0.
<mgrwt>
<rscale>  0 0.12499833E+03</rscale>
<asrwt>0</asrwt>
<pdfrwt beam="1">  1        4 0.12897457E-01 0.12499833E+03</pdfrwt>
<pdfrwt beam="2">  1       -4 0.71683233E-02 0.12499833E+03</pdfrwt>
<totfact> 0.10335760E+04</totfact>
</mgrwt>
</event>
<event>
 5    1  0.3401591E-002  0.1250000E+03  0.7818608E-02  0.1235069E+00
          4   -1    0    0  501    0  0.00000000000E+00  0.00000000000E+00  0.11795283209E+02  0.11863456746E+02  0.12700000000E+01 0.  1.
         -4   -1    0    0    0  501 -0.00000000000E+00 -0.00000000000E+00 -0.33014693463E+03  0.33014937732E+03  0.12700000000E+01 0.  1.
         25    2    1    2    0    0  0.00000000000E+00  0.00000000000E+00 -0.31835165142E+03  0.34201283406E+03  0.12500001882E+03 0.  0.
    9000005    1    3    3    0    0  0.94122429052E+01 -0.61777940121E+02 -0.16022477014E+03  0.17198279323E+03  0.10000000000E+01 0.  0.
    9000005    1    3    3    0    0 -0.94122429052E+01  0.61777940121E+02 -0.15812688128E+03  0.17003004083E+03  0.10000000000E+01 0.  0.
<mgrwt>
<rscale>  0 0.12500002E+03</rscale>
<asrwt>0</asrwt>
<pdfrwt beam="1">  1        4 0.18200912E-02 0.12500002E+03</pdfrwt>
<pdfrwt beam="2">  1       -4 0.50797261E-01 0.12500002E+03</pdfrwt>
<totfact> 0.70612246E+03</totfact>
</mgrwt>
</event>
<event>
 5    1  0.3401591E-002  0.1250012E+03  0.7818608E-02  0.1235067E+00
         -4   -1    0    0    0  501 -0.00000000000E+00  0.00000000000E+00  0.95643070542E+01  0.96482573259E+01  0.12700000000E+01 0.  1.
          4   -1    0    0  501    0  0.00000000000E+00 -0.00000000000E+00 -0.40655749506E+03  0.40655947866E+03  0.12700000000E+01 0.  1.
         25    2    1    2    0    0  0.00000000000E+00  0.00000000000E+00 -0.39699318800E+03  0.41620773598E+03  0.12500115268E+03 0.  0.
    9000005    1    3    3    0    0  0.29085835032E+02  0.54924315462E+02 -0.17675030023E+03  0.18736150848E+03  0.10000000000E+01 0.  0.
    9000005    1    3    3    0    0 -0.29085835032E+02 -0.54924315462E+02 -0.22024288778E+03  0.22884622751E+03  0.10000000000E+01 0.  0.
<mgrwt>
<rscale>  0 0.12500115E+03</rscale>
<asrwt>0</asrwt>
<pdfrwt beam="2">  1        4 0.62553904E-01 0.12500115E+03</pdfrwt>
<pdfrwt beam="1">  1       -4 0.14780425E-02 0.12500115E+03</pdfrwt>
<totfact> 0.63004794E+03</totfact>
</mgrwt>
</event>
<event>
 5    1  0.3401591E-002  0.1249942E+03  0.7818608E-02  0.1235078E+00
         -4   -1    0    0    0  501 -0.00000000000E+00  0.00000000000E+00  0.61070896289E+01  0.62377434810E+01  0.12700000000E+01 0. -1.
          4   -1    0    0  501    0  0.00000000000E+00 -0.00000000000E+00 -0.63266557247E+03  0.63266684715E+03  0.12700000000E+01 0. -1.
         25    2    1    2    0    0  0.00000000000E+00  0.00000000000E+00 -0.62655848284E+03  0.63890459063E+03  0.12499417393E+03 0.  0.
    9000005    1    3    3    0    0 -0.62264984527E+02 -0.51803679640E+01 -0.30786646118E+03  0.31414411093E+03  0.10000000000E+01 0.  0.
    9000005    1    3    3    0    0  0.62264984527E+02  0.51803679640E+01 -0.31869202166E+03  0.32476047971E+03  0.10000000000E+01 0.  0.
<mgrwt>
<rscale>  0 0.12499417E+03</rscale>
<asrwt>0</asrwt>
<pdfrwt beam="2">  1        4 0.97343262E-01 0.12499417E+03</pdfrwt>
<pdfrwt beam="1">  1       -4 0.94970110E-03 0.12499417E+03</pdfrwt>
<totfact> 0.46506370E+03</totfact>
</mgrwt>
</event>
<event>
 5    1  0.3401591E-002  0.1250165E+03  0.7818608E-02  0.1235044E+00
         -4   -1    0    0    0  501 -0.00000000000E+00  0.00000000000E+00  0.17681091753E+02  0.17726643946E+02  0.12700000000E+01 0. -1.
          4   -1    0    0  501    0  0.00000000000E+00 -0.00000000000E+00 -0.22065468635E+03  0.22065834113E+03  0.12700000000E+01 0. -1.
         25    2    1    2    0    0  0.00000000000E+00  0.00000000000E+00 -0.20297359460E+03  0.23838498507E+03  0.12501648293E+03 0.  0.
    9000005    1    3    3    0    0  0.25335950147E+02  0.56872942496E+02 -0.91070853988E+02  0.11032380706E+03  0.10000000000E+01 0.  0.
    9000005    1    3    3    0    0 -0.25335950147E+02 -0.56872942496E+02 -0.11190274061E+03  0.12806117801E+03  0.10000000000E+01 0.  0.
<mgrwt>
<rscale>  0 0.12501648E+03</rscale>
<asrwt>0</asrwt>
<pdfrwt beam="2">  1        4 0.33950658E-01 0.12501648E+03</pdfrwt>
<pdfrwt beam="1">  1       -4 0.27239533E-02 0.12501648E+03</pdfrwt>
<totfact> 0.84007608E+03</totfact>
</mgrwt>
</event>
<event>
 5    1  0.3401591E-002  0.1250003E+03  0.7818608E-02  0.1235069E+00
         -4   -1    0    0    0  501 -0.00000000000E+00  0.00000000000E+00  0.30468173668E+02  0.30494630784E+02  0.12700000000E+01 0. -1.
          4   -1    0    0  501    0  0.00000000000E+00 -0.00000000000E+00 -0.12812288878E+03  0.12812918298E+03  0.12700000000E+01 0. -1.
         25    2    1    2    0    0  0.00000000000E+00  0.00000000000E+00 -0.97654715117E+02  0.15862381376E+03  0.12500028363E+03 0.  0.
    9000005    1    3    3    0    0  0.17835112230E+02  0.17334869644E+02 -0.12157786387E+03  0.12409982239E+03  0.10000000000E+01 0.  0.
    9000005    1    3    3    0    0 -0.17835112230E+02 -0.17334869644E+02  0.23923148755E+02  0.34523991371E+02  0.10000000000E+01 0.  0.
<mgrwt>
<rscale>  0 0.12500028E+03</rscale>
<asrwt>0</asrwt>
<pdfrwt beam="2">  1        4 0.19713733E-01 0.12500028E+03</pdfrwt>
<pdfrwt beam="1">  1       -4 0.46899307E-02 0.12500028E+03</pdfrwt>
<totfact> 0.97608138E+03</totfact>
</mgrwt>
</event>
<event>
 5    1  0.3401591E-002  0.1250154E+03  0.7818608E-02  0.1235045E+00
         -4   -1    0    0    0  501 -0.00000000000E+00  0.00000000000E+00  0.58614293061E+02  0.58628050036E+02  0.12700000000E+01 0.  1.
          4   -1    0    0  501    0  0.00000000000E+00 -0.00000000000E+00 -0.66632055365E+02  0.66644157299E+02  0.12700000000E+01 0.  1.
         25    2    1    2    0    0  0.00000000000E+00  0.00000000000E+00 -0.80177623036E+01  0.12527220734E+03  0.12501536473E+03 0.  0.
    9000005    1    3    3    0    0 -0.48417680401E+01  0.21184406669E+02 -0.62729518276E+02  0.66394384302E+02  0.10000000000E+01 0.  0.
    9000005    1    3    3    0    0  0.48417680401E+01 -0.21184406669E+02  0.54711755972E+02  0.58877823034E+02  0.10000000000E+01 0.  0.
<mgrwt>
<rscale>  0 0.12501536E+03</rscale>
<asrwt>0</asrwt>
<pdfrwt beam="2">  1        4 0.10253075E-01 0.12501536E+03</pdfrwt>
<pdfrwt beam="1">  1       -4 0.90195728E-02 0.12501536E+03</pdfrwt>
<totfact> 0.10443326E+04</totfact>
</mgrwt>
</event>
<event>
 5    1  0.3401591E-002  0.1250053E+03  0.7818608E-02  0.1235061E+00
         -4   -1    0    0    0  501 -0.00000000000E+00  0.00000000000E+00  0.99705379031E+01  0.10051095765E+02  0.12700000000E+01 0.  1.
          4   -1    0    0  501    0  0.00000000000E+00 -0.00000000000E+00 -0.39015466970E+03  0.39015673670E+03  0.12700000000E+01 0.  1.
         25    2    1    2    0    0  0.00000000000E+00  0.00000000000E+00 -0.38018413180E+03  0.40020783246E+03  0.12500534026E+03 0.  0.
    9000005    1    3    3    0    0  0.35035514076E+02  0.50138300547E+02 -0.23112250797E+03  0.23908147172E+03  0.10000000000E+01 0.  0.
    9000005    1    3    3    0    0 -0.35035514076E+02 -0.50138300547E+02 -0.14906162383E+03  0.16112636074E+03  0.10000000000E+01 0.  0.
<mgrwt>
<rscale>  0 0.12500534E+03</rscale>
<asrwt>0</asrwt>
<pdfrwt beam="2">  1        4 0.60030139E-01 0.12500534E+03</pdfrwt>
<pdfrwt beam="1">  1       -4 0.15402850E-02 0.12500534E+03</pdfrwt>
<totfact> 0.64524979E+03</totfact>
</mgrwt>
</event>
<event>
 5    1  0.3401591E-002  0.1249979E+03  0.7818608E-02  0.1235073E+00
          4   -1    0    0  501    0  0.00000000000E+00  0.00000000000E+00  0.45073631386E+03  0.45073810304E+03  0.12700000000E+01 0.  1.
         -4   -1    0    0    0  501 -0.00000000000E+00 -0.00000000000E+00 -0.86177331906E+01  0.87108108316E+01  0.12700000000E+01 0.  1.
         25    2    1    2    0    0  0.00000000000E+00  0.00000000000E+00  0.44211858067E+03  0.45944891387E+03  0.12499786032E+03 0.  0.
    9000005    1    3    3    0    0  0.13967968118E+02  0.56793637321E+01  0.44396755125E+03  0.44422465698E+03  0.10000000000E+01 0.  0.
    9000005    1    3    3    0    0 -0.13967968118E+02 -0.56793637321E+01 -0.18489705794E+01  0.15224256893E+02  0.10000000000E+01 0.  0.
<mgrwt>
<rscale>  0 0.12499786E+03</rscale>
<asrwt>0</asrwt>
<pdfrwt beam="1">  1        4 0.69351359E-01 0.12499786E+03</pdfrwt>
<pdfrwt beam="2">  1       -4 0.13331023E-02 0.12499786E+03</pdfrwt>
<totfact> 0.59156666E+03</totfact>
</mgrwt>
</event>
<event>
 5    1  0.3401591E-002  0.1250005E+03  0.7818608E-02  0.1235068E+00
         -4   -1    0    0    0  501 -0.00000000000E+00  0.00000000000E+00  0.12472944294E+02  0.12537433524E+02  0.12700000000E+01 0. -1.
          4   -1    0    0  501    0  0.00000000000E+00 -0.00000000000E+00 -0.31230727213E+03  0.31230985435E+03  0.12700000000E+01 0. -1.
         25    2    1    2    0    0  0.00000000000E+00  0.00000000000E+00 -0.29983432783E+03  0.32484728787E+03  0.12500054517E+03 0.  0.
    9000005    1    3    3    0    0  0.37588286462E+01 -0.33124190614E+02 -0.12552151278E+02  0.35635618394E+02  0.10000000000E+01 0.  0.
    9000005    1    3    3    0    0 -0.37588286462E+01  0.33124190614E+02 -0.28728217656E+03  0.28921166948E+03  0.10000000000E+01 0.  0.
<mgrwt>
<rscale>  0 0.12500055E+03</rscale>
<asrwt>0</asrwt>
<pdfrwt beam="2">  1        4 0.48052426E-01 0.12500055E+03</pdfrwt>
<pdfrwt beam="1">  1       -4 0.19240741E-02 0.12500055E+03</pdfrwt>
<totfact> 0.72582415E+03</totfact>
</mgrwt>
</event>
<event>
 5    1  0.3401591E-002  0.1250014E+03  0.7818608E-02  0.1235067E+00
          4   -1    0    0  501    0  0.00000000000E+00  0.00000000000E+00  0.13150434700E+02  0.13211617342E+02  0.12700000000E+01 0.  1.
         -4   -1    0    0    0  501 -0.00000000000E+00 -0.00000000000E+00 -0.29629802569E+03  0.29630074743E+03  0.12700000000E+01 0.  1.
         25    2    1    2    0    0  0.00000000000E+00  0.00000000000E+00 -0.28314759099E+03  0.30951236477E+03  0.12500138265E+03 0.  0.
    9000005    1    3    3    0    0  0.51812283577E+01  0.34573926162E+01  0.12392022105E+02  0.13905427101E+02  0.10000000000E+01 0.  0.
    9000005    1    3    3    0    0 -0.51812283577E+01 -0.34573926162E+01 -0.29553961310E+03  0.29560693767E+03  0.10000000000E+01 0.  0.
<mgrwt>
<rscale>  0 0.12500138E+03</rscale>
<asrwt>0</asrwt>
<pdfrwt beam="1">  1        4 0.20280597E-02 0.12500138E+03</pdfrwt>
<pdfrwt beam="2">  1       -4 0.45589223E-01 0.12500138E+03</pdfrwt>
<totfact> 0.74418629E+03</totfact>
</mgrwt>
</event>
<event>
 5    1  0.3401591E-002  0.1250001E+03  0.7818608E-02  0.1235069E+00
          4   -1    0    0  501    0  0.00000000000E+00  0.00000000000E+00  0.27624050657E+02  0.27653229011E+02  0.12700000000E+01 0. -1.
         -4   -1    0    0    0  501 -0.00000000000E+00 -0.00000000000E+00 -0.14130112595E+03  0.14130683315E+03  0.12700000000E+01 0. -1.
         25    2    1    2    0    0  0.00000000000E+00  0.00000000000E+00 -0.11367707530E+03  0.16896006216E+03  0.12500010063E+03 0.  0.
    9000005    1    3    3    0    0  0.10932595896E+01 -0.48911177722E+02 -0.42834454558E+01  0.49120733175E+02  0.10000000000E+01 0.  0.
    9000005    1    3    3    0    0 -0.10932595896E+01  0.48911177722E+02 -0.10939362984E+03  0.11983932899E+03  0.10000000000E+01 0.  0.
<mgrwt>
<rscale>  0 0.12500010E+03</rscale>
<asrwt>0</asrwt>
<pdfrwt beam="1">  1        4 0.42525375E-02 0.12500010E+03</pdfrwt>
<pdfrwt beam="2">  1       -4 0.21741318E-01 0.12500010E+03</pdfrwt>
<totfact> 0.95642415E+03</totfact>
</mgrwt>
</event>
<event>
 5    1  0.3401591E-002  0.1249991E+03  0.7818608E-02  0.1235071E+00
         -4   -1    0    0    0  501 -0.00000000000E+00  0.00000000000E+00  0.17619287708E+02  0.17664999273E+02  0.12700000000E+01 0.  1.
          4   -1    0    0  501    0  0.00000000000E+00 -0.00000000000E+00 -0.22136514405E+03  0.22136878710E+03  0.12700000000E+01 0.  1.
         25    2    1    2    0    0  0.00000000000E+00  0.00000000000E+00 -0.20374585635E+03  0.23903378637E+03  0.12499910819E+03 0.  0.
    9000005    1    3    3    0    0 -0.25332381988E+00  0.36368796305E+02 -0.19905083918E+03  0.20234868444E+03  0.10000000000E+01 0.  0.
    9000005    1    3    3    0    0  0.25332381988E+00 -0.36368796305E+02 -0.46950171705E+01  0.36685101934E+02  0.10000000000E+01 0.  0.
<mgrwt>
<rscale>  0 0.12499911E+03</rscale>
<asrwt>0</asrwt>
<pdfrwt beam="2">  1        4 0.34059971E-01 0.12499911E+03</pdfrwt>
<pdfrwt beam="1">  1       -4 0.27144563E-02 0.12499911E+03</pdfrwt>
<totfact> 0.83943148E+03</totfact>
</mgrwt>
</event>
<event>
 5    1  0.3401591E-002  0.1249988E+03  0.7818608E-02  0.1235071E+00
         -4   -1    0    0    0  501 -0.00000000000E+00  0.00000000000E+00  0.19099927675E+02  0.19142103782E+02  0.12700000000E+01 0. -1.
          4   -1    0    0  501    0  0.00000000000E+00 -0.00000000000E+00 -0.20424286027E+03  0.20424680871E+03  0.12700000000E+01 0. -1.
         25    2    1    2    0    0  0.00000000000E+00  0.00000000000E+00 -0.18514293259E+03  0.22338891249E+03  0.12499880294E+03 0.  0.
    9000005    1    3    3    0    0 -0.54929563633E+02  0.28363203369E+01 -0.14558245220E+03  0.15562953467E+03  0.10000000000E+01 0.  0.
    9000005    1    3    3    0    0  0.54929563633E+02 -0.28363203369E+01 -0.39560480389E+02  0.67759377820E+02  0.10000000000E+01 0.  0.
<mgrwt>
<rscale>  0 0.12499880E+03</rscale>
<asrwt>0</asrwt>
<pdfrwt beam="2">  1        4 0.31425525E-01 0.12499880E+03</pdfrwt>
<pdfrwt beam="1">  1       -4 0.29419986E-02 0.12499880E+03</pdfrwt>
<totfact> 0.86337231E+03</totfact>
</mgrwt>
</event>
<event>
 5    1  0.3401591E-002  0.1250049E+03  0.7818608E-02  0.1235062E+00
         -4   -1    0    0    0  501 -0.00000000000E+00  0.00000000000E+00  0.92692641207E+01  0.93558621912E+01  0.12700000000E+01 0.  1.
          4   -1    0    0  501    0  0.00000000000E+00 -0.00000000000E+00 -0.41940524358E+03  0.41940716641E+03  0.12700000000E+01 0.  1.
         25    2    1    2    0    0  0.00000000000E+00  0.00000000000E+00 -0.41013597946E+03  0.42876302861E+03  0.12500485212E+03 0.  0.
    9000005    1    3    3    0    0  0.31407536209E+02  0.24927901175E+02 -0.36948205996E+03  0.37165283023E+03  0.10000000000E+01 0.  0.
    9000005    1    3    3    0    0 -0.31407536209E+02 -0.24927901175E+02 -0.40653919494E+02  0.57110198371E+02  0.10000000000E+01 0.  0.
<mgrwt>
<rscale>  0 0.12500485E+03</rscale>
<asrwt>0</asrwt>
<pdfrwt beam="2">  1        4 0.64530678E-01 0.12500485E+03</pdfrwt>
<pdfrwt beam="1">  1       -4 0.14328503E-02 0.12500485E+03</pdfrwt>
<totfact> 0.61841665E+03</totfact>
</mgrwt>
</event>
<event>
 5    1  0.3401591E-002  0.1249998E+03  0.7818608E-02  0.1235070E+00
          4   -1    0    0  501    0  0.00000000000E+00  0.00000000000E+00  0.52054215496E+01  0.53581072693E+01  0.12700000000E+01 0. -1.
         -4   -1    0    0    0  501 -0.00000000000E+00 -0.00000000000E+00 -0.73941685314E+03  0.73941794380E+03  0.12700000000E+01 0. -1.
         25    2    1    2    0    0  0.00000000000E+00  0.00000000000E+00 -0.73421143159E+03  0.74477605107E+03  0.12499975985E+03 0.  0.
    9000005    1    3    3    0    0 -0.31071665564E+02  0.17143807060E+02 -0.60626303330E+02  0.70256011678E+02  0.10000000000E+01 0.  0.
    9000005    1    3    3    0    0  0.31071665564E+02 -0.17143807060E+02 -0.67358512826E+03  0.67452003939E+03  0.10000000000E+01 0.  0.
<mgrwt>
<rscale>  0 0.12499976E+03</rscale>
<asrwt>0</asrwt>
<pdfrwt beam="1">  1        4 0.81266362E-03 0.12499976E+03</pdfrwt>
<pdfrwt beam="2">  1       -4 0.11376819E+00 0.12499976E+03</pdfrwt>
<totfact> 0.40825491E+03</totfact>
</mgrwt>
</event>
<event>
 5    1  0.3401591E-002  0.1250005E+03  0.7818608E-02  0.1235068E+00
         -4   -1    0    0    0  501 -0.00000000000E+00  0.00000000000E+00  0.65830300154E+01  0.67044152753E+01  0.12700000000E+01 0.  1.
          4   -1    0    0  501    0  0.00000000000E+00 -0.00000000000E+00 -0.58784398644E+03  0.58784535832E+03  0.12700000000E+01 0.  1.
         25    2    1    2    0    0  0.00000000000E+00  0.00000000000E+00 -0.58126095643E+03  0.59454977359E+03  0.12500053525E+03 0.  0.
    9000005    1    3    3    0    0  0.56314004296E+02  0.13477947034E+01 -0.16192674178E+03  0.17144781520E+03  0.10000000000E+01 0.  0.
    9000005    1    3    3    0    0 -0.56314004296E+02 -0.13477947034E+01 -0.41933421464E+03  0.42310195840E+03  0.10000000000E+01 0.  0.
<mgrwt>
<rscale>  0 0.12500054E+03</rscale>
<asrwt>0</asrwt>
<pdfrwt beam="2">  1        4 0.90446938E-01 0.12500054E+03</pdfrwt>
<pdfrwt beam="1">  1       -4 0.10222172E-02 0.12500054E+03</pdfrwt>
<totfact> 0.49212901E+03</totfact>
</mgrwt>
</event>
<event>
 5    1  0.3401591E-002  0.1249997E+03  0.7818608E-02  0.1235070E+00
         -4   -1    0    0    0  501 -0.00000000000E+00  0.00000000000E+00  0.41687106050E+02  0.41706446874E+02  0.12700000000E+01 0.  1.
          4   -1    0    0  501    0  0.00000000000E+00 -0.00000000000E+00 -0.93658199539E+02  0.93666809708E+02  0.12700000000E+01 0.  1.
         25    2    1    2    0    0  0.00000000000E+00  0.00000000000E+00 -0.51971093489E+02  0.13537325658E+03  0.12499969616E+03 0.  0.
    9000005    1    3    3    0    0  0.19255099401E+02 -0.45842190157E+01 -0.90179074991E+02  0.92331140377E+02  0.10000000000E+01 0.  0.
    9000005    1    3    3    0    0 -0.19255099401E+02  0.45842190157E+01  0.38207981503E+02  0.43042116205E+02  0.10000000000E+01 0.  0.
<mgrwt>
<rscale>  0 0.12499970E+03</rscale>
<asrwt>0</asrwt>
<pdfrwt beam="2">  1        4 0.14411104E-01 0.12499970E+03</pdfrwt>
<pdfrwt beam="1">  1       -4 0.64155510E-02 0.12499970E+03</pdfrwt>
<totfact> 0.10230280E+04</totfact>
</mgrwt>
</event>
<event>
 5    1  0.3401591E-002  0.1249988E+03  0.7818608E-02  0.1235071E+00
          4   -1    0    0  501    0  0.00000000000E+00  0.00000000000E+00  0.13168777831E+03  0.13169390213E+03  0.12700000000E+01 0. -1.
         -4   -1    0    0    0  501 -0.00000000000E+00 -0.00000000000E+00 -0.29641970434E+02  0.29669164316E+02  0.12700000000E+01 0. -1.
         25    2    1    2    0    0  0.00000000000E+00  0.00000000000E+00  0.10204580788E+03  0.16136306644E+03  0.12499876922E+03 0.  0.
    9000005    1    3    3    0    0 -0.23961017681E+00  0.20749767080E+02  0.12711656615E+03  0.12880307309E+03  0.10000000000E+01 0.  0.
    9000005    1    3    3    0    0  0.23961017681E+00 -0.20749767080E+02 -0.25070758271E+02  0.32559993354E+02  0.10000000000E+01 0.  0.
<mgrwt>
<rscale>  0 0.12499877E+03</rscale>
<asrwt>0</asrwt>
<pdfrwt beam="1">  1        4 0.20262221E-01 0.12499877E+03</pdfrwt>
<pdfrwt beam="2">  1       -4 0.45628660E-02 0.12499877E+03</pdfrwt>
<totfact> 0.97083323E+03</totfact>
</mgrwt>
</event>
<event>
 5    1  0.3401591E-002  0.1250019E+03  0.7818608E-02  0.1235066E+00
         -4   -1    0    0    0  501 -0.00000000000E+00  0.00000000000E+00  0.66400061534E+02  0.66412205743E+02  0.12700000000E+01 0. -1.
          4   -1    0    0  501    0  0.00000000000E+00 -0.00000000000E+00 -0.58806379461E+02  0.58820091510E+02  0.12700000000E+01 0. -1.
         25    2    1    2    0    0  0.00000000000E+00  0.00000000000E+00  0.75936820732E+01  0.12523229725E+03  0.12500185706E+03 0.  0.
    9000005    1    3    3    0    0  0.54626323462E+02 -0.30324636144E+02  0.51211306400E+01  0.62696449272E+02  0.10000000000E+01 0.  0.
    9000005    1    3    3    0    0 -0.54626323462E+02  0.30324636144E+02  0.24725514333E+01  0.62535847982E+02  0.10000000000E+01 0.  0.
<mgrwt>
<rscale>  0 0.12500186E+03</rscale>
<asrwt>0</asrwt>
<pdfrwt beam="2">  1        4 0.90491243E-02 0.12500186E+03</pdfrwt>
<pdfrwt beam="1">  1       -4 0.10217383E-01 0.12500186E+03</pdfrwt>
<totfact> 0.10447381E+04</totfact>
</mgrwt>
</event>
<event>
 4    1  0.3401591E-002  0.1251022E+03  0.7818608E-02  0.1234910E+00
         -4   -1    0    0    0  501 -0.00000000000E+00  0.00000000000E+00  0.88720943114E+03  0.88721034011E+03  0.12700000000E+01 0.  1.
          4   -1    0    0  501    0  0.00000000000E+00 -0.00000000000E+00 -0.43176863034E+01  0.45005905184E+01  0.12700000000E+01 0.  1.
    9000005    1    1    2    0    0  0.48419635276E+02  0.38405594048E+02  0.50988334833E+03  0.51361608195E+03  0.10000000000E+01 0.  0.
    9000005    1    1    2    0    0 -0.48419635276E+02 -0.38405594048E+02  0.37300839651E+03  0.37809484868E+03  0.10000000000E+01 0.  0.
<mgrwt>
<rscale>  0 0.12510216E+03</rscale>
<asrwt>0</asrwt>
<pdfrwt beam="2">  1        4 0.67839827E-03 0.12510216E+03</pdfrwt>
<pdfrwt beam="1">  1       -4 0.13650803E+00 0.12510216E+03</pdfrwt>
<totfact> 0.34401681E+03</totfact>
</mgrwt>
</event>
<event>
 5    1  0.3401591E-002  0.1250266E+03  0.7818608E-02  0.1235028E+00
          4   -1    0    0  501    0  0.00000000000E+00  0.00000000000E+00  0.64411197587E+03  0.64411322790E+03  0.12700000000E+01 0.  1.
         -4   -1    0    0    0  501 -0.00000000000E+00 -0.00000000000E+00 -0.59993971828E+01  0.61323459261E+01  0.12700000000E+01 0.  1.
         25    2    1    2    0    0  0.00000000000E+00  0.00000000000E+00  0.63811257868E+03  0.65024557383E+03  0.12502657000E+03 0.  0.
    9000005    1    3    3    0    0  0.12239057054E+01  0.28891474453E+02  0.60725595215E+03  0.60794490430E+03  0.10000000000E+01 0.  0.
    9000005    1    3    3    0    0 -0.12239057054E+01 -0.28891474453E+02  0.30856626530E+02  0.42300669523E+02  0.10000000000E+01 0.  0.
<mgrwt>
<rscale>  0 0.12502657E+03</rscale>
<asrwt>0</asrwt>
<pdfrwt beam="1">  1        4 0.99104476E-01 0.12502657E+03</pdfrwt>
<pdfrwt beam="2">  1       -4 0.93330729E-03 0.12502657E+03</pdfrwt>
<totfact> 0.45815321E+03</totfact>
</mgrwt>
</event>
<event>
 5    1  0.3401591E-002  0.1250025E+03  0.7818608E-02  0.1235065E+00
         -4   -1    0    0    0  501 -0.00000000000E+00  0.00000000000E+00  0.70502595346E+02  0.70514033004E+02  0.12700000000E+01 0.  1.
          4   -1    0    0  501    0  0.00000000000E+00 -0.00000000000E+00 -0.55384729109E+02  0.55399288068E+02  0.12700000000E+01 0.  1.
         25    2    1    2    0    0  0.00000000000E+00  0.00000000000E+00  0.15117866237E+02  0.12591332107E+03  0.12500245815E+03 0.  0.
    9000005    1    3    3    0    0 -0.52611264844E+02  0.79418343550E+01 -0.25457734534E+02  0.58992492480E+02  0.10000000000E+01 0.  0.
    9000005    1    3    3    0    0  0.52611264844E+02 -0.79418343550E+01  0.40575600771E+02  0.66920828592E+02  0.10000000000E+01 0.  0.
<mgrwt>
<rscale>  0 0.12500246E+03</rscale>
<asrwt>0</asrwt>
<pdfrwt beam="2">  1        4 0.85227273E-02 0.12500246E+03</pdfrwt>
<pdfrwt beam="1">  1       -4 0.10848553E-01 0.12500246E+03</pdfrwt>
<totfact> 0.10432279E+04</totfact>
</mgrwt>
</event>
<event>
 5    1  0.3401591E-002  0.1249987E+03  0.7818608E-02  0.1235071E+00
          4   -1    0    0  501    0  0.00000000000E+00  0.00000000000E+00  0.17961619256E+03  0.17962068235E+03  0.12700000000E+01 0.  1.
         -4   -1    0    0    0  501 -0.00000000000E+00 -0.00000000000E+00 -0.21724008755E+02  0.21761099614E+02  0.12700000000E+01 0.  1.
         25    2    1    2    0    0  0.00000000000E+00  0.00000000000E+00  0.15789218380E+03  0.20138178196E+03  0.12499872160E+03 0.  0.
    9000005    1    3    3    0    0 -0.57700354247E+02 -0.21411166842E+02  0.96402335438E+02  0.11437735451E+03  0.10000000000E+01 0.  0.
    9000005    1    3    3    0    0  0.57700354247E+02  0.21411166842E+02  0.61489848362E+02  0.87004427459E+02  0.10000000000E+01 0.  0.
<mgrwt>
<rscale>  0 0.12499872E+03</rscale>
<asrwt>0</asrwt>
<pdfrwt beam="1">  1        4 0.27636460E-01 0.12499872E+03</pdfrwt>
<pdfrwt beam="2">  1       -4 0.33453536E-02 0.12499872E+03</pdfrwt>
<totfact> 0.89905550E+03</totfact>
</mgrwt>
</event>
<event>
 5    1  0.3401591E-002  0.1250011E+03  0.7818608E-02  0.1235068E+00
          4   -1    0    0  501    0  0.00000000000E+00  0.00000000000E+00  0.55811021431E+03  0.55811165927E+03  0.12700000000E+01 0.  1.
         -4   -1    0    0    0  501 -0.00000000000E+00 -0.00000000000E+00 -0.69401124952E+01  0.70553569326E+01  0.12700000000E+01 0.  1.
         25    2    1    2    0    0  0.00000000000E+00  0.00000000000E+00  0.55117010181E+03  0.56516701620E+03  0.12500110029E+03 0.  0.
    9000005    1    3    3    0    0  0.19316782894E+02  0.24058123361E+02  0.29874854733E+02  0.42958565459E+02  0.10000000000E+01 0.  0.
    9000005    1    3    3    0    0 -0.19316782894E+02 -0.24058123361E+02  0.52129524708E+03  0.52220845074E+03  0.10000000000E+01 0.  0.
<mgrwt>
<rscale>  0 0.12500110E+03</rscale>
<asrwt>0</asrwt>
<pdfrwt beam="1">  1        4 0.85872068E-01 0.12500110E+03</pdfrwt>
<pdfrwt beam="2">  1       -4 0.10766860E-02 0.12500110E+03</pdfrwt>
<totfact> 0.51141645E+03</totfact>
</mgrwt>
</event>
<event>
 5    1  0.3401591E-002  0.1250065E+03  0.7818608E-02  0.1235059E+00
         -4   -1    0    0    0  501 -0.00000000000E+00  0.00000000000E+00  0.42754845729E+03  0.42755034351E+03  0.12700000000E+01 0. -1.
          4   -1    0    0  501    0  0.00000000000E+00 -0.00000000000E+00 -0.90912982650E+01  0.91795753793E+01  0.12700000000E+01 0. -1.
         25    2    1    2    0    0  0.00000000000E+00  0.00000000000E+00  0.41845715903E+03  0.43672991889E+03  0.12500651227E+03 0.  0.
    9000005    1    3    3    0    0 -0.59807133971E+02  0.33404761006E+01  0.14696645244E+03  0.15870787692E+03  0.10000000000E+01 0.  0.
    9000005    1    3    3    0    0  0.59807133971E+02 -0.33404761006E+01  0.27149070659E+03  0.27802204196E+03  0.10000000000E+01 0.  0.
<mgrwt>
<rscale>  0 0.12500651E+03</rscale>
<asrwt>0</asrwt>
<pdfrwt beam="2">  1        4 0.14055969E-02 0.12500651E+03</pdfrwt>
<pdfrwt beam="1">  1       -4 0.65783623E-01 0.12500651E+03</pdfrwt>
<totfact> 0.61121890E+03</totfact>
</mgrwt>
</event>
<event>
 5    1  0.3401591E-002  0.1250023E+03  0.7818608E-02  0.1235066E+00
          4   -1    0    0  501    0  0.00000000000E+00  0.00000000000E+00  0.79766368814E+03  0.79766469915E+03  0.12700000000E+01 0. -1.
         -4   -1    0    0    0  501 -0.00000000000E+00 -0.00000000000E+00 -0.48139240248E+01  0.49786307874E+01  0.12700000000E+01 0. -1.
         25    2    1    2    0    0  0.00000000000E+00  0.00000000000E+00  0.79284976411E+03  0.80264332994E+03  0.12500226655E+03 0.  0.
    9000005    1    3    3    0    0  0.22307940947E+02  0.27414373506E+02  0.65495702043E+02  0.74430364033E+02  0.10000000000E+01 0.  0.
    9000005    1    3    3    0    0 -0.22307940947E+02 -0.27414373506E+02  0.72735406207E+03  0.72821296590E+03  0.10000000000E+01 0.  0.
<mgrwt>
<rscale>  0 0.12500227E+03</rscale>
<asrwt>0</asrwt>
<pdfrwt beam="1">  1        4 0.12273027E+00 0.12500227E+03</pdfrwt>
<pdfrwt beam="2">  1       -4 0.75335104E-03 0.12500227E+03</pdfrwt>
<totfact> 0.38145093E+03</totfact>
</mgrwt>
</event>
<event>
 5    1  0.3401591E-002  0.1250013E+03  0.7818608E-02  0.1235067E+00
          4   -1    0    0  501    0  0.00000000000E+00  0.00000000000E+00  0.75657691701E+02  0.75668350144E+02  0.12700000000E+01 0. -1.
         -4   -1    0    0    0  501 -0.00000000000E+00 -0.00000000000E+00 -0.51609536772E+02  0.51625160395E+02  0.12700000000E+01 0. -1.
         25    2    1    2    0    0  0.00000000000E+00  0.00000000000E+00  0.24048154929E+02  0.12729351054E+03  0.12500129627E+03 0.  0.
    9000005    1    3    3    0    0 -0.56919978971E+02 -0.20510709441E+02 -0.39075457258E+01  0.60636969923E+02  0.10000000000E+01 0.  0.
    9000005    1    3    3    0    0  0.56919978971E+02  0.20510709441E+02  0.27955700655E+02  0.66656540616E+02  0.10000000000E+01 0.  0.
<mgrwt>
<rscale>  0 0.12500130E+03</rscale>
<asrwt>0</asrwt>
<pdfrwt beam="1">  1        4 0.11641667E-01 0.12500130E+03</pdfrwt>
<pdfrwt beam="2">  1       -4 0.79419504E-02 0.12500130E+03</pdfrwt>
<totfact> 0.10402471E+04</totfact>
</mgrwt>
</event>
<event>
 5    1  0.3401591E-002  0.1249985E+03  0.7818608E-02  0.1235072E+00
          4   -1    0    0  501    0  0.00000000000E+00  0.00000000000E+00  0.22402244391E+02  0.22438214139E+02  0.12700000000E+01 0. -1.
         -4   -1    0    0    0  501 -0.00000000000E+00 -0.00000000000E+00 -0.17418625729E+03  0.17419088704E+03  0.12700000000E+01 0. -1.
         25    2    1    2    0    0  0.00000000000E+00  0.00000000000E+00 -0.15178401290E+03  0.19662910118E+03  0.12499846743E+03 0.  0.
    9000005    1    3    3    0    0  0.56810358953E+02 -0.25393789241E+02 -0.66870199739E+02  0.91350342252E+02  0.10000000000E+01 0.  0.
    9000005    1    3    3    0    0 -0.56810358953E+02  0.25393789241E+02 -0.84913813159E+02  0.10527875893E+03  0.10000000000E+01 0.  0.
<mgrwt>
<rscale>  0 0.12499847E+03</rscale>
<asrwt>0</asrwt>
<pdfrwt beam="1">  1        4 0.34496223E-02 0.12499847E+03</pdfrwt>
<pdfrwt beam="2">  1       -4 0.26801008E-01 0.12499847E+03</pdfrwt>
<totfact> 0.90709607E+03</totfact>
</mgrwt>
</event>
<event>
 5    1  0.3401591E-002  0.1249998E+03  0.7818608E-02  0.1235070E+00
          4   -1    0    0  501    0  0.00000000000E+00  0.00000000000E+00  0.59389144405E+03  0.59389280196E+03  0.12700000000E+01 0.  1.
         -4   -1    0    0    0  501 -0.00000000000E+00 -0.00000000000E+00 -0.65146776721E+01  0.66373130988E+01  0.12700000000E+01 0.  1.
         25    2    1    2    0    0  0.00000000000E+00  0.00000000000E+00  0.58737676638E+03  0.60053011506E+03  0.12499981363E+03 0.  0.
    9000005    1    3    3    0    0 -0.56510467461E+02 -0.19280347021E+02  0.20509283304E+03  0.21361000650E+03  0.10000000000E+01 0.  0.
    9000005    1    3    3    0    0  0.56510467461E+02  0.19280347021E+02  0.38228393334E+03  0.38692010855E+03  0.10000000000E+01 0.  0.
<mgrwt>
<rscale>  0 0.12499981E+03</rscale>
<asrwt>0</asrwt>
<pdfrwt beam="1">  1        4 0.91377453E-01 0.12499981E+03</pdfrwt>
<pdfrwt beam="2">  1       -4 0.10117960E-02 0.12499981E+03</pdfrwt>
<totfact> 0.48834364E+03</totfact>
</mgrwt>
</event>
<event>
 5    1  0.3401591E-002  0.1249914E+03  0.7818608E-02  0.1235083E+00
         -4   -1    0    0    0  501 -0.00000000000E+00  0.00000000000E+00  0.19813202795E+03  0.19813609818E+03  0.12700000000E+01 0. -1.
          4   -1    0    0  501    0  0.00000000000E+00 -0.00000000000E+00 -0.19687940234E+02  0.19728859335E+02  0.12700000000E+01 0. -1.
         25    2    1    2    0    0  0.00000000000E+00  0.00000000000E+00  0.17844408772E+03  0.21786495751E+03  0.12499138878E+03 0.  0.
    9000005    1    3    3    0    0 -0.26213716069E+02  0.41564075815E+02  0.21940246930E+02  0.53824768869E+02  0.10000000000E+01 0.  0.
    9000005    1    3    3    0    0  0.26213716069E+02 -0.41564075815E+02  0.15650384079E+03  0.16404018864E+03  0.10000000000E+01 0.  0.
<mgrwt>
<rscale>  0 0.12499139E+03</rscale>
<asrwt>0</asrwt>
<pdfrwt beam="2">  1        4 0.30323745E-02 0.12499139E+03</pdfrwt>
<pdfrwt beam="1">  1       -4 0.30485312E-01 0.12499139E+03</pdfrwt>
<totfact> 0.87224101E+03</totfact>
</mgrwt>
</event>
<event>
 5    1  0.3401591E-002  0.1249990E+03  0.7818608E-02  0.1235071E+00
         -4   -1    0    0    0  501 -0.00000000000E+00  0.00000000000E+00  0.36239042600E+02  0.36261289395E+02  0.12700000000E+01 0. -1.
          4   -1    0    0  501    0  0.00000000000E+00 -0.00000000000E+00 -0.10773044937E+03  0.10773793492E+03  0.12700000000E+01 0. -1.
         25    2    1    2    0    0  0.00000000000E+00  0.00000000000E+00 -0.71491406766E+02  0.14399922431E+03  0.12499902144E+03 0.  0.
    9000005    1    3    3    0    0  0.22307234844E+01  0.22260665829E+02 -0.10296460326E+03  0.10537183160E+03  0.10000000000E+01 0.  0.
    9000005    1    3    3    0    0 -0.22307234844E+01 -0.22260665829E+02  0.31473196493E+02  0.38627392715E+02  0.10000000000E+01 0.  0.
<mgrwt>
<rscale>  0 0.12499902E+03</rscale>
<asrwt>0</asrwt>
<pdfrwt beam="2">  1        4 0.16576202E-01 0.12499902E+03</pdfrwt>
<pdfrwt beam="1">  1       -4 0.55775245E-02 0.12499902E+03</pdfrwt>
<totfact> 0.10051583E+04</totfact>
</mgrwt>
</event>
<event>
 5    1  0.3401591E-002  0.1250300E+03  0.7818608E-02  0.1235022E+00
          4   -1    0    0  501    0  0.00000000000E+00  0.00000000000E+00  0.53095593536E+02  0.53110780007E+02  0.12700000000E+01 0. -1.
         -4   -1    0    0    0  501 -0.00000000000E+00 -0.00000000000E+00 -0.73574247176E+02  0.73585207396E+02  0.12700000000E+01 0. -1.
         25    2    1    2    0    0  0.00000000000E+00  0.00000000000E+00 -0.20478653640E+02  0.12669598740E+03  0.12502998828E+03 0.  0.
    9000005    1    3    3    0    0  0.27519838611E+02  0.42014932867E+02 -0.47944383936E+02  0.69442494569E+02  0.10000000000E+01 0.  0.
    9000005    1    3    3    0    0 -0.27519838611E+02 -0.42014932867E+02  0.27465730296E+02  0.57253492834E+02  0.10000000000E+01 0.  0.
<mgrwt>
<rscale>  0 0.12502999E+03</rscale>
<asrwt>0</asrwt>
<pdfrwt beam="1">  1        4 0.81705641E-02 0.12502999E+03</pdfrwt>
<pdfrwt beam="2">  1       -4 0.11321126E-01 0.12502999E+03</pdfrwt>
<totfact> 0.10408710E+04</totfact>
</mgrwt>
</event>
<event>
 5    1  0.3401591E-002  0.1250006E+03  0.7818608E-02  0.1235068E+00
         -4   -1    0    0    0  501 -0.00000000000E+00  0.00000000000E+00  0.30721633519E+02  0.30747872545E+02  0.12700000000E+01 0.  1.
          4   -1    0    0  501    0  0.00000000000E+00 -0.00000000000E+00 -0.12706735536E+03  0.12707370183E+03  0.12700000000E+01 0.  1.
         25    2    1    2    0    0  0.00000000000E+00  0.00000000000E+00 -0.96345721839E+02  0.15782157438E+03  0.12500060489E+03 0.  0.
    9000005    1    3    3    0    0  0.30817019188E+02 -0.26433051082E+02 -0.10815331321E+03  0.11552720034E+03  0.10000000000E+01 0.  0.
    9000005    1    3    3    0    0 -0.30817019188E+02  0.26433051082E+02  0.11807591369E+02  0.42294374036E+02  0.10000000000E+01 0.  0.
<mgrwt>
<rscale>  0 0.12500060E+03</rscale>
<asrwt>0</asrwt>
<pdfrwt beam="2">  1        4 0.19551330E-01 0.12500060E+03</pdfrwt>
<pdfrwt beam="1">  1       -4 0.47289118E-02 0.12500060E+03</pdfrwt>
<totfact> 0.97763090E+03</totfact>
</mgrwt>
</event>
<event>
 5    1  0.3401591E-002  0.1250021E+03  0.7818608E-02  0.1235066E+00
          4   -1    0    0  501    0  0.00000000000E+00  0.00000000000E+00  0.23077017904E+03  0.23077367362E+03  0.12700000000E+01 0. -1.
         -4   -1    0    0    0  501 -0.00000000000E+00 -0.00000000000E+00 -0.16900135951E+02  0.16947787324E+02  0.12700000000E+01 0. -1.
         25    2    1    2    0    0  0.00000000000E+00  0.00000000000E+00  0.21387004309E+03  0.24772146094E+03  0.12500210750E+03 0.  0.
    9000005    1    3    3    0    0  0.34042641045E+02 -0.38805358839E+02  0.37133247118E+02  0.63597447476E+02  0.10000000000E+01 0.  0.
    9000005    1    3    3    0    0 -0.34042641045E+02  0.38805358839E+02  0.17673679597E+03  0.18412401347E+03  0.10000000000E+01 0.  0.
<mgrwt>
<rscale>  0 0.12500211E+03</rscale>
<asrwt>0</asrwt>
<pdfrwt beam="1">  1        4 0.35507039E-01 0.12500211E+03</pdfrwt>
<pdfrwt beam="2">  1       -4 0.26039552E-02 0.12500211E+03</pdfrwt>
<totfact> 0.82656784E+03</totfact>
</mgrwt>
</event>
<event>
 5    1  0.3401591E-002  0.1250054E+03  0.7818608E-02  0.1235061E+00
         -4   -1    0    0    0  501 -0.00000000000E+00  0.00000000000E+00  0.43588224944E+02  0.43606722576E+02  0.12700000000E+01 0. -1.
          4   -1    0    0  501    0  0.00000000000E+00 -0.00000000000E+00 -0.89582752513E+02  0.89591754352E+02  0.12700000000E+01 0. -1.
         25    2    1    2    0    0  0.00000000000E+00  0.00000000000E+00 -0.45994527569E+02  0.13319847693E+03  0.12500535064E+03 0.  0.
    9000005    1    3    3    0    0 -0.62172230390E+02 -0.46831887194E+01 -0.18443278733E+02  0.65026710040E+02  0.10000000000E+01 0.  0.
    9000005    1    3    3    0    0  0.62172230390E+02  0.46831887194E+01 -0.27551248837E+02  0.68171766888E+02  0.10000000000E+01 0.  0.
<mgrwt>
<rscale>  0 0.12500535E+03</rscale>
<asrwt>0</asrwt>
<pdfrwt beam="2">  1        4 0.13784077E-01 0.12500535E+03</pdfrwt>
<pdfrwt beam="1">  1       -4 0.67079961E-02 0.12500535E+03</pdfrwt>
<totfact> 0.10274943E+04</totfact>
</mgrwt>
</event>
<event>
 5    1  0.3401591E-002  0.1250473E+03  0.7818608E-02  0.1234995E+00
          4   -1    0    0  501    0  0.00000000000E+00  0.00000000000E+00  0.19120716266E+03  0.19121138029E+03  0.12700000000E+01 0.  1.
         -4   -1    0    0    0  501 -0.00000000000E+00 -0.00000000000E+00 -0.20420716252E+02  0.20460169898E+02  0.12700000000E+01 0.  1.
         25    2    1    2    0    0  0.00000000000E+00  0.00000000000E+00  0.17078644640E+03  0.21167155018E+03  0.12504733057E+03 0.  0.
    9000005    1    3    3    0    0  0.52756740571E+02  0.13083420903E+02  0.33116612569E+02  0.63656575515E+02  0.10000000000E+01 0.  0.
    9000005    1    3    3    0    0 -0.52756740571E+02 -0.13083420903E+02  0.13766983384E+03  0.14801497467E+03  0.10000000000E+01 0.  0.
<mgrwt>
<rscale>  0 0.12504733E+03</rscale>
<asrwt>0</asrwt>
<pdfrwt beam="1">  1        4 0.29419845E-01 0.12504733E+03</pdfrwt>
<pdfrwt beam="2">  1       -4 0.31450080E-02 0.12504733E+03</pdfrwt>
<totfact> 0.88110367E+03</totfact>
</mgrwt>
</event>
<event>
 5    1  0.3401591E-002  0.1249992E+03  0.7818608E-02  0.1235071E+00
         -4   -1    0    0    0  501 -0.00000000000E+00  0.00000000000E+00  0.21724540104E+01  0.25164372488E+01  0.12700000000E+01 0. -1.
          4   -1    0    0  501    0  0.00000000000E+00 -0.00000000000E+00 -0.16658062425E+04  0.16658067266E+04  0.12700000000E+01 0. -1.
         25    2    1    2    0    0  0.00000000000E+00  0.00000000000E+00 -0.16636337885E+04  0.16683231638E+04  0.12499918758E+03 0.  0.
    9000005    1    3    3    0    0 -0.23062493630E+02  0.21612530826E+02 -0.11230634222E+03  0.11667345287E+03  0.10000000000E+01 0.  0.
    9000005    1    3    3    0    0  0.23062493630E+02 -0.21612530826E+02 -0.15513274462E+04  0.15516497110E+04  0.10000000000E+01 0.  0.
<mgrwt>
<rscale>  0 0.12499919E+03</rscale>
<asrwt>0</asrwt>
<pdfrwt beam="2">  1        4 0.25630343E+00 0.12499919E+03</pdfrwt>
<pdfrwt beam="1">  1       -4 0.36072251E-03 0.12499919E+03</pdfrwt>
<totfact> 0.14843682E+03</totfact>
</mgrwt>
</event>
<event>
 5    1  0.3401591E-002  0.1250004E+03  0.7818608E-02  0.1235069E+00
         -4   -1    0    0    0  501 -0.00000000000E+00  0.00000000000E+00  0.13648022607E+04  0.13648028516E+04  0.12700000000E+01 0. -1.
          4   -1    0    0  501    0  0.00000000000E+00 -0.00000000000E+00 -0.27206500458E+01  0.30024717604E+01  0.12700000000E+01 0. -1.
         25    2    1    2    0    0  0.00000000000E+00  0.00000000000E+00  0.13620816106E+04  0.13678053233E+04  0.12500035403E+03 0.  0.
    9000005    1    3    3    0    0  0.58340421714E+02  0.82570002326E+00  0.92596159005E+03  0.92779855186E+03  0.10000000000E+01 0.  0.
    9000005    1    3    3    0    0 -0.58340421714E+02 -0.82570002326E+00  0.43612002060E+03  0.44000677148E+03  0.10000000000E+01 0.  0.
<mgrwt>
<rscale>  0 0.12500035E+03</rscale>
<asrwt>0</asrwt>
<pdfrwt beam="2">  1        4 0.44028502E-03 0.12500035E+03</pdfrwt>
<pdfrwt beam="1">  1       -4 0.20999158E+00 0.12500035E+03</pdfrwt>
<totfact> 0.20682169E+03</totfact>
</mgrwt>
</event>
<event>
 5    1  0.3401591E-002  0.1250124E+03  0.7818608E-02  0.1235050E+00
          4   -1    0    0  501    0  0.00000000000E+00  0.00000000000E+00  0.40264096532E+02  0.40284120563E+02  0.12700000000E+01 0. -1.
         -4   -1    0    0    0  501 -0.00000000000E+00 -0.00000000000E+00 -0.96986636555E+02  0.96994951261E+02  0.12700000000E+01 0. -1.
         25    2    1    2    0    0  0.00000000000E+00  0.00000000000E+00 -0.56722540023E+02  0.13727907182E+03  0.12501238744E+03 0.  0.
    9000005    1    3    3    0    0  0.56942272989E+02  0.20319125405E+02 -0.45749633745E+02  0.75824259299E+02  0.10000000000E+01 0.  0.
    9000005    1    3    3    0    0 -0.56942272989E+02 -0.20319125405E+02 -0.10972906278E+02  0.61454812526E+02  0.10000000000E+01 0.  0.
<mgrwt>
<rscale>  0 0.12501239E+03</rscale>
<asrwt>0</asrwt>
<pdfrwt beam="1">  1        4 0.61966563E-02 0.12501239E+03</pdfrwt>
<pdfrwt beam="2">  1       -4 0.14923201E-01 0.12501239E+03</pdfrwt>
<totfact> 0.10187408E+04</totfact>
</mgrwt>
</event>
<event>
 5    1  0.3401591E-002  0.1249956E+03  0.7818608E-02  0.1235076E+00
         -4   -1    0    0    0  501 -0.00000000000E+00  0.00000000000E+00  0.13025198842E+04  0.13025205034E+04  0.12700000000E+01 0.  1.
          4   -1    0    0  501    0  0.00000000000E+00 -0.00000000000E+00 -0.28636721560E+01  0.31326535424E+01  0.12700000000E+01 0.  1.
         25    2    1    2    0    0  0.00000000000E+00  0.00000000000E+00  0.12996562121E+04  0.13056531569E+04  0.12499558627E+03 0.  0.
    9000005    1    3    3    0    0  0.46774593234E+02  0.23667903999E+02  0.10051229616E+04  0.10064895430E+04  0.10000000000E+01 0.  0.
    9000005    1    3    3    0    0 -0.46774593234E+02 -0.23667903999E+02  0.29453325044E+03  0.29916361388E+03  0.10000000000E+01 0.  0.
<mgrwt>
<rscale>  0 0.12499559E+03</rscale>
<asrwt>0</asrwt>
<pdfrwt beam="2">  1        4 0.46130358E-03 0.12499559E+03</pdfrwt>
<pdfrwt beam="1">  1       -4 0.20040836E+00 0.12499559E+03</pdfrwt>
<totfact> 0.22097620E+03</totfact>
</mgrwt>
</event>
<event>
 5    1  0.3401591E-002  0.1249996E+03  0.7818608E-02  0.1235070E+00
          4   -1    0    0  501    0  0.00000000000E+00  0.00000000000E+00  0.52370460018E+02  0.52385856703E+02  0.12700000000E+01 0.  1.
         -4   -1    0    0    0  501 -0.00000000000E+00 -0.00000000000E+00 -0.74556545126E+02  0.74567360964E+02  0.12700000000E+01 0.  1.
         25    2    1    2    0    0  0.00000000000E+00  0.00000000000E+00 -0.22186085107E+02  0.12695321767E+03  0.12499958841E+03 0.  0.
    9000005    1    3    3    0    0  0.57232124207E+02 -0.17177013852E+02 -0.29672627767E+02  0.66723539210E+02  0.10000000000E+01 0.  0.
    9000005    1    3    3    0    0 -0.57232124207E+02  0.17177013852E+02  0.74865426598E+01  0.60229678457E+02  0.10000000000E+01 0.  0.
<mgrwt>
<rscale>  0 0.12499959E+03</rscale>
<asrwt>0</asrwt>
<pdfrwt beam="1">  1        4 0.80590102E-02 0.12499959E+03</pdfrwt>
<pdfrwt beam="2">  1       -4 0.11472254E-01 0.12499959E+03</pdfrwt>
<totfact> 0.10410259E+04</totfact>
</mgrwt>
</event>
<event>
 5    1  0.3401591E-002  0.1249988E+03  0.7818608E-02  0.1235071E+00
          4   -1    0    0  501    0  0.00000000000E+00  0.00000000000E+00  0.24499607431E+02  0.24532502202E+02  0.12700000000E+01 0. -1.
         -4   -1    0    0    0  501 -0.00000000000E+00 -0.00000000000E+00 -0.15929580723E+03  0.15930086974E+03  0.12700000000E+01 0. -1.
         25    2    1    2    0    0  0.00000000000E+00  0.00000000000E+00 -0.13479619980E+03  0.18383337194E+03  0.12499877264E+03 0.  0.
    9000005    1    3    3    0    0  0.62191696202E+02  0.41335224623E+01 -0.74021100309E+02  0.96773014707E+02  0.10000000000E+01 0.  0.
    9000005    1    3    3    0    0 -0.62191696202E+02 -0.41335224623E+01 -0.60775099489E+02  0.87060357238E+02  0.10000000000E+01 0.  0.
<mgrwt>
<rscale>  0 0.12499877E+03</rscale>
<asrwt>0</asrwt>
<pdfrwt beam="1">  1        4 0.37720903E-02 0.12499877E+03</pdfrwt>
<pdfrwt beam="2">  1       -4 0.24509966E-01 0.12499877E+03</pdfrwt>
<totfact> 0.92934056E+03</totfact>
</mgrwt>
</event>
<event>
 5    1  0.3401591E-002  0.1249912E+03  0.7818608E-02  0.1235083E+00
          4   -1    0    0  501    0  0.00000000000E+00  0.00000000000E+00  0.33881785968E+03  0.33882023986E+03  0.12700000000E+01 0.  1.
         -4   -1    0    0    0  501 -0.00000000000E+00 -0.00000000000E+00 -0.11490029827E+02  0.11560003695E+02  0.12700000000E+01 0.  1.
         25    2    1    2    0    0  0.00000000000E+00  0.00000000000E+00  0.32732782986E+03  0.35038024356E+03  0.12499122720E+03 0.  0.
    9000005    1    3    3    0    0 -0.36552416748E+01 -0.38674551784E+02  0.26459198486E+02  0.47012455072E+02  0.10000000000E+01 0.  0.
    9000005    1    3    3    0    0  0.36552416748E+01  0.38674551784E+02  0.30086863137E+03  0.30336778848E+03  0.10000000000E+01 0.  0.
<mgrwt>
<rscale>  0 0.12499123E+03</rscale>
<asrwt>0</asrwt>
<pdfrwt beam="1">  1        4 0.52131382E-01 0.12499123E+03</pdfrwt>
<pdfrwt beam="2">  1       -4 0.17732629E-02 0.12499123E+03</pdfrwt>
<totfact> 0.69696278E+03</totfact>
</mgrwt>
</event>
<event>
 5    1  0.3401591E-002  0.1249979E+03  0.7818608E-02  0.1235073E+00
          4   -1    0    0  501    0  0.00000000000E+00  0.00000000000E+00  0.84865230512E+01  0.85810240356E+01  0.12700000000E+01 0.  1.
         -4   -1    0    0    0  501 -0.00000000000E+00 -0.00000000000E+00 -0.45762915397E+03  0.45763091621E+03  0.12700000000E+01 0.  1.
         25    2    1    2    0    0  0.00000000000E+00  0.00000000000E+00 -0.44914263092E+03  0.46621194024E+03  0.12499788123E+03 0.  0.
    9000005    1    3    3    0    0 -0.61564953098E+02 -0.88681580106E+00 -0.26440955380E+03  0.27148562031E+03  0.10000000000E+01 0.  0.
    9000005    1    3    3    0    0  0.61564953098E+02  0.88681580106E+00 -0.18473307712E+03  0.19472631994E+03  0.10000000000E+01 0.  0.
<mgrwt>
<rscale>  0 0.12499788E+03</rscale>
<asrwt>0</asrwt>
<pdfrwt beam="1">  1        4 0.13130242E-02 0.12499788E+03</pdfrwt>
<pdfrwt beam="2">  1       -4 0.70411871E-01 0.12499788E+03</pdfrwt>
<totfact> 0.58587381E+03</totfact>
</mgrwt>
</event>
<event>
 5    1  0.3401591E-002  0.1249993E+03  0.7818608E-02  0.1235070E+00
          4   -1    0    0  501    0  0.00000000000E+00  0.00000000000E+00  0.13261301938E+01  0.18361702783E+01  0.12700000000E+01 0. -1.
         -4   -1    0    0    0  501 -0.00000000000E+00 -0.00000000000E+00 -0.24699722111E+04  0.24699725376E+04  0.12700000000E+01 0. -1.
         25    2    1    2    0    0  0.00000000000E+00  0.00000000000E+00 -0.24686460809E+04  0.24718087079E+04  0.12499926231E+03 0.  0.
    9000005    1    3    3    0    0 -0.56824782438E+02  0.25998442887E+02 -0.12437851917E+04  0.12453543986E+04  0.10000000000E+01 0.  0.
    9000005    1    3    3    0    0  0.56824782438E+02 -0.25998442887E+02 -0.12248608892E+04  0.12264543093E+04  0.10000000000E+01 0.  0.
<mgrwt>
<rscale>  0 0.12499926E+03</rscale>
<asrwt>0</asrwt>
<pdfrwt beam="1">  1        4 0.24328097E-03 0.12499926E+03</pdfrwt>
<pdfrwt beam="2">  1       -4 0.38003190E+00 0.12499926E+03</pdfrwt>
<totfact> 0.48948855E+02</totfact>
</mgrwt>
</event>
<event>
 5    1  0.3401591E-002  0.1250012E+03  0.7818608E-02  0.1235067E+00
          4   -1    0    0  501    0  0.00000000000E+00  0.00000000000E+00  0.58438285311E+02  0.58452083710E+02  0.12700000000E+01 0. -1.
         -4   -1    0    0    0  501 -0.00000000000E+00 -0.00000000000E+00 -0.66817610722E+02  0.66829679055E+02  0.12700000000E+01 0. -1.
         25    2    1    2    0    0  0.00000000000E+00  0.00000000000E+00 -0.83793254115E+01  0.12528176277E+03  0.12500122794E+03 0.  0.
    9000005    1    3    3    0    0  0.27970691716E+01 -0.52773667914E+02 -0.37617823653E+02  0.64876685160E+02  0.10000000000E+01 0.  0.
    9000005    1    3    3    0    0 -0.27970691716E+01  0.52773667914E+02  0.29238498241E+02  0.60405077605E+02  0.10000000000E+01 0.  0.
<mgrwt>
<rscale>  0 0.12500123E+03</rscale>
<asrwt>0</asrwt>
<pdfrwt beam="1">  1        4 0.89924953E-02 0.12500123E+03</pdfrwt>
<pdfrwt beam="2">  1       -4 0.10281622E-01 0.12500123E+03</pdfrwt>
<totfact> 0.10446456E+04</totfact>
</mgrwt>
</event>
<event>
 5    1  0.3401591E-002  0.1250022E+03  0.7818608E-02  0.1235066E+00
         -4   -1    0    0    0  501 -0.00000000000E+00  0.00000000000E+00  0.89250245176E+02  0.89259280548E+02  0.12700000000E+01 0. -1.
          4   -1    0    0  501    0  0.00000000000E+00 -0.00000000000E+00 -0.43748459563E+02  0.43766889473E+02  0.12700000000E+01 0. -1.
         25    2    1    2    0    0  0.00000000000E+00  0.00000000000E+00  0.45501785613E+02  0.13302617002E+03  0.12500219765E+03 0.  0.
    9000005    1    3    3    0    0  0.34205832273E+02  0.30835522820E+00 -0.32905904927E+02  0.47475600296E+02  0.10000000000E+01 0.  0.
    9000005    1    3    3    0    0 -0.34205832273E+02 -0.30835522820E+00  0.78407690540E+02  0.85550569725E+02  0.10000000000E+01 0.  0.
<mgrwt>
<rscale>  0 0.12500220E+03</rscale>
<asrwt>0</asrwt>
<pdfrwt beam="2">  1        4 0.67326451E-02 0.12500220E+03</pdfrwt>
<pdfrwt beam="1">  1       -4 0.13732919E-01 0.12500220E+03</pdfrwt>
<totfact> 0.10279334E+04</totfact>
</mgrwt>
</event>
<event>
 5    1  0.3401591E-002  0.1249973E+03  0.7818608E-02  0.1235073E+00
         -4   -1    0    0    0  501 -0.00000000000E+00  0.00000000000E+00  0.15816094240E+03  0.15816604124E+03  0.12700000000E+01 0.  1.
          4   -1    0    0  501    0  0.00000000000E+00 -0.00000000000E+00 -0.24675058168E+02  0.24707719353E+02  0.12700000000E+01 0.  1.
         25    2    1    2    0    0  0.00000000000E+00  0.00000000000E+00  0.13348588423E+03  0.18287376059E+03  0.12499732407E+03 0.  0.
    9000005    1    3    3    0    0 -0.11905889363E+02  0.88909609034E+01  0.15554585116E+03  0.15625719568E+03  0.10000000000E+01 0.  0.
    9000005    1    3    3    0    0  0.11905889363E+02 -0.88909609034E+01 -0.22059966925E+02  0.26616564918E+02  0.10000000000E+01 0.  0.
<mgrwt>
<rscale>  0 0.12499732E+03</rscale>
<asrwt>0</asrwt>
<pdfrwt beam="2">  1        4 0.37990674E-02 0.12499732E+03</pdfrwt>
<pdfrwt beam="1">  1       -4 0.24335357E-01 0.12499732E+03</pdfrwt>
<totfact> 0.93107844E+03</totfact>
</mgrwt>
</event>
<event>
 5    1  0.3401591E-002  0.1250093E+03  0.7818608E-02  0.1235055E+00
          4   -1    0    0  501    0  0.00000000000E+00  0.00000000000E+00  0.22117376598E+03  0.22117741218E+03  0.12700000000E+01 0.  1.
         -4   -1    0    0    0  501 -0.00000000000E+00 -0.00000000000E+00 -0.17637456487E+02  0.17683121086E+02  0.12700000000E+01 0.  1.
         25    2    1    2    0    0  0.00000000000E+00  0.00000000000E+00  0.20353630950E+03  0.23886053327E+03  0.12500929993E+03 0.  0.
    9000005    1    3    3    0    0 -0.51143145265E+01  0.23034246501E+02  0.21234546905E+03  0.21365470027E+03  0.10000000000E+01 0.  0.
    9000005    1    3    3    0    0  0.51143145265E+01 -0.23034246501E+02 -0.88091595495E+01  0.25205832993E+02  0.10000000000E+01 0.  0.
<mgrwt>
<rscale>  0 0.12500930E+03</rscale>
<asrwt>0</asrwt>
<pdfrwt beam="1">  1        4 0.34030529E-01 0.12500930E+03</pdfrwt>
<pdfrwt beam="2">  1       -4 0.27172478E-02 0.12500930E+03</pdfrwt>
<totfact> 0.83949953E+03</totfact>
</mgrwt>
</event>
<event>
 5    1  0.3401591E-002  0.1250051E+03  0.7818608E-02  0.1235061E+00
          4   -1    0    0  501    0  0.00000000000E+00  0.00000000000E+00  0.11131415861E+03  0.11132140318E+03  0.12700000000E+01 0.  1.
         -4   -1    0    0    0  501 -0.00000000000E+00 -0.00000000000E+00 -0.35075125901E+02  0.35098110448E+02  0.12700000000E+01 0.  1.
         25    2    1    2    0    0  0.00000000000E+00  0.00000000000E+00  0.76239032705E+02  0.14641951363E+03  0.12500513535E+03 0.  0.
    9000005    1    3    3    0    0  0.23825703040E+02 -0.18132498880E+01 -0.29519021859E+02  0.37991112803E+02  0.10000000000E+01 0.  0.
    9000005    1    3    3    0    0 -0.23825703040E+02  0.18132498880E+01  0.10575805456E+03  0.10842840083E+03  0.10000000000E+01 0.  0.
<mgrwt>
<rscale>  0 0.12500514E+03</rscale>
<asrwt>0</asrwt>
<pdfrwt beam="1">  1        4 0.17127580E-01 0.12500514E+03</pdfrwt>
<pdfrwt beam="2">  1       -4 0.53984987E-02 0.12500514E+03</pdfrwt>
<totfact> 0.10001070E+04</totfact>
</mgrwt>
</event>
<event>
 5    1  0.3401591E-002  0.1250035E+03  0.7818608E-02  0.1235064E+00
          4   -1    0    0  501    0  0.00000000000E+00  0.00000000000E+00  0.11569035048E+03  0.11569732103E+03  0.12700000000E+01 0.  1.
         -4   -1    0    0    0  501 -0.00000000000E+00 -0.00000000000E+00 -0.33746645341E+02  0.33770534076E+02  0.12700000000E+01 0.  1.
         25    2    1    2    0    0  0.00000000000E+00  0.00000000000E+00  0.81943705140E+02  0.14946785511E+03  0.12500347555E+03 0.  0.
    9000005    1    3    3    0    0 -0.24955872266E+02  0.25948492042E+02  0.10205081741E+03  0.10821963377E+03  0.10000000000E+01 0.  0.
    9000005    1    3    3    0    0  0.24955872266E+02 -0.25948492042E+02 -0.20107112269E+02  0.41248221339E+02  0.10000000000E+01 0.  0.
<mgrwt>
<rscale>  0 0.12500348E+03</rscale>
<asrwt>0</asrwt>
<pdfrwt beam="1">  1        4 0.17800890E-01 0.12500348E+03</pdfrwt>
<pdfrwt beam="2">  1       -4 0.51941653E-02 0.12500348E+03</pdfrwt>
<totfact> 0.99402102E+03</totfact>
</mgrwt>
</event>
<event>
 5    1  0.3401591E-002  0.1249986E+03  0.7818608E-02  0.1235072E+00
         -4   -1    0    0    0  501 -0.00000000000E+00  0.00000000000E+00  0.26967933896E+02  0.26997821368E+02  0.12700000000E+01 0.  1.
          4   -1    0    0  501    0  0.00000000000E+00 -0.00000000000E+00 -0.14473173913E+03  0.14473731105E+03  0.12700000000E+01 0.  1.
         25    2    1    2    0    0  0.00000000000E+00  0.00000000000E+00 -0.11776380523E+03  0.17173513242E+03  0.12499856753E+03 0.  0.
    9000005    1    3    3    0    0  0.33343154338E+02  0.31207901533E+02 -0.27813495863E+00  0.45681247995E+02  0.10000000000E+01 0.  0.
    9000005    1    3    3    0    0 -0.33343154338E+02 -0.31207901533E+02 -0.11748567027E+03  0.12605388443E+03  0.10000000000E+01 0.  0.
<mgrwt>
<rscale>  0 0.12499857E+03</rscale>
<asrwt>0</asrwt>
<pdfrwt beam="2">  1        4 0.22269148E-01 0.12499857E+03</pdfrwt>
<pdfrwt beam="1">  1       -4 0.41516407E-02 0.12499857E+03</pdfrwt>
<totfact> 0.95129276E+03</totfact>
</mgrwt>
</event>
<event>
 5    1  0.3401591E-002  0.1249998E+03  0.7818608E-02  0.1235070E+00
          4   -1    0    0  501    0  0.00000000000E+00  0.00000000000E+00  0.32297512417E+01  0.34704744752E+01  0.12700000000E+01 0. -1.
         -4   -1    0    0    0  501 -0.00000000000E+00 -0.00000000000E+00 -0.11657611890E+04  0.11657618807E+04  0.12700000000E+01 0. -1.
         25    2    1    2    0    0  0.00000000000E+00  0.00000000000E+00 -0.11625314377E+04  0.11692323552E+04  0.12499982719E+03 0.  0.
    9000005    1    3    3    0    0 -0.91785699518E+00 -0.61476832341E+02 -0.68584343730E+03  0.68859455696E+03  0.10000000000E+01 0.  0.
    9000005    1    3    3    0    0  0.91785699518E+00  0.61476832341E+02 -0.47668800041E+03  0.48063779825E+03  0.10000000000E+01 0.  0.
<mgrwt>
<rscale>  0 0.12499983E+03</rscale>
<asrwt>0</asrwt>
<pdfrwt beam="1">  1        4 0.51545612E-03 0.12499983E+03</pdfrwt>
<pdfrwt beam="2">  1       -4 0.17936612E+00 0.12499983E+03</pdfrwt>
<totfact> 0.25532744E+03</totfact>
</mgrwt>
</event>
<event>
 5    1  0.3401591E-002  0.1250005E+03  0.7818608E-02  0.1235069E+00
          4   -1    0    0  501    0  0.00000000000E+00  0.00000000000E+00  0.48849137293E+01  0.50473044432E+01  0.12700000000E+01 0. -1.
         -4   -1    0    0    0  501 -0.00000000000E+00 -0.00000000000E+00 -0.78642470159E+03  0.78642572705E+03  0.12700000000E+01 0. -1.
         25    2    1    2    0    0  0.00000000000E+00  0.00000000000E+00 -0.78153978786E+03  0.79147303150E+03  0.12500047830E+03 0.  0.
    9000005    1    3    3    0    0 -0.35119540937E+02  0.44170092157E+02 -0.56077507981E+03  0.56360808132E+03  0.10000000000E+01 0.  0.
    9000005    1    3    3    0    0  0.35119540937E+02 -0.44170092157E+02 -0.22076470805E+03  0.22786495018E+03  0.10000000000E+01 0.  0.
<mgrwt>
<rscale>  0 0.12500048E+03</rscale>
<asrwt>0</asrwt>
<pdfrwt beam="1">  1        4 0.76409629E-03 0.12500048E+03</pdfrwt>
<pdfrwt beam="2">  1       -4 0.12100089E+00 0.12500048E+03</pdfrwt>
<totfact> 0.38647864E+03</totfact>
</mgrwt>
</event>
<event>
 5    1  0.3401591E-002  0.1250032E+03  0.7818608E-02  0.1235064E+00
         -4   -1    0    0    0  501 -0.00000000000E+00  0.00000000000E+00  0.18650970867E+03  0.18651403252E+03  0.12700000000E+01 0. -1.
          4   -1    0    0  501    0  0.00000000000E+00 -0.00000000000E+00 -0.20921187737E+02  0.20959699338E+02  0.12700000000E+01 0. -1.
         25    2    1    2    0    0  0.00000000000E+00  0.00000000000E+00  0.16558852093E+03  0.20747373186E+03  0.12500316455E+03 0.  0.
    9000005    1    3    3    0    0 -0.28683178087E+02  0.28928502832E+02  0.16145063337E+03  0.16651393334E+03  0.10000000000E+01 0.  0.
    9000005    1    3    3    0    0  0.28683178087E+02 -0.28928502832E+02  0.41378875620E+01  0.40959798519E+02  0.10000000000E+01 0.  0.
<mgrwt>
<rscale>  0 0.12500316E+03</rscale>
<asrwt>0</asrwt>
<pdfrwt beam="2">  1        4 0.32219394E-02 0.12500316E+03</pdfrwt>
<pdfrwt beam="1">  1       -4 0.28697096E-01 0.12500316E+03</pdfrwt>
<totfact> 0.88883833E+03</totfact>
</mgrwt>
</event>
<event>
 5    1  0.3401591E-002  0.1249983E+03  0.7818608E-02  0.1235072E+00
         -4   -1    0    0    0  501 -0.00000000000E+00  0.00000000000E+00  0.12357094069E+03  0.12357746673E+03  0.12700000000E+01 0.  1.
          4   -1    0    0  501    0  0.00000000000E+00 -0.00000000000E+00 -0.31590409130E+02  0.31615927142E+02  0.12700000000E+01 0.  1.
         25    2    1    2    0    0  0.00000000000E+00  0.00000000000E+00  0.91980531563E+02  0.15519339387E+03  0.12499828525E+03 0.  0.
    9000005    1    3    3    0    0  0.38656602686E+02 -0.39953379481E+02  0.10555898596E+02  0.56595339546E+02  0.10000000000E+01 0.  0.
    9000005    1    3    3    0    0 -0.38656602686E+02  0.39953379481E+02  0.81424632968E+02  0.98598054327E+02  0.10000000000E+01 0.  0.
<mgrwt>
<rscale>  0 0.12499829E+03</rscale>
<asrwt>0</asrwt>
<pdfrwt beam="2">  1        4 0.48625279E-02 0.12499829E+03</pdfrwt>
<pdfrwt beam="1">  1       -4 0.19013379E-01 0.12499829E+03</pdfrwt>
<totfact> 0.98281337E+03</totfact>
</mgrwt>
</event>
<event>
 5    1  0.3401591E-002  0.1250094E+03  0.7818608E-02  0.1235055E+00
         -4   -1    0    0    0  501 -0.00000000000E+00  0.00000000000E+00  0.11888510331E+02  0.11956152303E+02  0.12700000000E+01 0.  1.
          4   -1    0    0  501    0  0.00000000000E+00 -0.00000000000E+00 -0.32762193421E+03  0.32762439573E+03  0.12700000000E+01 0.  1.
         25    2    1    2    0    0  0.00000000000E+00  0.00000000000E+00 -0.31573342388E+03  0.33958054804E+03  0.12500941423E+03 0.  0.
    9000005    1    3    3    0    0 -0.27102520593E+02 -0.54115998379E+02 -0.11554334994E+03  0.13043908011E+03  0.10000000000E+01 0.  0.
    9000005    1    3    3    0    0  0.27102520593E+02  0.54115998379E+02 -0.20019007394E+03  0.20914146793E+03  0.10000000000E+01 0.  0.
<mgrwt>
<rscale>  0 0.12500941E+03</rscale>
<asrwt>0</asrwt>
<pdfrwt beam="2">  1        4 0.50408760E-01 0.12500941E+03</pdfrwt>
<pdfrwt beam="1">  1       -4 0.18343944E-02 0.12500941E+03</pdfrwt>
<totfact> 0.70871469E+03</totfact>
</mgrwt>
</event>
<event>
 5    1  0.3401591E-002  0.1249895E+03  0.7818608E-02  0.1235086E+00
         -4   -1    0    0    0  501 -0.00000000000E+00  0.00000000000E+00  0.29247792049E+03  0.29248067778E+03  0.12700000000E+01 0. -1.
          4   -1    0    0  501    0  0.00000000000E+00 -0.00000000000E+00 -0.13320452620E+02  0.13380857895E+02  0.12700000000E+01 0. -1.
         25    2    1    2    0    0  0.00000000000E+00  0.00000000000E+00  0.27915746787E+03  0.30586153567E+03  0.12498954811E+03 0.  0.
    9000005    1    3    3    0    0  0.19253049099E+02  0.53985732134E+02  0.20048429711E+03  0.20851880625E+03  0.10000000000E+01 0.  0.
    9000005    1    3    3    0    0 -0.19253049099E+02 -0.53985732134E+02  0.78673170763E+02  0.97342729424E+02  0.10000000000E+01 0.  0.
<mgrwt>
<rscale>  0 0.12498955E+03</rscale>
<asrwt>0</asrwt>
<pdfrwt beam="2">  1        4 0.20541589E-02 0.12498955E+03</pdfrwt>
<pdfrwt beam="1">  1       -4 0.45001465E-01 0.12498955E+03</pdfrwt>
<totfact> 0.74886776E+03</totfact>
</mgrwt>
</event>
<event>
 5    1  0.3401591E-002  0.1249970E+03  0.7818608E-02  0.1235074E+00
         -4   -1    0    0    0  501 -0.00000000000E+00  0.00000000000E+00  0.46104615027E+02  0.46122103452E+02  0.12700000000E+01 0.  1.
          4   -1    0    0  501    0  0.00000000000E+00 -0.00000000000E+00 -0.84683460953E+02  0.84692983529E+02  0.12700000000E+01 0.  1.
         25    2    1    2    0    0  0.00000000000E+00  0.00000000000E+00 -0.38578845926E+02  0.13081508698E+03  0.12499703848E+03 0.  0.
    9000005    1    3    3    0    0 -0.32522170234E+02  0.47453568680E+02  0.62499790336E+01  0.57875685526E+02  0.10000000000E+01 0.  0.
    9000005    1    3    3    0    0  0.32522170234E+02 -0.47453568680E+02 -0.44828824959E+02  0.72939401454E+02  0.10000000000E+01 0.  0.
<mgrwt>
<rscale>  0 0.12499704E+03</rscale>
<asrwt>0</asrwt>
<pdfrwt beam="2">  1        4 0.13030302E-01 0.12499704E+03</pdfrwt>
<pdfrwt beam="1">  1       -4 0.70950955E-02 0.12499704E+03</pdfrwt>
<totfact> 0.10327745E+04</totfact>
</mgrwt>
</event>
<event>
 5    1  0.3401591E-002  0.1250065E+03  0.7818608E-02  0.1235059E+00
          4   -1    0    0  501    0  0.00000000000E+00  0.00000000000E+00  0.58589152226E+03  0.58589289871E+03  0.12700000000E+01 0. -1.
         -4   -1    0    0    0  501 -0.00000000000E+00 -0.00000000000E+00 -0.66060152556E+01  0.67269857706E+01  0.12700000000E+01 0. -1.
         25    2    1    2    0    0  0.00000000000E+00  0.00000000000E+00  0.57928550701E+03  0.59261988448E+03  0.12500651525E+03 0.  0.
    9000005    1    3    3    0    0  0.35279412431E+02 -0.30513922805E+02  0.92465560643E+02  0.10356937931E+03  0.10000000000E+01 0.  0.
    9000005    1    3    3    0    0 -0.35279412431E+02  0.30513922805E+02  0.48681994636E+03  0.48905050517E+03  0.10000000000E+01 0.  0.
<mgrwt>
<rscale>  0 0.12500652E+03</rscale>
<asrwt>0</asrwt>
<pdfrwt beam="1">  1        4 0.90146602E-01 0.12500652E+03</pdfrwt>
<pdfrwt beam="2">  1       -4 0.10257210E-02 0.12500652E+03</pdfrwt>
<totfact> 0.49329740E+03</totfact>
</mgrwt>
</event>
<event>
 5    1  0.3401591E-002  0.1250020E+03  0.7818608E-02  0.1235066E+00
         -4   -1    0    0    0  501 -0.00000000000E+00  0.00000000000E+00  0.57313952942E+02  0.57328021960E+02  0.12700000000E+01 0.  1.
          4   -1    0    0  501    0  0.00000000000E+00 -0.00000000000E+00 -0.68129152649E+02  0.68140988697E+02  0.12700000000E+01 0.  1.
         25    2    1    2    0    0  0.00000000000E+00  0.00000000000E+00 -0.10815199707E+02  0.12546901066E+03  0.12500201635E+03 0.  0.
    9000005    1    3    3    0    0  0.46915312917E+02  0.36748176203E+02 -0.24290136624E+02  0.64362145533E+02  0.10000000000E+01 0.  0.
    9000005    1    3    3    0    0 -0.46915312917E+02 -0.36748176203E+02  0.13474936917E+02  0.61106865124E+02  0.10000000000E+01 0.  0.
<mgrwt>
<rscale>  0 0.12500202E+03</rscale>
<asrwt>0</asrwt>
<pdfrwt beam="2">  1        4 0.10483401E-01 0.12500202E+03</pdfrwt>
<pdfrwt beam="1">  1       -4 0.88195239E-02 0.12500202E+03</pdfrwt>
<totfact> 0.10442164E+04</totfact>
</mgrwt>
</event>
<event>
 5    1  0.3401591E-002  0.1250052E+03  0.7818608E-02  0.1235061E+00
          4   -1    0    0  501    0  0.00000000000E+00  0.00000000000E+00  0.71623881564E+01  0.72741119116E+01  0.12700000000E+01 0.  1.
         -4   -1    0    0    0  501 -0.00000000000E+00 -0.00000000000E+00 -0.54109540844E+03  0.54109689884E+03  0.12700000000E+01 0.  1.
         25    2    1    2    0    0  0.00000000000E+00  0.00000000000E+00 -0.53393302028E+03  0.54837101075E+03  0.12500518103E+03 0.  0.
    9000005    1    3    3    0    0  0.18669882767E+02  0.59575343359E+02 -0.27920852251E+03  0.28610519937E+03  0.10000000000E+01 0.  0.
    9000005    1    3    3    0    0 -0.18669882767E+02 -0.59575343359E+02 -0.25472449777E+03  0.26226581139E+03  0.10000000000E+01 0.  0.
<mgrwt>
<rscale>  0 0.12500518E+03</rscale>
<asrwt>0</asrwt>
<pdfrwt beam="1">  1        4 0.11106151E-02 0.12500518E+03</pdfrwt>
<pdfrwt beam="2">  1       -4 0.83254125E-01 0.12500518E+03</pdfrwt>
<totfact> 0.52291724E+03</totfact>
</mgrwt>
</event>
<event>
 5    1  0.3401591E-002  0.1250100E+03  0.7818608E-02  0.1235054E+00
         -4   -1    0    0    0  501 -0.00000000000E+00  0.00000000000E+00  0.69411659470E+02  0.69423276863E+02  0.12700000000E+01 0.  1.
          4   -1    0    0  501    0  0.00000000000E+00 -0.00000000000E+00 -0.56262095687E+02  0.56276427668E+02  0.12700000000E+01 0.  1.
         25    2    1    2    0    0  0.00000000000E+00  0.00000000000E+00  0.13149563783E+02  0.12569970453E+03  0.12501001836E+03 0.  0.
    9000005    1    3    3    0    0 -0.39514493843E+02 -0.46224891843E+02  0.21067499813E+02  0.64365949057E+02  0.10000000000E+01 0.  0.
    9000005    1    3    3    0    0  0.39514493843E+02  0.46224891843E+02 -0.79179360295E+01  0.61333755474E+02  0.10000000000E+01 0.  0.
<mgrwt>
<rscale>  0 0.12501002E+03</rscale>
<asrwt>0</asrwt>
<pdfrwt beam="2">  1        4 0.86577032E-02 0.12501002E+03</pdfrwt>
<pdfrwt beam="1">  1       -4 0.10680713E-01 0.12501002E+03</pdfrwt>
<totfact> 0.10435192E+04</totfact>
</mgrwt>
</event>
<event>
 5    1  0.3401591E-002  0.1249992E+03  0.7818608E-02  0.1235071E+00
          4   -1    0    0  501    0  0.00000000000E+00  0.00000000000E+00  0.76738514761E+02  0.76749023106E+02  0.12700000000E+01 0. -1.
         -4   -1    0    0    0  501 -0.00000000000E+00 -0.00000000000E+00 -0.50880820329E+02  0.50896667645E+02  0.12700000000E+01 0. -1.
         25    2    1    2    0    0  0.00000000000E+00  0.00000000000E+00  0.25857694432E+02  0.12764569075E+03  0.12499920802E+03 0.  0.
    9000005    1    3    3    0    0  0.17459481269E+02  0.59690746700E+02  0.66853366903E+01  0.62558072656E+02  0.10000000000E+01 0.  0.
    9000005    1    3    3    0    0 -0.17459481269E+02 -0.59690746700E+02  0.19172357742E+02  0.65087618094E+02  0.10000000000E+01 0.  0.
<mgrwt>
<rscale>  0 0.12499921E+03</rscale>
<asrwt>0</asrwt>
<pdfrwt beam="1">  1        4 0.11807953E-01 0.12499921E+03</pdfrwt>
<pdfrwt beam="2">  1       -4 0.78298459E-02 0.12499921E+03</pdfrwt>
<totfact> 0.10395332E+04</totfact>
</mgrwt>
</event>
<event>
 5    1  0.3401591E-002  0.1249995E+03  0.7818608E-02  0.1235070E+00
          4   -1    0    0  501    0  0.00000000000E+00  0.00000000000E+00  0.14331302484E+03  0.14331865192E+03  0.12700000000E+01 0. -1.
         -4   -1    0    0    0  501 -0.00000000000E+00 -0.00000000000E+00 -0.27235572672E+02  0.27265166766E+02  0.12700000000E+01 0. -1.
         25    2    1    2    0    0  0.00000000000E+00  0.00000000000E+00  0.11607745217E+03  0.17058381869E+03  0.12499945719E+03 0.  0.
    9000005    1    3    3    0    0 -0.57140515779E+02  0.23893189349E+02  0.69398625665E+02  0.93021998930E+02  0.10000000000E+01 0.  0.
    9000005    1    3    3    0    0  0.57140515779E+02 -0.23893189349E+02  0.46678826505E+02  0.77561819761E+02  0.10000000000E+01 0.  0.
<mgrwt>
<rscale>  0 0.12499946E+03</rscale>
<asrwt>0</asrwt>
<pdfrwt beam="1">  1        4 0.22050867E-01 0.12499946E+03</pdfrwt>
<pdfrwt beam="2">  1       -4 0.41927974E-02 0.12499946E+03</pdfrwt>
<totfact> 0.95341094E+03</totfact>
</mgrwt>
</event>
<event>
 5    1  0.3401591E-002  0.1250058E+03  0.7818608E-02  0.1235060E+00
          4   -1    0    0  501    0  0.00000000000E+00  0.00000000000E+00  0.77623938409E+02  0.77634326906E+02  0.12700000000E+01 0.  1.
         -4   -1    0    0    0  501 -0.00000000000E+00 -0.00000000000E+00 -0.50305671206E+02  0.50321699648E+02  0.12700000000E+01 0.  1.
         25    2    1    2    0    0  0.00000000000E+00  0.00000000000E+00  0.27318267204E+02  0.12795602655E+03  0.12500582790E+03 0.  0.
    9000005    1    3    3    0    0 -0.57938142552E+02  0.21763091429E+02  0.22532854954E+02  0.65872528897E+02  0.10000000000E+01 0.  0.
    9000005    1    3    3    0    0  0.57938142552E+02 -0.21763091429E+02  0.47854122499E+01  0.62083497657E+02  0.10000000000E+01 0.  0.
<mgrwt>
<rscale>  0 0.12500583E+03</rscale>
<asrwt>0</asrwt>
<pdfrwt beam="1">  1        4 0.11944176E-01 0.12500583E+03</pdfrwt>
<pdfrwt beam="2">  1       -4 0.77413662E-02 0.12500583E+03</pdfrwt>
<totfact> 0.10387071E+04</totfact>
</mgrwt>
</event>
<event>
 5    1  0.3401591E-002  0.1250158E+03  0.7818608E-02  0.1235045E+00
          4   -1    0    0  501    0  0.00000000000E+00  0.00000000000E+00  0.27799195864E+02  0.27828190575E+02  0.12700000000E+01 0. -1.
         -4   -1    0    0    0  501 -0.00000000000E+00 -0.00000000000E+00 -0.14044695998E+03  0.14045270189E+03  0.12700000000E+01 0. -1.
         25    2    1    2    0    0  0.00000000000E+00  0.00000000000E+00 -0.11264776411E+03  0.16828089246E+03  0.12501575904E+03 0.  0.
    9000005    1    3    3    0    0  0.22906399055E+02 -0.35982638442E+02 -0.11781445582E+03  0.12530243169E+03  0.10000000000E+01 0.  0.
    9000005    1    3    3    0    0 -0.22906399055E+02  0.35982638442E+02  0.51666917094E+01  0.42978460770E+02  0.10000000000E+01 0.  0.
<mgrwt>
<rscale>  0 0.12501576E+03</rscale>
<asrwt>0</asrwt>
<pdfrwt beam="1">  1        4 0.42794715E-02 0.12501576E+03</pdfrwt>
<pdfrwt beam="2">  1       -4 0.21609896E-01 0.12501576E+03</pdfrwt>
<totfact> 0.95735742E+03</totfact>
</mgrwt>
</event>
<event>
 5    1  0.3401591E-002  0.1249696E+03  0.7818608E-02  0.1235117E+00
         -4   -1    0    0    0  501 -0.00000000000E+00  0.00000000000E+00  0.12714465894E+03  0.12715100156E+03  0.12700000000E+01 0. -1.
          4   -1    0    0  501    0  0.00000000000E+00 -0.00000000000E+00 -0.30687683275E+02  0.30713951305E+02  0.12700000000E+01 0. -1.
         25    2    1    2    0    0  0.00000000000E+00  0.00000000000E+00  0.96456975668E+02  0.15786495287E+03  0.12496957705E+03 0.  0.
    9000005    1    3    3    0    0 -0.32452560316E+02  0.37998298100E+02  0.85647104464E+00  0.49987727216E+02  0.10000000000E+01 0.  0.
    9000005    1    3    3    0    0  0.32452560316E+02 -0.37998298100E+02  0.95600504623E+02  0.10787722565E+03  0.10000000000E+01 0.  0.
<mgrwt>
<rscale>  0 0.12496958E+03</rscale>
<asrwt>0</asrwt>
<pdfrwt beam="2">  1        4 0.47236907E-02 0.12496958E+03</pdfrwt>
<pdfrwt beam="1">  1       -4 0.19563225E-01 0.12496958E+03</pdfrwt>
<totfact> 0.97822885E+03</totfact>
</mgrwt>
</event>
<event>
 5    1  0.3401591E-002  0.1249881E+03  0.7818608E-02  0.1235088E+00
          4   -1    0    0  501    0  0.00000000000E+00  0.00000000000E+00  0.91199380974E+01  0.92079406439E+01  0.12700000000E+01 0. -1.
         -4   -1    0    0    0  501 -0.00000000000E+00 -0.00000000000E+00 -0.42609300314E+03  0.42609489580E+03  0.12700000000E+01 0. -1.
         25    2    1    2    0    0  0.00000000000E+00  0.00000000000E+00 -0.41697306504E+03  0.43530283644E+03  0.12498808921E+03 0.  0.
    9000005    1    3    3    0    0  0.19913896731E+02  0.13255667291E+02 -0.40953016757E+03  0.41022948962E+03  0.10000000000E+01 0.  0.
    9000005    1    3    3    0    0 -0.19913896731E+02 -0.13255667291E+02 -0.74428974706E+01  0.25073346827E+02  0.10000000000E+01 0.  0.
<mgrwt>
<rscale>  0 0.12498809E+03</rscale>
<asrwt>0</asrwt>
<pdfrwt beam="1">  1        4 0.14099827E-02 0.12498809E+03</pdfrwt>
<pdfrwt beam="2">  1       -4 0.65559669E-01 0.12498809E+03</pdfrwt>
<totfact> 0.61274339E+03</totfact>
</mgrwt>
</event>
<event>
 5    1  0.3401591E-002  0.1249977E+03  0.7818608E-02  0.1235073E+00
          4   -1    0    0  501    0  0.00000000000E+00  0.00000000000E+00  0.63500506119E+03  0.63500633118E+03  0.12700000000E+01 0. -1.
         -4   -1    0    0    0  501 -0.00000000000E+00 -0.00000000000E+00 -0.60844535294E+01  0.62155832189E+01  0.12700000000E+01 0. -1.
         25    2    1    2    0    0  0.00000000000E+00  0.00000000000E+00  0.62892060766E+03  0.64122191439E+03  0.12499765103E+03 0.  0.
    9000005    1    3    3    0    0 -0.37966653294E+02 -0.15643772529E+02  0.55610442384E+03  0.55761933664E+03  0.10000000000E+01 0.  0.
    9000005    1    3    3    0    0  0.37966653294E+02  0.15643772529E+02  0.72816183817E+02  0.83602577753E+02  0.10000000000E+01 0.  0.
<mgrwt>
<rscale>  0 0.12499765E+03</rscale>
<asrwt>0</asrwt>
<pdfrwt beam="1">  1        4 0.97703219E-01 0.12499765E+03</pdfrwt>
<pdfrwt beam="2">  1       -4 0.94625487E-03 0.12499765E+03</pdfrwt>
<totfact> 0.46367162E+03</totfact>
</mgrwt>
</event>
<event>
 5    1  0.3401591E-002  0.1249961E+03  0.7818608E-02  0.1235075E+00
         -4   -1    0    0    0  501 -0.00000000000E+00  0.00000000000E+00  0.12372175519E+03  0.12372827328E+03  0.12700000000E+01 0.  1.
          4   -1    0    0  501    0  0.00000000000E+00 -0.00000000000E+00 -0.31550777971E+02  0.31576328010E+02  0.12700000000E+01 0.  1.
         25    2    1    2    0    0  0.00000000000E+00  0.00000000000E+00  0.92170977221E+02  0.15530460129E+03  0.12499612050E+03 0.  0.
    9000005    1    3    3    0    0  0.14278049045E+02  0.22827052176E+02  0.11615130161E+03  0.11923532137E+03  0.10000000000E+01 0.  0.
    9000005    1    3    3    0    0 -0.14278049045E+02 -0.22827052176E+02 -0.23980324394E+02  0.36069279915E+02  0.10000000000E+01 0.  0.
<mgrwt>
<rscale>  0 0.12499612E+03</rscale>
<asrwt>0</asrwt>
<pdfrwt beam="2">  1        4 0.48564326E-02 0.12499612E+03</pdfrwt>
<pdfrwt beam="1">  1       -4 0.19036583E-01 0.12499612E+03</pdfrwt>
<totfact> 0.98264308E+03</totfact>
</mgrwt>
</event>
<event>
 5    1  0.3401591E-002  0.1250010E+03  0.7818608E-02  0.1235068E+00
          4   -1    0    0  501    0  0.00000000000E+00  0.00000000000E+00  0.14582945536E+02  0.14638141976E+02  0.12700000000E+01 0.  1.
         -4   -1    0    0    0  501 -0.00000000000E+00 -0.00000000000E+00 -0.26730572648E+03  0.26730874342E+03  0.12700000000E+01 0.  1.
         25    2    1    2    0    0  0.00000000000E+00  0.00000000000E+00 -0.25272278094E+03  0.28194688539E+03  0.12500096870E+03 0.  0.
    9000005    1    3    3    0    0  0.15221870975E+02  0.32940313732E+02 -0.11603794930E+02  0.38110598021E+02  0.10000000000E+01 0.  0.
    9000005    1    3    3    0    0 -0.15221870975E+02 -0.32940313732E+02 -0.24111898601E+03  0.24383628737E+03  0.10000000000E+01 0.  0.
<mgrwt>
<rscale>  0 0.12500097E+03</rscale>
<asrwt>0</asrwt>
<pdfrwt beam="1">  1        4 0.22480082E-02 0.12500097E+03</pdfrwt>
<pdfrwt beam="2">  1       -4 0.41128432E-01 0.12500097E+03</pdfrwt>
<totfact> 0.77918993E+03</totfact>
</mgrwt>
</event>
<event>
 5    1  0.3401591E-002  0.1249982E+03  0.7818608E-02  0.1235072E+00
         -4   -1    0    0    0  501 -0.00000000000E+00  0.00000000000E+00  0.54653251508E+02  0.54668005272E+02  0.12700000000E+01 0. -1.
          4   -1    0    0  501    0  0.00000000000E+00 -0.00000000000E+00 -0.71441240235E+02  0.71452527641E+02  0.12700000000E+01 0. -1.
         25    2    1    2    0    0  0.00000000000E+00  0.00000000000E+00 -0.16787988726E+02  0.12612053291E+03  0.12499820901E+03 0.  0.
    9000005    1    3    3    0    0 -0.68240091492E+00 -0.22534347184E+02  0.50412031059E+02  0.55232556971E+02  0.10000000000E+01 0.  0.
    9000005    1    3    3    0    0  0.68240091492E+00  0.22534347184E+02 -0.67200019785E+02  0.70887975942E+02  0.10000000000E+01 0.  0.
<mgrwt>
<rscale>  0 0.12499821E+03</rscale>
<asrwt>0</asrwt>
<pdfrwt beam="2">  1        4 0.10992963E-01 0.12499821E+03</pdfrwt>
<pdfrwt beam="1">  1       -4 0.84101957E-02 0.12499821E+03</pdfrwt>
<totfact> 0.10428739E+04</totfact>
</mgrwt>
</event>
<event>
 5    1  0.3401591E-002  0.1249915E+03  0.7818608E-02  0.1235083E+00
         -4   -1    0    0    0  501 -0.00000000000E+00  0.00000000000E+00  0.22127644848E+03  0.22128009299E+03  0.12700000000E+01 0.  1.
          4   -1    0    0  501    0  0.00000000000E+00 -0.00000000000E+00 -0.17624205490E+02  0.17669904334E+02  0.12700000000E+01 0.  1.
         25    2    1    2    0    0  0.00000000000E+00  0.00000000000E+00  0.20365224299E+03  0.23894999732E+03  0.12499146029E+03 0.  0.
    9000005    1    3    3    0    0  0.83452877080E+01  0.61494312189E+02  0.87840139435E+02  0.10755502942E+03  0.10000000000E+01 0.  0.
    9000005    1    3    3    0    0 -0.83452877080E+01 -0.61494312189E+02  0.11581210356E+03  0.13139496790E+03  0.10000000000E+01 0.  0.
<mgrwt>
<rscale>  0 0.12499146E+03</rscale>
<asrwt>0</asrwt>
<pdfrwt beam="2">  1        4 0.27152119E-02 0.12499146E+03</pdfrwt>
<pdfrwt beam="1">  1       -4 0.34046326E-01 0.12499146E+03</pdfrwt>
<totfact> 0.83969981E+03</totfact>
</mgrwt>
</event>
<event>
 5    1  0.3401591E-002  0.1250216E+03  0.7818608E-02  0.1235036E+00
          4   -1    0    0  501    0  0.00000000000E+00  0.00000000000E+00  0.80318460585E+01  0.81316327454E+01  0.12700000000E+01 0.  1.
         -4   -1    0    0    0  501 -0.00000000000E+00 -0.00000000000E+00 -0.48340883775E+03  0.48341050600E+03  0.12700000000E+01 0.  1.
         25    2    1    2    0    0  0.00000000000E+00  0.00000000000E+00 -0.47537699169E+03  0.49154213875E+03  0.12502155789E+03 0.  0.
    9000005    1    3    3    0    0 -0.57173252312E+02  0.80924701998E+01 -0.33174711188E+03  0.33673641783E+03  0.10000000000E+01 0.  0.
    9000005    1    3    3    0    0  0.57173252312E+02 -0.80924701998E+01 -0.14362987981E+03  0.15480572091E+03  0.10000000000E+01 0.  0.
<mgrwt>
<rscale>  0 0.12502156E+03</rscale>
<asrwt>0</asrwt>
<pdfrwt beam="1">  1        4 0.12434732E-02 0.12502156E+03</pdfrwt>
<pdfrwt beam="2">  1       -4 0.74378372E-01 0.12502156E+03</pdfrwt>
<totfact> 0.56499832E+03</totfact>
</mgrwt>
</event>
<event>
 5    1  0.3401591E-002  0.1250013E+03  0.7818608E-02  0.1235067E+00
         -4   -1    0    0    0  501 -0.00000000000E+00  0.00000000000E+00  0.43273866078E+02  0.43292498026E+02  0.12700000000E+01 0. -1.
          4   -1    0    0  501    0  0.00000000000E+00 -0.00000000000E+00 -0.90227517983E+02  0.90236455501E+02  0.12700000000E+01 0. -1.
         25    2    1    2    0    0  0.00000000000E+00  0.00000000000E+00 -0.46953651905E+02  0.13352895353E+03  0.12500134400E+03 0.  0.
    9000005    1    3    3    0    0  0.14894318850E+02  0.89899785442E+01  0.40640177713E+02  0.44218598946E+02  0.10000000000E+01 0.  0.
    9000005    1    3    3    0    0 -0.14894318850E+02 -0.89899785442E+01 -0.87593829618E+02  0.89310354581E+02  0.10000000000E+01 0.  0.
<mgrwt>
<rscale>  0 0.12500134E+03</rscale>
<asrwt>0</asrwt>
<pdfrwt beam="2">  1        4 0.13883277E-01 0.12500134E+03</pdfrwt>
<pdfrwt beam="1">  1       -4 0.66596386E-02 0.12500134E+03</pdfrwt>
<totfact> 0.10268859E+04</totfact>
</mgrwt>
</event>
<event>
 5    1  0.3401591E-002  0.1249941E+03  0.7818608E-02  0.1235078E+00
          4   -1    0    0  501    0  0.00000000000E+00  0.00000000000E+00  0.13777775200E+03  0.13778360514E+03  0.12700000000E+01 0. -1.
         -4   -1    0    0    0  501 -0.00000000000E+00 -0.00000000000E+00 -0.28328471484E+02  0.28356925020E+02  0.12700000000E+01 0. -1.
         25    2    1    2    0    0  0.00000000000E+00  0.00000000000E+00  0.10944928052E+03  0.16614053016E+03  0.12499412289E+03 0.  0.
    9000005    1    3    3    0    0  0.45084926041E+02  0.30325933793E+01  0.11209618785E+03  0.12086522456E+03  0.10000000000E+01 0.  0.
    9000005    1    3    3    0    0 -0.45084926041E+02 -0.30325933793E+01 -0.26469073314E+01  0.45275305600E+02  0.10000000000E+01 0.  0.
<mgrwt>
<rscale>  0 0.12499412E+03</rscale>
<asrwt>0</asrwt>
<pdfrwt beam="1">  1        4 0.21199216E-01 0.12499412E+03</pdfrwt>
<pdfrwt beam="2">  1       -4 0.43608654E-02 0.12499412E+03</pdfrwt>
<totfact> 0.96184526E+03</totfact>
</mgrwt>
</event>
<event>
 5    1  0.3401591E-002  0.1249936E+03  0.7818608E-02  0.1235079E+00
         -4   -1    0    0    0  501 -0.00000000000E+00  0.00000000000E+00  0.71796637913E+02  0.71807869454E+02  0.12700000000E+01 0. -1.
          4   -1    0    0  501    0  0.00000000000E+00 -0.00000000000E+00 -0.54378665328E+02  0.54393493571E+02  0.12700000000E+01 0. -1.
         25    2    1    2    0    0  0.00000000000E+00  0.00000000000E+00  0.17417972585E+02  0.12620136303E+03  0.12499359288E+03 0.  0.
    9000005    1    3    3    0    0 -0.28348573460E+02  0.33293366487E+02 -0.36362695043E+02  0.56880009319E+02  0.10000000000E+01 0.  0.
    9000005    1    3    3    0    0  0.28348573460E+02 -0.33293366487E+02  0.53780667628E+02  0.69321353707E+02  0.10000000000E+01 0.  0.
<mgrwt>
<rscale>  0 0.12499359E+03</rscale>
<asrwt>0</asrwt>
<pdfrwt beam="2">  1        4 0.83679532E-02 0.12499359E+03</pdfrwt>
<pdfrwt beam="1">  1       -4 0.11047641E-01 0.12499359E+03</pdfrwt>
<totfact> 0.10428057E+04</totfact>
</mgrwt>
</event>
<event>
 5    1  0.3401591E-002  0.1249998E+03  0.7818608E-02  0.1235070E+00
         -4   -1    0    0    0  501 -0.00000000000E+00  0.00000000000E+00  0.12631625224E+04  0.12631631608E+04  0.12700000000E+01 0. -1.
          4   -1    0    0  501    0  0.00000000000E+00 -0.00000000000E+00 -0.29613696584E+01  0.32222058056E+01  0.12700000000E+01 0. -1.
         25    2    1    2    0    0  0.00000000000E+00  0.00000000000E+00  0.12602011527E+04  0.12663853666E+04  0.12499980590E+03 0.  0.
    9000005    1    3    3    0    0 -0.20586800143E+02  0.32481444162E+01  0.33236024466E+02  0.39242835073E+02  0.10000000000E+01 0.  0.
    9000005    1    3    3    0    0  0.20586800143E+02 -0.32481444162E+01  0.12269651283E+04  0.12271425316E+04  0.10000000000E+01 0.  0.
<mgrwt>
<rscale>  0 0.12499981E+03</rscale>
<asrwt>0</asrwt>
<pdfrwt beam="2">  1        4 0.47570945E-03 0.12499981E+03</pdfrwt>
<pdfrwt beam="1">  1       -4 0.19435253E+00 0.12499981E+03</pdfrwt>
<totfact> 0.23036187E+03</totfact>
</mgrwt>
</event>
<event>
 5    1  0.3401591E-002  0.1249945E+03  0.7818608E-02  0.1235078E+00
          4   -1    0    0  501    0  0.00000000000E+00  0.00000000000E+00  0.91711211178E+02  0.91720004120E+02  0.12700000000E+01 0. -1.
         -4   -1    0    0    0  501 -0.00000000000E+00 -0.00000000000E+00 -0.42568902728E+02  0.42587843095E+02  0.12700000000E+01 0. -1.
         25    2    1    2    0    0  0.00000000000E+00  0.00000000000E+00  0.49142308450E+02  0.13430784722E+03  0.12499452526E+03 0.  0.
    9000005    1    3    3    0    0 -0.59841903537E+02  0.17011198176E+02  0.18262257422E+02  0.64845542086E+02  0.10000000000E+01 0.  0.
    9000005    1    3    3    0    0  0.59841903537E+02 -0.17011198176E+02  0.30880051028E+02  0.69462305129E+02  0.10000000000E+01 0.  0.
<mgrwt>
<rscale>  0 0.12499453E+03</rscale>
<asrwt>0</asrwt>
<pdfrwt beam="1">  1        4 0.14111550E-01 0.12499453E+03</pdfrwt>
<pdfrwt beam="2">  1       -4 0.65511953E-02 0.12499453E+03</pdfrwt>
<totfact> 0.10253946E+04</totfact>
</mgrwt>
</event>
<event>
 5    1  0.3401591E-002  0.1249993E+03  0.7818608E-02  0.1235070E+00
          4   -1    0    0  501    0  0.00000000000E+00  0.00000000000E+00  0.47082108480E+03  0.47082279766E+03  0.12700000000E+01 0. -1.
         -4   -1    0    0    0  501 -0.00000000000E+00 -0.00000000000E+00 -0.82462463574E+01  0.83434692417E+01  0.12700000000E+01 0. -1.
         25    2    1    2    0    0  0.00000000000E+00  0.00000000000E+00  0.46257483845E+03  0.47916626690E+03  0.12499932069E+03 0.  0.
    9000005    1    3    3    0    0  0.12863221668E+02 -0.24585761348E+02  0.16644224229E+02  0.32372091884E+02  0.10000000000E+01 0.  0.
    9000005    1    3    3    0    0 -0.12863221668E+02  0.24585761348E+02  0.44593061422E+03  0.44679417502E+03  0.10000000000E+01 0.  0.
<mgrwt>
<rscale>  0 0.12499932E+03</rscale>
<asrwt>0</asrwt>
<pdfrwt beam="1">  1        4 0.72441644E-01 0.12499932E+03</pdfrwt>
<pdfrwt beam="2">  1       -4 0.12762634E-02 0.12499932E+03</pdfrwt>
<totfact> 0.57518680E+03</totfact>
</mgrwt>
</event>
<event>
 5    1  0.3401591E-002  0.1249757E+03  0.7818608E-02  0.1235107E+00
          4   -1    0    0  501    0  0.00000000000E+00  0.00000000000E+00  0.47686750047E+02  0.47703658455E+02  0.12700000000E+01 0.  1.
         -4   -1    0    0    0  501 -0.00000000000E+00 -0.00000000000E+00 -0.81846650173E+02  0.81856502763E+02  0.12700000000E+01 0.  1.
         25    2    1    2    0    0  0.00000000000E+00  0.00000000000E+00 -0.34159900126E+02  0.12956016122E+03  0.12497574404E+03 0.  0.
    9000005    1    3    3    0    0  0.58074406050E+02  0.73904272453E+01 -0.39709070566E+02  0.70746486401E+02  0.10000000000E+01 0.  0.
    9000005    1    3    3    0    0 -0.58074406050E+02 -0.73904272453E+01  0.55491704399E+01  0.58813674817E+02  0.10000000000E+01 0.  0.
<mgrwt>
<rscale>  0 0.12497574E+03</rscale>
<asrwt>0</asrwt>
<pdfrwt beam="1">  1        4 0.73384816E-02 0.12497574E+03</pdfrwt>
<pdfrwt beam="2">  1       -4 0.12593851E-01 0.12497574E+03</pdfrwt>
<totfact> 0.10359597E+04</totfact>
</mgrwt>
</event>
<event>
 5    1  0.3401591E-002  0.1250319E+03  0.7818608E-02  0.1235019E+00
          4   -1    0    0  501    0  0.00000000000E+00  0.00000000000E+00  0.16837948493E+02  0.16885775358E+02  0.12700000000E+01 0. -1.
         -4   -1    0    0    0  501 -0.00000000000E+00 -0.00000000000E+00 -0.23173065667E+03  0.23173413676E+03  0.12700000000E+01 0. -1.
         25    2    1    2    0    0  0.00000000000E+00  0.00000000000E+00 -0.21489270818E+03  0.24861991212E+03  0.12503193462E+03 0.  0.
    9000005    1    3    3    0    0 -0.19779549522E+02 -0.14366256882E+02  0.69479587714E+01  0.25434111881E+02  0.10000000000E+01 0.  0.
    9000005    1    3    3    0    0  0.19779549522E+02  0.14366256882E+02 -0.22184066695E+03  0.22318580024E+03  0.10000000000E+01 0.  0.
<mgrwt>
<rscale>  0 0.12503193E+03</rscale>
<asrwt>0</asrwt>
<pdfrwt beam="1">  1        4 0.25944005E-02 0.12503193E+03</pdfrwt>
<pdfrwt beam="2">  1       -4 0.35654815E-01 0.12503193E+03</pdfrwt>
<totfact> 0.82471415E+03</totfact>
</mgrwt>
</event>
<event>
 5    1  0.3401591E-002  0.1249994E+03  0.7818608E-02  0.1235070E+00
          4   -1    0    0  501    0  0.00000000000E+00  0.00000000000E+00  0.13724733126E+02  0.13783366765E+02  0.12700000000E+01 0. -1.
         -4   -1    0    0    0  501 -0.00000000000E+00 -0.00000000000E+00 -0.28394460915E+03  0.28394744930E+03  0.12700000000E+01 0. -1.
         25    2    1    2    0    0  0.00000000000E+00  0.00000000000E+00 -0.27021987602E+03  0.29773081607E+03  0.12499942975E+03 0.  0.
    9000005    1    3    3    0    0 -0.43207251501E+02 -0.30041178822E+02 -0.54834793902E+02  0.76007852421E+02  0.10000000000E+01 0.  0.
    9000005    1    3    3    0    0  0.43207251501E+02  0.30041178822E+02 -0.21538508212E+03  0.22172296365E+03  0.10000000000E+01 0.  0.
<mgrwt>
<rscale>  0 0.12499943E+03</rscale>
<asrwt>0</asrwt>
<pdfrwt beam="1">  1        4 0.21162264E-02 0.12499943E+03</pdfrwt>
<pdfrwt beam="2">  1       -4 0.43688510E-01 0.12499943E+03</pdfrwt>
<totfact> 0.75885328E+03</totfact>
</mgrwt>
</event>
<event>
 5    1  0.3401591E-002  0.1250028E+03  0.7818608E-02  0.1235065E+00
          4   -1    0    0  501    0  0.00000000000E+00  0.00000000000E+00  0.11410142136E+03  0.11410848897E+03  0.12700000000E+01 0. -1.
         -4   -1    0    0    0  501 -0.00000000000E+00 -0.00000000000E+00 -0.34216508593E+02  0.34240069513E+02  0.12700000000E+01 0. -1.
         25    2    1    2    0    0  0.00000000000E+00  0.00000000000E+00  0.79884912762E+02  0.14834855848E+03  0.12500278204E+03 0.  0.
    9000005    1    3    3    0    0  0.26798676878E+02 -0.30312658128E+02  0.96465200351E+02  0.10461147740E+03  0.10000000000E+01 0.  0.
    9000005    1    3    3    0    0 -0.26798676878E+02  0.30312658128E+02 -0.16580287589E+02  0.43737081084E+02  0.10000000000E+01 0.  0.
<mgrwt>
<rscale>  0 0.12500278E+03</rscale>
<asrwt>0</asrwt>
<pdfrwt beam="1">  1        4 0.17556421E-01 0.12500278E+03</pdfrwt>
<pdfrwt beam="2">  1       -4 0.52664343E-02 0.12500278E+03</pdfrwt>
<totfact> 0.99627673E+03</totfact>
</mgrwt>
</event>
<event>
 5    1  0.3401591E-002  0.1250022E+03  0.7818608E-02  0.1235066E+00
         -4   -1    0    0    0  501 -0.00000000000E+00  0.00000000000E+00  0.36668714941E+01  0.38805729672E+01  0.12700000000E+01 0.  1.
          4   -1    0    0  501    0  0.00000000000E+00 -0.00000000000E+00 -0.10349416046E+04  0.10349423838E+04  0.12700000000E+01 0.  1.
         25    2    1    2    0    0  0.00000000000E+00  0.00000000000E+00 -0.10312747331E+04  0.10388229568E+04  0.12500224162E+03 0.  0.
    9000005    1    3    3    0    0 -0.64895118232E+01 -0.56618069451E+02 -0.30251553738E+03  0.30783822035E+03  0.10000000000E+01 0.  0.
    9000005    1    3    3    0    0  0.64895118232E+01  0.56618069451E+02 -0.72875919571E+03  0.73098473643E+03  0.10000000000E+01 0.  0.
<mgrwt>
<rscale>  0 0.12500224E+03</rscale>
<asrwt>0</asrwt>
<pdfrwt beam="2">  1        4 0.15923806E+00 0.12500224E+03</pdfrwt>
<pdfrwt beam="1">  1       -4 0.58063341E-03 0.12500224E+03</pdfrwt>
<totfact> 0.29344951E+03</totfact>
</mgrwt>
</event>
<event>
 5    1  0.3401591E-002  0.1249865E+03  0.7818608E-02  0.1235090E+00
          4   -1    0    0  501    0  0.00000000000E+00  0.00000000000E+00  0.46120378852E+02  0.46137861301E+02  0.12700000000E+01 0.  1.
         -4   -1    0    0    0  501 -0.00000000000E+00 -0.00000000000E+00 -0.84640214962E+02  0.84649742402E+02  0.12700000000E+01 0.  1.
         25    2    1    2    0    0  0.00000000000E+00  0.00000000000E+00 -0.38519836109E+02  0.13078760370E+03  0.12498647730E+03 0.  0.
    9000005    1    3    3    0    0  0.27156063681E+01 -0.57865592962E+02 -0.43769327441E+02  0.72612363902E+02  0.10000000000E+01 0.  0.
    9000005    1    3    3    0    0 -0.27156063681E+01  0.57865592962E+02  0.52494913313E+01  0.58175239802E+02  0.10000000000E+01 0.  0.
<mgrwt>
<rscale>  0 0.12498648E+03</rscale>
<asrwt>0</asrwt>
<pdfrwt beam="1">  1        4 0.70975206E-02 0.12498648E+03</pdfrwt>
<pdfrwt beam="2">  1       -4 0.13023649E-01 0.12498648E+03</pdfrwt>
<totfact> 0.10330796E+04</totfact>
</mgrwt>
</event>
<event>
 5    1  0.3401591E-002  0.1250001E+03  0.7818608E-02  0.1235069E+00
          4   -1    0    0  501    0  0.00000000000E+00  0.00000000000E+00  0.28093402879E+02  0.28122094256E+02  0.12700000000E+01 0.  1.
         -4   -1    0    0    0  501 -0.00000000000E+00 -0.00000000000E+00 -0.13894279098E+03  0.13894859504E+03  0.12700000000E+01 0.  1.
         25    2    1    2    0    0  0.00000000000E+00  0.00000000000E+00 -0.11084938810E+03  0.16707068930E+03  0.12500011352E+03 0.  0.
    9000005    1    3    3    0    0 -0.43321978779E+02 -0.27482629271E+02 -0.10311529246E+03  0.11517748173E+03  0.10000000000E+01 0.  0.
    9000005    1    3    3    0    0  0.43321978779E+02  0.27482629271E+02 -0.77340956337E+01  0.51893207573E+02  0.10000000000E+01 0.  0.
<mgrwt>
<rscale>  0 0.12500011E+03</rscale>
<asrwt>0</asrwt>
<pdfrwt beam="1">  1        4 0.43247156E-02 0.12500011E+03</pdfrwt>
<pdfrwt beam="2">  1       -4 0.21378467E-01 0.12500011E+03</pdfrwt>
<totfact> 0.95996423E+03</totfact>
</mgrwt>
</event>
<event>
 5    1  0.3401591E-002  0.1249968E+03  0.7818608E-02  0.1235074E+00
          4   -1    0    0  501    0  0.00000000000E+00  0.00000000000E+00  0.54595184495E+01  0.56052869418E+01  0.12700000000E+01 0. -1.
         -4   -1    0    0    0  501 -0.00000000000E+00 -0.00000000000E+00 -0.70588462974E+03  0.70588577221E+03  0.12700000000E+01 0. -1.
         25    2    1    2    0    0  0.00000000000E+00  0.00000000000E+00 -0.70042511129E+03  0.71149105915E+03  0.12499676284E+03 0.  0.
    9000005    1    3    3    0    0 -0.26163923345E+02 -0.13214422035E+02 -0.36069994904E+02  0.46488884337E+02  0.10000000000E+01 0.  0.
    9000005    1    3    3    0    0  0.26163923345E+02  0.13214422035E+02 -0.66435511639E+03  0.66500217481E+03  0.10000000000E+01 0.  0.
<mgrwt>
<rscale>  0 0.12499676E+03</rscale>
<asrwt>0</asrwt>
<pdfrwt beam="1">  1        4 0.85122732E-03 0.12499676E+03</pdfrwt>
<pdfrwt beam="2">  1       -4 0.10860886E+00 0.12499676E+03</pdfrwt>
<totfact> 0.42490035E+03</totfact>
</mgrwt>
</event>
<event>
 5    1  0.3401591E-002  0.1250001E+03  0.7818608E-02  0.1235069E+00
         -4   -1    0    0    0  501 -0.00000000000E+00  0.00000000000E+00  0.86545745227E+02  0.86555062919E+02  0.12700000000E+01 0.  1.
          4   -1    0    0  501    0  0.00000000000E+00 -0.00000000000E+00 -0.45114467971E+02  0.45132340071E+02  0.12700000000E+01 0.  1.
         25    2    1    2    0    0  0.00000000000E+00  0.00000000000E+00  0.41431277257E+02  0.13168740299E+03  0.12500008548E+03 0.  0.
    9000005    1    3    3    0    0 -0.23881447728E+01 -0.58630661775E+02 -0.19283947355E+01  0.58719472425E+02  0.10000000000E+01 0.  0.
    9000005    1    3    3    0    0  0.23881447728E+01  0.58630661775E+02  0.43359671992E+02  0.72967930565E+02  0.10000000000E+01 0.  0.
<mgrwt>
<rscale>  0 0.12500009E+03</rscale>
<asrwt>0</asrwt>
<pdfrwt beam="2">  1        4 0.69427790E-02 0.12500009E+03</pdfrwt>
<pdfrwt beam="1">  1       -4 0.13316821E-01 0.12500009E+03</pdfrwt>
<totfact> 0.10308355E+04</totfact>
</mgrwt>
</event>
<event>
 5    1  0.3401591E-002  0.1249981E+03  0.7818608E-02  0.1235072E+00
          4   -1    0    0  501    0  0.00000000000E+00  0.00000000000E+00  0.48146980999E+02  0.48163727839E+02  0.12700000000E+01 0. -1.
         -4   -1    0    0    0  501 -0.00000000000E+00 -0.00000000000E+00 -0.81093511059E+02  0.81103455141E+02  0.12700000000E+01 0. -1.
         25    2    1    2    0    0  0.00000000000E+00  0.00000000000E+00 -0.32946530059E+02  0.12926718298E+03  0.12499812300E+03 0.  0.
    9000005    1    3    3    0    0 -0.66477375501E+01  0.24845880124E+02  0.42424653399E+02  0.49622186466E+02  0.10000000000E+01 0.  0.
    9000005    1    3    3    0    0  0.66477375501E+01 -0.24845880124E+02 -0.75371183459E+02  0.79644996513E+02  0.10000000000E+01 0.  0.
<mgrwt>
<rscale>  0 0.12499812E+03</rscale>
<asrwt>0</asrwt>
<pdfrwt beam="1">  1        4 0.74092810E-02 0.12499812E+03</pdfrwt>
<pdfrwt beam="2">  1       -4 0.12477978E-01 0.12499812E+03</pdfrwt>
<totfact> 0.10360648E+04</totfact>
</mgrwt>
</event>
<event>
 5    1  0.3401591E-002  0.1249985E+03  0.7818608E-02  0.1235072E+00
         -4   -1    0    0    0  501 -0.00000000000E+00  0.00000000000E+00  0.41514123769E+02  0.41533545145E+02  0.12700000000E+01 0.  1.
          4   -1    0    0  501    0  0.00000000000E+00 -0.00000000000E+00 -0.94046547271E+02  0.94055121889E+02  0.12700000000E+01 0.  1.
         25    2    1    2    0    0  0.00000000000E+00  0.00000000000E+00 -0.52532423501E+02  0.13558866703E+03  0.12499852443E+03 0.  0.
    9000005    1    3    3    0    0  0.77858889574E+01  0.48768840270E+02  0.15267994910E+02  0.51702335699E+02  0.10000000000E+01 0.  0.
    9000005    1    3    3    0    0 -0.77858889574E+01 -0.48768840270E+02 -0.67800418411E+02  0.83886331335E+02  0.10000000000E+01 0.  0.
<mgrwt>
<rscale>  0 0.12499852E+03</rscale>
<asrwt>0</asrwt>
<pdfrwt beam="2">  1        4 0.14470853E-01 0.12499852E+03</pdfrwt>
<pdfrwt beam="1">  1       -4 0.63889418E-02 0.12499852E+03</pdfrwt>
<totfact> 0.10226018E+04</totfact>
</mgrwt>
</event>
<event>
 5    1  0.3401591E-002  0.1250022E+03  0.7818608E-02  0.1235066E+00
         -4   -1    0    0    0  501 -0.00000000000E+00  0.00000000000E+00  0.14772391206E+03  0.14772937112E+03  0.12700000000E+01 0.  1.
          4   -1    0    0  501    0  0.00000000000E+00 -0.00000000000E+00 -0.26422660536E+02  0.26453164079E+02  0.12700000000E+01 0.  1.
         25    2    1    2    0    0  0.00000000000E+00  0.00000000000E+00  0.12130125152E+03  0.17418253520E+03  0.12500224778E+03 0.  0.
    9000005    1    3    3    0    0 -0.46040949627E+01  0.43129209539E+02 -0.20394672083E+01  0.43433694666E+02  0.10000000000E+01 0.  0.
    9000005    1    3    3    0    0  0.46040949627E+01 -0.43129209539E+02  0.12334071873E+03  0.13074884054E+03  0.10000000000E+01 0.  0.
<mgrwt>
<rscale>  0 0.12500225E+03</rscale>
<asrwt>0</asrwt>
<pdfrwt beam="2">  1        4 0.40677911E-02 0.12500225E+03</pdfrwt>
<pdfrwt beam="1">  1       -4 0.22729522E-01 0.12500225E+03</pdfrwt>
<totfact> 0.94669997E+03</totfact>
</mgrwt>
</event>
<event>
 5    1  0.3401591E-002  0.1249945E+03  0.7818608E-02  0.1235078E+00
          4   -1    0    0  501    0  0.00000000000E+00  0.00000000000E+00  0.43674121414E+01  0.45483171407E+01  0.12700000000E+01 0. -1.
         -4   -1    0    0    0  501 -0.00000000000E+00 -0.00000000000E+00 -0.87600228854E+03  0.87600320914E+03  0.12700000000E+01 0. -1.
         25    2    1    2    0    0  0.00000000000E+00  0.00000000000E+00 -0.87163487640E+03  0.88055152628E+03  0.12499453062E+03 0.  0.
    9000005    1    3    3    0    0 -0.46063661459E+02 -0.41237006155E+02 -0.37180864626E+03  0.37691513769E+03  0.10000000000E+01 0.  0.
    9000005    1    3    3    0    0  0.46063661459E+02  0.41237006155E+02 -0.49982623014E+03  0.50363638860E+03  0.10000000000E+01 0.  0.
<mgrwt>
<rscale>  0 0.12499453E+03</rscale>
<asrwt>0</asrwt>
<pdfrwt beam="1">  1        4 0.68589684E-03 0.12499453E+03</pdfrwt>
<pdfrwt beam="2">  1       -4 0.13478343E+00 0.12499453E+03</pdfrwt>
<totfact> 0.34912883E+03</totfact>
</mgrwt>
</event>
<event>
 5    1  0.3401591E-002  0.1250015E+03  0.7818608E-02  0.1235067E+00
          4   -1    0    0  501    0  0.00000000000E+00  0.00000000000E+00  0.47400475032E+01  0.49072344893E+01  0.12700000000E+01 0. -1.
         -4   -1    0    0    0  501 -0.00000000000E+00 -0.00000000000E+00 -0.80966530743E+03  0.80966630345E+03  0.12700000000E+01 0. -1.
         25    2    1    2    0    0  0.00000000000E+00  0.00000000000E+00 -0.80492525992E+03  0.81457353794E+03  0.12500149862E+03 0.  0.
    9000005    1    3    3    0    0  0.82023240962E+01 -0.51272753527E+02 -0.62906205920E+03  0.63120222409E+03  0.10000000000E+01 0.  0.
    9000005    1    3    3    0    0 -0.82023240962E+01  0.51272753527E+02 -0.17586320072E+03  0.18337131385E+03  0.10000000000E+01 0.  0.
<mgrwt>
<rscale>  0 0.12500150E+03</rscale>
<asrwt>0</asrwt>
<pdfrwt beam="1">  1        4 0.74217587E-03 0.12500150E+03</pdfrwt>
<pdfrwt beam="2">  1       -4 0.12457672E+00 0.12500150E+03</pdfrwt>
<totfact> 0.37621148E+03</totfact>
</mgrwt>
</event>
<event>
 5    1  0.3401591E-002  0.1249979E+03  0.7818608E-02  0.1235073E+00
         -4   -1    0    0    0  501 -0.00000000000E+00  0.00000000000E+00  0.48835301816E+03  0.48835466952E+03  0.12700000000E+01 0.  1.
          4   -1    0    0  501    0  0.00000000000E+00 -0.00000000000E+00 -0.79464706747E+01  0.80473160857E+01  0.12700000000E+01 0.  1.
         25    2    1    2    0    0  0.00000000000E+00  0.00000000000E+00  0.48040654749E+03  0.49640198561E+03  0.12499792179E+03 0.  0.
    9000005    1    3    3    0    0  0.33839463596E+02  0.23670046888E+02  0.42646188631E+03  0.42845784028E+03  0.10000000000E+01 0.  0.
    9000005    1    3    3    0    0 -0.33839463596E+02 -0.23670046888E+02  0.53944661171E+02  0.67944145333E+02  0.10000000000E+01 0.  0.
<mgrwt>
<rscale>  0 0.12499792E+03</rscale>
<asrwt>0</asrwt>
<pdfrwt beam="2">  1        4 0.12304179E-02 0.12499792E+03</pdfrwt>
<pdfrwt beam="1">  1       -4 0.75139146E-01 0.12499792E+03</pdfrwt>
<totfact> 0.56147163E+03</totfact>
</mgrwt>
</event>
<event>
 5    1  0.3401591E-002  0.1249976E+03  0.7818608E-02  0.1235073E+00
         -4   -1    0    0    0  501 -0.00000000000E+00  0.00000000000E+00  0.27866293327E+02  0.27895218297E+02  0.12700000000E+01 0. -1.
          4   -1    0    0  501    0  0.00000000000E+00 -0.00000000000E+00 -0.14006838243E+03  0.14007413986E+03  0.12700000000E+01 0. -1.
         25    2    1    2    0    0  0.00000000000E+00  0.00000000000E+00 -0.11220208910E+03  0.16796935815E+03  0.12499758589E+03 0.  0.
    9000005    1    3    3    0    0  0.22070361434E+02  0.33093694056E+02  0.86631363013E+01  0.40722762316E+02  0.10000000000E+01 0.  0.
    9000005    1    3    3    0    0 -0.22070361434E+02 -0.33093694056E+02 -0.12086522540E+03  0.12724659584E+03  0.10000000000E+01 0.  0.
<mgrwt>
<rscale>  0 0.12499759E+03</rscale>
<asrwt>0</asrwt>
<pdfrwt beam="2">  1        4 0.21551649E-01 0.12499759E+03</pdfrwt>
<pdfrwt beam="1">  1       -4 0.42897900E-02 0.12499759E+03</pdfrwt>
<totfact> 0.95833175E+03</totfact>
</mgrwt>
</event>
<event>
 5    1  0.3401591E-002  0.1250018E+03  0.7818608E-02  0.1235066E+00
          4   -1    0    0  501    0  0.00000000000E+00  0.00000000000E+00  0.90788095437E+02  0.90796977775E+02  0.12700000000E+01 0.  1.
         -4   -1    0    0    0  501 -0.00000000000E+00 -0.00000000000E+00 -0.43006902441E+02  0.43025649996E+02  0.12700000000E+01 0.  1.
         25    2    1    2    0    0  0.00000000000E+00  0.00000000000E+00  0.47781192996E+02  0.13382262777E+03  0.12500181318E+03 0.  0.
    9000005    1    3    3    0    0 -0.16361336285E+02 -0.41743219280E+02  0.70496158026E+02  0.83551768248E+02  0.10000000000E+01 0.  0.
    9000005    1    3    3    0    0  0.16361336285E+02  0.41743219280E+02 -0.22714965030E+02  0.50270859523E+02  0.10000000000E+01 0.  0.
<mgrwt>
<rscale>  0 0.12500181E+03</rscale>
<asrwt>0</asrwt>
<pdfrwt beam="1">  1        4 0.13969525E-01 0.12500181E+03</pdfrwt>
<pdfrwt beam="2">  1       -4 0.66185720E-02 0.12500181E+03</pdfrwt>
<totfact> 0.10262527E+04</totfact>
</mgrwt>
</event>
<event>
 5    1  0.3401591E-002  0.1249888E+03  0.7818608E-02  0.1235087E+00
          4   -1    0    0  501    0  0.00000000000E+00  0.00000000000E+00  0.16120153629E+02  0.16170103680E+02  0.12700000000E+01 0.  1.
         -4   -1    0    0    0  501 -0.00000000000E+00 -0.00000000000E+00 -0.24185088836E+03  0.24185422283E+03  0.12700000000E+01 0.  1.
         25    2    1    2    0    0  0.00000000000E+00  0.00000000000E+00 -0.22573073473E+03  0.25802432651E+03  0.12498875337E+03 0.  0.
    9000005    1    3    3    0    0 -0.38095195920E+02  0.49232358770E+02 -0.10165709094E+03  0.11920668287E+03  0.10000000000E+01 0.  0.
    9000005    1    3    3    0    0  0.38095195920E+02 -0.49232358770E+02 -0.12407364380E+03  0.13881764364E+03  0.10000000000E+01 0.  0.
<mgrwt>
<rscale>  0 0.12498875E+03</rscale>
<asrwt>0</asrwt>
<pdfrwt beam="1">  1        4 0.24841226E-02 0.12498875E+03</pdfrwt>
<pdfrwt beam="2">  1       -4 0.37211925E-01 0.12498875E+03</pdfrwt>
<totfact> 0.81204452E+03</totfact>
</mgrwt>
</event>
<event>
 5    1  0.3401591E-002  0.1250014E+03  0.7818608E-02  0.1235067E+00
          4   -1    0    0  501    0  0.00000000000E+00  0.00000000000E+00  0.12767050200E+03  0.12767681849E+03  0.12700000000E+01 0.  1.
         -4   -1    0    0    0  501 -0.00000000000E+00 -0.00000000000E+00 -0.30576746211E+02  0.30603109464E+02  0.12700000000E+01 0.  1.
         25    2    1    2    0    0  0.00000000000E+00  0.00000000000E+00  0.97093755785E+02  0.15827992795E+03  0.12500135272E+03 0.  0.
    9000005    1    3    3    0    0  0.50083959543E+02 -0.25062946578E+02  0.13438380691E+02  0.57603336451E+02  0.10000000000E+01 0.  0.
    9000005    1    3    3    0    0 -0.50083959543E+02  0.25062946578E+02  0.83655375093E+02  0.10067659150E+03  0.10000000000E+01 0.  0.
<mgrwt>
<rscale>  0 0.12500135E+03</rscale>
<asrwt>0</asrwt>
<pdfrwt beam="1">  1        4 0.19644130E-01 0.12500135E+03</pdfrwt>
<pdfrwt beam="2">  1       -4 0.47066286E-02 0.12500135E+03</pdfrwt>
<totfact> 0.97672459E+03</totfact>
</mgrwt>
</event>
<event>
 5    1  0.3401591E-002  0.1250014E+03  0.7818608E-02  0.1235067E+00
         -4   -1    0    0    0  501 -0.00000000000E+00  0.00000000000E+00  0.14033983197E+02  0.14091330114E+02  0.12700000000E+01 0.  1.
          4   -1    0    0  501    0  0.00000000000E+00 -0.00000000000E+00 -0.27772231297E+03  0.27772521676E+03  0.12700000000E+01 0.  1.
         25    2    1    2    0    0  0.00000000000E+00  0.00000000000E+00 -0.26368832977E+03  0.29181654687E+03  0.12500144706E+03 0.  0.
    9000005    1    3    3    0    0 -0.52270951698E+01 -0.48445047139E+02 -0.22319152243E+03  0.22845065288E+03  0.10000000000E+01 0.  0.
    9000005    1    3    3    0    0  0.52270951698E+01  0.48445047139E+02 -0.40496807344E+02  0.63365893991E+02  0.10000000000E+01 0.  0.
<mgrwt>
<rscale>  0 0.12500145E+03</rscale>
<asrwt>0</asrwt>
<pdfrwt beam="2">  1        4 0.42731140E-01 0.12500145E+03</pdfrwt>
<pdfrwt beam="1">  1       -4 0.21637092E-02 0.12500145E+03</pdfrwt>
<totfact> 0.76634496E+03</totfact>
</mgrwt>
</event>
<event>
 5    1  0.3401591E-002  0.1250071E+03  0.7818608E-02  0.1235058E+00
         -4   -1    0    0    0  501 -0.00000000000E+00  0.00000000000E+00  0.19434742620E+03  0.19435157569E+03  0.12700000000E+01 0. -1.
          4   -1    0    0  501    0  0.00000000000E+00 -0.00000000000E+00 -0.20077183028E+02  0.20117310415E+02  0.12700000000E+01 0. -1.
         25    2    1    2    0    0  0.00000000000E+00  0.00000000000E+00  0.17427024318E+03  0.21446888610E+03  0.12500714159E+03 0.  0.
    9000005    1    3    3    0    0 -0.51794574023E+02  0.34784198210E+02  0.93339531077E+02  0.11227593867E+03  0.10000000000E+01 0.  0.
    9000005    1    3    3    0    0  0.51794574023E+02 -0.34784198210E+02  0.80930712101E+02  0.10219294743E+03  0.10000000000E+01 0.  0.
<mgrwt>
<rscale>  0 0.12500714E+03</rscale>
<asrwt>0</asrwt>
<pdfrwt beam="2">  1        4 0.30922035E-02 0.12500714E+03</pdfrwt>
<pdfrwt beam="1">  1       -4 0.29903008E-01 0.12500714E+03</pdfrwt>
<totfact> 0.87737212E+03</totfact>
</mgrwt>
</event>
<event>
 5    1  0.3401591E-002  0.1250059E+03  0.7818608E-02  0.1235060E+00
         -4   -1    0    0    0  501 -0.00000000000E+00  0.00000000000E+00  0.48229249868E+02  0.48245968151E+02  0.12700000000E+01 0. -1.
          4   -1    0    0  501    0  0.00000000000E+00 -0.00000000000E+00 -0.80965286777E+02  0.80975246605E+02  0.12700000000E+01 0. -1.
         25    2    1    2    0    0  0.00000000000E+00  0.00000000000E+00 -0.32736036908E+02  0.12922121476E+03  0.12500589678E+03 0.  0.
    9000005    1    3    3    0    0  0.31062497437E+02  0.45820869327E+02  0.13613235129E+02  0.57015357437E+02  0.10000000000E+01 0.  0.
    9000005    1    3    3    0    0 -0.31062497437E+02 -0.45820869327E+02 -0.46349272038E+02  0.72205857320E+02  0.10000000000E+01 0.  0.
<mgrwt>
<rscale>  0 0.12500590E+03</rscale>
<asrwt>0</asrwt>
<pdfrwt beam="2">  1        4 0.12458250E-01 0.12500590E+03</pdfrwt>
<pdfrwt beam="1">  1       -4 0.74219368E-02 0.12500590E+03</pdfrwt>
<totfact> 0.10359817E+04</totfact>
</mgrwt>
</event>
<event>
 5    1  0.3401591E-002  0.1250035E+03  0.7818608E-02  0.1235064E+00
         -4   -1    0    0    0  501 -0.00000000000E+00  0.00000000000E+00  0.50314947490E+01  0.51893004740E+01  0.12700000000E+01 0. -1.
          4   -1    0    0  501    0  0.00000000000E+00 -0.00000000000E+00 -0.76425798486E+03  0.76425904007E+03  0.12700000000E+01 0. -1.
         25    2    1    2    0    0  0.00000000000E+00  0.00000000000E+00 -0.75922649012E+03  0.76944834054E+03  0.12500354184E+03 0.  0.
    9000005    1    3    3    0    0 -0.29564077494E+02 -0.49756496213E+02 -0.23450629952E+03  0.24154491944E+03  0.10000000000E+01 0.  0.
    9000005    1    3    3    0    0  0.29564077494E+02  0.49756496213E+02 -0.52472019059E+03  0.52790342110E+03  0.10000000000E+01 0.  0.
<mgrwt>
<rscale>  0 0.12500354E+03</rscale>
<asrwt>0</asrwt>
<pdfrwt beam="2">  1        4 0.11759028E+00 0.12500354E+03</pdfrwt>
<pdfrwt beam="1">  1       -4 0.78629679E-03 0.12500354E+03</pdfrwt>
<totfact> 0.39657697E+03</totfact>
</mgrwt>
</event>
<event>
 5    1  0.3401591E-002  0.1250091E+03  0.7818608E-02  0.1235055E+00
         -4   -1    0    0    0  501 -0.00000000000E+00  0.00000000000E+00  0.95980438782E+03  0.95980522804E+03  0.12700000000E+01 0. -1.
          4   -1    0    0  501    0  0.00000000000E+00 -0.00000000000E+00 -0.39705072339E+01  0.41686721741E+01  0.12700000000E+01 0. -1.
         25    2    1    2    0    0  0.00000000000E+00  0.00000000000E+00  0.95583388058E+03  0.96397390021E+03  0.12500909176E+03 0.  0.
    9000005    1    3    3    0    0 -0.62045164867E+02  0.29471300791E+01  0.53107981806E+03  0.53470090818E+03  0.10000000000E+01 0.  0.
    9000005    1    3    3    0    0  0.62045164867E+02 -0.29471300791E+01  0.42475406252E+03  0.42927299203E+03  0.10000000000E+01 0.  0.
<mgrwt>
<rscale>  0 0.12500909E+03</rscale>
<asrwt>0</asrwt>
<pdfrwt beam="2">  1        4 0.62615563E-03 0.12500909E+03</pdfrwt>
<pdfrwt beam="1">  1       -4 0.14767746E+00 0.12500909E+03</pdfrwt>
<totfact> 0.31818682E+03</totfact>
</mgrwt>
</event>
<event>
 5    1  0.3401591E-002  0.1250031E+03  0.7818608E-02  0.1235064E+00
         -4   -1    0    0    0  501 -0.00000000000E+00  0.00000000000E+00  0.60758901312E+03  0.60759034041E+03  0.12700000000E+01 0. -1.
          4   -1    0    0  501    0  0.00000000000E+00 -0.00000000000E+00 -0.63653521648E+01  0.64908095167E+01  0.12700000000E+01 0. -1.
         25    2    1    2    0    0  0.00000000000E+00  0.00000000000E+00  0.60122366096E+03  0.61408114993E+03  0.12500307279E+03 0.  0.
    9000005    1    3    3    0    0  0.59105937741E+02  0.17347267467E+02  0.35236910898E+03  0.35771417156E+03  0.10000000000E+01 0.  0.
    9000005    1    3    3    0    0 -0.59105937741E+02 -0.17347267467E+02  0.24885455197E+03  0.25636697838E+03  0.10000000000E+01 0.  0.
<mgrwt>
<rscale>  0 0.12500307E+03</rscale>
<asrwt>0</asrwt>
<pdfrwt beam="2">  1        4 0.98903766E-03 0.12500307E+03</pdfrwt>
<pdfrwt beam="1">  1       -4 0.93484981E-01 0.12500307E+03</pdfrwt>
<totfact> 0.47987431E+03</totfact>
</mgrwt>
</event>
<event>
 5    1  0.3401591E-002  0.1250047E+03  0.7818608E-02  0.1235062E+00
          4   -1    0    0  501    0  0.00000000000E+00  0.00000000000E+00  0.15545906583E+02  0.15597695711E+02  0.12700000000E+01 0.  1.
         -4   -1    0    0    0  501 -0.00000000000E+00 -0.00000000000E+00 -0.25081964285E+03  0.25082285809E+03  0.12700000000E+01 0.  1.
         25    2    1    2    0    0  0.00000000000E+00  0.00000000000E+00 -0.23527373627E+03  0.26642055380E+03  0.12500472195E+03 0.  0.
    9000005    1    3    3    0    0  0.57714558881E+02  0.18649418761E+02 -0.14973190945E+03  0.16155313625E+03  0.10000000000E+01 0.  0.
    9000005    1    3    3    0    0 -0.57714558881E+02 -0.18649418761E+02 -0.85541826824E+02  0.10486741755E+03  0.10000000000E+01 0.  0.
<mgrwt>
<rscale>  0 0.12500472E+03</rscale>
<asrwt>0</asrwt>
<pdfrwt beam="1">  1        4 0.23959092E-02 0.12500472E+03</pdfrwt>
<pdfrwt beam="2">  1       -4 0.38591866E-01 0.12500472E+03</pdfrwt>
<totfact> 0.80004982E+03</totfact>
</mgrwt>
</event>
<event>
 5    1  0.3401591E-002  0.1250022E+03  0.7818608E-02  0.1235066E+00
          4   -1    0    0  501    0  0.00000000000E+00  0.00000000000E+00  0.69317804215E+02  0.69329437335E+02  0.12700000000E+01 0. -1.
         -4   -1    0    0    0  501 -0.00000000000E+00 -0.00000000000E+00 -0.56331216067E+02  0.56345530466E+02  0.12700000000E+01 0. -1.
         25    2    1    2    0    0  0.00000000000E+00  0.00000000000E+00  0.12986588148E+02  0.12567496780E+03  0.12500218422E+03 0.  0.
    9000005    1    3    3    0    0 -0.40668665083E+02  0.47421242318E+02  0.48498793809E+01  0.62667662096E+02  0.10000000000E+01 0.  0.
    9000005    1    3    3    0    0  0.40668665083E+02 -0.47421242318E+02  0.81367087673E+01  0.63007305705E+02  0.10000000000E+01 0.  0.
<mgrwt>
<rscale>  0 0.12500218E+03</rscale>
<asrwt>0</asrwt>
<pdfrwt beam="1">  1        4 0.10666274E-01 0.12500218E+03</pdfrwt>
<pdfrwt beam="2">  1       -4 0.86683369E-02 0.12500218E+03</pdfrwt>
<totfact> 0.10437581E+04</totfact>
</mgrwt>
</event>
<event>
 5    1  0.3401591E-002  0.1250013E+03  0.7818608E-02  0.1235067E+00
          4   -1    0    0  501    0  0.00000000000E+00  0.00000000000E+00  0.25962268264E+02  0.25993312090E+02  0.12700000000E+01 0. -1.
         -4   -1    0    0    0  501 -0.00000000000E+00 -0.00000000000E+00 -0.15033817745E+03  0.15034354160E+03  0.12700000000E+01 0. -1.
         25    2    1    2    0    0  0.00000000000E+00  0.00000000000E+00 -0.12437590919E+03  0.17633685369E+03  0.12500127672E+03 0.  0.
    9000005    1    3    3    0    0  0.42082045132E+02 -0.38378185226E+02 -0.98471416627E+02  0.11376028972E+03  0.10000000000E+01 0.  0.
    9000005    1    3    3    0    0 -0.42082045132E+02  0.38378185226E+02 -0.25904492564E+02  0.62576563973E+02  0.10000000000E+01 0.  0.
<mgrwt>
<rscale>  0 0.12500128E+03</rscale>
<asrwt>0</asrwt>
<pdfrwt beam="1">  1        4 0.39969958E-02 0.12500128E+03</pdfrwt>
<pdfrwt beam="2">  1       -4 0.23131750E-01 0.12500128E+03</pdfrwt>
<totfact> 0.94277868E+03</totfact>
</mgrwt>
</event>
<event>
 5    1  0.3401591E-002  0.1250007E+03  0.7818608E-02  0.1235068E+00
          4   -1    0    0  501    0  0.00000000000E+00  0.00000000000E+00  0.23742322297E+02  0.23776264804E+02  0.12700000000E+01 0. -1.
         -4   -1    0    0    0  501 -0.00000000000E+00 -0.00000000000E+00 -0.16437482959E+03  0.16437973569E+03  0.12700000000E+01 0. -1.
         25    2    1    2    0    0  0.00000000000E+00  0.00000000000E+00 -0.14063250730E+03  0.18815600049E+03  0.12500071364E+03 0.  0.
    9000005    1    3    3    0    0  0.40271015046E+02 -0.40696497677E+02 -0.10801746886E+03  0.12225683276E+03  0.10000000000E+01 0.  0.
    9000005    1    3    3    0    0 -0.40271015046E+02  0.40696497677E+02 -0.32615038434E+02  0.65899167734E+02  0.10000000000E+01 0.  0.
<mgrwt>
<rscale>  0 0.12500071E+03</rscale>
<asrwt>0</asrwt>
<pdfrwt beam="1">  1        4 0.36556534E-02 0.12500071E+03</pdfrwt>
<pdfrwt beam="2">  1       -4 0.25291423E-01 0.12500071E+03</pdfrwt>
<totfact> 0.92167684E+03</totfact>
</mgrwt>
</event>
<event>
 5    1  0.3401591E-002  0.1250003E+03  0.7818608E-02  0.1235069E+00
         -4   -1    0    0    0  501 -0.00000000000E+00  0.00000000000E+00  0.68218262214E+01  0.69390354513E+01  0.12700000000E+01 0. -1.
          4   -1    0    0  501    0  0.00000000000E+00 -0.00000000000E+00 -0.56761818092E+03  0.56761960168E+03  0.12700000000E+01 0. -1.
         25    2    1    2    0    0  0.00000000000E+00  0.00000000000E+00 -0.56079635470E+03  0.57455863713E+03  0.12500030423E+03 0.  0.
    9000005    1    3    3    0    0  0.57393279900E+01 -0.53330095241E+02 -0.13300803513E+03  0.14341958149E+03  0.10000000000E+01 0.  0.
    9000005    1    3    3    0    0 -0.57393279900E+01  0.53330095241E+02 -0.42778831956E+03  0.43113905564E+03  0.10000000000E+01 0.  0.
<mgrwt>
<rscale>  0 0.12500030E+03</rscale>
<asrwt>0</asrwt>
<pdfrwt beam="2">  1        4 0.87334962E-01 0.12500030E+03</pdfrwt>
<pdfrwt beam="1">  1       -4 0.10586376E-02 0.12500030E+03</pdfrwt>
<totfact> 0.50513636E+03</totfact>
</mgrwt>
</event>
<event>
 5    1  0.3401591E-002  0.1250025E+03  0.7818608E-02  0.1235065E+00
          4   -1    0    0  501    0  0.00000000000E+00  0.00000000000E+00  0.11008682941E+03  0.11009415475E+03  0.12700000000E+01 0.  1.
         -4   -1    0    0    0  501 -0.00000000000E+00 -0.00000000000E+00 -0.35464922515E+02  0.35487654600E+02  0.12700000000E+01 0.  1.
         25    2    1    2    0    0  0.00000000000E+00  0.00000000000E+00  0.74621906893E+02  0.14558180935E+03  0.12500253687E+03 0.  0.
    9000005    1    3    3    0    0 -0.32225769515E+02 -0.46576715174E+02  0.68069511803E+02  0.88557038424E+02  0.10000000000E+01 0.  0.
    9000005    1    3    3    0    0  0.32225769515E+02  0.46576715174E+02  0.65523950895E+01  0.57024770922E+02  0.10000000000E+01 0.  0.
<mgrwt>
<rscale>  0 0.12500254E+03</rscale>
<asrwt>0</asrwt>
<pdfrwt beam="1">  1        4 0.16938747E-01 0.12500254E+03</pdfrwt>
<pdfrwt beam="2">  1       -4 0.54584541E-02 0.12500254E+03</pdfrwt>
<totfact> 0.10018608E+04</totfact>
</mgrwt>
</event>
<event>
 5    1  0.3401591E-002  0.1249955E+03  0.7818608E-02  0.1235076E+00
         -4   -1    0    0    0  501 -0.00000000000E+00  0.00000000000E+00  0.34553447014E+01  0.36813458144E+01  0.12700000000E+01 0. -1.
          4   -1    0    0  501    0  0.00000000000E+00 -0.00000000000E+00 -0.10943890728E+04  0.10943898097E+04  0.12700000000E+01 0. -1.
         25    2    1    2    0    0  0.00000000000E+00  0.00000000000E+00 -0.10909337281E+04  0.10980711555E+04  0.12499545375E+03 0.  0.
    9000005    1    3    3    0    0  0.15992637510E+02  0.59876954408E+02 -0.61571947218E+03  0.61883154618E+03  0.10000000000E+01 0.  0.
    9000005    1    3    3    0    0 -0.15992637510E+02 -0.59876954408E+02 -0.47521425593E+03  0.47923960934E+03  0.10000000000E+01 0.  0.
<mgrwt>
<rscale>  0 0.12499545E+03</rscale>
<asrwt>0</asrwt>
<pdfrwt beam="2">  1        4 0.16838472E+00 0.12499545E+03</pdfrwt>
<pdfrwt beam="1">  1       -4 0.54903375E-03 0.12499545E+03</pdfrwt>
<totfact> 0.27542689E+03</totfact>
</mgrwt>
</event>
<event>
 5    1  0.3401591E-002  0.1249999E+03  0.7818608E-02  0.1235069E+00
          4   -1    0    0  501    0  0.00000000000E+00  0.00000000000E+00  0.27350160389E+02  0.27379630627E+02  0.12700000000E+01 0. -1.
         -4   -1    0    0    0  501 -0.00000000000E+00 -0.00000000000E+00 -0.14271433912E+03  0.14271998981E+03  0.12700000000E+01 0. -1.
         25    2    1    2    0    0  0.00000000000E+00  0.00000000000E+00 -0.11536417873E+03  0.17009962043E+03  0.12499994855E+03 0.  0.
    9000005    1    3    3    0    0 -0.34357444344E+01  0.62277735243E+02 -0.62939443476E+02  0.88615428633E+02  0.10000000000E+01 0.  0.
    9000005    1    3    3    0    0  0.34357444344E+01 -0.62277735243E+02 -0.52424735256E+02  0.81484191801E+02  0.10000000000E+01 0.  0.
<mgrwt>
<rscale>  0 0.12499995E+03</rscale>
<asrwt>0</asrwt>
<pdfrwt beam="1">  1        4 0.42104187E-02 0.12499995E+03</pdfrwt>
<pdfrwt beam="2">  1       -4 0.21958753E-01 0.12499995E+03</pdfrwt>
<totfact> 0.95430182E+03</totfact>
</mgrwt>
</event>
<event>
 5    1  0.3401591E-002  0.1250036E+03  0.7818608E-02  0.1235064E+00
          4   -1    0    0  501    0  0.00000000000E+00  0.00000000000E+00  0.11649998978E+03  0.11650691189E+03  0.12700000000E+01 0. -1.
         -4   -1    0    0    0  501 -0.00000000000E+00 -0.00000000000E+00 -0.33512055260E+02  0.33536111100E+02  0.12700000000E+01 0. -1.
         25    2    1    2    0    0  0.00000000000E+00  0.00000000000E+00  0.82987934519E+02  0.15004302299E+03  0.12500364584E+03 0.  0.
    9000005    1    3    3    0    0 -0.33174329601E+02 -0.13405312637E+02 -0.20006381084E+02  0.41006021941E+02  0.10000000000E+01 0.  0.
    9000005    1    3    3    0    0  0.33174329601E+02  0.13405312637E+02  0.10299431560E+03  0.10903700105E+03  0.10000000000E+01 0.  0.
<mgrwt>
<rscale>  0 0.12500365E+03</rscale>
<asrwt>0</asrwt>
<pdfrwt beam="1">  1        4 0.17925458E-01 0.12500365E+03</pdfrwt>
<pdfrwt beam="2">  1       -4 0.51580837E-02 0.12500365E+03</pdfrwt>
<totfact> 0.99286976E+03</totfact>
</mgrwt>
</event>
<event>
 5    1  0.3401591E-002  0.1249977E+03  0.7818608E-02  0.1235073E+00
          4   -1    0    0  501    0  0.00000000000E+00  0.00000000000E+00  0.12681110262E+02  0.12744546185E+02  0.12700000000E+01 0.  1.
         -4   -1    0    0    0  501 -0.00000000000E+00 -0.00000000000E+00 -0.30719237821E+03  0.30719500342E+03  0.12700000000E+01 0.  1.
         25    2    1    2    0    0  0.00000000000E+00  0.00000000000E+00 -0.29451126794E+03  0.31993954961E+03  0.12499771381E+03 0.  0.
    9000005    1    3    3    0    0 -0.26761593220E+02 -0.20129051749E+02 -0.28230129177E+03  0.28428222057E+03  0.10000000000E+01 0.  0.
    9000005    1    3    3    0    0  0.26761593220E+02  0.20129051749E+02 -0.12209976173E+02  0.35657329039E+02  0.10000000000E+01 0.  0.
<mgrwt>
<rscale>  0 0.12499771E+03</rscale>
<asrwt>0</asrwt>
<pdfrwt beam="1">  1        4 0.19560219E-02 0.12499771E+03</pdfrwt>
<pdfrwt beam="2">  1       -4 0.47265442E-01 0.12499771E+03</pdfrwt>
<totfact> 0.73167026E+03</totfact>
</mgrwt>
</event>
<event>
 5    1  0.3401591E-002  0.1249996E+03  0.7818608E-02  0.1235070E+00
          4   -1    0    0  501    0  0.00000000000E+00  0.00000000000E+00  0.71471852504E+02  0.71483135077E+02  0.12700000000E+01 0.  1.
         -4   -1    0    0    0  501 -0.00000000000E+00 -0.00000000000E+00 -0.54631073194E+02  0.54645832946E+02  0.12700000000E+01 0.  1.
         25    2    1    2    0    0  0.00000000000E+00  0.00000000000E+00  0.16840779310E+02  0.12612896802E+03  0.12499961891E+03 0.  0.
    9000005    1    3    3    0    0 -0.47926992905E+02  0.40089201566E+02  0.94716521442E+01  0.63204848908E+02  0.10000000000E+01 0.  0.
    9000005    1    3    3    0    0  0.47926992905E+02 -0.40089201566E+02  0.73691271656E+01  0.62924119115E+02  0.10000000000E+01 0.  0.
<mgrwt>
<rscale>  0 0.12499962E+03</rscale>
<asrwt>0</asrwt>
<pdfrwt beam="1">  1        4 0.10997673E-01 0.12499962E+03</pdfrwt>
<pdfrwt beam="2">  1       -4 0.84067837E-02 0.12499962E+03</pdfrwt>
<totfact> 0.10428222E+04</totfact>
</mgrwt>
</event>
<event>
 5    1  0.3401591E-002  0.1249975E+03  0.7818608E-02  0.1235073E+00
          4   -1    0    0  501    0  0.00000000000E+00  0.00000000000E+00  0.39072661233E+02  0.39093295535E+02  0.12700000000E+01 0. -1.
         -4   -1    0    0    0  501 -0.00000000000E+00 -0.00000000000E+00 -0.99918953267E+02  0.99927023983E+02  0.12700000000E+01 0. -1.
         25    2    1    2    0    0  0.00000000000E+00  0.00000000000E+00 -0.60846292035E+02  0.13902031952E+03  0.12499751191E+03 0.  0.
    9000005    1    3    3    0    0  0.12336518286E+02 -0.55722109706E+02 -0.58733682388E+02  0.81901090593E+02  0.10000000000E+01 0.  0.
    9000005    1    3    3    0    0 -0.12336518286E+02  0.55722109706E+02 -0.21126096466E+01  0.57119228925E+02  0.10000000000E+01 0.  0.
<mgrwt>
<rscale>  0 0.12499751E+03</rscale>
<asrwt>0</asrwt>
<pdfrwt beam="1">  1        4 0.60133867E-02 0.12499751E+03</pdfrwt>
<pdfrwt beam="2">  1       -4 0.15374355E-01 0.12499751E+03</pdfrwt>
<totfact> 0.10154500E+04</totfact>
</mgrwt>
</event>
<event>
 5    1  0.3401591E-002  0.1250025E+03  0.7818608E-02  0.1235065E+00
          4   -1    0    0  501    0  0.00000000000E+00  0.00000000000E+00  0.48710110061E+02  0.48726663359E+02  0.12700000000E+01 0.  1.
         -4   -1    0    0    0  501 -0.00000000000E+00 -0.00000000000E+00 -0.80161774403E+02  0.80171834053E+02  0.12700000000E+01 0.  1.
         25    2    1    2    0    0  0.00000000000E+00  0.00000000000E+00 -0.31451664343E+02  0.12889849741E+03  0.12500246176E+03 0.  0.
    9000005    1    3    3    0    0 -0.22739651712E+02  0.26120743675E+02 -0.69366564409E+02  0.77537766721E+02  0.10000000000E+01 0.  0.
    9000005    1    3    3    0    0  0.22739651712E+02 -0.26120743675E+02  0.37914900066E+02  0.51360730692E+02  0.10000000000E+01 0.  0.
<mgrwt>
<rscale>  0 0.12500246E+03</rscale>
<asrwt>0</asrwt>
<pdfrwt beam="1">  1        4 0.74959103E-02 0.12500246E+03</pdfrwt>
<pdfrwt beam="2">  1       -4 0.12334628E-01 0.12500246E+03</pdfrwt>
<totfact> 0.10367552E+04</totfact>
</mgrwt>
</event>
<event>
 5    1  0.3401591E-002  0.1249975E+03  0.7818608E-02  0.1235073E+00
          4   -1    0    0  501    0  0.00000000000E+00  0.00000000000E+00  0.23418356930E+02  0.23452768308E+02  0.12700000000E+01 0.  1.
         -4   -1    0    0    0  501 -0.00000000000E+00 -0.00000000000E+00 -0.16663690473E+03  0.16664174422E+03  0.12700000000E+01 0.  1.
         25    2    1    2    0    0  0.00000000000E+00  0.00000000000E+00 -0.14321854780E+03  0.19009451253E+03  0.12499748502E+03 0.  0.
    9000005    1    3    3    0    0 -0.48263508503E+01 -0.63405391472E+01 -0.16586856972E+03  0.16606287520E+03  0.10000000000E+01 0.  0.
    9000005    1    3    3    0    0  0.48263508503E+01  0.63405391472E+01  0.22650021927E+02  0.24031637324E+02  0.10000000000E+01 0.  0.
<mgrwt>
<rscale>  0 0.12499749E+03</rscale>
<asrwt>0</asrwt>
<pdfrwt beam="1">  1        4 0.36058435E-02 0.12499749E+03</pdfrwt>
<pdfrwt beam="2">  1       -4 0.25639465E-01 0.12499749E+03</pdfrwt>
<totfact> 0.91836046E+03</totfact>
</mgrwt>
</event>
<event>
 5    1  0.3401591E-002  0.1250031E+03  0.7818608E-02  0.1235064E+00
         -4   -1    0    0    0  501 -0.00000000000E+00  0.00000000000E+00  0.14344059696E+04  0.14344065318E+04  0.12700000000E+01 0. -1.
          4   -1    0    0  501    0  0.00000000000E+00 -0.00000000000E+00 -0.25747342512E+01  0.28709156142E+01  0.12700000000E+01 0. -1.
         25    2    1    2    0    0  0.00000000000E+00  0.00000000000E+00  0.14318312354E+04  0.14372774475E+04  0.12500309748E+03 0.  0.
    9000005    1    3    3    0    0  0.15947671267E+02 -0.67226111478E+01  0.25472359940E+02  0.30811732188E+02  0.10000000000E+01 0.  0.
    9000005    1    3    3    0    0 -0.15947671267E+02  0.67226111478E+01  0.14063588754E+04  0.14064657153E+04  0.10000000000E+01 0.  0.
<mgrwt>
<rscale>  0 0.12500310E+03</rscale>
<asrwt>0</asrwt>
<pdfrwt beam="2">  1        4 0.41893865E-03 0.12500310E+03</pdfrwt>
<pdfrwt beam="1">  1       -4 0.22070106E+00 0.12500310E+03</pdfrwt>
<totfact> 0.19193487E+03</totfact>
</mgrwt>
</event>
<event>
 5    1  0.3401591E-002  0.1249992E+03  0.7818608E-02  0.1235071E+00
          4   -1    0    0  501    0  0.00000000000E+00  0.00000000000E+00  0.26721253229E+02  0.26751416302E+02  0.12700000000E+01 0. -1.
         -4   -1    0    0    0  501 -0.00000000000E+00 -0.00000000000E+00 -0.14606780643E+03  0.14607332740E+03  0.12700000000E+01 0. -1.
         25    2    1    2    0    0  0.00000000000E+00  0.00000000000E+00 -0.11934655320E+03  0.17282474370E+03  0.12499916909E+03 0.  0.
    9000005    1    3    3    0    0 -0.63134739720E+01 -0.53014822113E+02 -0.10457644756E+03  0.11742088699E+03  0.10000000000E+01 0.  0.
    9000005    1    3    3    0    0  0.63134739720E+01  0.53014822113E+02 -0.14770105645E+02  0.55403856707E+02  0.10000000000E+01 0.  0.
<mgrwt>
<rscale>  0 0.12499917E+03</rscale>
<asrwt>0</asrwt>
<pdfrwt beam="1">  1        4 0.41137071E-02 0.12499917E+03</pdfrwt>
<pdfrwt beam="2">  1       -4 0.22474715E-01 0.12499917E+03</pdfrwt>
<totfact> 0.94926520E+03</totfact>
</mgrwt>
</event>
<event>
 5    1  0.3401591E-002  0.1249978E+03  0.7818608E-02  0.1235073E+00
         -4   -1    0    0    0  501 -0.00000000000E+00  0.00000000000E+00  0.48258035406E+02  0.48274743720E+02  0.12700000000E+01 0. -1.
          4   -1    0    0  501    0  0.00000000000E+00 -0.00000000000E+00 -0.80906575500E+02  0.80916542556E+02  0.12700000000E+01 0. -1.
         25    2    1    2    0    0  0.00000000000E+00  0.00000000000E+00 -0.32648540094E+02  0.12919128628E+03  0.12499784510E+03 0.  0.
    9000005    1    3    3    0    0 -0.61481183950E+02  0.10747161421E+02 -0.13108978242E+02  0.63783091561E+02  0.10000000000E+01 0.  0.
    9000005    1    3    3    0    0  0.61481183950E+02 -0.10747161421E+02 -0.19539561852E+02  0.65408194715E+02  0.10000000000E+01 0.  0.
<mgrwt>
<rscale>  0 0.12499785E+03</rscale>
<asrwt>0</asrwt>
<pdfrwt beam="2">  1        4 0.12449217E-01 0.12499785E+03</pdfrwt>
<pdfrwt beam="1">  1       -4 0.74263651E-02 0.12499785E+03</pdfrwt>
<totfact> 0.10362342E+04</totfact>
</mgrwt>
</event>
<event>
 5    1  0.3401591E-002  0.1250037E+03  0.7818608E-02  0.1235063E+00
          4   -1    0    0  501    0  0.00000000000E+00  0.00000000000E+00  0.17243525125E+02  0.17290230153E+02  0.12700000000E+01 0. -1.
         -4   -1    0    0    0  501 -0.00000000000E+00 -0.00000000000E+00 -0.22619296250E+03  0.22619652779E+03  0.12700000000E+01 0. -1.
         25    2    1    2    0    0  0.00000000000E+00  0.00000000000E+00 -0.20894943738E+03  0.24348675795E+03  0.12500373560E+03 0.  0.
    9000005    1    3    3    0    0 -0.31360068879E+02 -0.51190807463E+02 -0.70651246539E+02  0.92717589088E+02  0.10000000000E+01 0.  0.
    9000005    1    3    3    0    0  0.31360068879E+02  0.51190807463E+02 -0.13829819084E+03  0.15076916886E+03  0.10000000000E+01 0.  0.
<mgrwt>
<rscale>  0 0.12500374E+03</rscale>
<asrwt>0</asrwt>
<pdfrwt beam="1">  1        4 0.26567171E-02 0.12500374E+03</pdfrwt>
<pdfrwt beam="2">  1       -4 0.34802782E-01 0.12500374E+03</pdfrwt>
<totfact> 0.83273869E+03</totfact>
</mgrwt>
</event>
<event>
 5    1  0.3401591E-002  0.1249990E+03  0.7818608E-02  0.1235071E+00
         -4   -1    0    0    0  501 -0.00000000000E+00  0.00000000000E+00  0.10009647199E+04  0.10009655255E+04  0.12700000000E+01 0.  1.
          4   -1    0    0  501    0  0.00000000000E+00 -0.00000000000E+00 -0.37982672505E+01  0.40049636835E+01  0.12700000000E+01 0.  1.
         25    2    1    2    0    0  0.00000000000E+00  0.00000000000E+00  0.99716645263E+03  0.10049704892E+04  0.12499899994E+03 0.  0.
    9000005    1    3    3    0    0 -0.23144659101E+02 -0.22728596153E+02  0.69153792398E+02  0.76390518594E+02  0.10000000000E+01 0.  0.
    9000005    1    3    3    0    0  0.23144659101E+02  0.22728596153E+02  0.92801266023E+03  0.92857997064E+03  0.10000000000E+01 0.  0.
<mgrwt>
<rscale>  0 0.12499900E+03</rscale>
<asrwt>0</asrwt>
<pdfrwt beam="2">  1        4 0.60031001E-03 0.12499900E+03</pdfrwt>
<pdfrwt beam="1">  1       -4 0.15401066E+00 0.12499900E+03</pdfrwt>
<totfact> 0.30441564E+03</totfact>
</mgrwt>
</event>
<event>
 5    1  0.3401591E-002  0.1249921E+03  0.7818608E-02  0.1235082E+00
         -4   -1    0    0    0  501 -0.00000000000E+00  0.00000000000E+00  0.74124154443E+03  0.74124263240E+03  0.12700000000E+01 0. -1.
          4   -1    0    0  501    0  0.00000000000E+00 -0.00000000000E+00 -0.51915790805E+01  0.53446602651E+01  0.12700000000E+01 0. -1.
         25    2    1    2    0    0  0.00000000000E+00  0.00000000000E+00  0.73604996535E+03  0.74658729267E+03  0.12499213607E+03 0.  0.
    9000005    1    3    3    0    0 -0.11830538922E+02  0.20069727435E+02  0.71436043191E+03  0.71474091970E+03  0.10000000000E+01 0.  0.
    9000005    1    3    3    0    0  0.11830538922E+02 -0.20069727435E+02  0.21689533440E+02  0.31846372970E+02  0.10000000000E+01 0.  0.
<mgrwt>
<rscale>  0 0.12499214E+03</rscale>
<asrwt>0</asrwt>
<pdfrwt beam="2">  1        4 0.81056381E-03 0.12499214E+03</pdfrwt>
<pdfrwt beam="1">  1       -4 0.11404900E+00 0.12499214E+03</pdfrwt>
<totfact> 0.40744911E+03</totfact>
</mgrwt>
</event>
<event>
 5    1  0.3401591E-002  0.1250075E+03  0.7818608E-02  0.1235058E+00
         -4   -1    0    0    0  501 -0.00000000000E+00  0.00000000000E+00  0.38340877159E+02  0.38361905079E+02  0.12700000000E+01 0.  1.
          4   -1    0    0  501    0  0.00000000000E+00 -0.00000000000E+00 -0.10184149059E+03  0.10184940896E+03  0.12700000000E+01 0.  1.
         25    2    1    2    0    0  0.00000000000E+00  0.00000000000E+00 -0.63500613435E+02  0.14021131404E+03  0.12500753849E+03 0.  0.
    9000005    1    3    3    0    0 -0.21838409374E+01  0.50172350089E+02  0.99717618539E+01  0.51210056719E+02  0.10000000000E+01 0.  0.
    9000005    1    3    3    0    0  0.21838409374E+01 -0.50172350089E+02 -0.73472375289E+02  0.89001257325E+02  0.10000000000E+01 0.  0.
<mgrwt>
<rscale>  0 0.12500754E+03</rscale>
<asrwt>0</asrwt>
<pdfrwt beam="2">  1        4 0.15670148E-01 0.12500754E+03</pdfrwt>
<pdfrwt beam="1">  1       -4 0.59008232E-02 0.12500754E+03</pdfrwt>
<totfact> 0.10127488E+04</totfact>
</mgrwt>
</event>
<event>
 5    1  0.3401591E-002  0.1250028E+03  0.7818608E-02  0.1235065E+00
         -4   -1    0    0    0  501 -0.00000000000E+00  0.00000000000E+00  0.31506897847E+01  0.33970201823E+01  0.12700000000E+01 0.  1.
          4   -1    0    0  501    0  0.00000000000E+00 -0.00000000000E+00 -0.11929728154E+04  0.11929734914E+04  0.12700000000E+01 0.  1.
         25    2    1    2    0    0  0.00000000000E+00  0.00000000000E+00 -0.11898221256E+04  0.11963705116E+04  0.12500284149E+03 0.  0.
    9000005    1    3    3    0    0  0.55664184711E+02 -0.17520548108E+02 -0.38091196766E+03  0.38535749399E+03  0.10000000000E+01 0.  0.
    9000005    1    3    3    0    0 -0.55664184711E+02  0.17520548108E+02 -0.80891015795E+03  0.81101301759E+03  0.10000000000E+01 0.  0.
<mgrwt>
<rscale>  0 0.12500284E+03</rscale>
<asrwt>0</asrwt>
<pdfrwt beam="2">  1        4 0.18355293E+00 0.12500284E+03</pdfrwt>
<pdfrwt beam="1">  1       -4 0.50372295E-03 0.12500284E+03</pdfrwt>
<totfact> 0.24806468E+03</totfact>
</mgrwt>
</event>
<event>
 5    1  0.3401591E-002  0.1250030E+03  0.7818608E-02  0.1235065E+00
         -4   -1    0    0    0  501 -0.00000000000E+00  0.00000000000E+00  0.25036844088E+02  0.25069033924E+02  0.12700000000E+01 0.  1.
          4   -1    0    0  501    0  0.00000000000E+00 -0.00000000000E+00 -0.15589265290E+03  0.15589782593E+03  0.12700000000E+01 0.  1.
         25    2    1    2    0    0  0.00000000000E+00  0.00000000000E+00 -0.13085580881E+03  0.18096685985E+03  0.12500304662E+03 0.  0.
    9000005    1    3    3    0    0 -0.23050785176E+02 -0.18355405076E+02  0.14355722874E+02  0.32792474319E+02  0.10000000000E+01 0.  0.
    9000005    1    3    3    0    0  0.23050785176E+02  0.18355405076E+02 -0.14521153169E+03  0.14817438553E+03  0.10000000000E+01 0.  0.
<mgrwt>
<rscale>  0 0.12500305E+03</rscale>
<asrwt>0</asrwt>
<pdfrwt beam="2">  1        4 0.23986359E-01 0.12500305E+03</pdfrwt>
<pdfrwt beam="1">  1       -4 0.38546963E-02 0.12500305E+03</pdfrwt>
<totfact> 0.93436872E+03</totfact>
</mgrwt>
</event>
<event>
 5    1  0.3401591E-002  0.1249947E+03  0.7818608E-02  0.1235078E+00
         -4   -1    0    0    0  501 -0.00000000000E+00  0.00000000000E+00  0.53355454863E+02  0.53370567391E+02  0.12700000000E+01 0.  1.
          4   -1    0    0  501    0  0.00000000000E+00 -0.00000000000E+00 -0.73174612648E+02  0.73185632717E+02  0.12700000000E+01 0.  1.
         25    2    1    2    0    0  0.00000000000E+00  0.00000000000E+00 -0.19819157786E+02  0.12655620011E+03  0.12499469097E+03 0.  0.
    9000005    1    3    3    0    0 -0.28180303542E+02 -0.32565756752E+02 -0.55755040194E+02  0.70457664789E+02  0.10000000000E+01 0.  0.
    9000005    1    3    3    0    0  0.28180303542E+02  0.32565756752E+02  0.35935882408E+02  0.56098535319E+02  0.10000000000E+01 0.  0.
<mgrwt>
<rscale>  0 0.12499469E+03</rscale>
<asrwt>0</asrwt>
<pdfrwt beam="2">  1        4 0.11259643E-01 0.12499469E+03</pdfrwt>
<pdfrwt beam="1">  1       -4 0.82105417E-02 0.12499469E+03</pdfrwt>
<totfact> 0.10420051E+04</totfact>
</mgrwt>
</event>
<event>
 5    1  0.3401591E-002  0.1249979E+03  0.7818608E-02  0.1235072E+00
          4   -1    0    0  501    0  0.00000000000E+00  0.00000000000E+00  0.76549816379E+03  0.76549921729E+03  0.12700000000E+01 0.  1.
         -4   -1    0    0    0  501 -0.00000000000E+00 -0.00000000000E+00 -0.50226230979E+01  0.51806990632E+01  0.12700000000E+01 0.  1.
         25    2    1    2    0    0  0.00000000000E+00  0.00000000000E+00  0.76047554069E+03  0.77067991635E+03  0.12499794188E+03 0.  0.
    9000005    1    3    3    0    0 -0.37473297515E+02 -0.44299029251E+02  0.23716675049E+03  0.24416330510E+03  0.10000000000E+01 0.  0.
    9000005    1    3    3    0    0  0.37473297515E+02  0.44299029251E+02  0.52330879020E+03  0.52651661125E+03  0.10000000000E+01 0.  0.
<mgrwt>
<rscale>  0 0.12499794E+03</rscale>
<asrwt>0</asrwt>
<pdfrwt beam="1">  1        4 0.11778116E+00 0.12499794E+03</pdfrwt>
<pdfrwt beam="2">  1       -4 0.78495219E-03 0.12499794E+03</pdfrwt>
<totfact> 0.39605787E+03</totfact>
</mgrwt>
</event>
<event>
 5    1  0.3401591E-002  0.1250016E+03  0.7818608E-02  0.1235067E+00
          4   -1    0    0  501    0  0.00000000000E+00  0.00000000000E+00  0.44723546586E+03  0.44723726904E+03  0.12700000000E+01 0. -1.
         -4   -1    0    0    0  501 -0.00000000000E+00 -0.00000000000E+00 -0.86864460846E+01  0.87787952238E+01  0.12700000000E+01 0. -1.
         25    2    1    2    0    0  0.00000000000E+00  0.00000000000E+00  0.43854901977E+03  0.45601606427E+03  0.12500163249E+03 0.  0.
    9000005    1    3    3    0    0 -0.59418560242E+02 -0.15793809854E+02  0.26011710110E+03  0.26728620618E+03  0.10000000000E+01 0.  0.
    9000005    1    3    3    0    0  0.59418560242E+02  0.15793809854E+02  0.17843191867E+03  0.18872985808E+03  0.10000000000E+01 0.  0.
<mgrwt>
<rscale>  0 0.12500163E+03</rscale>
<asrwt>0</asrwt>
<pdfrwt beam="1">  1        4 0.68812700E-01 0.12500163E+03</pdfrwt>
<pdfrwt beam="2">  1       -4 0.13436188E-02 0.12500163E+03</pdfrwt>
<totfact> 0.59444004E+03</totfact>
</mgrwt>
</event>
<event>
 5    1  0.3401591E-002  0.1250060E+03  0.7818608E-02  0.1235060E+00
          4   -1    0    0  501    0  0.00000000000E+00  0.00000000000E+00  0.30432409976E+03  0.30432674972E+03  0.12700000000E+01 0. -1.
         -4   -1    0    0    0  501 -0.00000000000E+00 -0.00000000000E+00 -0.12802933778E+02  0.12865769053E+02  0.12700000000E+01 0. -1.
         25    2    1    2    0    0  0.00000000000E+00  0.00000000000E+00  0.29152116598E+03  0.31719251877E+03  0.12500601486E+03 0.  0.
    9000005    1    3    3    0    0 -0.26503699523E+02  0.34396233651E+02  0.25980556945E+03  0.26341123912E+03  0.10000000000E+01 0.  0.
    9000005    1    3    3    0    0  0.26503699523E+02 -0.34396233651E+02  0.31715596534E+02  0.53781279655E+02  0.10000000000E+01 0.  0.
<mgrwt>
<rscale>  0 0.12500601E+03</rscale>
<asrwt>0</asrwt>
<pdfrwt beam="1">  1        4 0.46824126E-01 0.12500601E+03</pdfrwt>
<pdfrwt beam="2">  1       -4 0.19747196E-02 0.12500601E+03</pdfrwt>
<totfact> 0.73481488E+03</totfact>
</mgrwt>
</event>
<event>
 5    1  0.3401591E-002  0.1249992E+03  0.7818608E-02  0.1235070E+00
         -4   -1    0    0    0  501 -0.00000000000E+00  0.00000000000E+00  0.47917614955E+02  0.47934441928E+02  0.12700000000E+01 0. -1.
          4   -1    0    0  501    0  0.00000000000E+00 -0.00000000000E+00 -0.81483047649E+02  0.81492944199E+02  0.12700000000E+01 0. -1.
         25    2    1    2    0    0  0.00000000000E+00  0.00000000000E+00 -0.33565432694E+02  0.12942738613E+03  0.12499924003E+03 0.  0.
    9000005    1    3    3    0    0 -0.39158526157E+02 -0.28158207503E+02 -0.57926092587E+02  0.75383731819E+02  0.10000000000E+01 0.  0.
    9000005    1    3    3    0    0  0.39158526157E+02  0.28158207503E+02  0.24360659894E+02  0.54043654308E+02  0.10000000000E+01 0.  0.
<mgrwt>
<rscale>  0 0.12499924E+03</rscale>
<asrwt>0</asrwt>
<pdfrwt beam="2">  1        4 0.12537909E-01 0.12499924E+03</pdfrwt>
<pdfrwt beam="1">  1       -4 0.73739964E-02 0.12499924E+03</pdfrwt>
<totfact> 0.10356950E+04</totfact>
</mgrwt>
</event>
<event>
 5    1  0.3401591E-002  0.1250038E+03  0.7818608E-02  0.1235063E+00
         -4   -1    0    0    0  501 -0.00000000000E+00  0.00000000000E+00  0.74765409450E+01  0.75836379464E+01  0.12700000000E+01 0.  1.
          4   -1    0    0  501    0  0.00000000000E+00 -0.00000000000E+00 -0.51867594548E+03  0.51867750030E+03  0.12700000000E+01 0.  1.
         25    2    1    2    0    0  0.00000000000E+00  0.00000000000E+00 -0.51119940453E+03  0.52626113825E+03  0.12500381768E+03 0.  0.
    9000005    1    3    3    0    0  0.36978774001E+02  0.37729373885E+02 -0.11505048511E+03  0.12660390794E+03  0.10000000000E+01 0.  0.
    9000005    1    3    3    0    0 -0.36978774001E+02 -0.37729373885E+02 -0.39614891942E+03  0.39965723031E+03  0.10000000000E+01 0.  0.
<mgrwt>
<rscale>  0 0.12500382E+03</rscale>
<asrwt>0</asrwt>
<pdfrwt beam="2">  1        4 0.79804629E-01 0.12500382E+03</pdfrwt>
<pdfrwt beam="1">  1       -4 0.11585953E-02 0.12500382E+03</pdfrwt>
<totfact> 0.53878374E+03</totfact>
</mgrwt>
</event>
<event>
 5    1  0.3401591E-002  0.1249996E+03  0.7818608E-02  0.1235070E+00
          4   -1    0    0  501    0  0.00000000000E+00  0.00000000000E+00  0.31820735029E+03  0.31820988463E+03  0.12700000000E+01 0.  1.
         -4   -1    0    0    0  501 -0.00000000000E+00 -0.00000000000E+00 -0.12240292245E+02  0.12306000741E+02  0.12700000000E+01 0.  1.
         25    2    1    2    0    0  0.00000000000E+00  0.00000000000E+00  0.30596705804E+03  0.33051588537E+03  0.12499963951E+03 0.  0.
    9000005    1    3    3    0    0 -0.29843233247E+01 -0.60467013170E+02  0.19395154448E+03  0.20318308855E+03  0.10000000000E+01 0.  0.
    9000005    1    3    3    0    0  0.29843233247E+01  0.60467013170E+02  0.11201551356E+03  0.12733279682E+03  0.10000000000E+01 0.  0.
<mgrwt>
<rscale>  0 0.12499964E+03</rscale>
<asrwt>0</asrwt>
<pdfrwt beam="1">  1        4 0.48960223E-01 0.12499964E+03</pdfrwt>
<pdfrwt beam="2">  1       -4 0.18883715E-02 0.12499964E+03</pdfrwt>
<totfact> 0.71923187E+03</totfact>
</mgrwt>
</event>
<event>
 5    1  0.3401591E-002  0.1250015E+03  0.7818608E-02  0.1235067E+00
         -4   -1    0    0    0  501 -0.00000000000E+00  0.00000000000E+00  0.47916220053E+02  0.47933047516E+02  0.12700000000E+01 0. -1.
          4   -1    0    0  501    0  0.00000000000E+00 -0.00000000000E+00 -0.81488357113E+02  0.81498253018E+02  0.12700000000E+01 0. -1.
         25    2    1    2    0    0  0.00000000000E+00  0.00000000000E+00 -0.33572137061E+02  0.12943130053E+03  0.12500149268E+03 0.  0.
    9000005    1    3    3    0    0 -0.57330950928E+02 -0.24863367484E+02 -0.17370257330E+02  0.64867178270E+02  0.10000000000E+01 0.  0.
    9000005    1    3    3    0    0  0.57330950928E+02  0.24863367484E+02 -0.16201879731E+02  0.64564122264E+02  0.10000000000E+01 0.  0.
<mgrwt>
<rscale>  0 0.12500149E+03</rscale>
<asrwt>0</asrwt>
<pdfrwt beam="2">  1        4 0.12538726E-01 0.12500149E+03</pdfrwt>
<pdfrwt beam="1">  1       -4 0.73737818E-02 0.12500149E+03</pdfrwt>
<totfact> 0.10356339E+04</totfact>
</mgrwt>
</event>
<event>
 5    1  0.3401591E-002  0.1249929E+03  0.7818608E-02  0.1235080E+00
          4   -1    0    0  501    0  0.00000000000E+00  0.00000000000E+00  0.49396265874E+02  0.49412589310E+02  0.12700000000E+01 0. -1.
         -4   -1    0    0    0  501 -0.00000000000E+00 -0.00000000000E+00 -0.79036376583E+02  0.79046579454E+02  0.12700000000E+01 0. -1.
         25    2    1    2    0    0  0.00000000000E+00  0.00000000000E+00 -0.29640110709E+02  0.12845916876E+03  0.12499288730E+03 0.  0.
    9000005    1    3    3    0    0  0.26938971106E+02  0.36218263820E+02 -0.59231089644E+02  0.74476793559E+02  0.10000000000E+01 0.  0.
    9000005    1    3    3    0    0 -0.26938971106E+02 -0.36218263820E+02  0.29590978935E+02  0.53982375205E+02  0.10000000000E+01 0.  0.
<mgrwt>
<rscale>  0 0.12499289E+03</rscale>
<asrwt>0</asrwt>
<pdfrwt beam="1">  1        4 0.76014660E-02 0.12499289E+03</pdfrwt>
<pdfrwt beam="2">  1       -4 0.12161483E-01 0.12499289E+03</pdfrwt>
<totfact> 0.10379250E+04</totfact>
</mgrwt>
</event>
<event>
 5    1  0.3401591E-002  0.1249999E+03  0.7818608E-02  0.1235069E+00
          4   -1    0    0  501    0  0.00000000000E+00  0.00000000000E+00  0.34822341675E+02  0.34845492962E+02  0.12700000000E+01 0.  1.
         -4   -1    0    0    0  501 -0.00000000000E+00 -0.00000000000E+00 -0.11211230851E+03  0.11211950151E+03  0.12700000000E+01 0.  1.
         25    2    1    2    0    0  0.00000000000E+00  0.00000000000E+00 -0.77289966831E+02  0.14696499447E+03  0.12499988251E+03 0.  0.
    9000005    1    3    3    0    0 -0.21569154167E+02 -0.80306537596E+01 -0.10695349521E+03  0.10940644382E+03  0.10000000000E+01 0.  0.
    9000005    1    3    3    0    0  0.21569154167E+02  0.80306537596E+01  0.29663528379E+02  0.37558550653E+02  0.10000000000E+01 0.  0.
<mgrwt>
<rscale>  0 0.12499988E+03</rscale>
<asrwt>0</asrwt>
<pdfrwt beam="1">  1        4 0.53596176E-02 0.12499988E+03</pdfrwt>
<pdfrwt beam="2">  1       -4 0.17250382E-01 0.12499988E+03</pdfrwt>
<totfact> 0.99912423E+03</totfact>
</mgrwt>
</event>
<event>
 5    1  0.3401591E-002  0.1250005E+03  0.7818608E-02  0.1235069E+00
         -4   -1    0    0    0  501 -0.00000000000E+00  0.00000000000E+00  0.18355031312E+03  0.18355470669E+03  0.12700000000E+01 0.  1.
          4   -1    0    0  501    0  0.00000000000E+00 -0.00000000000E+00 -0.21258197897E+02  0.21296100062E+02  0.12700000000E+01 0.  1.
         25    2    1    2    0    0  0.00000000000E+00  0.00000000000E+00  0.16229211523E+03  0.20485080675E+03  0.12500048945E+03 0.  0.
    9000005    1    3    3    0    0 -0.17312526907E+02 -0.29824536861E+02  0.16655339162E+03  0.17008897332E+03  0.10000000000E+01 0.  0.
    9000005    1    3    3    0    0  0.17312526907E+02  0.29824536861E+02 -0.42612763898E+01  0.34761833429E+02  0.10000000000E+01 0.  0.
<mgrwt>
<rscale>  0 0.12500049E+03</rscale>
<asrwt>0</asrwt>
<pdfrwt beam="2">  1        4 0.32737455E-02 0.12500049E+03</pdfrwt>
<pdfrwt beam="1">  1       -4 0.28241764E-01 0.12500049E+03</pdfrwt>
<totfact> 0.89322799E+03</totfact>
</mgrwt>
</event>
<event>
 5    1  0.3401591E-002  0.1249951E+03  0.7818608E-02  0.1235077E+00
          4   -1    0    0  501    0  0.00000000000E+00  0.00000000000E+00  0.59760749864E+01  0.61095312621E+01  0.12700000000E+01 0. -1.
         -4   -1    0    0    0  501 -0.00000000000E+00 -0.00000000000E+00 -0.64624514241E+03  0.64624639031E+03  0.12700000000E+01 0. -1.
         25    2    1    2    0    0  0.00000000000E+00  0.00000000000E+00 -0.64026906742E+03  0.65235592157E+03  0.12499507875E+03 0.  0.
    9000005    1    3    3    0    0  0.45889748619E+02  0.41070172969E+01 -0.54046300530E+03  0.54242418523E+03  0.10000000000E+01 0.  0.
    9000005    1    3    3    0    0 -0.45889748619E+02 -0.41070172969E+01 -0.99806062116E+02  0.10993173634E+03  0.10000000000E+01 0.  0.
<mgrwt>
<rscale>  0 0.12499508E+03</rscale>
<asrwt>0</asrwt>
<pdfrwt beam="1">  1        4 0.92975852E-03 0.12499508E+03</pdfrwt>
<pdfrwt beam="2">  1       -4 0.99432637E-01 0.12499508E+03</pdfrwt>
<totfact> 0.45725917E+03</totfact>
</mgrwt>
</event>
<event>
 5    1  0.3401591E-002  0.1249934E+03  0.7818608E-02  0.1235080E+00
         -4   -1    0    0    0  501 -0.00000000000E+00  0.00000000000E+00  0.22630459910E+02  0.22666067496E+02  0.12700000000E+01 0. -1.
          4   -1    0    0  501    0  0.00000000000E+00 -0.00000000000E+00 -0.17241834154E+03  0.17242301877E+03  0.12700000000E+01 0. -1.
         25    2    1    2    0    0  0.00000000000E+00  0.00000000000E+00 -0.14978788163E+03  0.19508908626E+03  0.12499336820E+03 0.  0.
    9000005    1    3    3    0    0  0.51966985456E+02  0.34451651962E+02 -0.68392403495E+02  0.92552713392E+02  0.10000000000E+01 0.  0.
    9000005    1    3    3    0    0 -0.51966985456E+02 -0.34451651962E+02 -0.81395478136E+02  0.10253637287E+03  0.10000000000E+01 0.  0.
<mgrwt>
<rscale>  0 0.12499337E+03</rscale>
<asrwt>0</asrwt>
<pdfrwt beam="2">  1        4 0.26528997E-01 0.12499337E+03</pdfrwt>
<pdfrwt beam="1">  1       -4 0.34847082E-02 0.12499337E+03</pdfrwt>
<totfact> 0.90982802E+03</totfact>
</mgrwt>
</event>
<event>
 5    1  0.3401591E-002  0.1250022E+03  0.7818608E-02  0.1235066E+00
          4   -1    0    0  501    0  0.00000000000E+00  0.00000000000E+00  0.66515723570E+01  0.67717290865E+01  0.12700000000E+01 0. -1.
         -4   -1    0    0    0  501 -0.00000000000E+00 -0.00000000000E+00 -0.58190994221E+03  0.58191132808E+03  0.12700000000E+01 0. -1.
         25    2    1    2    0    0  0.00000000000E+00  0.00000000000E+00 -0.57525836985E+03  0.58868305716E+03  0.12500219880E+03 0.  0.
    9000005    1    3    3    0    0  0.62057867362E+02 -0.72573419629E+01 -0.28178592188E+03  0.28863151887E+03  0.10000000000E+01 0.  0.
    9000005    1    3    3    0    0 -0.62057867362E+02  0.72573419629E+01 -0.29347244798E+03  0.30005153830E+03  0.10000000000E+01 0.  0.
<mgrwt>
<rscale>  0 0.12500220E+03</rscale>
<asrwt>0</asrwt>
<pdfrwt beam="1">  1        4 0.10326687E-02 0.12500220E+03</pdfrwt>
<pdfrwt beam="2">  1       -4 0.89533917E-01 0.12500220E+03</pdfrwt>
<totfact> 0.49587475E+03</totfact>
</mgrwt>
</event>
<event>
 5    1  0.3401591E-002  0.1249979E+03  0.7818608E-02  0.1235073E+00
          4   -1    0    0  501    0  0.00000000000E+00  0.00000000000E+00  0.60761160008E+02  0.60774431017E+02  0.12700000000E+01 0. -1.
         -4   -1    0    0    0  501 -0.00000000000E+00 -0.00000000000E+00 -0.64259871591E+02  0.64272420188E+02  0.12700000000E+01 0. -1.
         25    2    1    2    0    0  0.00000000000E+00  0.00000000000E+00 -0.34987115830E+01  0.12504685121E+03  0.12499789604E+03 0.  0.
    9000005    1    3    3    0    0  0.26034918318E+02 -0.18413402131E+02  0.52014116468E+02  0.61019166348E+02  0.10000000000E+01 0.  0.
    9000005    1    3    3    0    0 -0.26034918318E+02  0.18413402131E+02 -0.55512828052E+02  0.64027684857E+02  0.10000000000E+01 0.  0.
<mgrwt>
<rscale>  0 0.12499790E+03</rscale>
<asrwt>0</asrwt>
<pdfrwt beam="1">  1        4 0.93498569E-02 0.12499790E+03</pdfrwt>
<pdfrwt beam="2">  1       -4 0.98881202E-02 0.12499790E+03</pdfrwt>
<totfact> 0.10452342E+04</totfact>
</mgrwt>
</event>
<event>
 5    1  0.3401591E-002  0.1249923E+03  0.7818608E-02  0.1235081E+00
          4   -1    0    0  501    0  0.00000000000E+00  0.00000000000E+00  0.18335829816E+03  0.18336269633E+03  0.12700000000E+01 0.  1.
         -4   -1    0    0    0  501 -0.00000000000E+00 -0.00000000000E+00 -0.21277692241E+02  0.21315559742E+02  0.12700000000E+01 0.  1.
         25    2    1    2    0    0  0.00000000000E+00  0.00000000000E+00  0.16208060592E+03  0.20467825607E+03  0.12499226253E+03 0.  0.
    9000005    1    3    3    0    0 -0.31893978522E+01 -0.58468025541E+02  0.45310514764E+02  0.74045425365E+02  0.10000000000E+01 0.  0.
    9000005    1    3    3    0    0  0.31893978522E+01  0.58468025541E+02  0.11677009116E+03  0.13063283071E+03  0.10000000000E+01 0.  0.
<mgrwt>
<rscale>  0 0.12499226E+03</rscale>
<asrwt>0</asrwt>
<pdfrwt beam="1">  1        4 0.28212219E-01 0.12499226E+03</pdfrwt>
<pdfrwt beam="2">  1       -4 0.32767424E-02 0.12499226E+03</pdfrwt>
<totfact> 0.89367900E+03</totfact>
</mgrwt>
</event>
<event>
 5    1  0.3401591E-002  0.1250048E+03  0.7818608E-02  0.1235062E+00
          4   -1    0    0  501    0  0.00000000000E+00  0.00000000000E+00  0.59032830544E+02  0.59046490006E+02  0.12700000000E+01 0.  1.
         -4   -1    0    0    0  501 -0.00000000000E+00 -0.00000000000E+00 -0.66148435376E+02  0.66160625773E+02  0.12700000000E+01 0.  1.
         25    2    1    2    0    0  0.00000000000E+00  0.00000000000E+00 -0.71156048318E+01  0.12520711578E+03  0.12500475995E+03 0.  0.
    9000005    1    3    3    0    0  0.13864731793E+02 -0.36078424881E+02  0.45630389495E+02  0.59808159770E+02  0.10000000000E+01 0.  0.
    9000005    1    3    3    0    0 -0.13864731793E+02  0.36078424881E+02 -0.52745994327E+02  0.65398956009E+02  0.10000000000E+01 0.  0.
<mgrwt>
<rscale>  0 0.12500476E+03</rscale>
<asrwt>0</asrwt>
<pdfrwt beam="1">  1        4 0.90839624E-02 0.12500476E+03</pdfrwt>
<pdfrwt beam="2">  1       -4 0.10178671E-01 0.12500476E+03</pdfrwt>
<totfact> 0.10447242E+04</totfact>
</mgrwt>
</event>
<event>
 5    1  0.3401591E-002  0.1249997E+03  0.7818608E-02  0.1235070E+00
          4   -1    0    0  501    0  0.00000000000E+00  0.00000000000E+00  0.27285675310E+02  0.27315215122E+02  0.12700000000E+01 0. -1.
         -4   -1    0    0    0  501 -0.00000000000E+00 -0.00000000000E+00 -0.14305080312E+03  0.14305644051E+03  0.12700000000E+01 0. -1.
         25    2    1    2    0    0  0.00000000000E+00  0.00000000000E+00 -0.11576512781E+03  0.17037165564E+03  0.12499974491E+03 0.  0.
    9000005    1    3    3    0    0  0.46380876995E+02  0.32081494640E+02 -0.94577412580E+02  0.11011945795E+03  0.10000000000E+01 0.  0.
    9000005    1    3    3    0    0 -0.46380876995E+02 -0.32081494640E+02 -0.21187715226E+02  0.60252197684E+02  0.10000000000E+01 0.  0.
<mgrwt>
<rscale>  0 0.12499974E+03</rscale>
<asrwt>0</asrwt>
<pdfrwt beam="1">  1        4 0.42005022E-02 0.12499974E+03</pdfrwt>
<pdfrwt beam="2">  1       -4 0.22010521E-01 0.12499974E+03</pdfrwt>
<totfact> 0.95379956E+03</totfact>
</mgrwt>
</event>
<event>
 5    1  0.3401591E-002  0.1250066E+03  0.7818608E-02  0.1235059E+00
         -4   -1    0    0    0  501 -0.00000000000E+00  0.00000000000E+00  0.35700482599E+04  0.35700484858E+04  0.12700000000E+01 0. -1.
          4   -1    0    0  501    0  0.00000000000E+00 -0.00000000000E+00 -0.72550484624E+00  0.14626200060E+01  0.12700000000E+01 0. -1.
         25    2    1    2    0    0  0.00000000000E+00  0.00000000000E+00  0.35693227550E+04  0.35715111058E+04  0.12500659624E+03 0.  0.
    9000005    1    3    3    0    0  0.62456099695E+02 -0.21567177904E+01  0.17988450220E+04  0.17999305067E+04  0.10000000000E+01 0.  0.
    9000005    1    3    3    0    0 -0.62456099695E+02  0.21567177904E+01  0.17704777330E+04  0.17715805990E+04  0.10000000000E+01 0.  0.
<mgrwt>
<rscale>  0 0.12500660E+03</rscale>
<asrwt>0</asrwt>
<pdfrwt beam="2">  1        4 0.16833087E-03 0.12500660E+03</pdfrwt>
<pdfrwt beam="1">  1       -4 0.54930733E+00 0.12500660E+03</pdfrwt>
<totfact> 0.48267114E+01</totfact>
</mgrwt>
</event>
<event>
 5    1  0.3401591E-002  0.1250029E+03  0.7818608E-02  0.1235065E+00
          4   -1    0    0  501    0  0.00000000000E+00  0.00000000000E+00  0.66787675977E+03  0.66787796725E+03  0.12700000000E+01 0.  1.
         -4   -1    0    0    0  501 -0.00000000000E+00 -0.00000000000E+00 -0.57788685249E+01  0.59167745798E+01  0.12700000000E+01 0.  1.
         25    2    1    2    0    0  0.00000000000E+00  0.00000000000E+00  0.66209789124E+03  0.67379474183E+03  0.12500294608E+03 0.  0.
    9000005    1    3    3    0    0 -0.26760814377E+02  0.14865409197E+02  0.37377187360E+02  0.48323655818E+02  0.10000000000E+01 0.  0.
    9000005    1    3    3    0    0  0.26760814377E+02 -0.14865409197E+02  0.62472070388E+03  0.62547108601E+03  0.10000000000E+01 0.  0.
<mgrwt>
<rscale>  0 0.12500295E+03</rscale>
<asrwt>0</asrwt>
<pdfrwt beam="1">  1        4 0.10276095E+00 0.12500295E+03</pdfrwt>
<pdfrwt beam="2">  1       -4 0.89975793E-03 0.12500295E+03</pdfrwt>
<totfact> 0.44503740E+03</totfact>
</mgrwt>
</event>
<event>
 5    1  0.3401591E-002  0.1250039E+03  0.7818608E-02  0.1235063E+00
         -4   -1    0    0    0  501 -0.00000000000E+00  0.00000000000E+00  0.53663116098E+02  0.53678142007E+02  0.12700000000E+01 0. -1.
          4   -1    0    0  501    0  0.00000000000E+00 -0.00000000000E+00 -0.72765909385E+02  0.72776991341E+02  0.12700000000E+01 0. -1.
         25    2    1    2    0    0  0.00000000000E+00  0.00000000000E+00 -0.19102793287E+02  0.12645513335E+03  0.12500393609E+03 0.  0.
    9000005    1    3    3    0    0  0.42675691452E+02  0.11983170532E+02 -0.54116026062E+02  0.69959669051E+02  0.10000000000E+01 0.  0.
    9000005    1    3    3    0    0 -0.42675691452E+02 -0.11983170532E+02  0.35013232775E+02  0.56495464298E+02  0.10000000000E+01 0.  0.
<mgrwt>
<rscale>  0 0.12500394E+03</rscale>
<asrwt>0</asrwt>
<pdfrwt beam="2">  1        4 0.11196764E-01 0.12500394E+03</pdfrwt>
<pdfrwt beam="1">  1       -4 0.82578723E-02 0.12500394E+03</pdfrwt>
<totfact> 0.10420081E+04</totfact>
</mgrwt>
</event>
<event>
 5    1  0.3401591E-002  0.1249592E+03  0.7818608E-02  0.1235133E+00
         -4   -1    0    0    0  501 -0.00000000000E+00  0.00000000000E+00  0.10555730025E+03  0.10556493990E+03  0.12700000000E+01 0. -1.
          4   -1    0    0  501    0  0.00000000000E+00 -0.00000000000E+00 -0.36961957676E+02  0.36983769619E+02  0.12700000000E+01 0. -1.
         25    2    1    2    0    0  0.00000000000E+00  0.00000000000E+00  0.68595342577E+02  0.14254870952E+03  0.12495924761E+03 0.  0.
    9000005    1    3    3    0    0 -0.76530508350E+01 -0.59578660291E+02  0.14720479382E+02  0.61853685924E+02  0.10000000000E+01 0.  0.
    9000005    1    3    3    0    0  0.76530508350E+01  0.59578660291E+02  0.53874863195E+02  0.80695023597E+02  0.10000000000E+01 0.  0.
<mgrwt>
<rscale>  0 0.12495925E+03</rscale>
<asrwt>0</asrwt>
<pdfrwt beam="2">  1        4 0.56887206E-02 0.12495925E+03</pdfrwt>
<pdfrwt beam="1">  1       -4 0.16241850E-01 0.12495925E+03</pdfrwt>
<totfact> 0.10090292E+04</totfact>
</mgrwt>
</event>
<event>
 5    1  0.3401591E-002  0.1250004E+03  0.7818608E-02  0.1235069E+00
          4   -1    0    0  501    0  0.00000000000E+00  0.00000000000E+00  0.44745053574E+02  0.44763073167E+02  0.12700000000E+01 0.  1.
         -4   -1    0    0    0  501 -0.00000000000E+00 -0.00000000000E+00 -0.87260445140E+02  0.87269686524E+02  0.12700000000E+01 0.  1.
         25    2    1    2    0    0  0.00000000000E+00  0.00000000000E+00 -0.42515391566E+02  0.13203275969E+03  0.12500036445E+03 0.  0.
    9000005    1    3    3    0    0  0.47949505345E+02 -0.15686218013E+02 -0.60211466191E+02  0.78559742612E+02  0.10000000000E+01 0.  0.
    9000005    1    3    3    0    0 -0.47949505345E+02  0.15686218013E+02  0.17696074625E+02  0.53473017079E+02  0.10000000000E+01 0.  0.
<mgrwt>
<rscale>  0 0.12500036E+03</rscale>
<asrwt>0</asrwt>
<pdfrwt beam="1">  1        4 0.68859514E-02 0.12500036E+03</pdfrwt>
<pdfrwt beam="2">  1       -4 0.13426781E-01 0.12500036E+03</pdfrwt>
<totfact> 0.10300915E+04</totfact>
</mgrwt>
</event>
<event>
 5    1  0.3401591E-002  0.1250001E+03  0.7818608E-02  0.1235069E+00
          4   -1    0    0  501    0  0.00000000000E+00  0.00000000000E+00  0.23331415028E+04  0.23331418485E+04  0.12700000000E+01 0.  1.
         -4   -1    0    0    0  501 -0.00000000000E+00 -0.00000000000E+00 -0.14330135926E+01  0.19147918834E+01  0.12700000000E+01 0.  1.
         25    2    1    2    0    0  0.00000000000E+00  0.00000000000E+00  0.23317084893E+04  0.23350566404E+04  0.12500013969E+03 0.  0.
    9000005    1    3    3    0    0  0.62051934529E+02 -0.36742394745E+01  0.12859276053E+04  0.12874295121E+04  0.10000000000E+01 0.  0.
    9000005    1    3    3    0    0 -0.62051934529E+02  0.36742394745E+01  0.10457808840E+04  0.10476271283E+04  0.10000000000E+01 0.  0.
<mgrwt>
<rscale>  0 0.12500014E+03</rscale>
<asrwt>0</asrwt>
<pdfrwt beam="1">  1        4 0.35898107E+00 0.12500014E+03</pdfrwt>
<pdfrwt beam="2">  1       -4 0.25755070E-03 0.12500014E+03</pdfrwt>
<totfact> 0.60977739E+02</totfact>
</mgrwt>
</event>
<event>
 5    1  0.3401591E-002  0.1250065E+03  0.7818608E-02  0.1235059E+00
          4   -1    0    0  501    0  0.00000000000E+00  0.00000000000E+00  0.10205242534E+03  0.10206032735E+03  0.12700000000E+01 0.  1.
         -4   -1    0    0    0  501 -0.00000000000E+00 -0.00000000000E+00 -0.38260961788E+02  0.38282033605E+02  0.12700000000E+01 0.  1.
         25    2    1    2    0    0  0.00000000000E+00  0.00000000000E+00  0.63791463555E+02  0.14034236095E+03  0.12500650965E+03 0.  0.
    9000005    1    3    3    0    0 -0.28838159204E+02  0.52367496509E+02  0.11449913532E+02  0.60877702295E+02  0.10000000000E+01 0.  0.
    9000005    1    3    3    0    0  0.28838159204E+02 -0.52367496509E+02  0.52341550024E+02  0.79464658659E+02  0.10000000000E+01 0.  0.
<mgrwt>
<rscale>  0 0.12500651E+03</rscale>
<asrwt>0</asrwt>
<pdfrwt beam="1">  1        4 0.15702601E-01 0.12500651E+03</pdfrwt>
<pdfrwt beam="2">  1       -4 0.58885307E-02 0.12500651E+03</pdfrwt>
<totfact> 0.10125010E+04</totfact>
</mgrwt>
</event>
<event>
 5    1  0.3401591E-002  0.1249989E+03  0.7818608E-02  0.1235071E+00
          4   -1    0    0  501    0  0.00000000000E+00  0.00000000000E+00  0.10335278689E+03  0.10336058948E+03  0.12700000000E+01 0.  1.
         -4   -1    0    0    0  501 -0.00000000000E+00 -0.00000000000E+00 -0.37774762008E+02  0.37796104888E+02  0.12700000000E+01 0.  1.
         25    2    1    2    0    0  0.00000000000E+00  0.00000000000E+00  0.65578024884E+02  0.14115669437E+03  0.12499894007E+03 0.  0.
    9000005    1    3    3    0    0 -0.19095950059E+02 -0.33998777150E+02  0.87933737404E+02  0.96197267790E+02  0.10000000000E+01 0.  0.
    9000005    1    3    3    0    0  0.19095950059E+02  0.33998777150E+02 -0.22355712520E+02  0.44959426582E+02  0.10000000000E+01 0.  0.
<mgrwt>
<rscale>  0 0.12499894E+03</rscale>
<asrwt>0</asrwt>
<pdfrwt beam="1">  1        4 0.15902670E-01 0.12499894E+03</pdfrwt>
<pdfrwt beam="2">  1       -4 0.58137439E-02 0.12499894E+03</pdfrwt>
<totfact> 0.10109910E+04</totfact>
</mgrwt>
</event>
<event>
 5    1  0.3401591E-002  0.1249955E+03  0.7818608E-02  0.1235076E+00
         -4   -1    0    0    0  501 -0.00000000000E+00  0.00000000000E+00  0.18020790959E+02  0.18065486619E+02  0.12700000000E+01 0.  1.
          4   -1    0    0  501    0  0.00000000000E+00 -0.00000000000E+00 -0.21643301685E+03  0.21643674292E+03  0.12700000000E+01 0.  1.
         25    2    1    2    0    0  0.00000000000E+00  0.00000000000E+00 -0.19841222590E+03  0.23450222954E+03  0.12499553701E+03 0.  0.
    9000005    1    3    3    0    0 -0.20111439966E+02 -0.15500731287E+02 -0.20632757246E+03  0.20788653118E+03  0.10000000000E+01 0.  0.
    9000005    1    3    3    0    0  0.20111439966E+02  0.15500731287E+02  0.79153465635E+01  0.26615698359E+02  0.10000000000E+01 0.  0.
<mgrwt>
<rscale>  0 0.12499554E+03</rscale>
<asrwt>0</asrwt>
<pdfrwt beam="2">  1        4 0.33301110E-01 0.12499554E+03</pdfrwt>
<pdfrwt beam="1">  1       -4 0.27761543E-02 0.12499554E+03</pdfrwt>
<totfact> 0.84631461E+03</totfact>
</mgrwt>
</event>
<event>
 5    1  0.3401591E-002  0.1250210E+03  0.7818608E-02  0.1235036E+00
         -4   -1    0    0    0  501 -0.00000000000E+00  0.00000000000E+00  0.57500490240E+02  0.57514513628E+02  0.12700000000E+01 0.  1.
          4   -1    0    0  501    0  0.00000000000E+00 -0.00000000000E+00 -0.67928779120E+02  0.67940650076E+02  0.12700000000E+01 0.  1.
         25    2    1    2    0    0  0.00000000000E+00  0.00000000000E+00 -0.10428288880E+02  0.12545516370E+03  0.12502099380E+03 0.  0.
    9000005    1    3    3    0    0  0.49389241020E+02 -0.21499678164E+02  0.26598141466E+02  0.60083229100E+02  0.10000000000E+01 0.  0.
    9000005    1    3    3    0    0 -0.49389241020E+02  0.21499678164E+02 -0.37026430346E+02  0.65371934603E+02  0.10000000000E+01 0.  0.
<mgrwt>
<rscale>  0 0.12502099E+03</rscale>
<asrwt>0</asrwt>
<pdfrwt beam="2">  1        4 0.10452573E-01 0.12502099E+03</pdfrwt>
<pdfrwt beam="1">  1       -4 0.88482211E-02 0.12502099E+03</pdfrwt>
<totfact> 0.10438003E+04</totfact>
</mgrwt>
</event>
<event>
 5    1  0.3401591E-002  0.1250016E+03  0.7818608E-02  0.1235067E+00
         -4   -1    0    0    0  501 -0.00000000000E+00  0.00000000000E+00  0.30352595954E+03  0.30352861646E+03  0.12700000000E+01 0.  1.
          4   -1    0    0  501    0  0.00000000000E+00 -0.00000000000E+00 -0.12835860834E+02  0.12898535706E+02  0.12700000000E+01 0.  1.
         25    2    1    2    0    0  0.00000000000E+00  0.00000000000E+00  0.29069009870E+03  0.31642715217E+03  0.12500163658E+03 0.  0.
    9000005    1    3    3    0    0 -0.38088366160E+02 -0.49543346483E+02  0.14608510252E+03  0.15889343597E+03  0.10000000000E+01 0.  0.
    9000005    1    3    3    0    0  0.38088366160E+02  0.49543346483E+02  0.14460499618E+03  0.15753371620E+03  0.10000000000E+01 0.  0.
<mgrwt>
<rscale>  0 0.12500164E+03</rscale>
<asrwt>0</asrwt>
<pdfrwt beam="2">  1        4 0.19797733E-02 0.12500164E+03</pdfrwt>
<pdfrwt beam="1">  1       -4 0.46701328E-01 0.12500164E+03</pdfrwt>
<totfact> 0.73580420E+03</totfact>
</mgrwt>
</event>
<event>
 5    1  0.3401591E-002  0.1250072E+03  0.7818608E-02  0.1235058E+00
         -4   -1    0    0    0  501 -0.00000000000E+00  0.00000000000E+00  0.13587308710E+03  0.13587902228E+03  0.12700000000E+01 0. -1.
          4   -1    0    0  501    0  0.00000000000E+00 -0.00000000000E+00 -0.28731975896E+02  0.28760030231E+02  0.12700000000E+01 0. -1.
         25    2    1    2    0    0  0.00000000000E+00  0.00000000000E+00  0.10714111120E+03  0.16463905252E+03  0.12500719941E+03 0.  0.
    9000005    1    3    3    0    0  0.60161763316E+02 -0.79299670929E+01  0.33886351075E+02  0.69509761420E+02  0.10000000000E+01 0.  0.
    9000005    1    3    3    0    0 -0.60161763316E+02  0.79299670929E+01  0.73254760125E+02  0.95129291096E+02  0.10000000000E+01 0.  0.
<mgrwt>
<rscale>  0 0.12500720E+03</rscale>
<asrwt>0</asrwt>
<pdfrwt beam="2">  1        4 0.44229186E-02 0.12500720E+03</pdfrwt>
<pdfrwt beam="1">  1       -4 0.20906166E-01 0.12500720E+03</pdfrwt>
<totfact> 0.96440194E+03</totfact>
</mgrwt>
</event>
<event>
 5    1  0.3401591E-002  0.1249998E+03  0.7818608E-02  0.1235070E+00
          4   -1    0    0  501    0  0.00000000000E+00  0.00000000000E+00  0.19293847862E+04  0.19293852041E+04  0.12700000000E+01 0.  1.
         -4   -1    0    0    0  501 -0.00000000000E+00 -0.00000000000E+00 -0.18249791458E+01  0.22233868046E+01  0.12700000000E+01 0.  1.
         25    2    1    2    0    0  0.00000000000E+00  0.00000000000E+00  0.19275598070E+04  0.19316085910E+04  0.12499975602E+03 0.  0.
    9000005    1    3    3    0    0  0.58316151093E+02  0.21063928324E+02  0.84331447487E+03  0.84559137062E+03  0.10000000000E+01 0.  0.
    9000005    1    3    3    0    0 -0.58316151093E+02 -0.21063928324E+02  0.10842453322E+04  0.10860172203E+04  0.10000000000E+01 0.  0.
<mgrwt>
<rscale>  0 0.12499976E+03</rscale>
<asrwt>0</asrwt>
<pdfrwt beam="1">  1        4 0.29685879E+00 0.12499976E+03</pdfrwt>
<pdfrwt beam="2">  1       -4 0.31144525E-03 0.12499976E+03</pdfrwt>
<totfact> 0.10780509E+03</totfact>
</mgrwt>
</event>
<event>
 5    1  0.3401591E-002  0.1249954E+03  0.7818608E-02  0.1235077E+00
         -4   -1    0    0    0  501 -0.00000000000E+00  0.00000000000E+00  0.14926141187E+02  0.14980073122E+02  0.12700000000E+01 0. -1.
          4   -1    0    0  501    0  0.00000000000E+00 -0.00000000000E+00 -0.26115850416E+03  0.26116159211E+03  0.12700000000E+01 0. -1.
         25    2    1    2    0    0  0.00000000000E+00  0.00000000000E+00 -0.24623236297E+03  0.27614166524E+03  0.12499537073E+03 0.  0.
    9000005    1    3    3    0    0  0.57941945392E+01 -0.60044134165E+02 -0.87078882193E+02  0.10593678522E+03  0.10000000000E+01 0.  0.
    9000005    1    3    3    0    0 -0.57941945392E+01  0.60044134165E+02 -0.15915348078E+03  0.17020488002E+03  0.10000000000E+01 0.  0.
<mgrwt>
<rscale>  0 0.12499537E+03</rscale>
<asrwt>0</asrwt>
<pdfrwt beam="2">  1        4 0.40182614E-01 0.12499537E+03</pdfrwt>
<pdfrwt beam="1">  1       -4 0.23007158E-02 0.12499537E+03</pdfrwt>
<totfact> 0.78700591E+03</totfact>
</mgrwt>
</event>
<event>
 5    1  0.3401591E-002  0.1249977E+03  0.7818608E-02  0.1235073E+00
         -4   -1    0    0    0  501 -0.00000000000E+00  0.00000000000E+00  0.18450318504E+02  0.18493976125E+02  0.12700000000E+01 0.  1.
          4   -1    0    0  501    0  0.00000000000E+00 -0.00000000000E+00 -0.21141372382E+03  0.21141753834E+03  0.12700000000E+01 0.  1.
         25    2    1    2    0    0  0.00000000000E+00  0.00000000000E+00 -0.19296340531E+03  0.22991151447E+03  0.12499771475E+03 0.  0.
    9000005    1    3    3    0    0 -0.17914600903E+02  0.11147635410E+02 -0.20467259508E+03  0.20575974795E+03  0.10000000000E+01 0.  0.
    9000005    1    3    3    0    0  0.17914600903E+02 -0.11147635410E+02  0.11709189767E+02  0.24151766513E+02  0.10000000000E+01 0.  0.
<mgrwt>
<rscale>  0 0.12499771E+03</rscale>
<asrwt>0</asrwt>
<pdfrwt beam="2">  1        4 0.32528838E-01 0.12499771E+03</pdfrwt>
<pdfrwt beam="1">  1       -4 0.28421624E-02 0.12499771E+03</pdfrwt>
<totfact> 0.85327537E+03</totfact>
</mgrwt>
</event>
<event>
 5    1  0.3401591E-002  0.1249988E+03  0.7818608E-02  0.1235071E+00
          4   -1    0    0  501    0  0.00000000000E+00  0.00000000000E+00  0.80498570580E+02  0.80508588147E+02  0.12700000000E+01 0.  1.
         -4   -1    0    0    0  501 -0.00000000000E+00 -0.00000000000E+00 -0.48503447864E+02  0.48520071668E+02  0.12700000000E+01 0.  1.
         25    2    1    2    0    0  0.00000000000E+00  0.00000000000E+00  0.31995122716E+02  0.12902865982E+03  0.12499882870E+03 0.  0.
    9000005    1    3    3    0    0 -0.17924765983E+02 -0.59626899959E+02  0.21509404178E+02  0.65881096699E+02  0.10000000000E+01 0.  0.
    9000005    1    3    3    0    0  0.17924765983E+02  0.59626899959E+02  0.10485718538E+02  0.63147563116E+02  0.10000000000E+01 0.  0.
<mgrwt>
<rscale>  0 0.12499883E+03</rscale>
<asrwt>0</asrwt>
<pdfrwt beam="1">  1        4 0.12386445E-01 0.12499883E+03</pdfrwt>
<pdfrwt beam="2">  1       -4 0.74641183E-02 0.12499883E+03</pdfrwt>
<totfact> 0.10365605E+04</totfact>
</mgrwt>
</event>
<event>
 5    1  0.3401591E-002  0.1249976E+03  0.7818608E-02  0.1235073E+00
          4   -1    0    0  501    0  0.00000000000E+00  0.00000000000E+00  0.48035273121E+03  0.48035441008E+03  0.12700000000E+01 0. -1.
         -4   -1    0    0    0  501 -0.00000000000E+00 -0.00000000000E+00 -0.80804375129E+01  0.81796314342E+01  0.12700000000E+01 0. -1.
         25    2    1    2    0    0  0.00000000000E+00  0.00000000000E+00  0.47227229370E+03  0.48853404152E+03  0.12499756126E+03 0.  0.
    9000005    1    3    3    0    0 -0.54131453534E+02  0.24895938522E+02  0.30978291341E+03  0.31546232018E+03  0.10000000000E+01 0.  0.
    9000005    1    3    3    0    0  0.54131453534E+02 -0.24895938522E+02  0.16248938029E+03  0.17307172133E+03  0.10000000000E+01 0.  0.
<mgrwt>
<rscale>  0 0.12499756E+03</rscale>
<asrwt>0</asrwt>
<pdfrwt beam="1">  1        4 0.73908177E-01 0.12499756E+03</pdfrwt>
<pdfrwt beam="2">  1       -4 0.12509037E-02 0.12499756E+03</pdfrwt>
<totfact> 0.56768133E+03</totfact>
</mgrwt>
</event>
<event>
 5    1  0.3401591E-002  0.1249978E+03  0.7818608E-02  0.1235073E+00
         -4   -1    0    0    0  501 -0.00000000000E+00  0.00000000000E+00  0.10174723988E+03  0.10175516559E+03  0.12700000000E+01 0. -1.
          4   -1    0    0  501    0  0.00000000000E+00 -0.00000000000E+00 -0.38370446412E+02  0.38391458137E+02  0.12700000000E+01 0. -1.
         25    2    1    2    0    0  0.00000000000E+00  0.00000000000E+00  0.63376793471E+02  0.14014662372E+03  0.12499783274E+03 0.  0.
    9000005    1    3    3    0    0 -0.25256927253E+02 -0.20910530455E+02 -0.27956004444E+02  0.43101053846E+02  0.10000000000E+01 0.  0.
    9000005    1    3    3    0    0  0.25256927253E+02  0.20910530455E+02  0.91332797914E+02  0.97045569878E+02  0.10000000000E+01 0.  0.
<mgrwt>
<rscale>  0 0.12499783E+03</rscale>
<asrwt>0</asrwt>
<pdfrwt beam="2">  1        4 0.59053717E-02 0.12499783E+03</pdfrwt>
<pdfrwt beam="1">  1       -4 0.15655647E-01 0.12499783E+03</pdfrwt>
<totfact> 0.10131043E+04</totfact>
</mgrwt>
</event>
<event>
 5    1  0.3401591E-002  0.1249990E+03  0.7818608E-02  0.1235071E+00
          4   -1    0    0  501    0  0.00000000000E+00  0.00000000000E+00  0.18876649095E+03  0.18877076311E+03  0.12700000000E+01 0.  1.
         -4   -1    0    0    0  501 -0.00000000000E+00 -0.00000000000E+00 -0.20669235175E+02  0.20708215344E+02  0.12700000000E+01 0.  1.
         25    2    1    2    0    0  0.00000000000E+00  0.00000000000E+00  0.16809725577E+03  0.20947897845E+03  0.12499902006E+03 0.  0.
    9000005    1    3    3    0    0 -0.20205485971E+02 -0.11008989561E+02 -0.13319684272E+02  0.26605892272E+02  0.10000000000E+01 0.  0.
    9000005    1    3    3    0    0  0.20205485971E+02  0.11008989561E+02  0.18141694004E+03  0.18287308618E+03  0.10000000000E+01 0.  0.
<mgrwt>
<rscale>  0 0.12499902E+03</rscale>
<asrwt>0</asrwt>
<pdfrwt beam="1">  1        4 0.29044326E-01 0.12499902E+03</pdfrwt>
<pdfrwt beam="2">  1       -4 0.31832094E-02 0.12499902E+03</pdfrwt>
<totfact> 0.88562981E+03</totfact>
</mgrwt>
</event>
<event>
 5    1  0.3401591E-002  0.1249932E+03  0.7818608E-02  0.1235080E+00
         -4   -1    0    0    0  501 -0.00000000000E+00  0.00000000000E+00  0.33518375585E+01  0.35843709377E+01  0.12700000000E+01 0. -1.
          4   -1    0    0  501    0  0.00000000000E+00 -0.00000000000E+00 -0.11259807462E+04  0.11259814624E+04  0.12700000000E+01 0. -1.
         25    2    1    2    0    0  0.00000000000E+00  0.00000000000E+00 -0.11226289086E+04  0.11295658333E+04  0.12499322130E+03 0.  0.
    9000005    1    3    3    0    0  0.87355122789E+01 -0.38369021277E+02 -0.12263869313E+03  0.12880116468E+03  0.10000000000E+01 0.  0.
    9000005    1    3    3    0    0 -0.87355122789E+01  0.38369021277E+02 -0.99999021550E+03  0.10007646687E+04  0.10000000000E+01 0.  0.
<mgrwt>
<rscale>  0 0.12499322E+03</rscale>
<asrwt>0</asrwt>
<pdfrwt beam="2">  1        4 0.17324546E+00 0.12499322E+03</pdfrwt>
<pdfrwt beam="1">  1       -4 0.53361049E-03 0.12499322E+03</pdfrwt>
<totfact> 0.26637774E+03</totfact>
</mgrwt>
</event>
<event>
 5    1  0.3401591E-002  0.1249978E+03  0.7818608E-02  0.1235073E+00
          4   -1    0    0  501    0  0.00000000000E+00  0.00000000000E+00  0.75127034810E+03  0.75127142155E+03  0.12700000000E+01 0. -1.
         -4   -1    0    0    0  501 -0.00000000000E+00 -0.00000000000E+00 -0.51206942678E+01  0.52758326152E+01  0.12700000000E+01 0. -1.
         25    2    1    2    0    0  0.00000000000E+00  0.00000000000E+00  0.74614965384E+03  0.75654725417E+03  0.12499776745E+03 0.  0.
    9000005    1    3    3    0    0  0.42966631220E+02  0.31056581596E+01  0.64706827078E+03  0.64850144454E+03  0.10000000000E+01 0.  0.
    9000005    1    3    3    0    0 -0.42966631220E+02 -0.31056581596E+01  0.99081383050E+02  0.10804580963E+03  0.10000000000E+01 0.  0.
<mgrwt>
<rscale>  0 0.12499777E+03</rscale>
<asrwt>0</asrwt>
<pdfrwt beam="1">  1        4 0.11559203E+00 0.12499777E+03</pdfrwt>
<pdfrwt beam="2">  1       -4 0.79981571E-03 0.12499777E+03</pdfrwt>
<totfact> 0.40264900E+03</totfact>
</mgrwt>
</event>
<event>
 5    1  0.3401591E-002  0.1249953E+03  0.7818608E-02  0.1235077E+00
         -4   -1    0    0    0  501 -0.00000000000E+00  0.00000000000E+00  0.58841004432E+01  0.60195961679E+01  0.12700000000E+01 0.  1.
          4   -1    0    0  501    0  0.00000000000E+00 -0.00000000000E+00 -0.65612330609E+03  0.65612453520E+03  0.12700000000E+01 0.  1.
         25    2    1    2    0    0  0.00000000000E+00  0.00000000000E+00 -0.65023920564E+03  0.66214413137E+03  0.12499530450E+03 0.  0.
    9000005    1    3    3    0    0 -0.57672175969E+02 -0.19647032377E+02 -0.39868812764E+03  0.40331787573E+03  0.10000000000E+01 0.  0.
    9000005    1    3    3    0    0  0.57672175969E+02  0.19647032377E+02 -0.25155107800E+03  0.25882625563E+03  0.10000000000E+01 0.  0.
<mgrwt>
<rscale>  0 0.12499530E+03</rscale>
<asrwt>0</asrwt>
<pdfrwt beam="2">  1        4 0.10095251E+00 0.12499530E+03</pdfrwt>
<pdfrwt beam="1">  1       -4 0.91576404E-03 0.12499530E+03</pdfrwt>
<totfact> 0.45166349E+03</totfact>
</mgrwt>
</event>
<event>
 5    1  0.3401591E-002  0.1250002E+03  0.7818608E-02  0.1235069E+00
          4   -1    0    0  501    0  0.00000000000E+00  0.00000000000E+00  0.11062640398E+03  0.11063369359E+03  0.12700000000E+01 0. -1.
         -4   -1    0    0    0  501 -0.00000000000E+00 -0.00000000000E+00 -0.35290542826E+02  0.35313387164E+02  0.12700000000E+01 0. -1.
         25    2    1    2    0    0  0.00000000000E+00  0.00000000000E+00  0.75335861150E+02  0.14594708075E+03  0.12500023362E+03 0.  0.
    9000005    1    3    3    0    0 -0.12297935132E+02  0.53351253870E+02  0.72844085401E+02  0.91130984170E+02  0.10000000000E+01 0.  0.
    9000005    1    3    3    0    0  0.12297935132E+02 -0.53351253870E+02  0.24917757497E+01  0.54816096581E+02  0.10000000000E+01 0.  0.
<mgrwt>
<rscale>  0 0.12500023E+03</rscale>
<asrwt>0</asrwt>
<pdfrwt beam="1">  1        4 0.17021764E-01 0.12500023E+03</pdfrwt>
<pdfrwt beam="2">  1       -4 0.54316324E-02 0.12500023E+03</pdfrwt>
<totfact> 0.10011729E+04</totfact>
</mgrwt>
</event>
<event>
 5    1  0.3401591E-002  0.1250012E+03  0.7818608E-02  0.1235067E+00
         -4   -1    0    0    0  501 -0.00000000000E+00  0.00000000000E+00  0.13864287488E+02  0.13922333409E+02  0.12700000000E+01 0.  1.
          4   -1    0    0  501    0  0.00000000000E+00 -0.00000000000E+00 -0.28110624762E+03  0.28110911645E+03  0.12700000000E+01 0.  1.
         25    2    1    2    0    0  0.00000000000E+00  0.00000000000E+00 -0.26724196013E+03  0.29503144986E+03  0.12500116460E+03 0.  0.
    9000005    1    3    3    0    0 -0.39094580142E+02  0.21526681689E+02 -0.23686689189E+03  0.24103673723E+03  0.10000000000E+01 0.  0.
    9000005    1    3    3    0    0  0.39094580142E+02 -0.21526681689E+02 -0.30375068240E+02  0.53994712627E+02  0.10000000000E+01 0.  0.
<mgrwt>
<rscale>  0 0.12500116E+03</rscale>
<asrwt>0</asrwt>
<pdfrwt beam="2">  1        4 0.43251797E-01 0.12500116E+03</pdfrwt>
<pdfrwt beam="1">  1       -4 0.21376533E-02 0.12500116E+03</pdfrwt>
<totfact> 0.76224372E+03</totfact>
</mgrwt>
</event>
<event>
 5    1  0.3401591E-002  0.1249991E+03  0.7818608E-02  0.1235071E+00
          4   -1    0    0  501    0  0.00000000000E+00  0.00000000000E+00  0.81548997377E+02  0.81558885925E+02  0.12700000000E+01 0.  1.
         -4   -1    0    0    0  501 -0.00000000000E+00 -0.00000000000E+00 -0.47878755112E+02  0.47895595738E+02  0.12700000000E+01 0.  1.
         25    2    1    2    0    0  0.00000000000E+00  0.00000000000E+00  0.33670242265E+02  0.12945448166E+03  0.12499911043E+03 0.  0.
    9000005    1    3    3    0    0 -0.36996839532E+02 -0.84280664657E+01 -0.34587416895E+02  0.51352583646E+02  0.10000000000E+01 0.  0.
    9000005    1    3    3    0    0  0.36996839532E+02  0.84280664657E+01  0.68257659160E+02  0.78101898016E+02  0.10000000000E+01 0.  0.
<mgrwt>
<rscale>  0 0.12499911E+03</rscale>
<asrwt>0</asrwt>
<pdfrwt beam="1">  1        4 0.12548056E-01 0.12499911E+03</pdfrwt>
<pdfrwt beam="2">  1       -4 0.73680185E-02 0.12499911E+03</pdfrwt>
<totfact> 0.10356399E+04</totfact>
</mgrwt>
</event>
<event>
 5    1  0.3401591E-002  0.1250001E+03  0.7818608E-02  0.1235069E+00
         -4   -1    0    0    0  501 -0.00000000000E+00  0.00000000000E+00  0.26865266979E+03  0.26865567160E+03  0.12700000000E+01 0.  1.
          4   -1    0    0  501    0  0.00000000000E+00 -0.00000000000E+00 -0.14509360907E+02  0.14564836214E+02  0.12700000000E+01 0.  1.
         25    2    1    2    0    0  0.00000000000E+00  0.00000000000E+00  0.25414330888E+03  0.28322050782E+03  0.12500013839E+03 0.  0.
    9000005    1    3    3    0    0  0.22551156821E+02 -0.50365348526E+02  0.19351820321E+03  0.20123498200E+03  0.10000000000E+01 0.  0.
    9000005    1    3    3    0    0 -0.22551156821E+02  0.50365348526E+02  0.60625105674E+02  0.81985525820E+02  0.10000000000E+01 0.  0.
<mgrwt>
<rscale>  0 0.12500014E+03</rscale>
<asrwt>0</asrwt>
<pdfrwt beam="2">  1        4 0.22367076E-02 0.12500014E+03</pdfrwt>
<pdfrwt beam="1">  1       -4 0.41335679E-01 0.12500014E+03</pdfrwt>
<totfact> 0.77752777E+03</totfact>
</mgrwt>
</event>
<event>
 5    1  0.3401591E-002  0.1250036E+03  0.7818608E-02  0.1235064E+00
          4   -1    0    0  501    0  0.00000000000E+00  0.00000000000E+00  0.18906351674E+02  0.18948958642E+02  0.12700000000E+01 0. -1.
         -4   -1    0    0    0  501 -0.00000000000E+00 -0.00000000000E+00 -0.20634508607E+03  0.20634899429E+03  0.12700000000E+01 0. -1.
         25    2    1    2    0    0  0.00000000000E+00  0.00000000000E+00 -0.18743873440E+03  0.22529795293E+03  0.12500355373E+03 0.  0.
    9000005    1    3    3    0    0 -0.27422571895E+02 -0.55546873793E+02 -0.10858390875E+03  0.12501567052E+03  0.10000000000E+01 0.  0.
    9000005    1    3    3    0    0  0.27422571895E+02  0.55546873793E+02 -0.78854825647E+02  0.10028228241E+03  0.10000000000E+01 0.  0.
<mgrwt>
<rscale>  0 0.12500355E+03</rscale>
<asrwt>0</asrwt>
<pdfrwt beam="1">  1        4 0.29122477E-02 0.12500355E+03</pdfrwt>
<pdfrwt beam="2">  1       -4 0.31748974E-01 0.12500355E+03</pdfrwt>
<totfact> 0.86030046E+03</totfact>
</mgrwt>
</event>
<event>
 5    1  0.3401591E-002  0.1249985E+03  0.7818608E-02  0.1235072E+00
          4   -1    0    0  501    0  0.00000000000E+00  0.00000000000E+00  0.40424310712E+02  0.40444255421E+02  0.12700000000E+01 0. -1.
         -4   -1    0    0    0  501 -0.00000000000E+00 -0.00000000000E+00 -0.96580911473E+02  0.96589261106E+02  0.12700000000E+01 0. -1.
         25    2    1    2    0    0  0.00000000000E+00  0.00000000000E+00 -0.56156600761E+02  0.13703351653E+03  0.12499848336E+03 0.  0.
    9000005    1    3    3    0    0 -0.10633964260E+02 -0.58003155335E+02 -0.50750608688E+02  0.77807914166E+02  0.10000000000E+01 0.  0.
    9000005    1    3    3    0    0  0.10633964260E+02  0.58003155335E+02 -0.54059920732E+01  0.59225602361E+02  0.10000000000E+01 0.  0.
<mgrwt>
<rscale>  0 0.12499848E+03</rscale>
<asrwt>0</asrwt>
<pdfrwt beam="1">  1        4 0.62213012E-02 0.12499848E+03</pdfrwt>
<pdfrwt beam="2">  1       -4 0.14860778E-01 0.12499848E+03</pdfrwt>
<totfact> 0.10195734E+04</totfact>
</mgrwt>
</event>
<event>
 5    1  0.3401591E-002  0.1249965E+03  0.7818608E-02  0.1235075E+00
          4   -1    0    0  501    0  0.00000000000E+00  0.00000000000E+00  0.28333887985E+03  0.28334172607E+03  0.12700000000E+01 0.  1.
         -4   -1    0    0    0  501 -0.00000000000E+00 -0.00000000000E+00 -0.13753544436E+02  0.13812055768E+02  0.12700000000E+01 0.  1.
         25    2    1    2    0    0  0.00000000000E+00  0.00000000000E+00  0.26958533541E+03  0.29715378184E+03  0.12499646792E+03 0.  0.
    9000005    1    3    3    0    0 -0.31890763272E+02 -0.67524961856E+01  0.80487711734E+01  0.33591661230E+02  0.10000000000E+01 0.  0.
    9000005    1    3    3    0    0  0.31890763272E+02  0.67524961856E+01  0.26153656424E+03  0.26356212061E+03  0.10000000000E+01 0.  0.
<mgrwt>
<rscale>  0 0.12499647E+03</rscale>
<asrwt>0</asrwt>
<pdfrwt beam="1">  1        4 0.43595315E-01 0.12499647E+03</pdfrwt>
<pdfrwt beam="2">  1       -4 0.21206498E-02 0.12499647E+03</pdfrwt>
<totfact> 0.75963213E+03</totfact>
</mgrwt>
</event>
<event>
 5    1  0.3401591E-002  0.1249990E+03  0.7818608E-02  0.1235071E+00
          4   -1    0    0  501    0  0.00000000000E+00  0.00000000000E+00  0.45183782231E+01  0.46934679894E+01  0.12700000000E+01 0. -1.
         -4   -1    0    0    0  501 -0.00000000000E+00 -0.00000000000E+00 -0.84790327063E+03  0.84790422174E+03  0.12700000000E+01 0. -1.
         25    2    1    2    0    0  0.00000000000E+00  0.00000000000E+00 -0.84338489241E+03  0.85259768973E+03  0.12499897516E+03 0.  0.
    9000005    1    3    3    0    0  0.11398024332E+02 -0.41369864237E+02 -0.11182777524E+03  0.11978243586E+03  0.10000000000E+01 0.  0.
    9000005    1    3    3    0    0 -0.11398024332E+02  0.41369864237E+02 -0.73155711716E+03  0.73281525387E+03  0.10000000000E+01 0.  0.
<mgrwt>
<rscale>  0 0.12499898E+03</rscale>
<asrwt>0</asrwt>
<pdfrwt beam="1">  1        4 0.70867739E-03 0.12499898E+03</pdfrwt>
<pdfrwt beam="2">  1       -4 0.13046007E+00 0.12499898E+03</pdfrwt>
<totfact> 0.36022095E+03</totfact>
</mgrwt>
</event>
<event>
 5    1  0.3401591E-002  0.1249828E+03  0.7818608E-02  0.1235096E+00
         -4   -1    0    0    0  501 -0.00000000000E+00  0.00000000000E+00  0.44744749885E+02  0.44762769600E+02  0.12700000000E+01 0.  1.
          4   -1    0    0  501    0  0.00000000000E+00 -0.00000000000E+00 -0.87236509153E+02  0.87245753073E+02  0.12700000000E+01 0.  1.
         25    2    1    2    0    0  0.00000000000E+00  0.00000000000E+00 -0.42491759268E+02  0.13200852267E+03  0.12498280063E+03 0.  0.
    9000005    1    3    3    0    0  0.24681391456E+02 -0.54249293044E+02 -0.14290444166E+01  0.59625489918E+02  0.10000000000E+01 0.  0.
    9000005    1    3    3    0    0 -0.24681391456E+02  0.54249293044E+02 -0.41062714851E+02  0.72383032756E+02  0.10000000000E+01 0.  0.
<mgrwt>
<rscale>  0 0.12498280E+03</rscale>
<asrwt>0</asrwt>
<pdfrwt beam="2">  1        4 0.13423099E-01 0.12498280E+03</pdfrwt>
<pdfrwt beam="1">  1       -4 0.68859049E-02 0.12498280E+03</pdfrwt>
<totfact> 0.10305514E+04</totfact>
</mgrwt>
</event>
<event>
 5    1  0.3401591E-002  0.1249975E+03  0.7818608E-02  0.1235073E+00
          4   -1    0    0  501    0  0.00000000000E+00  0.00000000000E+00  0.11303842182E+02  0.11374961454E+02  0.12700000000E+01 0.  1.
         -4   -1    0    0    0  501 -0.00000000000E+00 -0.00000000000E+00 -0.34439857218E+03  0.34440091379E+03  0.12700000000E+01 0.  1.
         25    2    1    2    0    0  0.00000000000E+00  0.00000000000E+00 -0.33309473000E+03  0.35577587524E+03  0.12499749699E+03 0.  0.
    9000005    1    3    3    0    0 -0.23323800074E+02 -0.54094068669E+02 -0.22590583373E+03  0.23346223170E+03  0.10000000000E+01 0.  0.
    9000005    1    3    3    0    0  0.23323800074E+02  0.54094068669E+02 -0.10718889626E+03  0.12231364355E+03  0.10000000000E+01 0.  0.
<mgrwt>
<rscale>  0 0.12499750E+03</rscale>
<asrwt>0</asrwt>
<pdfrwt beam="1">  1        4 0.17447037E-02 0.12499750E+03</pdfrwt>
<pdfrwt beam="2">  1       -4 0.52990038E-01 0.12499750E+03</pdfrwt>
<totfact> 0.69097608E+03</totfact>
</mgrwt>
</event>
<event>
 5    1  0.3401591E-002  0.1249970E+03  0.7818608E-02  0.1235074E+00
          4   -1    0    0  501    0  0.00000000000E+00  0.00000000000E+00  0.40606952153E+02  0.40626807199E+02  0.12700000000E+01 0. -1.
         -4   -1    0    0    0  501 -0.00000000000E+00 -0.00000000000E+00 -0.96144412529E+02  0.96152800066E+02  0.12700000000E+01 0. -1.
         25    2    1    2    0    0  0.00000000000E+00  0.00000000000E+00 -0.55537460376E+02  0.13677960726E+03  0.12499700580E+03 0.  0.
    9000005    1    3    3    0    0 -0.75706521055E+01  0.61317879056E+02 -0.38025997520E+02  0.72554624613E+02  0.10000000000E+01 0.  0.
    9000005    1    3    3    0    0  0.75706521055E+01 -0.61317879056E+02 -0.17511462856E+02  0.64224982652E+02  0.10000000000E+01 0.  0.
<mgrwt>
<rscale>  0 0.12499701E+03</rscale>
<asrwt>0</asrwt>
<pdfrwt beam="1">  1        4 0.62493960E-02 0.12499701E+03</pdfrwt>
<pdfrwt beam="2">  1       -4 0.14793620E-01 0.12499701E+03</pdfrwt>
<totfact> 0.10201385E+04</totfact>
</mgrwt>
</event>
<event>
 5    1  0.3401591E-002  0.1250027E+03  0.7818608E-02  0.1235065E+00
         -4   -1    0    0    0  501 -0.00000000000E+00  0.00000000000E+00  0.33076122944E+02  0.33100495601E+02  0.12700000000E+01 0. -1.
          4   -1    0    0  501    0  0.00000000000E+00 -0.00000000000E+00 -0.11803264370E+03  0.11803947593E+03  0.12700000000E+01 0. -1.
         25    2    1    2    0    0  0.00000000000E+00  0.00000000000E+00 -0.84956520752E+02  0.15113997153E+03  0.12500272228E+03 0.  0.
    9000005    1    3    3    0    0  0.14446330377E+02 -0.60799433529E+02 -0.42005993317E+02  0.75304522131E+02  0.10000000000E+01 0.  0.
    9000005    1    3    3    0    0 -0.14446330377E+02  0.60799433529E+02 -0.42950527435E+02  0.75835449401E+02  0.10000000000E+01 0.  0.
<mgrwt>
<rscale>  0 0.12500272E+03</rscale>
<asrwt>0</asrwt>
<pdfrwt beam="2">  1        4 0.18161268E-01 0.12500272E+03</pdfrwt>
<pdfrwt beam="1">  1       -4 0.50910347E-02 0.12500272E+03</pdfrwt>
<totfact> 0.99070877E+03</totfact>
</mgrwt>
</event>
<event>
 5    1  0.3401591E-002  0.1250017E+03  0.7818608E-02  0.1235067E+00
          4   -1    0    0  501    0  0.00000000000E+00  0.00000000000E+00  0.23821797776E+02  0.23855627204E+02  0.12700000000E+01 0. -1.
         -4   -1    0    0    0  501 -0.00000000000E+00 -0.00000000000E+00 -0.16382968097E+03  0.16383460339E+03  0.12700000000E+01 0. -1.
         25    2    1    2    0    0  0.00000000000E+00  0.00000000000E+00 -0.14000788320E+03  0.18769023059E+03  0.12500166120E+03 0.  0.
    9000005    1    3    3    0    0 -0.25235717915E+02 -0.49472292140E+02 -0.11302674431E+03  0.12593805651E+03  0.10000000000E+01 0.  0.
    9000005    1    3    3    0    0  0.25235717915E+02  0.49472292140E+02 -0.26981138885E+02  0.61752174082E+02  0.10000000000E+01 0.  0.
<mgrwt>
<rscale>  0 0.12500166E+03</rscale>
<asrwt>0</asrwt>
<pdfrwt beam="1">  1        4 0.36678730E-02 0.12500166E+03</pdfrwt>
<pdfrwt beam="2">  1       -4 0.25207547E-01 0.12500166E+03</pdfrwt>
<totfact> 0.92247334E+03</totfact>
</mgrwt>
</event>
<event>
 5    1  0.3401591E-002  0.1249998E+03  0.7818608E-02  0.1235070E+00
          4   -1    0    0  501    0  0.00000000000E+00  0.00000000000E+00  0.92748239123E+01  0.93613705516E+01  0.12700000000E+01 0. -1.
         -4   -1    0    0    0  501 -0.00000000000E+00 -0.00000000000E+00 -0.41912243194E+03  0.41912435607E+03  0.12700000000E+01 0. -1.
         25    2    1    2    0    0  0.00000000000E+00  0.00000000000E+00 -0.40984760802E+03  0.42848572662E+03  0.12499982447E+03 0.  0.
    9000005    1    3    3    0    0  0.11227148154E+02 -0.42381425527E+01  0.53047994299E+01  0.13158708332E+02  0.10000000000E+01 0.  0.
    9000005    1    3    3    0    0 -0.11227148154E+02  0.42381425527E+01 -0.41515240745E+03  0.41532701829E+03  0.10000000000E+01 0.  0.
<mgrwt>
<rscale>  0 0.12499982E+03</rscale>
<asrwt>0</asrwt>
<pdfrwt beam="1">  1        4 0.14337018E-02 0.12499982E+03</pdfrwt>
<pdfrwt beam="2">  1       -4 0.64487165E-01 0.12499982E+03</pdfrwt>
<totfact> 0.61873737E+03</totfact>
</mgrwt>
</event>
<event>
 5    1  0.3401591E-002  0.1249993E+03  0.7818608E-02  0.1235070E+00
          4   -1    0    0  501    0  0.00000000000E+00  0.00000000000E+00  0.96974071298E+03  0.96974154459E+03  0.12700000000E+01 0.  1.
         -4   -1    0    0    0  501 -0.00000000000E+00 -0.00000000000E+00 -0.39271352101E+01  0.41273830642E+01  0.12700000000E+01 0.  1.
         25    2    1    2    0    0  0.00000000000E+00  0.00000000000E+00  0.96581357777E+03  0.97386892765E+03  0.12499928501E+03 0.  0.
    9000005    1    3    3    0    0 -0.21829659280E+02 -0.13819763433E+02  0.92621962434E+03  0.92658044033E+03  0.10000000000E+01 0.  0.
    9000005    1    3    3    0    0  0.21829659280E+02  0.13819763433E+02  0.39593953423E+02  0.47288487323E+02  0.10000000000E+01 0.  0.
<mgrwt>
<rscale>  0 0.12499929E+03</rscale>
<asrwt>0</asrwt>
<pdfrwt beam="1">  1        4 0.14920649E+00 0.12499929E+03</pdfrwt>
<pdfrwt beam="2">  1       -4 0.61964168E-03 0.12499929E+03</pdfrwt>
<totfact> 0.31483858E+03</totfact>
</mgrwt>
</event>
<event>
 5    1  0.3401591E-002  0.1250002E+03  0.7818608E-02  0.1235069E+00
         -4   -1    0    0    0  501 -0.00000000000E+00  0.00000000000E+00  0.24100894150E+04  0.24100897496E+04  0.12700000000E+01 0. -1.
          4   -1    0    0  501    0  0.00000000000E+00 -0.00000000000E+00 -0.13716270970E+01  0.18692942233E+01  0.12700000000E+01 0. -1.
         25    2    1    2    0    0  0.00000000000E+00  0.00000000000E+00  0.24087177879E+04  0.24119590438E+04  0.12500018956E+03 0.  0.
    9000005    1    3    3    0    0 -0.30000208127E+02 -0.85944891294E+01  0.15964920485E+03  0.16267374202E+03  0.10000000000E+01 0.  0.
    9000005    1    3    3    0    0  0.30000208127E+02  0.85944891294E+01  0.22490685830E+04  0.22492853018E+04  0.10000000000E+01 0.  0.
<mgrwt>
<rscale>  0 0.12500019E+03</rscale>
<asrwt>0</asrwt>
<pdfrwt beam="2">  1        4 0.24932835E-03 0.12500019E+03</pdfrwt>
<pdfrwt beam="1">  1       -4 0.37081986E+00 0.12500019E+03</pdfrwt>
<totfact> 0.53984749E+02</totfact>
</mgrwt>
</event>
<event>
 5    1  0.3401591E-002  0.1249982E+03  0.7818608E-02  0.1235072E+00
         -4   -1    0    0    0  501 -0.00000000000E+00  0.00000000000E+00  0.74320721096E+01  0.75398007827E+01  0.12700000000E+01 0. -1.
          4   -1    0    0  501    0  0.00000000000E+00 -0.00000000000E+00 -0.52168807772E+03  0.52168962356E+03  0.12700000000E+01 0. -1.
         25    2    1    2    0    0  0.00000000000E+00  0.00000000000E+00 -0.51425600561E+03  0.52922942434E+03  0.12499817714E+03 0.  0.
    9000005    1    3    3    0    0  0.44602731738E+02  0.38058662723E+02 -0.16560620888E+03  0.17568233237E+03  0.10000000000E+01 0.  0.
    9000005    1    3    3    0    0 -0.44602731738E+02 -0.38058662723E+02 -0.34864979673E+03  0.35354709198E+03  0.10000000000E+01 0.  0.
<mgrwt>
<rscale>  0 0.12499818E+03</rscale>
<asrwt>0</asrwt>
<pdfrwt beam="2">  1        4 0.80268082E-01 0.12499818E+03</pdfrwt>
<pdfrwt beam="1">  1       -4 0.11518018E-02 0.12499818E+03</pdfrwt>
<totfact> 0.53667922E+03</totfact>
</mgrwt>
</event>
<event>
 5    1  0.3401591E-002  0.1249994E+03  0.7818608E-02  0.1235070E+00
          4   -1    0    0  501    0  0.00000000000E+00  0.00000000000E+00  0.20624806057E+04  0.20624809967E+04  0.12700000000E+01 0. -1.
         -4   -1    0    0    0  501 -0.00000000000E+00 -0.00000000000E+00 -0.16806003236E+01  0.21064941129E+01  0.12700000000E+01 0. -1.
         25    2    1    2    0    0  0.00000000000E+00  0.00000000000E+00  0.20608000054E+04  0.20645874908E+04  0.12499938041E+03 0.  0.
    9000005    1    3    3    0    0 -0.50849228984E+02  0.30193660257E+02  0.13639858703E+04  0.13652676498E+04  0.10000000000E+01 0.  0.
    9000005    1    3    3    0    0  0.50849228984E+02 -0.30193660257E+02  0.69681413511E+03  0.69931984106E+03  0.10000000000E+01 0.  0.
<mgrwt>
<rscale>  0 0.12499938E+03</rscale>
<asrwt>0</asrwt>
<pdfrwt beam="1">  1        4 0.31733687E+00 0.12499938E+03</pdfrwt>
<pdfrwt beam="2">  1       -4 0.29134561E-03 0.12499938E+03</pdfrwt>
<totfact> 0.90418214E+02</totfact>
</mgrwt>
</event>
<event>
 5    1  0.3401591E-002  0.1249959E+03  0.7818608E-02  0.1235076E+00
          4   -1    0    0  501    0  0.00000000000E+00  0.00000000000E+00  0.26823652351E+02  0.26853700405E+02  0.12700000000E+01 0. -1.
         -4   -1    0    0    0  501 -0.00000000000E+00 -0.00000000000E+00 -0.14550323761E+03  0.14550877999E+03  0.12700000000E+01 0. -1.
         25    2    1    2    0    0  0.00000000000E+00  0.00000000000E+00 -0.11867958526E+03  0.17236248039E+03  0.12499592270E+03 0.  0.
    9000005    1    3    3    0    0  0.61616515432E+02  0.45142863449E+01 -0.72277015732E+02  0.95089120084E+02  0.10000000000E+01 0.  0.
    9000005    1    3    3    0    0 -0.61616515432E+02 -0.45142863449E+01 -0.46402569523E+02  0.77273360309E+02  0.10000000000E+01 0.  0.
<mgrwt>
<rscale>  0 0.12499592E+03</rscale>
<asrwt>0</asrwt>
<pdfrwt beam="1">  1        4 0.41294536E-02 0.12499592E+03</pdfrwt>
<pdfrwt beam="2">  1       -4 0.22387851E-01 0.12499592E+03</pdfrwt>
<totfact> 0.95018821E+03</totfact>
</mgrwt>
</event>
<event>
 5    1  0.3401591E-002  0.1250026E+03  0.7818608E-02  0.1235065E+00
          4   -1    0    0  501    0  0.00000000000E+00  0.00000000000E+00  0.24958456667E+02  0.24990747472E+02  0.12700000000E+01 0. -1.
         -4   -1    0    0    0  501 -0.00000000000E+00 -0.00000000000E+00 -0.15638055992E+03  0.15638571680E+03  0.12700000000E+01 0. -1.
         25    2    1    2    0    0  0.00000000000E+00  0.00000000000E+00 -0.13142210325E+03  0.18137646427E+03  0.12500261025E+03 0.  0.
    9000005    1    3    3    0    0 -0.10165916942E+02  0.50735085195E+01 -0.15487650749E+03  0.15529590764E+03  0.10000000000E+01 0.  0.
    9000005    1    3    3    0    0  0.10165916942E+02 -0.50735085195E+01  0.23454404244E+02  0.26080556635E+02  0.10000000000E+01 0.  0.
<mgrwt>
<rscale>  0 0.12500261E+03</rscale>
<asrwt>0</asrwt>
<pdfrwt beam="1">  1        4 0.38426432E-02 0.12500261E+03</pdfrwt>
<pdfrwt beam="2">  1       -4 0.24061428E-01 0.12500261E+03</pdfrwt>
<totfact> 0.93364357E+03</totfact>
</mgrwt>
</event>
<event>
 5    1  0.3401591E-002  0.1250039E+03  0.7818608E-02  0.1235063E+00
          4   -1    0    0  501    0  0.00000000000E+00  0.00000000000E+00  0.45371927179E+02  0.45389697905E+02  0.12700000000E+01 0.  1.
         -4   -1    0    0    0  501 -0.00000000000E+00 -0.00000000000E+00 -0.86060069820E+02  0.86069440090E+02  0.12700000000E+01 0.  1.
         25    2    1    2    0    0  0.00000000000E+00  0.00000000000E+00 -0.40688142641E+02  0.13145913800E+03  0.12500391998E+03 0.  0.
    9000005    1    3    3    0    0 -0.38769431147E+02 -0.23120353398E+02 -0.65794826897E+02  0.79797110092E+02  0.10000000000E+01 0.  0.
    9000005    1    3    3    0    0  0.38769431147E+02  0.23120353398E+02  0.25106684255E+02  0.51662027903E+02  0.10000000000E+01 0.  0.
<mgrwt>
<rscale>  0 0.12500392E+03</rscale>
<asrwt>0</asrwt>
<pdfrwt beam="1">  1        4 0.69823843E-02 0.12500392E+03</pdfrwt>
<pdfrwt beam="2">  1       -4 0.13242098E-01 0.12500392E+03</pdfrwt>
<totfact> 0.10312344E+04</totfact>
</mgrwt>
</event>
<event>
 5    1  0.3401591E-002  0.1249997E+03  0.7818608E-02  0.1235070E+00
          4   -1    0    0  501    0  0.00000000000E+00  0.00000000000E+00  0.63935450582E+02  0.63948062841E+02  0.12700000000E+01 0.  1.
         -4   -1    0    0    0  501 -0.00000000000E+00 -0.00000000000E+00 -0.61071290469E+02  0.61084494100E+02  0.12700000000E+01 0.  1.
         25    2    1    2    0    0  0.00000000000E+00  0.00000000000E+00  0.28641601131E+01  0.12503255694E+03  0.12499974753E+03 0.  0.
    9000005    1    3    3    0    0  0.32912724697E+02 -0.34309517962E+02 -0.39135238410E+02  0.61586990145E+02  0.10000000000E+01 0.  0.
    9000005    1    3    3    0    0 -0.32912724697E+02  0.34309517962E+02  0.41999398523E+02  0.63445566796E+02  0.10000000000E+01 0.  0.
<mgrwt>
<rscale>  0 0.12499975E+03</rscale>
<asrwt>0</asrwt>
<pdfrwt beam="1">  1        4 0.98382090E-02 0.12499975E+03</pdfrwt>
<pdfrwt beam="2">  1       -4 0.93975690E-02 0.12499975E+03</pdfrwt>
<totfact> 0.10452215E+04</totfact>
</mgrwt>
</event>
<event>
 5    1  0.3401591E-002  0.1249981E+03  0.7818608E-02  0.1235072E+00
          4   -1    0    0  501    0  0.00000000000E+00  0.00000000000E+00  0.16160235208E+03  0.16160734234E+03  0.12700000000E+01 0.  1.
         -4   -1    0    0    0  501 -0.00000000000E+00 -0.00000000000E+00 -0.24149222012E+02  0.24182593405E+02  0.12700000000E+01 0.  1.
         25    2    1    2    0    0  0.00000000000E+00  0.00000000000E+00  0.13745313007E+03  0.18578993574E+03  0.12499814902E+03 0.  0.
    9000005    1    3    3    0    0 -0.23827287225E+02  0.33311579249E+02  0.13888020495E+03  0.14479679642E+03  0.10000000000E+01 0.  0.
    9000005    1    3    3    0    0  0.23827287225E+02 -0.33311579249E+02 -0.14270748801E+01  0.40993139319E+02  0.10000000000E+01 0.  0.
<mgrwt>
<rscale>  0 0.12499815E+03</rscale>
<asrwt>0</asrwt>
<pdfrwt beam="1">  1        4 0.24864852E-01 0.12499815E+03</pdfrwt>
<pdfrwt beam="2">  1       -4 0.37182158E-02 0.12499815E+03</pdfrwt>
<totfact> 0.92588896E+03</totfact>
</mgrwt>
</event>
<event>
 5    1  0.3401591E-002  0.1250005E+03  0.7818608E-02  0.1235069E+00
          4   -1    0    0  501    0  0.00000000000E+00  0.00000000000E+00  0.34388960357E+02  0.34412403207E+02  0.12700000000E+01 0.  1.
         -4   -1    0    0    0  501 -0.00000000000E+00 -0.00000000000E+00 -0.11352539858E+03  0.11353250205E+03  0.12700000000E+01 0.  1.
         25    2    1    2    0    0  0.00000000000E+00  0.00000000000E+00 -0.79136438221E+02  0.14794490526E+03  0.12500047655E+03 0.  0.
    9000005    1    3    3    0    0  0.41749995074E+02  0.10939532016E+02 -0.93058403054E+02  0.10258460815E+03  0.10000000000E+01 0.  0.
    9000005    1    3    3    0    0 -0.41749995074E+02 -0.10939532016E+02  0.13921964833E+02  0.45360297114E+02  0.10000000000E+01 0.  0.
<mgrwt>
<rscale>  0 0.12500048E+03</rscale>
<asrwt>0</asrwt>
<pdfrwt beam="1">  1        4 0.52929591E-02 0.12500048E+03</pdfrwt>
<pdfrwt beam="2">  1       -4 0.17467795E-01 0.12500048E+03</pdfrwt>
<totfact> 0.99713869E+03</totfact>
</mgrwt>
</event>
<event>
 5    1  0.3401591E-002  0.1249960E+03  0.7818608E-02  0.1235076E+00
         -4   -1    0    0    0  501 -0.00000000000E+00  0.00000000000E+00  0.51071104342E+02  0.51086892631E+02  0.12700000000E+01 0. -1.
          4   -1    0    0  501    0  0.00000000000E+00 -0.00000000000E+00 -0.76448726108E+02  0.76459274280E+02  0.12700000000E+01 0. -1.
         25    2    1    2    0    0  0.00000000000E+00  0.00000000000E+00 -0.25377621766E+02  0.12754616691E+03  0.12499600397E+03 0.  0.
    9000005    1    3    3    0    0  0.40640350775E+02  0.37831563180E+02 -0.41946690094E+02  0.69594468843E+02  0.10000000000E+01 0.  0.
    9000005    1    3    3    0    0 -0.40640350775E+02 -0.37831563180E+02  0.16569068328E+02  0.57951698068E+02  0.10000000000E+01 0.  0.
<mgrwt>
<rscale>  0 0.12499600E+03</rscale>
<asrwt>0</asrwt>
<pdfrwt beam="2">  1        4 0.11763368E-01 0.12499600E+03</pdfrwt>
<pdfrwt beam="1">  1       -4 0.78591188E-02 0.12499600E+03</pdfrwt>
<totfact> 0.10398239E+04</totfact>
</mgrwt>
</event>
<event>
 5    1  0.3401591E-002  0.1250063E+03  0.7818608E-02  0.1235059E+00
         -4   -1    0    0    0  501 -0.00000000000E+00  0.00000000000E+00  0.82424292444E+02  0.82434075994E+02  0.12700000000E+01 0. -1.
          4   -1    0    0  501    0  0.00000000000E+00 -0.00000000000E+00 -0.47375656584E+02  0.47392675983E+02  0.12700000000E+01 0. -1.
         25    2    1    2    0    0  0.00000000000E+00  0.00000000000E+00  0.35048635860E+02  0.12982675198E+03  0.12500631445E+03 0.  0.
    9000005    1    3    3    0    0 -0.20283639435E+02 -0.55440060434E+02 -0.37755220227E+01  0.59163171789E+02  0.10000000000E+01 0.  0.
    9000005    1    3    3    0    0  0.20283639435E+02  0.55440060434E+02  0.38824157883E+02  0.70663580187E+02  0.10000000000E+01 0.  0.
<mgrwt>
<rscale>  0 0.12500631E+03</rscale>
<asrwt>0</asrwt>
<pdfrwt beam="2">  1        4 0.72906244E-02 0.12500631E+03</pdfrwt>
<pdfrwt beam="1">  1       -4 0.12682722E-01 0.12500631E+03</pdfrwt>
<totfact> 0.10346740E+04</totfact>
</mgrwt>
</event>
<event>
 5    1  0.3401591E-002  0.1250006E+03  0.7818608E-02  0.1235068E+00
          4   -1    0    0  501    0  0.00000000000E+00  0.00000000000E+00  0.12255129816E+02  0.12320759181E+02  0.12700000000E+01 0. -1.
         -4   -1    0    0    0  501 -0.00000000000E+00 -0.00000000000E+00 -0.31782922181E+03  0.31783175917E+03  0.12700000000E+01 0. -1.
         25    2    1    2    0    0  0.00000000000E+00  0.00000000000E+00 -0.30557409200E+03  0.33015251835E+03  0.12500063870E+03 0.  0.
    9000005    1    3    3    0    0 -0.13893368833E+01 -0.60380811777E+02 -0.11040269581E+03  0.12584724046E+03  0.10000000000E+01 0.  0.
    9000005    1    3    3    0    0  0.13893368833E+01  0.60380811777E+02 -0.19517139619E+03  0.20430527790E+03  0.10000000000E+01 0.  0.
<mgrwt>
<rscale>  0 0.12500064E+03</rscale>
<asrwt>0</asrwt>
<pdfrwt beam="1">  1        4 0.18906484E-02 0.12500064E+03</pdfrwt>
<pdfrwt beam="2">  1       -4 0.48902041E-01 0.12500064E+03</pdfrwt>
<totfact> 0.71963654E+03</totfact>
</mgrwt>
</event>
<event>
 5    1  0.3401591E-002  0.1250038E+03  0.7818608E-02  0.1235063E+00
          4   -1    0    0  501    0  0.00000000000E+00  0.00000000000E+00  0.10630663212E+03  0.10631421792E+03  0.12700000000E+01 0.  1.
         -4   -1    0    0    0  501 -0.00000000000E+00 -0.00000000000E+00 -0.36727506595E+02  0.36749457693E+02  0.12700000000E+01 0.  1.
         25    2    1    2    0    0  0.00000000000E+00  0.00000000000E+00  0.69579125526E+02  0.14306367562E+03  0.12500384223E+03 0.  0.
    9000005    1    3    3    0    0 -0.22633184866E+02  0.56297423800E+02  0.51911951330E+02  0.79859324281E+02  0.10000000000E+01 0.  0.
    9000005    1    3    3    0    0  0.22633184866E+02 -0.56297423800E+02  0.17667174196E+02  0.63204351336E+02  0.10000000000E+01 0.  0.
<mgrwt>
<rscale>  0 0.12500384E+03</rscale>
<asrwt>0</asrwt>
<pdfrwt beam="1">  1        4 0.16357139E-01 0.12500384E+03</pdfrwt>
<pdfrwt beam="2">  1       -4 0.56526577E-02 0.12500384E+03</pdfrwt>
<totfact> 0.10069608E+04</totfact>
</mgrwt>
</event>
<event>
 5    1  0.3401591E-002  0.1250019E+03  0.7818608E-02  0.1235066E+00
         -4   -1    0    0    0  501 -0.00000000000E+00  0.00000000000E+00  0.60651744496E+02  0.60665039441E+02  0.12700000000E+01 0. -1.
          4   -1    0    0  501    0  0.00000000000E+00 -0.00000000000E+00 -0.64379904552E+02  0.64392429758E+02  0.12700000000E+01 0. -1.
         25    2    1    2    0    0  0.00000000000E+00  0.00000000000E+00 -0.37281600560E+01  0.12505746920E+03  0.12500188569E+03 0.  0.
    9000005    1    3    3    0    0 -0.11194253486E+02  0.52801465417E+02 -0.33375098010E+02  0.63468127659E+02  0.10000000000E+01 0.  0.
    9000005    1    3    3    0    0  0.11194253486E+02 -0.52801465417E+02  0.29646937954E+02  0.61589341540E+02  0.10000000000E+01 0.  0.
<mgrwt>
<rscale>  0 0.12500189E+03</rscale>
<asrwt>0</asrwt>
<pdfrwt beam="2">  1        4 0.99065869E-02 0.12500189E+03</pdfrwt>
<pdfrwt beam="1">  1       -4 0.93330238E-02 0.12500189E+03</pdfrwt>
<totfact> 0.10451169E+04</totfact>
</mgrwt>
</event>
<event>
 5    1  0.3401591E-002  0.1250026E+03  0.7818608E-02  0.1235065E+00
         -4   -1    0    0    0  501 -0.00000000000E+00  0.00000000000E+00  0.28538000494E+03  0.28538283081E+03  0.12700000000E+01 0. -1.
          4   -1    0    0  501    0  0.00000000000E+00 -0.00000000000E+00 -0.13656110552E+02  0.13715037565E+02  0.12700000000E+01 0. -1.
         25    2    1    2    0    0  0.00000000000E+00  0.00000000000E+00  0.27172389439E+03  0.29909786837E+03  0.12500264030E+03 0.  0.
    9000005    1    3    3    0    0 -0.25029969293E+02  0.39406162329E+02  0.23527040524E+03  0.23985935165E+03  0.10000000000E+01 0.  0.
    9000005    1    3    3    0    0  0.25029969293E+02 -0.39406162329E+02  0.36453489150E+02  0.59238516723E+02  0.10000000000E+01 0.  0.
<mgrwt>
<rscale>  0 0.12500264E+03</rscale>
<asrwt>0</asrwt>
<pdfrwt beam="2">  1        4 0.21056903E-02 0.12500264E+03</pdfrwt>
<pdfrwt beam="1">  1       -4 0.43909367E-01 0.12500264E+03</pdfrwt>
<totfact> 0.75707700E+03</totfact>
</mgrwt>
</event>
<event>
 5    1  0.3401591E-002  0.1250003E+03  0.7818608E-02  0.1235069E+00
          4   -1    0    0  501    0  0.00000000000E+00  0.00000000000E+00  0.31153227721E+03  0.31153486586E+03  0.12700000000E+01 0. -1.
         -4   -1    0    0    0  501 -0.00000000000E+00 -0.00000000000E+00 -0.12504081661E+02  0.12568411124E+02  0.12700000000E+01 0. -1.
         25    2    1    2    0    0  0.00000000000E+00  0.00000000000E+00  0.29902819555E+03  0.32410327698E+03  0.12500028966E+03 0.  0.
    9000005    1    3    3    0    0 -0.52994741287E+02  0.21450568599E+02  0.84089757429E+02  0.10168902006E+03  0.10000000000E+01 0.  0.
    9000005    1    3    3    0    0  0.52994741287E+02 -0.21450568599E+02  0.21493843812E+03  0.22241425692E+03  0.10000000000E+01 0.  0.
<mgrwt>
<rscale>  0 0.12500029E+03</rscale>
<asrwt>0</asrwt>
<pdfrwt beam="1">  1        4 0.47933188E-01 0.12500029E+03</pdfrwt>
<pdfrwt beam="2">  1       -4 0.19288525E-02 0.12500029E+03</pdfrwt>
<totfact> 0.72670272E+03</totfact>
</mgrwt>
</event>
<event>
 5    1  0.3401591E-002  0.1250051E+03  0.7818608E-02  0.1235061E+00
          4   -1    0    0  501    0  0.00000000000E+00  0.00000000000E+00  0.12619880339E+02  0.12683622502E+02  0.12700000000E+01 0.  1.
         -4   -1    0    0    0  501 -0.00000000000E+00 -0.00000000000E+00 -0.30871204417E+03  0.30871465646E+03  0.12700000000E+01 0.  1.
         25    2    1    2    0    0  0.00000000000E+00  0.00000000000E+00 -0.29609216383E+03  0.32139827897E+03  0.12500513686E+03 0.  0.
    9000005    1    3    3    0    0  0.10208736791E+02  0.55419454760E+02 -0.78577559825E+02  0.96700399073E+02  0.10000000000E+01 0.  0.
    9000005    1    3    3    0    0 -0.10208736791E+02 -0.55419454760E+02 -0.21751460401E+03  0.22469787989E+03  0.10000000000E+01 0.  0.
<mgrwt>
<rscale>  0 0.12500514E+03</rscale>
<asrwt>0</asrwt>
<pdfrwt beam="1">  1        4 0.19466245E-02 0.12500514E+03</pdfrwt>
<pdfrwt beam="2">  1       -4 0.47499259E-01 0.12500514E+03</pdfrwt>
<totfact> 0.72981819E+03</totfact>
</mgrwt>
</event>
<event>
 5    1  0.3401591E-002  0.1249998E+03  0.7818608E-02  0.1235070E+00
         -4   -1    0    0    0  501 -0.00000000000E+00  0.00000000000E+00  0.83310964610E+01  0.84273405202E+01  0.12700000000E+01 0. -1.
          4   -1    0    0  501    0  0.00000000000E+00 -0.00000000000E+00 -0.46608474057E+03  0.46608647083E+03  0.12700000000E+01 0. -1.
         25    2    1    2    0    0  0.00000000000E+00  0.00000000000E+00 -0.45775364411E+03  0.47451381135E+03  0.12499983387E+03 0.  0.
    9000005    1    3    3    0    0  0.18530011645E+02 -0.86340670284E+01 -0.45305122293E+03  0.45351330636E+03  0.10000000000E+01 0.  0.
    9000005    1    3    3    0    0 -0.18530011645E+02  0.86340670284E+01 -0.47024211775E+01  0.21000504993E+02  0.10000000000E+01 0.  0.
<mgrwt>
<rscale>  0 0.12499983E+03</rscale>
<asrwt>0</asrwt>
<pdfrwt beam="2">  1        4 0.71712861E-01 0.12499983E+03</pdfrwt>
<pdfrwt beam="1">  1       -4 0.12892440E-02 0.12499983E+03</pdfrwt>
<totfact> 0.57897683E+03</totfact>
</mgrwt>
</event>
<event>
 5    1  0.3401591E-002  0.1249762E+03  0.7818608E-02  0.1235107E+00
          4   -1    0    0  501    0  0.00000000000E+00  0.00000000000E+00  0.33223272897E+02  0.33247537683E+02  0.12700000000E+01 0. -1.
         -4   -1    0    0    0  501 -0.00000000000E+00 -0.00000000000E+00 -0.11746026240E+03  0.11746712793E+03  0.12700000000E+01 0. -1.
         25    2    1    2    0    0  0.00000000000E+00  0.00000000000E+00 -0.84236989505E+02  0.15071466561E+03  0.12497615784E+03 0.  0.
    9000005    1    3    3    0    0 -0.21749647942E+02  0.58036143138E+02 -0.32583201612E+02  0.70027895322E+02  0.10000000000E+01 0.  0.
    9000005    1    3    3    0    0  0.21749647942E+02 -0.58036143138E+02 -0.51653787893E+02  0.80686770289E+02  0.10000000000E+01 0.  0.
<mgrwt>
<rscale>  0 0.12497616E+03</rscale>
<asrwt>0</asrwt>
<pdfrwt beam="1">  1        4 0.51136674E-02 0.12497616E+03</pdfrwt>
<pdfrwt beam="2">  1       -4 0.18073204E-01 0.12497616E+03</pdfrwt>
<totfact> 0.99214654E+03</totfact>
</mgrwt>
</event>
<event>
 5    1  0.3401591E-002  0.1250034E+03  0.7818608E-02  0.1235064E+00
          4   -1    0    0  501    0  0.00000000000E+00  0.00000000000E+00  0.35685085138E+02  0.35707677064E+02  0.12700000000E+01 0. -1.
         -4   -1    0    0    0  501 -0.00000000000E+00 -0.00000000000E+00 -0.10940953516E+03  0.10941690584E+03  0.12700000000E+01 0. -1.
         25    2    1    2    0    0  0.00000000000E+00  0.00000000000E+00 -0.73724450017E+02  0.14512458290E+03  0.12500340008E+03 0.  0.
    9000005    1    3    3    0    0  0.28563966823E+02  0.39972824282E+02 -0.81702171899E+02  0.95341343471E+02  0.10000000000E+01 0.  0.
    9000005    1    3    3    0    0 -0.28563966823E+02 -0.39972824282E+02  0.79777218821E+01  0.49783239430E+02  0.10000000000E+01 0.  0.
<mgrwt>
<rscale>  0 0.12500340E+03</rscale>
<asrwt>0</asrwt>
<pdfrwt beam="1">  1        4 0.54923179E-02 0.12500340E+03</pdfrwt>
<pdfrwt beam="2">  1       -4 0.16834541E-01 0.12500340E+03</pdfrwt>
<totfact> 0.10027690E+04</totfact>
</mgrwt>
</event>
<event>
 5    1  0.3401591E-002  0.1250059E+03  0.7818608E-02  0.1235060E+00
          4   -1    0    0  501    0  0.00000000000E+00  0.00000000000E+00  0.39094738067E+03  0.39094944347E+03  0.12700000000E+01 0.  1.
         -4   -1    0    0    0  501 -0.00000000000E+00 -0.00000000000E+00 -0.99502431364E+01  0.10030963985E+02  0.12700000000E+01 0.  1.
         25    2    1    2    0    0  0.00000000000E+00  0.00000000000E+00  0.38099713753E+03  0.40098040746E+03  0.12500587329E+03 0.  0.
    9000005    1    3    3    0    0  0.27997138573E+02 -0.54065374652E+02  0.23571595148E+03  0.24345413179E+03  0.10000000000E+01 0.  0.
    9000005    1    3    3    0    0 -0.27997138573E+02  0.54065374652E+02  0.14528118606E+03  0.15752627567E+03  0.10000000000E+01 0.  0.
<mgrwt>
<rscale>  0 0.12500587E+03</rscale>
<asrwt>0</asrwt>
<pdfrwt beam="1">  1        4 0.60152125E-01 0.12500587E+03</pdfrwt>
<pdfrwt beam="2">  1       -4 0.15371744E-02 0.12500587E+03</pdfrwt>
<totfact> 0.64449185E+03</totfact>
</mgrwt>
</event>
<event>
 5    1  0.3401591E-002  0.1250032E+03  0.7818608E-02  0.1235064E+00
          4   -1    0    0  501    0  0.00000000000E+00  0.00000000000E+00  0.18703716589E+03  0.18704147755E+03  0.12700000000E+01 0. -1.
         -4   -1    0    0    0  501 -0.00000000000E+00 -0.00000000000E+00 -0.20862092087E+02  0.20900712578E+02  0.12700000000E+01 0. -1.
         25    2    1    2    0    0  0.00000000000E+00  0.00000000000E+00  0.16617507380E+03  0.20794219013E+03  0.12500319709E+03 0.  0.
    9000005    1    3    3    0    0  0.65737775758E+01 -0.49531435810E+02  0.20648343661E+02  0.54073392542E+02  0.10000000000E+01 0.  0.
    9000005    1    3    3    0    0 -0.65737775758E+01  0.49531435810E+02  0.14552673014E+03  0.15386879759E+03  0.10000000000E+01 0.  0.
<mgrwt>
<rscale>  0 0.12500320E+03</rscale>
<asrwt>0</asrwt>
<pdfrwt beam="1">  1        4 0.28778252E-01 0.12500320E+03</pdfrwt>
<pdfrwt beam="2">  1       -4 0.32128550E-02 0.12500320E+03</pdfrwt>
<totfact> 0.88806704E+03</totfact>
</mgrwt>
</event>
<event>
 5    1  0.3401591E-002  0.1250024E+03  0.7818608E-02  0.1235066E+00
          4   -1    0    0  501    0  0.00000000000E+00  0.00000000000E+00  0.56432836831E+01  0.57844231111E+01  0.12700000000E+01 0. -1.
         -4   -1    0    0    0  501 -0.00000000000E+00 -0.00000000000E+00 -0.68352988761E+03  0.68353106744E+03  0.12700000000E+01 0. -1.
         25    2    1    2    0    0  0.00000000000E+00  0.00000000000E+00 -0.67788660393E+03  0.68931549055E+03  0.12500239090E+03 0.  0.
    9000005    1    3    3    0    0  0.14618360485E+02 -0.60725680128E+02 -0.35010198678E+03  0.35563141852E+03  0.10000000000E+01 0.  0.
    9000005    1    3    3    0    0 -0.14618360485E+02  0.60725680128E+02 -0.32778461715E+03  0.33368407203E+03  0.10000000000E+01 0.  0.
<mgrwt>
<rscale>  0 0.12500239E+03</rscale>
<asrwt>0</asrwt>
<pdfrwt beam="1">  1        4 0.87914567E-03 0.12500239E+03</pdfrwt>
<pdfrwt beam="2">  1       -4 0.10516933E+00 0.12500239E+03</pdfrwt>
<totfact> 0.43654482E+03</totfact>
</mgrwt>
</event>
<event>
 5    1  0.3401591E-002  0.1249997E+03  0.7818608E-02  0.1235070E+00
         -4   -1    0    0    0  501 -0.00000000000E+00  0.00000000000E+00  0.77445172866E+02  0.77455585339E+02  0.12700000000E+01 0.  1.
          4   -1    0    0  501    0  0.00000000000E+00 -0.00000000000E+00 -0.50416870887E+02  0.50432863989E+02  0.12700000000E+01 0.  1.
         25    2    1    2    0    0  0.00000000000E+00  0.00000000000E+00  0.27028301978E+02  0.12788844933E+03  0.12499970545E+03 0.  0.
    9000005    1    3    3    0    0 -0.24200127309E+01 -0.61965904673E+02  0.56155172900E+01  0.62274905363E+02  0.10000000000E+01 0.  0.
    9000005    1    3    3    0    0  0.24200127309E+01  0.61965904673E+02  0.21412784688E+02  0.65613543965E+02  0.10000000000E+01 0.  0.
<mgrwt>
<rscale>  0 0.12499971E+03</rscale>
<asrwt>0</asrwt>
<pdfrwt beam="2">  1        4 0.77584729E-02 0.12499971E+03</pdfrwt>
<pdfrwt beam="1">  1       -4 0.11916673E-01 0.12499971E+03</pdfrwt>
<totfact> 0.10389966E+04</totfact>
</mgrwt>
</event>
<event>
 5    1  0.3401591E-002  0.1249894E+03  0.7818608E-02  0.1235086E+00
          4   -1    0    0  501    0  0.00000000000E+00  0.00000000000E+00  0.13230903238E+02  0.13291715483E+02  0.12700000000E+01 0.  1.
         -4   -1    0    0    0  501 -0.00000000000E+00 -0.00000000000E+00 -0.29444793064E+03  0.29445066949E+03  0.12700000000E+01 0.  1.
         25    2    1    2    0    0  0.00000000000E+00  0.00000000000E+00 -0.28121702741E+03  0.30774238497E+03  0.12498943556E+03 0.  0.
    9000005    1    3    3    0    0 -0.16470691013E+02 -0.56449101689E+02 -0.88564231409E+02  0.10631278300E+03  0.10000000000E+01 0.  0.
    9000005    1    3    3    0    0  0.16470691013E+02  0.56449101689E+02 -0.19265279600E+03  0.20142960197E+03  0.10000000000E+01 0.  0.
<mgrwt>
<rscale>  0 0.12498944E+03</rscale>
<asrwt>0</asrwt>
<pdfrwt beam="1">  1        4 0.20404123E-02 0.12498944E+03</pdfrwt>
<pdfrwt beam="2">  1       -4 0.45304565E-01 0.12498944E+03</pdfrwt>
<totfact> 0.74655300E+03</totfact>
</mgrwt>
</event>
<event>
 5    1  0.3401591E-002  0.1249982E+03  0.7818608E-02  0.1235072E+00
         -4   -1    0    0    0  501 -0.00000000000E+00  0.00000000000E+00  0.34549738997E+01  0.36809977788E+01  0.12700000000E+01 0. -1.
          4   -1    0    0  501    0  0.00000000000E+00 -0.00000000000E+00 -0.10945470381E+04  0.10945477749E+04  0.12700000000E+01 0. -1.
         25    2    1    2    0    0  0.00000000000E+00  0.00000000000E+00 -0.10910920642E+04  0.10982287727E+04  0.12499817820E+03 0.  0.
    9000005    1    3    3    0    0  0.24715721422E+02  0.54075234846E+02 -0.71457887895E+03  0.71704879342E+03  0.10000000000E+01 0.  0.
    9000005    1    3    3    0    0 -0.24715721422E+02 -0.54075234846E+02 -0.37651318528E+03  0.38117997927E+03  0.10000000000E+01 0.  0.
<mgrwt>
<rscale>  0 0.12499818E+03</rscale>
<asrwt>0</asrwt>
<pdfrwt beam="2">  1        4 0.16840903E+00 0.12499818E+03</pdfrwt>
<pdfrwt beam="1">  1       -4 0.54897844E-03 0.12499818E+03</pdfrwt>
<totfact> 0.27536428E+03</totfact>
</mgrwt>
</event>
<event>
 5    1  0.3401591E-002  0.1250002E+03  0.7818608E-02  0.1235069E+00
          4   -1    0    0  501    0  0.00000000000E+00  0.00000000000E+00  0.15064281708E+03  0.15064817038E+03  0.12700000000E+01 0.  1.
         -4   -1    0    0    0  501 -0.00000000000E+00 -0.00000000000E+00 -0.25909261705E+02  0.25940368966E+02  0.12700000000E+01 0.  1.
         25    2    1    2    0    0  0.00000000000E+00  0.00000000000E+00  0.12473355538E+03  0.17658853935E+03  0.12500020956E+03 0.  0.
    9000005    1    3    3    0    0  0.38079350070E+02 -0.27583415818E+02  0.12051780035E+03  0.12936932376E+03  0.10000000000E+01 0.  0.
    9000005    1    3    3    0    0 -0.38079350070E+02  0.27583415818E+02  0.42157550315E+01  0.47219215585E+02  0.10000000000E+01 0.  0.
<mgrwt>
<rscale>  0 0.12500021E+03</rscale>
<asrwt>0</asrwt>
<pdfrwt beam="1">  1        4 0.23178623E-01 0.12500021E+03</pdfrwt>
<pdfrwt beam="2">  1       -4 0.39888449E-02 0.12500021E+03</pdfrwt>
<totfact> 0.94234263E+03</totfact>
</mgrwt>
</event>
<event>
 5    1  0.3401591E-002  0.1250033E+03  0.7818608E-02  0.1235064E+00
         -4   -1    0    0    0  501 -0.00000000000E+00  0.00000000000E+00  0.17453286871E+01  0.21584884123E+01  0.12700000000E+01 0. -1.
          4   -1    0    0  501    0  0.00000000000E+00 -0.00000000000E+00 -0.20009392608E+04  0.20009396638E+04  0.12700000000E+01 0. -1.
         25    2    1    2    0    0  0.00000000000E+00  0.00000000000E+00 -0.19991939321E+04  0.20030981522E+04  0.12500331732E+03 0.  0.
    9000005    1    3    3    0    0 -0.38465457270E+02  0.44593683753E+02 -0.13346821198E+04  0.13359811185E+04  0.10000000000E+01 0.  0.
    9000005    1    3    3    0    0  0.38465457270E+02 -0.44593683753E+02 -0.66451181228E+03  0.66711703373E+03  0.10000000000E+01 0.  0.
<mgrwt>
<rscale>  0 0.12500332E+03</rscale>
<asrwt>0</asrwt>
<pdfrwt beam="2">  1        4 0.30786698E+00 0.12500332E+03</pdfrwt>
<pdfrwt beam="1">  1       -4 0.30032622E-03 0.12500332E+03</pdfrwt>
<totfact> 0.98202362E+02</totfact>
</mgrwt>
</event>
<event>
 5    1  0.3401591E-002  0.1250010E+03  0.7818608E-02  0.1235068E+00
          4   -1    0    0  501    0  0.00000000000E+00  0.00000000000E+00  0.20961371179E+02  0.20999809087E+02  0.12700000000E+01 0. -1.
         -4   -1    0    0    0  501 -0.00000000000E+00 -0.00000000000E+00 -0.18614639254E+03  0.18615072483E+03  0.12700000000E+01 0. -1.
         25    2    1    2    0    0  0.00000000000E+00  0.00000000000E+00 -0.16518502136E+03  0.20715053392E+03  0.12500100968E+03 0.  0.
    9000005    1    3    3    0    0  0.18982143781E+01 -0.13456620413E+02 -0.18367611853E+03  0.18418089035E+03  0.10000000000E+01 0.  0.
    9000005    1    3    3    0    0 -0.18982143781E+01  0.13456620413E+02  0.18491097176E+02  0.22969643566E+02  0.10000000000E+01 0.  0.
<mgrwt>
<rscale>  0 0.12500101E+03</rscale>
<asrwt>0</asrwt>
<pdfrwt beam="1">  1        4 0.32281165E-02 0.12500101E+03</pdfrwt>
<pdfrwt beam="2">  1       -4 0.28641196E-01 0.12500101E+03</pdfrwt>
<totfact> 0.88941353E+03</totfact>
</mgrwt>
</event>
<event>
 5    1  0.3401591E-002  0.1249986E+03  0.7818608E-02  0.1235071E+00
         -4   -1    0    0    0  501 -0.00000000000E+00  0.00000000000E+00  0.13644921488E+03  0.13645512501E+03  0.12700000000E+01 0. -1.
          4   -1    0    0  501    0  0.00000000000E+00 -0.00000000000E+00 -0.28606610424E+02  0.28634787584E+02  0.12700000000E+01 0. -1.
         25    2    1    2    0    0  0.00000000000E+00  0.00000000000E+00  0.10784260446E+03  0.16508991260E+03  0.12499860761E+03 0.  0.
    9000005    1    3    3    0    0  0.41107872776E+02  0.36984043437E+02  0.15472598165E+02  0.57428894879E+02  0.10000000000E+01 0.  0.
    9000005    1    3    3    0    0 -0.41107872776E+02 -0.36984043437E+02  0.92370006295E+02  0.10766101772E+03  0.10000000000E+01 0.  0.
<mgrwt>
<rscale>  0 0.12499861E+03</rscale>
<asrwt>0</asrwt>
<pdfrwt beam="2">  1        4 0.44036390E-02 0.12499861E+03</pdfrwt>
<pdfrwt beam="1">  1       -4 0.20994809E-01 0.12499861E+03</pdfrwt>
<totfact> 0.96373381E+03</totfact>
</mgrwt>
</event>
<event>
 5    1  0.3401591E-002  0.1249989E+03  0.7818608E-02  0.1235071E+00
          4   -1    0    0  501    0  0.00000000000E+00  0.00000000000E+00  0.11169642147E+03  0.11170364126E+03  0.12700000000E+01 0. -1.
         -4   -1    0    0    0  501 -0.00000000000E+00 -0.00000000000E+00 -0.34951545026E+02  0.34974610787E+02  0.12700000000E+01 0. -1.
         25    2    1    2    0    0  0.00000000000E+00  0.00000000000E+00  0.76744876449E+02  0.14667825204E+03  0.12499893424E+03 0.  0.
    9000005    1    3    3    0    0 -0.32232884792E+02 -0.36926481696E+02  0.83859690475E+02  0.97138929369E+02  0.10000000000E+01 0.  0.
    9000005    1    3    3    0    0  0.32232884792E+02  0.36926481696E+02 -0.71148140262E+01  0.49539322675E+02  0.10000000000E+01 0.  0.
<mgrwt>
<rscale>  0 0.12499893E+03</rscale>
<asrwt>0</asrwt>
<pdfrwt beam="1">  1        4 0.17186394E-01 0.12499893E+03</pdfrwt>
<pdfrwt beam="2">  1       -4 0.53794905E-02 0.12499893E+03</pdfrwt>
<totfact> 0.99972408E+03</totfact>
</mgrwt>
</event>
<event>
 5    1  0.3401591E-002  0.1249989E+03  0.7818608E-02  0.1235071E+00
          4   -1    0    0  501    0  0.00000000000E+00  0.00000000000E+00  0.11373033340E+02  0.11443722618E+02  0.12700000000E+01 0.  1.
         -4   -1    0    0    0  501 -0.00000000000E+00 -0.00000000000E+00 -0.34232375608E+03  0.34232611188E+03  0.12700000000E+01 0.  1.
         25    2    1    2    0    0  0.00000000000E+00  0.00000000000E+00 -0.33095072274E+03  0.35376983450E+03  0.12499885968E+03 0.  0.
    9000005    1    3    3    0    0 -0.60535937030E+02 -0.13882273563E+02 -0.18505515348E+03  0.19520175978E+03  0.10000000000E+01 0.  0.
    9000005    1    3    3    0    0  0.60535937030E+02  0.13882273563E+02 -0.14589556926E+03  0.15856807473E+03  0.10000000000E+01 0.  0.
<mgrwt>
<rscale>  0 0.12499886E+03</rscale>
<asrwt>0</asrwt>
<pdfrwt beam="1">  1        4 0.17553165E-02 0.12499886E+03</pdfrwt>
<pdfrwt beam="2">  1       -4 0.52670804E-01 0.12499886E+03</pdfrwt>
<totfact> 0.69313562E+03</totfact>
</mgrwt>
</event>
<event>
 5    1  0.3401591E-002  0.1249944E+03  0.7818608E-02  0.1235078E+00
         -4   -1    0    0    0  501 -0.00000000000E+00  0.00000000000E+00  0.46075953838E+03  0.46076128864E+03  0.12700000000E+01 0. -1.
          4   -1    0    0  501    0  0.00000000000E+00 -0.00000000000E+00 -0.84277439112E+01  0.85228966574E+01  0.12700000000E+01 0. -1.
         25    2    1    2    0    0  0.00000000000E+00  0.00000000000E+00  0.45233179447E+03  0.46928418530E+03  0.12499437700E+03 0.  0.
    9000005    1    3    3    0    0  0.16102933475E+01 -0.60495556347E+02  0.28464285137E+03  0.29100662916E+03  0.10000000000E+01 0.  0.
    9000005    1    3    3    0    0 -0.16102933475E+01  0.60495556347E+02  0.16768894310E+03  0.17827755613E+03  0.10000000000E+01 0.  0.
<mgrwt>
<rscale>  0 0.12499438E+03</rscale>
<asrwt>0</asrwt>
<pdfrwt beam="2">  1        4 0.13040302E-02 0.12499438E+03</pdfrwt>
<pdfrwt beam="1">  1       -4 0.70893531E-01 0.12499438E+03</pdfrwt>
<totfact> 0.58336086E+03</totfact>
</mgrwt>
</event>
<event>
 5    1  0.3401591E-002  0.1249996E+03  0.7818608E-02  0.1235070E+00
         -4   -1    0    0    0  501 -0.00000000000E+00  0.00000000000E+00  0.10881821645E+02  0.10955680824E+02  0.12700000000E+01 0.  1.
          4   -1    0    0  501    0  0.00000000000E+00 -0.00000000000E+00 -0.35767882599E+03  0.35768108066E+03  0.12700000000E+01 0.  1.
         25    2    1    2    0    0  0.00000000000E+00  0.00000000000E+00 -0.34679700435E+03  0.36863676149E+03  0.12499959878E+03 0.  0.
    9000005    1    3    3    0    0  0.24208583056E+02  0.52718803805E+02 -0.24192294970E+03  0.24878312113E+03  0.10000000000E+01 0.  0.
    9000005    1    3    3    0    0 -0.24208583056E+02 -0.52718803805E+02 -0.10487405465E+03  0.11985364036E+03  0.10000000000E+01 0.  0.
<mgrwt>
<rscale>  0 0.12499960E+03</rscale>
<asrwt>0</asrwt>
<pdfrwt beam="2">  1        4 0.55033358E-01 0.12499960E+03</pdfrwt>
<pdfrwt beam="1">  1       -4 0.16799816E-02 0.12499960E+03</pdfrwt>
<totfact> 0.67722403E+03</totfact>
</mgrwt>
</event>
<event>
 5    1  0.3401591E-002  0.1250117E+03  0.7818608E-02  0.1235051E+00
         -4   -1    0    0    0  501 -0.00000000000E+00  0.00000000000E+00  0.35022383263E+02  0.35045402401E+02  0.12700000000E+01 0. -1.
          4   -1    0    0  501    0  0.00000000000E+00 -0.00000000000E+00 -0.11149346433E+03  0.11150069725E+03  0.12700000000E+01 0. -1.
         25    2    1    2    0    0  0.00000000000E+00  0.00000000000E+00 -0.76471081063E+02  0.14654609965E+03  0.12501173179E+03 0.  0.
    9000005    1    3    3    0    0 -0.42997790046E+02  0.44925556190E+02 -0.30927212306E+02  0.69459398275E+02  0.10000000000E+01 0.  0.
    9000005    1    3    3    0    0  0.42997790046E+02 -0.44925556190E+02 -0.45543868757E+02  0.77086701377E+02  0.10000000000E+01 0.  0.
<mgrwt>
<rscale>  0 0.12501173E+03</rscale>
<asrwt>0</asrwt>
<pdfrwt beam="2">  1        4 0.17155168E-01 0.12501173E+03</pdfrwt>
<pdfrwt beam="1">  1       -4 0.53903861E-02 0.12501173E+03</pdfrwt>
<totfact> 0.99970285E+03</totfact>
</mgrwt>
</event>
<event>
 5    1  0.3401591E-002  0.1250014E+03  0.7818608E-02  0.1235067E+00
         -4   -1    0    0    0  501 -0.00000000000E+00  0.00000000000E+00  0.47687443355E+02  0.47704351517E+02  0.12700000000E+01 0. -1.
          4   -1    0    0  501    0  0.00000000000E+00 -0.00000000000E+00 -0.81879130751E+02  0.81888979433E+02  0.12700000000E+01 0. -1.
         25    2    1    2    0    0  0.00000000000E+00  0.00000000000E+00 -0.34191687397E+02  0.12959333095E+03  0.12500143975E+03 0.  0.
    9000005    1    3    3    0    0 -0.29920482305E+02 -0.54498680477E+02 -0.10539076555E+02  0.63066739013E+02  0.10000000000E+01 0.  0.
    9000005    1    3    3    0    0  0.29920482305E+02  0.54498680477E+02 -0.23652610842E+02  0.66526591937E+02  0.10000000000E+01 0.  0.
<mgrwt>
<rscale>  0 0.12500144E+03</rscale>
<asrwt>0</asrwt>
<pdfrwt beam="2">  1        4 0.12598848E-01 0.12500144E+03</pdfrwt>
<pdfrwt beam="1">  1       -4 0.73385880E-02 0.12500144E+03</pdfrwt>
<totfact> 0.10352878E+04</totfact>
</mgrwt>
</event>
<event>
 5    1  0.3401591E-002  0.1250002E+03  0.7818608E-02  0.1235069E+00
          4   -1    0    0  501    0  0.00000000000E+00  0.00000000000E+00  0.31875963008E+02  0.31901252603E+02  0.12700000000E+01 0.  1.
         -4   -1    0    0    0  501 -0.00000000000E+00 -0.00000000000E+00 -0.12246860912E+03  0.12247519389E+03  0.12700000000E+01 0.  1.
         25    2    1    2    0    0  0.00000000000E+00  0.00000000000E+00 -0.90592646108E+02  0.15437644650E+03  0.12500023881E+03 0.  0.
    9000005    1    3    3    0    0 -0.55519511237E+02  0.30536957343E+01 -0.10070973398E+02  0.56516950473E+02  0.10000000000E+01 0.  0.
    9000005    1    3    3    0    0  0.55519511237E+02 -0.30536957343E+01 -0.80521672710E+02  0.97859496022E+02  0.10000000000E+01 0.  0.
<mgrwt>
<rscale>  0 0.12500024E+03</rscale>
<asrwt>0</asrwt>
<pdfrwt beam="1">  1        4 0.49064462E-02 0.12500024E+03</pdfrwt>
<pdfrwt beam="2">  1       -4 0.18843776E-01 0.12500024E+03</pdfrwt>
<totfact> 0.98437521E+03</totfact>
</mgrwt>
</event>
<event>
 5    1  0.3401591E-002  0.1250025E+03  0.7818608E-02  0.1235065E+00
          4   -1    0    0  501    0  0.00000000000E+00  0.00000000000E+00  0.10844985088E+02  0.10919093440E+02  0.12700000000E+01 0.  1.
         -4   -1    0    0    0  501 -0.00000000000E+00 -0.00000000000E+00 -0.35890239510E+03  0.35890464208E+03  0.12700000000E+01 0.  1.
         25    2    1    2    0    0  0.00000000000E+00  0.00000000000E+00 -0.34805741001E+03  0.36982373552E+03  0.12500253874E+03 0.  0.
    9000005    1    3    3    0    0  0.19732102754E+02 -0.56835720866E+02 -0.22404042878E+03  0.23198010426E+03  0.10000000000E+01 0.  0.
    9000005    1    3    3    0    0 -0.19732102754E+02  0.56835720866E+02 -0.12401698124E+03  0.13784363127E+03  0.10000000000E+01 0.  0.
<mgrwt>
<rscale>  0 0.12500254E+03</rscale>
<asrwt>0</asrwt>
<pdfrwt beam="1">  1        4 0.16743330E-02 0.12500254E+03</pdfrwt>
<pdfrwt beam="2">  1       -4 0.55221618E-01 0.12500254E+03</pdfrwt>
<totfact> 0.67593592E+03</totfact>
</mgrwt>
</event>
<event>
 5    1  0.3401591E-002  0.1249985E+03  0.7818608E-02  0.1235072E+00
         -4   -1    0    0    0  501 -0.00000000000E+00  0.00000000000E+00  0.27512159681E+02  0.27541456576E+02  0.12700000000E+01 0. -1.
          4   -1    0    0  501    0  0.00000000000E+00 -0.00000000000E+00 -0.14187166029E+03  0.14187734454E+03  0.12700000000E+01 0. -1.
         25    2    1    2    0    0  0.00000000000E+00  0.00000000000E+00 -0.11435950061E+03  0.16941880112E+03  0.12499853916E+03 0.  0.
    9000005    1    3    3    0    0  0.51257717748E+02 -0.30514355681E+02 -0.31943749152E+02  0.67674830190E+02  0.10000000000E+01 0.  0.
    9000005    1    3    3    0    0 -0.51257717748E+02  0.30514355681E+02 -0.82415751459E+02  0.10174397093E+03  0.10000000000E+01 0.  0.
<mgrwt>
<rscale>  0 0.12499854E+03</rscale>
<asrwt>0</asrwt>
<pdfrwt beam="2">  1        4 0.21829100E-01 0.12499854E+03</pdfrwt>
<pdfrwt beam="1">  1       -4 0.42353309E-02 0.12499854E+03</pdfrwt>
<totfact> 0.95560159E+03</totfact>
</mgrwt>
</event>
<event>
 5    1  0.3401591E-002  0.1250011E+03  0.7818608E-02  0.1235067E+00
          4   -1    0    0  501    0  0.00000000000E+00  0.00000000000E+00  0.66074686284E+01  0.67284130131E+01  0.12700000000E+01 0. -1.
         -4   -1    0    0    0  501 -0.00000000000E+00 -0.00000000000E+00 -0.58571459775E+03  0.58571597461E+03  0.12700000000E+01 0. -1.
         25    2    1    2    0    0  0.00000000000E+00  0.00000000000E+00 -0.57910712912E+03  0.59244438763E+03  0.12500114172E+03 0.  0.
    9000005    1    3    3    0    0  0.40073116297E+02  0.45554631604E+02 -0.36052642819E+03  0.36559729831E+03  0.10000000000E+01 0.  0.
    9000005    1    3    3    0    0 -0.40073116297E+02 -0.45554631604E+02 -0.21858070093E+03  0.22684708932E+03  0.10000000000E+01 0.  0.
<mgrwt>
<rscale>  0 0.12500114E+03</rscale>
<asrwt>0</asrwt>
<pdfrwt beam="1">  1        4 0.10259434E-02 0.12500114E+03</pdfrwt>
<pdfrwt beam="2">  1       -4 0.90119307E-01 0.12500114E+03</pdfrwt>
<totfact> 0.49346823E+03</totfact>
</mgrwt>
</event>
<event>
 5    1  0.3401591E-002  0.1249997E+03  0.7818608E-02  0.1235070E+00
         -4   -1    0    0    0  501 -0.00000000000E+00  0.00000000000E+00  0.24902881831E+02  0.24935244604E+02  0.12700000000E+01 0. -1.
          4   -1    0    0  501    0  0.00000000000E+00 -0.00000000000E+00 -0.15672181721E+03  0.15672696287E+03  0.12700000000E+01 0. -1.
         25    2    1    2    0    0  0.00000000000E+00  0.00000000000E+00 -0.13181893538E+03  0.18166220747E+03  0.12499970360E+03 0.  0.
    9000005    1    3    3    0    0 -0.16107435748E+02  0.91966646878E+01 -0.15263640112E+03  0.15376247616E+03  0.10000000000E+01 0.  0.
    9000005    1    3    3    0    0  0.16107435748E+02 -0.91966646878E+01  0.20817465738E+02  0.27899731316E+02  0.10000000000E+01 0.  0.
<mgrwt>
<rscale>  0 0.12499970E+03</rscale>
<asrwt>0</asrwt>
<pdfrwt beam="2">  1        4 0.24113933E-01 0.12499970E+03</pdfrwt>
<pdfrwt beam="1">  1       -4 0.38340979E-02 0.12499970E+03</pdfrwt>
<totfact> 0.93319274E+03</totfact>
</mgrwt>
</event>
<event>
 5    1  0.3401591E-002  0.1249974E+03  0.7818608E-02  0.1235073E+00
          4   -1    0    0  501    0  0.00000000000E+00  0.00000000000E+00  0.16002265776E+02  0.16052582657E+02  0.12700000000E+01 0.  1.
         -4   -1    0    0    0  501 -0.00000000000E+00 -0.00000000000E+00 -0.24366082336E+03  0.24366413306E+03  0.12700000000E+01 0.  1.
         25    2    1    2    0    0  0.00000000000E+00  0.00000000000E+00 -0.22765855758E+03  0.25971671572E+03  0.12499741430E+03 0.  0.
    9000005    1    3    3    0    0  0.16333686228E+02 -0.53567612381E+02 -0.17144067268E+03  0.18035848373E+03  0.10000000000E+01 0.  0.
    9000005    1    3    3    0    0 -0.16333686228E+02  0.53567612381E+02 -0.56217884901E+02  0.79358231991E+02  0.10000000000E+01 0.  0.
<mgrwt>
<rscale>  0 0.12499741E+03</rscale>
<asrwt>0</asrwt>
<pdfrwt beam="1">  1        4 0.24660123E-02 0.12499741E+03</pdfrwt>
<pdfrwt beam="2">  1       -4 0.37490403E-01 0.12499741E+03</pdfrwt>
<totfact> 0.80950493E+03</totfact>
</mgrwt>
</event>
<event>
 5    1  0.3401591E-002  0.1249844E+03  0.7818608E-02  0.1235094E+00
         -4   -1    0    0    0  501 -0.00000000000E+00  0.00000000000E+00  0.12124452890E+03  0.12125118015E+03  0.12700000000E+01 0.  1.
          4   -1    0    0  501    0  0.00000000000E+00 -0.00000000000E+00 -0.32189837041E+02  0.32214880238E+02  0.12700000000E+01 0.  1.
         25    2    1    2    0    0  0.00000000000E+00  0.00000000000E+00  0.89054691861E+02  0.15346606039E+03  0.12498437322E+03 0.  0.
    9000005    1    3    3    0    0  0.24802471157E+02  0.24929499943E+02  0.10794636102E+03  0.11353439743E+03  0.10000000000E+01 0.  0.
    9000005    1    3    3    0    0 -0.24802471157E+02 -0.24929499943E+02 -0.18891669160E+02  0.39931662957E+02  0.10000000000E+01 0.  0.
<mgrwt>
<rscale>  0 0.12498437E+03</rscale>
<asrwt>0</asrwt>
<pdfrwt beam="2">  1        4 0.49547207E-02 0.12498437E+03</pdfrwt>
<pdfrwt beam="1">  1       -4 0.18655442E-01 0.12498437E+03</pdfrwt>
<totfact> 0.98651901E+03</totfact>
</mgrwt>
</event>
<event>
 5    1  0.3401591E-002  0.1250022E+03  0.7818608E-02  0.1235066E+00
         -4   -1    0    0    0  501 -0.00000000000E+00  0.00000000000E+00  0.15288990405E+02  0.15341646835E+02  0.12700000000E+01 0.  1.
          4   -1    0    0  501    0  0.00000000000E+00 -0.00000000000E+00 -0.25500992239E+03  0.25501308480E+03  0.12700000000E+01 0.  1.
         25    2    1    2    0    0  0.00000000000E+00  0.00000000000E+00 -0.23972093199E+03  0.27035473163E+03  0.12500222272E+03 0.  0.
    9000005    1    3    3    0    0 -0.20411337407E+02 -0.38758178805E+02 -0.23462437017E+02  0.49702163633E+02  0.10000000000E+01 0.  0.
    9000005    1    3    3    0    0  0.20411337407E+02  0.38758178805E+02 -0.21625849497E+03  0.22065256800E+03  0.10000000000E+01 0.  0.
<mgrwt>
<rscale>  0 0.12500222E+03</rscale>
<asrwt>0</asrwt>
<pdfrwt beam="2">  1        4 0.39236586E-01 0.12500222E+03</pdfrwt>
<pdfrwt beam="1">  1       -4 0.23564463E-02 0.12500222E+03</pdfrwt>
<totfact> 0.79470602E+03</totfact>
</mgrwt>
</event>
<event>
 5    1  0.3401591E-002  0.1250008E+03  0.7818608E-02  0.1235068E+00
         -4   -1    0    0    0  501 -0.00000000000E+00  0.00000000000E+00  0.90740727818E+02  0.90749614793E+02  0.12700000000E+01 0.  1.
          4   -1    0    0  501    0  0.00000000000E+00 -0.00000000000E+00 -0.43028654183E+02  0.43047392265E+02  0.12700000000E+01 0.  1.
         25    2    1    2    0    0  0.00000000000E+00  0.00000000000E+00  0.47712073636E+02  0.13379700706E+03  0.12500078850E+03 0.  0.
    9000005    1    3    3    0    0  0.35901270839E+02 -0.50891220639E+02  0.18347876891E+02  0.64934291191E+02  0.10000000000E+01 0.  0.
    9000005    1    3    3    0    0 -0.35901270839E+02  0.50891220639E+02  0.29364196744E+02  0.68862715866E+02  0.10000000000E+01 0.  0.
<mgrwt>
<rscale>  0 0.12500079E+03</rscale>
<asrwt>0</asrwt>
<pdfrwt beam="2">  1        4 0.66219180E-02 0.12500079E+03</pdfrwt>
<pdfrwt beam="1">  1       -4 0.13962237E-01 0.12500079E+03</pdfrwt>
<totfact> 0.10263307E+04</totfact>
</mgrwt>
</event>
<event>
 5    1  0.3401591E-002  0.1249989E+03  0.7818608E-02  0.1235071E+00
         -4   -1    0    0    0  501 -0.00000000000E+00  0.00000000000E+00  0.65050401315E+02  0.65062797444E+02  0.12700000000E+01 0.  1.
          4   -1    0    0  501    0  0.00000000000E+00 -0.00000000000E+00 -0.60023651933E+02  0.60037085967E+02  0.12700000000E+01 0.  1.
         25    2    1    2    0    0  0.00000000000E+00  0.00000000000E+00  0.50267493818E+01  0.12509988341E+03  0.12499885048E+03 0.  0.
    9000005    1    3    3    0    0 -0.48795957647E+02  0.35811151638E+02  0.18072454268E+02  0.63175134883E+02  0.10000000000E+01 0.  0.
    9000005    1    3    3    0    0  0.48795957647E+02 -0.35811151638E+02 -0.13045704886E+02  0.61924748528E+02  0.10000000000E+01 0.  0.
<mgrwt>
<rscale>  0 0.12499885E+03</rscale>
<asrwt>0</asrwt>
<pdfrwt beam="2">  1        4 0.92363950E-02 0.12499885E+03</pdfrwt>
<pdfrwt beam="1">  1       -4 0.10009741E-01 0.12499885E+03</pdfrwt>
<totfact> 0.10450965E+04</totfact>
</mgrwt>
</event>
<event>
 5    1  0.3401591E-002  0.1249984E+03  0.7818608E-02  0.1235072E+00
          4   -1    0    0  501    0  0.00000000000E+00  0.00000000000E+00  0.91222158847E+03  0.91222247252E+03  0.12700000000E+01 0. -1.
         -4   -1    0    0    0  501 -0.00000000000E+00 -0.00000000000E+00 -0.41869457686E+01  0.43753188306E+01  0.12700000000E+01 0. -1.
         25    2    1    2    0    0  0.00000000000E+00  0.00000000000E+00  0.90803464270E+03  0.91659779135E+03  0.12499839504E+03 0.  0.
    9000005    1    3    3    0    0 -0.25678171102E+02 -0.37179715583E+02  0.13747393932E+03  0.14471276279E+03  0.10000000000E+01 0.  0.
    9000005    1    3    3    0    0  0.25678171102E+02  0.37179715583E+02  0.77056070338E+03  0.77188502856E+03  0.10000000000E+01 0.  0.
<mgrwt>
<rscale>  0 0.12499840E+03</rscale>
<asrwt>0</asrwt>
<pdfrwt beam="1">  1        4 0.14035649E+00 0.12499840E+03</pdfrwt>
<pdfrwt beam="2">  1       -4 0.65870302E-03 0.12499840E+03</pdfrwt>
<totfact> 0.33533434E+03</totfact>
</mgrwt>
</event>
<event>
 5    1  0.3401591E-002  0.1250053E+03  0.7818608E-02  0.1235061E+00
         -4   -1    0    0    0  501 -0.00000000000E+00  0.00000000000E+00  0.35401263723E+02  0.35424036658E+02  0.12700000000E+01 0. -1.
          4   -1    0    0  501    0  0.00000000000E+00 -0.00000000000E+00 -0.11028959697E+03  0.11029690884E+03  0.12700000000E+01 0. -1.
         25    2    1    2    0    0  0.00000000000E+00  0.00000000000E+00 -0.74888333247E+02  0.14572094550E+03  0.12500532589E+03 0.  0.
    9000005    1    3    3    0    0  0.13750916789E+02 -0.56161077346E+02 -0.97984950445E+01  0.58652918310E+02  0.10000000000E+01 0.  0.
    9000005    1    3    3    0    0 -0.13750916789E+02  0.56161077346E+02 -0.65089838202E+02  0.87068027188E+02  0.10000000000E+01 0.  0.
<mgrwt>
<rscale>  0 0.12500533E+03</rscale>
<asrwt>0</asrwt>
<pdfrwt beam="2">  1        4 0.16969944E-01 0.12500533E+03</pdfrwt>
<pdfrwt beam="1">  1       -4 0.54486625E-02 0.12500533E+03</pdfrwt>
<totfact> 0.10015160E+04</totfact>
</mgrwt>
</event>
<event>
 5    1  0.3401591E-002  0.1249862E+03  0.7818608E-02  0.1235091E+00
          4   -1    0    0  501    0  0.00000000000E+00  0.00000000000E+00  0.96637104234E+02  0.96645449012E+02  0.12700000000E+01 0.  1.
         -4   -1    0    0    0  501 -0.00000000000E+00 -0.00000000000E+00 -0.40392849650E+02  0.40412809885E+02  0.12700000000E+01 0.  1.
         25    2    1    2    0    0  0.00000000000E+00  0.00000000000E+00  0.56244254584E+02  0.13705825890E+03  0.12498619987E+03 0.  0.
    9000005    1    3    3    0    0  0.18286182245E+02  0.51825844560E+02  0.60727572653E+02  0.81909344435E+02  0.10000000000E+01 0.  0.
    9000005    1    3    3    0    0 -0.18286182245E+02 -0.51825844560E+02 -0.44833180685E+01  0.55148914462E+02  0.10000000000E+01 0.  0.
<mgrwt>
<rscale>  0 0.12498620E+03</rscale>
<asrwt>0</asrwt>
<pdfrwt beam="1">  1        4 0.14869424E-01 0.12498620E+03</pdfrwt>
<pdfrwt beam="2">  1       -4 0.62164619E-02 0.12498620E+03</pdfrwt>
<totfact> 0.10198041E+04</totfact>
</mgrwt>
</event>
<event>
 5    1  0.3401591E-002  0.1250002E+03  0.7818608E-02  0.1235069E+00
          4   -1    0    0  501    0  0.00000000000E+00  0.00000000000E+00  0.12875177316E+03  0.12875803661E+03  0.12700000000E+01 0.  1.
         -4   -1    0    0    0  501 -0.00000000000E+00 -0.00000000000E+00 -0.30319193863E+02  0.30345780868E+02  0.12700000000E+01 0.  1.
         25    2    1    2    0    0  0.00000000000E+00  0.00000000000E+00  0.98432579297E+02  0.15910381748E+03  0.12500020828E+03 0.  0.
    9000005    1    3    3    0    0 -0.24038449962E+01 -0.44389902802E+02 -0.66871267783E+01  0.44966205155E+02  0.10000000000E+01 0.  0.
    9000005    1    3    3    0    0  0.24038449962E+01  0.44389902802E+02  0.10511970608E+03  0.11413761232E+03  0.10000000000E+01 0.  0.
<mgrwt>
<rscale>  0 0.12500021E+03</rscale>
<asrwt>0</asrwt>
<pdfrwt beam="1">  1        4 0.19810493E-01 0.12500021E+03</pdfrwt>
<pdfrwt beam="2">  1       -4 0.46670182E-02 0.12500021E+03</pdfrwt>
<totfact> 0.97515383E+03</totfact>
</mgrwt>
</event>
<event>
 5    1  0.3401591E-002  0.1250031E+03  0.7818608E-02  0.1235064E+00
          4   -1    0    0  501    0  0.00000000000E+00  0.00000000000E+00  0.23781267924E+02  0.23815154925E+02  0.12700000000E+01 0. -1.
         -4   -1    0    0    0  501 -0.00000000000E+00 -0.00000000000E+00 -0.16411220608E+03  0.16411712002E+03  0.12700000000E+01 0. -1.
         25    2    1    2    0    0  0.00000000000E+00  0.00000000000E+00 -0.14033093816E+03  0.18793227495E+03  0.12500307102E+03 0.  0.
    9000005    1    3    3    0    0  0.12956512811E+02 -0.39044954582E+02 -0.14089120942E+03  0.14677776600E+03  0.10000000000E+01 0.  0.
    9000005    1    3    3    0    0 -0.12956512811E+02  0.39044954582E+02  0.56027125907E+00  0.41154508944E+02  0.10000000000E+01 0.  0.
<mgrwt>
<rscale>  0 0.12500307E+03</rscale>
<asrwt>0</asrwt>
<pdfrwt beam="1">  1        4 0.36616414E-02 0.12500307E+03</pdfrwt>
<pdfrwt beam="2">  1       -4 0.25251016E-01 0.12500307E+03</pdfrwt>
<totfact> 0.92201998E+03</totfact>
</mgrwt>
</event>
<event>
 5    1  0.3401591E-002  0.1250540E+03  0.7818608E-02  0.1234985E+00
         -4   -1    0    0    0  501 -0.00000000000E+00  0.00000000000E+00  0.10608742784E+04  0.10608750385E+04  0.12700000000E+01 0.  1.
          4   -1    0    0  501    0  0.00000000000E+00 -0.00000000000E+00 -0.35750894693E+01  0.37939642478E+01  0.12700000000E+01 0.  1.
         25    2    1    2    0    0  0.00000000000E+00  0.00000000000E+00  0.10572991889E+04  0.10646690028E+04  0.12505403095E+03 0.  0.
    9000005    1    3    3    0    0 -0.61183937300E+02  0.34519683352E+01  0.42325962090E+03  0.42767405457E+03  0.10000000000E+01 0.  0.
    9000005    1    3    3    0    0  0.61183937300E+02 -0.34519683352E+01  0.63403956798E+03  0.63699494820E+03  0.10000000000E+01 0.  0.
<mgrwt>
<rscale>  0 0.12505403E+03</rscale>
<asrwt>0</asrwt>
<pdfrwt beam="2">  1        4 0.56690888E-03 0.12505403E+03</pdfrwt>
<pdfrwt beam="1">  1       -4 0.16322829E+00 0.12505403E+03</pdfrwt>
<totfact> 0.28507530E+03</totfact>
</mgrwt>
</event>
<event>
 5    1  0.3401591E-002  0.1249989E+03  0.7818608E-02  0.1235071E+00
          4   -1    0    0  501    0  0.00000000000E+00  0.00000000000E+00  0.99966934436E+02  0.99975001278E+02  0.12700000000E+01 0.  1.
         -4   -1    0    0    0  501 -0.00000000000E+00 -0.00000000000E+00 -0.39054793553E+02  0.39075437291E+02  0.12700000000E+01 0.  1.
         25    2    1    2    0    0  0.00000000000E+00  0.00000000000E+00  0.60912140883E+02  0.13905043857E+03  0.12499894223E+03 0.  0.
    9000005    1    3    3    0    0 -0.25193663016E+02  0.54556512994E+02  0.49531604607E+02  0.77881407417E+02  0.10000000000E+01 0.  0.
    9000005    1    3    3    0    0  0.25193663016E+02 -0.54556512994E+02  0.11380536276E+02  0.61169031152E+02  0.10000000000E+01 0.  0.
<mgrwt>
<rscale>  0 0.12499894E+03</rscale>
<asrwt>0</asrwt>
<pdfrwt beam="1">  1        4 0.15381737E-01 0.12499894E+03</pdfrwt>
<pdfrwt beam="2">  1       -4 0.60106383E-02 0.12499894E+03</pdfrwt>
<totfact> 0.10153546E+04</totfact>
</mgrwt>
</event>
<event>
 5    1  0.3401591E-002  0.1250129E+03  0.7818608E-02  0.1235049E+00
         -4   -1    0    0    0  501 -0.00000000000E+00  0.00000000000E+00  0.78769113564E+01  0.79786360060E+01  0.12700000000E+01 0. -1.
          4   -1    0    0  501    0  0.00000000000E+00 -0.00000000000E+00 -0.49272853985E+03  0.49273017655E+03  0.12700000000E+01 0. -1.
         25    2    1    2    0    0  0.00000000000E+00  0.00000000000E+00 -0.48485162849E+03  0.50070881255E+03  0.12501285261E+03 0.  0.
    9000005    1    3    3    0    0 -0.31770597795E+02  0.49318138717E+02 -0.32873924455E+03  0.33393433575E+03  0.10000000000E+01 0.  0.
    9000005    1    3    3    0    0  0.31770597795E+02 -0.49318138717E+02 -0.15611238395E+03  0.16677447680E+03  0.10000000000E+01 0.  0.
<mgrwt>
<rscale>  0 0.12501285E+03</rscale>
<asrwt>0</asrwt>
<pdfrwt beam="2">  1        4 0.75812318E-01 0.12501285E+03</pdfrwt>
<pdfrwt beam="1">  1       -4 0.12197838E-02 0.12501285E+03</pdfrwt>
<totfact> 0.55793655E+03</totfact>
</mgrwt>
</event>
<event>
 5    1  0.3401591E-002  0.1250122E+03  0.7818608E-02  0.1235050E+00
         -4   -1    0    0    0  501 -0.00000000000E+00  0.00000000000E+00  0.75584924212E+02  0.75595592915E+02  0.12700000000E+01 0.  1.
          4   -1    0    0  501    0  0.00000000000E+00 -0.00000000000E+00 -0.51668277224E+02  0.51683883090E+02  0.12700000000E+01 0.  1.
         25    2    1    2    0    0  0.00000000000E+00  0.00000000000E+00  0.23916646988E+02  0.12727947601E+03  0.12501223544E+03 0.  0.
    9000005    1    3    3    0    0 -0.15851263243E+02  0.33001072726E+02  0.63529521567E+02  0.73330303817E+02  0.10000000000E+01 0.  0.
    9000005    1    3    3    0    0  0.15851263243E+02 -0.33001072726E+02 -0.39612874578E+02  0.53949172188E+02  0.10000000000E+01 0.  0.
<mgrwt>
<rscale>  0 0.12501224E+03</rscale>
<asrwt>0</asrwt>
<pdfrwt beam="2">  1        4 0.79509869E-02 0.12501224E+03</pdfrwt>
<pdfrwt beam="1">  1       -4 0.11630471E-01 0.12501224E+03</pdfrwt>
<totfact> 0.10400207E+04</totfact>
</mgrwt>
</event>
<event>
 5    1  0.3401591E-002  0.1250023E+03  0.7818608E-02  0.1235066E+00
         -4   -1    0    0    0  501 -0.00000000000E+00  0.00000000000E+00  0.30955217971E+02  0.30981259168E+02  0.12700000000E+01 0.  1.
          4   -1    0    0  501    0  0.00000000000E+00 -0.00000000000E+00 -0.12611274027E+03  0.12611913478E+03  0.12700000000E+01 0.  1.
         25    2    1    2    0    0  0.00000000000E+00  0.00000000000E+00 -0.95157522296E+02  0.15710039395E+03  0.12500231889E+03 0.  0.
    9000005    1    3    3    0    0 -0.41092156976E+02  0.49851758016E+01 -0.10641938374E+03  0.11419064137E+03  0.10000000000E+01 0.  0.
    9000005    1    3    3    0    0  0.41092156976E+02 -0.49851758016E+01  0.11261861441E+02  0.42909752572E+02  0.10000000000E+01 0.  0.
<mgrwt>
<rscale>  0 0.12500232E+03</rscale>
<asrwt>0</asrwt>
<pdfrwt beam="2">  1        4 0.19404455E-01 0.12500232E+03</pdfrwt>
<pdfrwt beam="1">  1       -4 0.47648363E-02 0.12500232E+03</pdfrwt>
<totfact> 0.97899632E+03</totfact>
</mgrwt>
</event>
<event>
 5    1  0.3401591E-002  0.1250004E+03  0.7818608E-02  0.1235069E+00
          4   -1    0    0  501    0  0.00000000000E+00  0.00000000000E+00  0.23990631438E+03  0.23990967588E+03  0.12700000000E+01 0.  1.
         -4   -1    0    0    0  501 -0.00000000000E+00 -0.00000000000E+00 -0.16254263562E+02  0.16303802745E+02  0.12700000000E+01 0.  1.
         25    2    1    2    0    0  0.00000000000E+00  0.00000000000E+00  0.22365205082E+03  0.25621347862E+03  0.12500042717E+03 0.  0.
    9000005    1    3    3    0    0  0.34225704953E+02 -0.24952442921E+02  0.20600645301E+03  0.21031804955E+03  0.10000000000E+01 0.  0.
    9000005    1    3    3    0    0 -0.34225704953E+02  0.24952442921E+02  0.17645597810E+02  0.45895429068E+02  0.10000000000E+01 0.  0.
<mgrwt>
<rscale>  0 0.12500043E+03</rscale>
<asrwt>0</asrwt>
<pdfrwt beam="1">  1        4 0.36912733E-01 0.12500043E+03</pdfrwt>
<pdfrwt beam="2">  1       -4 0.25047252E-02 0.12500043E+03</pdfrwt>
<totfact> 0.81439623E+03</totfact>
</mgrwt>
</event>
<event>
 5    1  0.3401591E-002  0.1250005E+03  0.7818608E-02  0.1235069E+00
          4   -1    0    0  501    0  0.00000000000E+00  0.00000000000E+00  0.64136177104E+02  0.64148749898E+02  0.12700000000E+01 0. -1.
         -4   -1    0    0    0  501 -0.00000000000E+00 -0.00000000000E+00 -0.60880837100E+02  0.60894082028E+02  0.12700000000E+01 0. -1.
         25    2    1    2    0    0  0.00000000000E+00  0.00000000000E+00  0.32553400040E+01  0.12504283193E+03  0.12500045031E+03 0.  0.
    9000005    1    3    3    0    0 -0.31684327403E+02 -0.19333739989E+02  0.51919839334E+02  0.63830712211E+02  0.10000000000E+01 0.  0.
    9000005    1    3    3    0    0  0.31684327403E+02  0.19333739989E+02 -0.48664499330E+02  0.61212119715E+02  0.10000000000E+01 0.  0.
<mgrwt>
<rscale>  0 0.12500045E+03</rscale>
<asrwt>0</asrwt>
<pdfrwt beam="1">  1        4 0.98690902E-02 0.12500045E+03</pdfrwt>
<pdfrwt beam="2">  1       -4 0.93682686E-02 0.12500045E+03</pdfrwt>
<totfact> 0.10451826E+04</totfact>
</mgrwt>
</event>
<event>
 5    1  0.3401591E-002  0.1250002E+03  0.7818608E-02  0.1235069E+00
         -4   -1    0    0    0  501 -0.00000000000E+00  0.00000000000E+00  0.19880161935E+03  0.19880567587E+03  0.12700000000E+01 0. -1.
          4   -1    0    0  501    0  0.00000000000E+00 -0.00000000000E+00 -0.19624263000E+02  0.19665314599E+02  0.12700000000E+01 0. -1.
         25    2    1    2    0    0  0.00000000000E+00  0.00000000000E+00  0.17917735636E+03  0.21847099047E+03  0.12500019458E+03 0.  0.
    9000005    1    3    3    0    0 -0.14661467171E+02 -0.22080400018E+02  0.18849982812E+03  0.19035673849E+03  0.10000000000E+01 0.  0.
    9000005    1    3    3    0    0  0.14661467171E+02  0.22080400018E+02 -0.93224717695E+01  0.28114251981E+02  0.10000000000E+01 0.  0.
<mgrwt>
<rscale>  0 0.12500019E+03</rscale>
<asrwt>0</asrwt>
<pdfrwt beam="2">  1        4 0.30225873E-02 0.12500019E+03</pdfrwt>
<pdfrwt beam="1">  1       -4 0.30588334E-01 0.12500019E+03</pdfrwt>
<totfact> 0.87110496E+03</totfact>
</mgrwt>
</event>
<event>
 5    1  0.3401591E-002  0.1249972E+03  0.7818608E-02  0.1235074E+00
         -4   -1    0    0    0  501 -0.00000000000E+00  0.00000000000E+00  0.45198952329E+03  0.45199130751E+03  0.12700000000E+01 0.  1.
          4   -1    0    0  501    0  0.00000000000E+00 -0.00000000000E+00 -0.85934840134E+01  0.86868214837E+01  0.12700000000E+01 0.  1.
         25    2    1    2    0    0  0.00000000000E+00  0.00000000000E+00  0.44339603927E+03  0.46067812899E+03  0.12499716351E+03 0.  0.
    9000005    1    3    3    0    0 -0.40555602413E+02 -0.44993048451E+02  0.27830885141E+03  0.28482617167E+03  0.10000000000E+01 0.  0.
    9000005    1    3    3    0    0  0.40555602413E+02  0.44993048451E+02  0.16508718787E+03  0.17585195732E+03  0.10000000000E+01 0.  0.
<mgrwt>
<rscale>  0 0.12499716E+03</rscale>
<asrwt>0</asrwt>
<pdfrwt beam="2">  1        4 0.13293914E-02 0.12499716E+03</pdfrwt>
<pdfrwt beam="1">  1       -4 0.69544175E-01 0.12499716E+03</pdfrwt>
<totfact> 0.59053466E+03</totfact>
</mgrwt>
</event>
<event>
 5    1  0.3401591E-002  0.1249915E+03  0.7818608E-02  0.1235083E+00
         -4   -1    0    0    0  501 -0.00000000000E+00  0.00000000000E+00  0.29966088966E+02  0.29992988980E+02  0.12700000000E+01 0.  1.
          4   -1    0    0  501    0  0.00000000000E+00 -0.00000000000E+00 -0.13024948007E+03  0.13025567150E+03  0.12700000000E+01 0.  1.
         25    2    1    2    0    0  0.00000000000E+00  0.00000000000E+00 -0.10028339110E+03  0.16024866048E+03  0.12499149833E+03 0.  0.
    9000005    1    3    3    0    0 -0.29875357130E+02 -0.43015845293E+02 -0.64415256970E+01  0.52776824111E+02  0.10000000000E+01 0.  0.
    9000005    1    3    3    0    0  0.29875357130E+02  0.43015845293E+02 -0.93841865402E+02  0.10747183637E+03  0.10000000000E+01 0.  0.
<mgrwt>
<rscale>  0 0.12499150E+03</rscale>
<asrwt>0</asrwt>
<pdfrwt beam="2">  1        4 0.20040927E-01 0.12499150E+03</pdfrwt>
<pdfrwt beam="1">  1       -4 0.46127131E-02 0.12499150E+03</pdfrwt>
<totfact> 0.97313461E+03</totfact>
</mgrwt>
</event>
<event>
 5    1  0.3401591E-002  0.1250072E+03  0.7818608E-02  0.1235058E+00
          4   -1    0    0  501    0  0.00000000000E+00  0.00000000000E+00  0.30880460781E+01  0.33390011351E+01  0.12700000000E+01 0.  1.
         -4   -1    0    0    0  501 -0.00000000000E+00 -0.00000000000E+00 -0.12154543780E+04  0.12154550415E+04  0.12700000000E+01 0.  1.
         25    2    1    2    0    0  0.00000000000E+00  0.00000000000E+00 -0.12123663319E+04  0.12187940426E+04  0.12500718210E+03 0.  0.
    9000005    1    3    3    0    0  0.58215822532E+02  0.21966385566E+02 -0.66311294150E+03  0.66602655898E+03  0.10000000000E+01 0.  0.
    9000005    1    3    3    0    0 -0.58215822532E+02 -0.21966385566E+02 -0.54925339043E+03  0.55276748366E+03  0.10000000000E+01 0.  0.
<mgrwt>
<rscale>  0 0.12500718E+03</rscale>
<asrwt>0</asrwt>
<pdfrwt beam="1">  1        4 0.49444026E-03 0.12500718E+03</pdfrwt>
<pdfrwt beam="2">  1       -4 0.18701197E+00 0.12500718E+03</pdfrwt>
<totfact> 0.24222320E+03</totfact>
</mgrwt>
</event>
<event>
 5    1  0.3401591E-002  0.1250003E+03  0.7818608E-02  0.1235069E+00
          4   -1    0    0  501    0  0.00000000000E+00  0.00000000000E+00  0.26036212829E+03  0.26036522569E+03  0.12700000000E+01 0.  1.
         -4   -1    0    0    0  501 -0.00000000000E+00 -0.00000000000E+00 -0.14973149253E+02  0.15026912475E+02  0.12700000000E+01 0.  1.
         25    2    1    2    0    0  0.00000000000E+00  0.00000000000E+00  0.24538897904E+03  0.27539213816E+03  0.12500031492E+03 0.  0.
    9000005    1    3    3    0    0  0.25581525633E+02 -0.37357841298E+02  0.21758904389E+03  0.22225214236E+03  0.10000000000E+01 0.  0.
    9000005    1    3    3    0    0 -0.25581525633E+02  0.37357841298E+02  0.27799935142E+02  0.53139995805E+02  0.10000000000E+01 0.  0.
<mgrwt>
<rscale>  0 0.12500031E+03</rscale>
<asrwt>0</asrwt>
<pdfrwt beam="1">  1        4 0.40060085E-01 0.12500031E+03</pdfrwt>
<pdfrwt beam="2">  1       -4 0.23079354E-02 0.12500031E+03</pdfrwt>
<totfact> 0.78792515E+03</totfact>
</mgrwt>
</event>
<event>
 5    1  0.3401591E-002  0.1250009E+03  0.7818608E-02  0.1235068E+00
         -4   -1    0    0    0  501 -0.00000000000E+00  0.00000000000E+00  0.15158292547E+03  0.15158824556E+03  0.12700000000E+01 0.  1.
          4   -1    0    0  501    0  0.00000000000E+00 -0.00000000000E+00 -0.25748680304E+02  0.25779981330E+02  0.12700000000E+01 0.  1.
         25    2    1    2    0    0  0.00000000000E+00  0.00000000000E+00  0.12583424516E+03  0.17736822689E+03  0.12500092262E+03 0.  0.
    9000005    1    3    3    0    0  0.15964761010E+02 -0.28471283154E+02 -0.12697888615E+02  0.35038891732E+02  0.10000000000E+01 0.  0.
    9000005    1    3    3    0    0 -0.15964761010E+02  0.28471283154E+02  0.13853213378E+03  0.14232933516E+03  0.10000000000E+01 0.  0.
<mgrwt>
<rscale>  0 0.12500092E+03</rscale>
<asrwt>0</asrwt>
<pdfrwt beam="2">  1        4 0.39641524E-02 0.12500092E+03</pdfrwt>
<pdfrwt beam="1">  1       -4 0.23323267E-01 0.12500092E+03</pdfrwt>
<totfact> 0.94090940E+03</totfact>
</mgrwt>
</event>
<event>
 5    1  0.3401591E-002  0.1250011E+03  0.7818608E-02  0.1235068E+00
          4   -1    0    0  501    0  0.00000000000E+00  0.00000000000E+00  0.48121741052E+01  0.49769387799E+01  0.12700000000E+01 0. -1.
         -4   -1    0    0    0  501 -0.00000000000E+00 -0.00000000000E+00 -0.79792968310E+03  0.79793069378E+03  0.12700000000E+01 0. -1.
         25    2    1    2    0    0  0.00000000000E+00  0.00000000000E+00 -0.79311750900E+03  0.80290763256E+03  0.12500113337E+03 0.  0.
    9000005    1    3    3    0    0 -0.33272599293E+02 -0.50374560130E+02 -0.29285661456E+03  0.29901615151E+03  0.10000000000E+01 0.  0.
    9000005    1    3    3    0    0  0.33272599293E+02  0.50374560130E+02 -0.50026089444E+03  0.50389148105E+03  0.10000000000E+01 0.  0.
<mgrwt>
<rscale>  0 0.12500113E+03</rscale>
<asrwt>0</asrwt>
<pdfrwt beam="1">  1        4 0.75308706E-03 0.12500113E+03</pdfrwt>
<pdfrwt beam="2">  1       -4 0.12277106E+00 0.12500113E+03</pdfrwt>
<totfact> 0.38134334E+03</totfact>
</mgrwt>
</event>
<event>
 4    1  0.3401591E-002  0.1246732E+03  0.7818608E-02  0.1235581E+00
         -4   -1    0    0    0  501 -0.00000000000E+00  0.00000000000E+00  0.35791782414E+01  0.37978173842E+01  0.12700000000E+01 0.  1.
          4   -1    0    0  501    0  0.00000000000E+00 -0.00000000000E+00 -0.10532853487E+04  0.10532861143E+04  0.12700000000E+01 0.  1.
    9000005    1    1    2    0    0 -0.17862253121E+02 -0.39818891625E+02 -0.90216101556E+03  0.90321653119E+03  0.10000000000E+01 0.  0.
    9000005    1    1    2    0    0  0.17862253121E+02  0.39818891625E+02 -0.14754515488E+03  0.15386740053E+03  0.10000000000E+01 0.  0.
<mgrwt>
<rscale>  0 0.12467315E+03</rscale>
<asrwt>0</asrwt>
<pdfrwt beam="2">  1        4 0.16206054E+00 0.12467315E+03</pdfrwt>
<pdfrwt beam="1">  1       -4 0.56752094E-03 0.12467315E+03</pdfrwt>
<totfact> 0.28980760E+03</totfact>
</mgrwt>
</event>
<event>
 5    1  0.3401591E-002  0.1249990E+03  0.7818608E-02  0.1235071E+00
          4   -1    0    0  501    0  0.00000000000E+00  0.00000000000E+00  0.14749490714E+02  0.14804066209E+02  0.12700000000E+01 0. -1.
         -4   -1    0    0    0  501 -0.00000000000E+00 -0.00000000000E+00 -0.26429030771E+03  0.26429335908E+03  0.12700000000E+01 0. -1.
         25    2    1    2    0    0  0.00000000000E+00  0.00000000000E+00 -0.24954081700E+03  0.27909742529E+03  0.12499901380E+03 0.  0.
    9000005    1    3    3    0    0 -0.53670388050E+02  0.11086770508E+02 -0.19181983185E+03  0.19949755619E+03  0.10000000000E+01 0.  0.
    9000005    1    3    3    0    0  0.53670388050E+02 -0.11086770508E+02 -0.57720985149E+02  0.79599869097E+02  0.10000000000E+01 0.  0.
<mgrwt>
<rscale>  0 0.12499901E+03</rscale>
<asrwt>0</asrwt>
<pdfrwt beam="1">  1        4 0.22735855E-02 0.12499901E+03</pdfrwt>
<pdfrwt beam="2">  1       -4 0.40664477E-01 0.12499901E+03</pdfrwt>
<totfact> 0.78299651E+03</totfact>
</mgrwt>
</event>
<event>
 5    1  0.3401591E-002  0.1249970E+03  0.7818608E-02  0.1235074E+00
         -4   -1    0    0    0  501 -0.00000000000E+00  0.00000000000E+00  0.77231866278E+01  0.78269094595E+01  0.12700000000E+01 0.  1.
          4   -1    0    0  501    0  0.00000000000E+00 -0.00000000000E+00 -0.50227976612E+03  0.50228137170E+03  0.12700000000E+01 0.  1.
         25    2    1    2    0    0  0.00000000000E+00  0.00000000000E+00 -0.49455657949E+03  0.51010828116E+03  0.12499699270E+03 0.  0.
    9000005    1    3    3    0    0 -0.55702326598E+02 -0.27671983865E+02 -0.27195856677E+03  0.27898198852E+03  0.10000000000E+01 0.  0.
    9000005    1    3    3    0    0  0.55702326598E+02  0.27671983865E+02 -0.22259801273E+03  0.23112629264E+03  0.10000000000E+01 0.  0.
<mgrwt>
<rscale>  0 0.12499699E+03</rscale>
<asrwt>0</asrwt>
<pdfrwt beam="2">  1        4 0.77281887E-01 0.12499699E+03</pdfrwt>
<pdfrwt beam="1">  1       -4 0.11962851E-02 0.12499699E+03</pdfrwt>
<totfact> 0.55092183E+03</totfact>
</mgrwt>
</event>
<event>
 5    1  0.3401591E-002  0.1250013E+03  0.7818608E-02  0.1235067E+00
          4   -1    0    0  501    0  0.00000000000E+00  0.00000000000E+00  0.67072547451E+03  0.67072667687E+03  0.12700000000E+01 0. -1.
         -4   -1    0    0    0  501 -0.00000000000E+00 -0.00000000000E+00 -0.57535826438E+01  0.58920805526E+01  0.12700000000E+01 0. -1.
         25    2    1    2    0    0  0.00000000000E+00  0.00000000000E+00  0.66497189187E+03  0.67661875742E+03  0.12500130366E+03 0.  0.
    9000005    1    3    3    0    0  0.71248769224E+01 -0.55230250891E+02  0.48598581646E+03  0.48916700450E+03  0.10000000000E+01 0.  0.
    9000005    1    3    3    0    0 -0.71248769224E+01  0.55230250891E+02  0.17898607541E+03  0.18745175292E+03  0.10000000000E+01 0.  0.
<mgrwt>
<rscale>  0 0.12500130E+03</rscale>
<asrwt>0</asrwt>
<pdfrwt beam="1">  1        4 0.10319930E+00 0.12500130E+03</pdfrwt>
<pdfrwt beam="2">  1       -4 0.89591257E-03 0.12500130E+03</pdfrwt>
<totfact> 0.44348762E+03</totfact>
</mgrwt>
</event>
<event>
 5    1  0.3401591E-002  0.1249964E+03  0.7818608E-02  0.1235075E+00
         -4   -1    0    0    0  501 -0.00000000000E+00  0.00000000000E+00  0.71895169995E+02  0.71906386147E+02  0.12700000000E+01 0.  1.
          4   -1    0    0  501    0  0.00000000000E+00 -0.00000000000E+00 -0.54306613047E+02  0.54321460959E+02  0.12700000000E+01 0.  1.
         25    2    1    2    0    0  0.00000000000E+00  0.00000000000E+00  0.17588556948E+02  0.12622784711E+03  0.12499644815E+03 0.  0.
    9000005    1    3    3    0    0 -0.32780550910E+02  0.14570095811E+01  0.62500346535E+02  0.70597313773E+02  0.10000000000E+01 0.  0.
    9000005    1    3    3    0    0  0.32780550910E+02 -0.14570095811E+01 -0.44911789587E+02  0.55630533332E+02  0.10000000000E+01 0.  0.
<mgrwt>
<rscale>  0 0.12499645E+03</rscale>
<asrwt>0</asrwt>
<pdfrwt beam="2">  1        4 0.83568685E-02 0.12499645E+03</pdfrwt>
<pdfrwt beam="1">  1       -4 0.11062800E-01 0.12499645E+03</pdfrwt>
<totfact> 0.10426806E+04</totfact>
</mgrwt>
</event>
<event>
 5    1  0.3401591E-002  0.1249981E+03  0.7818608E-02  0.1235072E+00
          4   -1    0    0  501    0  0.00000000000E+00  0.00000000000E+00  0.37733424879E+01  0.39813331349E+01  0.12700000000E+01 0.  1.
         -4   -1    0    0    0  501 -0.00000000000E+00 -0.00000000000E+00 -0.10072179275E+04  0.10072187282E+04  0.12700000000E+01 0.  1.
         25    2    1    2    0    0  0.00000000000E+00  0.00000000000E+00 -0.10034445850E+04  0.10112000613E+04  0.12499811516E+03 0.  0.
    9000005    1    3    3    0    0  0.27178850705E+02  0.53760790653E+02 -0.36727225829E+03  0.37218117126E+03  0.10000000000E+01 0.  0.
    9000005    1    3    3    0    0 -0.27178850705E+02 -0.53760790653E+02 -0.63617232674E+03  0.63901889006E+03  0.10000000000E+01 0.  0.
<mgrwt>
<rscale>  0 0.12499812E+03</rscale>
<asrwt>0</asrwt>
<pdfrwt beam="1">  1        4 0.59657590E-03 0.12499812E+03</pdfrwt>
<pdfrwt beam="2">  1       -4 0.15497246E+00 0.12499812E+03</pdfrwt>
<totfact> 0.30238791E+03</totfact>
</mgrwt>
</event>
<event>
 5    1  0.3401591E-002  0.1250001E+03  0.7818608E-02  0.1235069E+00
         -4   -1    0    0    0  501 -0.00000000000E+00  0.00000000000E+00  0.36295917739E+02  0.36318129694E+02  0.12700000000E+01 0. -1.
          4   -1    0    0  501    0  0.00000000000E+00 -0.00000000000E+00 -0.10756351469E+03  0.10757101186E+03  0.12700000000E+01 0. -1.
         25    2    1    2    0    0  0.00000000000E+00  0.00000000000E+00 -0.71267596956E+02  0.14388914156E+03  0.12500005873E+03 0.  0.
    9000005    1    3    3    0    0  0.15293363125E+02 -0.53796702269E+02 -0.67726552048E+02  0.87839956642E+02  0.10000000000E+01 0.  0.
    9000005    1    3    3    0    0 -0.15293363125E+02  0.53796702269E+02 -0.35410449082E+01  0.56049184916E+02  0.10000000000E+01 0.  0.
<mgrwt>
<rscale>  0 0.12500006E+03</rscale>
<asrwt>0</asrwt>
<pdfrwt beam="2">  1        4 0.16550518E-01 0.12500006E+03</pdfrwt>
<pdfrwt beam="1">  1       -4 0.55862727E-02 0.12500006E+03</pdfrwt>
<totfact> 0.10053594E+04</totfact>
</mgrwt>
</event>
<event>
 5    1  0.3401591E-002  0.1250028E+03  0.7818608E-02  0.1235065E+00
          4   -1    0    0  501    0  0.00000000000E+00  0.00000000000E+00  0.13352029729E+03  0.13352633705E+03  0.12700000000E+01 0. -1.
         -4   -1    0    0    0  501 -0.00000000000E+00 -0.00000000000E+00 -0.29236656887E+02  0.29264227410E+02  0.12700000000E+01 0. -1.
         25    2    1    2    0    0  0.00000000000E+00  0.00000000000E+00  0.10428364040E+03  0.16279056447E+03  0.12500276087E+03 0.  0.
    9000005    1    3    3    0    0 -0.41674913186E+02 -0.67730411141E+01 -0.78592583325E+01  0.42958589555E+02  0.10000000000E+01 0.  0.
    9000005    1    3    3    0    0  0.41674913186E+02  0.67730411141E+01  0.11214289873E+03  0.11983197491E+03  0.10000000000E+01 0.  0.
<mgrwt>
<rscale>  0 0.12500276E+03</rscale>
<asrwt>0</asrwt>
<pdfrwt beam="1">  1        4 0.20544170E-01 0.12500276E+03</pdfrwt>
<pdfrwt beam="2">  1       -4 0.45005326E-02 0.12500276E+03</pdfrwt>
<totfact> 0.96801462E+03</totfact>
</mgrwt>
</event>
<event>
 5    1  0.3401591E-002  0.1249988E+03  0.7818608E-02  0.1235071E+00
         -4   -1    0    0    0  501 -0.00000000000E+00  0.00000000000E+00  0.26067271661E+02  0.26098190586E+02  0.12700000000E+01 0.  1.
          4   -1    0    0  501    0  0.00000000000E+00 -0.00000000000E+00 -0.14972740261E+03  0.14973278863E+03  0.12700000000E+01 0.  1.
         25    2    1    2    0    0  0.00000000000E+00  0.00000000000E+00 -0.12366013094E+03  0.17583097922E+03  0.12499882106E+03 0.  0.
    9000005    1    3    3    0    0  0.93090505738E+01 -0.61032705718E+02 -0.75433774861E+02  0.97482839411E+02  0.10000000000E+01 0.  0.
    9000005    1    3    3    0    0 -0.93090505738E+01  0.61032705718E+02 -0.48226356083E+02  0.78348139805E+02  0.10000000000E+01 0.  0.
<mgrwt>
<rscale>  0 0.12499882E+03</rscale>
<asrwt>0</asrwt>
<pdfrwt beam="2">  1        4 0.23037777E-01 0.12499882E+03</pdfrwt>
<pdfrwt beam="1">  1       -4 0.40131422E-02 0.12499882E+03</pdfrwt>
<totfact> 0.94375365E+03</totfact>
</mgrwt>
</event>
<event>
 5    1  0.3401591E-002  0.1249999E+03  0.7818608E-02  0.1235069E+00
          4   -1    0    0  501    0  0.00000000000E+00  0.00000000000E+00  0.13441392701E+03  0.13441992663E+03  0.12700000000E+01 0.  1.
         -4   -1    0    0    0  501 -0.00000000000E+00 -0.00000000000E+00 -0.29040783982E+02  0.29068540285E+02  0.12700000000E+01 0.  1.
         25    2    1    2    0    0  0.00000000000E+00  0.00000000000E+00  0.10537314303E+03  0.16348846691E+03  0.12499991817E+03 0.  0.
    9000005    1    3    3    0    0  0.52513170568E+02 -0.14500023212E+02  0.92729963886E+02  0.10755338190E+03  0.10000000000E+01 0.  0.
    9000005    1    3    3    0    0 -0.52513170568E+02  0.14500023212E+02  0.12643179143E+02  0.55935085011E+02  0.10000000000E+01 0.  0.
<mgrwt>
<rscale>  0 0.12499992E+03</rscale>
<asrwt>0</asrwt>
<pdfrwt beam="1">  1        4 0.20681662E-01 0.12499992E+03</pdfrwt>
<pdfrwt beam="2">  1       -4 0.44704096E-02 0.12499992E+03</pdfrwt>
<totfact> 0.96674599E+03</totfact>
</mgrwt>
</event>
<event>
 5    1  0.3401591E-002  0.1250064E+03  0.7818608E-02  0.1235059E+00
          4   -1    0    0  501    0  0.00000000000E+00  0.00000000000E+00  0.35109032771E+02  0.35131995134E+02  0.12700000000E+01 0. -1.
         -4   -1    0    0    0  501 -0.00000000000E+00 -0.00000000000E+00 -0.11120904905E+03  0.11121630047E+03  0.12700000000E+01 0. -1.
         25    2    1    2    0    0  0.00000000000E+00  0.00000000000E+00 -0.76100016283E+02  0.14634829561E+03  0.12500644443E+03 0.  0.
    9000005    1    3    3    0    0  0.12788610109E+02  0.60942948367E+02 -0.44251683515E+02  0.76398972494E+02  0.10000000000E+01 0.  0.
    9000005    1    3    3    0    0 -0.12788610109E+02 -0.60942948367E+02 -0.31848332768E+02  0.69949323115E+02  0.10000000000E+01 0.  0.
<mgrwt>
<rscale>  0 0.12500644E+03</rscale>
<asrwt>0</asrwt>
<pdfrwt beam="1">  1        4 0.54037138E-02 0.12500644E+03</pdfrwt>
<pdfrwt beam="2">  1       -4 0.17111408E-01 0.12500644E+03</pdfrwt>
<totfact> 0.10002214E+04</totfact>
</mgrwt>
</event>
<event>
 5    1  0.3401591E-002  0.1250094E+03  0.7818608E-02  0.1235055E+00
          4   -1    0    0  501    0  0.00000000000E+00  0.00000000000E+00  0.87533353378E+02  0.87542565952E+02  0.12700000000E+01 0. -1.
         -4   -1    0    0    0  501 -0.00000000000E+00 -0.00000000000E+00 -0.44611956071E+02  0.44630029403E+02  0.12700000000E+01 0. -1.
         25    2    1    2    0    0  0.00000000000E+00  0.00000000000E+00  0.42921397306E+02  0.13217259536E+03  0.12500939411E+03 0.  0.
    9000005    1    3    3    0    0 -0.51155815572E+02 -0.25981244691E+02  0.47657343863E+02  0.74593330578E+02  0.10000000000E+01 0.  0.
    9000005    1    3    3    0    0  0.51155815572E+02  0.25981244691E+02 -0.47359465572E+01  0.57579264778E+02  0.10000000000E+01 0.  0.
<mgrwt>
<rscale>  0 0.12500939E+03</rscale>
<asrwt>0</asrwt>
<pdfrwt beam="1">  1        4 0.13468769E-01 0.12500939E+03</pdfrwt>
<pdfrwt beam="2">  1       -4 0.68654768E-02 0.12500939E+03</pdfrwt>
<totfact> 0.10295834E+04</totfact>
</mgrwt>
</event>
<event>
 5    1  0.3401591E-002  0.1249985E+03  0.7818608E-02  0.1235072E+00
         -4   -1    0    0    0  501 -0.00000000000E+00  0.00000000000E+00  0.98486455348E+01  0.99301922877E+01  0.12700000000E+01 0. -1.
          4   -1    0    0  501    0  0.00000000000E+00 -0.00000000000E+00 -0.39490105469E+03  0.39490309684E+03  0.12700000000E+01 0. -1.
         25    2    1    2    0    0  0.00000000000E+00  0.00000000000E+00 -0.38505240916E+03  0.40483328913E+03  0.12499853676E+03 0.  0.
    9000005    1    3    3    0    0 -0.54363735475E+02 -0.30781591066E+02 -0.18768278277E+03  0.19780988103E+03  0.10000000000E+01 0.  0.
    9000005    1    3    3    0    0  0.54363735475E+02  0.30781591066E+02 -0.19736962638E+03  0.20702340810E+03  0.10000000000E+01 0.  0.
<mgrwt>
<rscale>  0 0.12499854E+03</rscale>
<asrwt>0</asrwt>
<pdfrwt beam="2">  1        4 0.60760426E-01 0.12499854E+03</pdfrwt>
<pdfrwt beam="1">  1       -4 0.15216065E-02 0.12499854E+03</pdfrwt>
<totfact> 0.64087484E+03</totfact>
</mgrwt>
</event>
<event>
 5    1  0.3401591E-002  0.1250000E+03  0.7818608E-02  0.1235069E+00
          4   -1    0    0  501    0  0.00000000000E+00  0.00000000000E+00  0.15737697732E+03  0.15738210156E+03  0.12700000000E+01 0. -1.
         -4   -1    0    0    0  501 -0.00000000000E+00 -0.00000000000E+00 -0.24799195772E+02  0.24831693679E+02  0.12700000000E+01 0. -1.
         25    2    1    2    0    0  0.00000000000E+00  0.00000000000E+00  0.13257778155E+03  0.18221379524E+03  0.12499999606E+03 0.  0.
    9000005    1    3    3    0    0  0.25032943412E+02  0.87743857423E+01  0.14877020659E+03  0.15111986127E+03  0.10000000000E+01 0.  0.
    9000005    1    3    3    0    0 -0.25032943412E+02 -0.87743857423E+01 -0.16192425040E+02  0.31093933969E+02  0.10000000000E+01 0.  0.
<mgrwt>
<rscale>  0 0.12500000E+03</rscale>
<asrwt>0</asrwt>
<pdfrwt beam="1">  1        4 0.24214737E-01 0.12500000E+03</pdfrwt>
<pdfrwt beam="2">  1       -4 0.38181549E-02 0.12500000E+03</pdfrwt>
<totfact> 0.93220032E+03</totfact>
</mgrwt>
</event>
<event>
 5    1  0.3401591E-002  0.1249989E+03  0.7818608E-02  0.1235071E+00
          4   -1    0    0  501    0  0.00000000000E+00  0.00000000000E+00  0.31977385510E+02  0.32002594958E+02  0.12700000000E+01 0.  1.
         -4   -1    0    0    0  501 -0.00000000000E+00 -0.00000000000E+00 -0.12207784860E+03  0.12208445446E+03  0.12700000000E+01 0.  1.
         25    2    1    2    0    0  0.00000000000E+00  0.00000000000E+00 -0.90100463094E+02  0.15408704941E+03  0.12499890138E+03 0.  0.
    9000005    1    3    3    0    0 -0.30071120359E+02 -0.40353306674E+02 -0.90718993250E+02  0.10374775841E+03  0.10000000000E+01 0.  0.
    9000005    1    3    3    0    0  0.30071120359E+02  0.40353306674E+02  0.61853015544E+00  0.50339291003E+02  0.10000000000E+01 0.  0.
<mgrwt>
<rscale>  0 0.12499890E+03</rscale>
<asrwt>0</asrwt>
<pdfrwt beam="1">  1        4 0.49220452E-02 0.12499890E+03</pdfrwt>
<pdfrwt beam="2">  1       -4 0.18783655E-01 0.12499890E+03</pdfrwt>
<totfact> 0.98497455E+03</totfact>
</mgrwt>
</event>
<event>
 5    1  0.3401591E-002  0.1249996E+03  0.7818608E-02  0.1235070E+00
          4   -1    0    0  501    0  0.00000000000E+00  0.00000000000E+00  0.13411833911E+03  0.13412435195E+03  0.12700000000E+01 0. -1.
         -4   -1    0    0    0  501 -0.00000000000E+00 -0.00000000000E+00 -0.29104699909E+02  0.29132395315E+02  0.12700000000E+01 0. -1.
         25    2    1    2    0    0  0.00000000000E+00  0.00000000000E+00  0.10501363920E+03  0.16325674726E+03  0.12499960443E+03 0.  0.
    9000005    1    3    3    0    0 -0.69207239598E+01  0.48105618723E+02  0.10381310293E+03  0.11463074331E+03  0.10000000000E+01 0.  0.
    9000005    1    3    3    0    0  0.69207239598E+01 -0.48105618723E+02  0.12005362721E+01  0.48626003950E+02  0.10000000000E+01 0.  0.
<mgrwt>
<rscale>  0 0.12499960E+03</rscale>
<asrwt>0</asrwt>
<pdfrwt beam="1">  1        4 0.20636183E-01 0.12499960E+03</pdfrwt>
<pdfrwt beam="2">  1       -4 0.44802391E-02 0.12499960E+03</pdfrwt>
<totfact> 0.96719418E+03</totfact>
</mgrwt>
</event>
<event>
 5    1  0.3401591E-002  0.1249806E+03  0.7818608E-02  0.1235100E+00
         -4   -1    0    0    0  501 -0.00000000000E+00  0.00000000000E+00  0.19337360054E+02  0.19379019424E+02  0.12700000000E+01 0.  1.
          4   -1    0    0  501    0  0.00000000000E+00 -0.00000000000E+00 -0.20168171958E+03  0.20168571816E+03  0.12700000000E+01 0.  1.
         25    2    1    2    0    0  0.00000000000E+00  0.00000000000E+00 -0.18234435952E+03  0.22106473759E+03  0.12498060952E+03 0.  0.
    9000005    1    3    3    0    0 -0.45104382320E+02 -0.28149566064E+02 -0.33118196268E+02  0.62646774043E+02  0.10000000000E+01 0.  0.
    9000005    1    3    3    0    0  0.45104382320E+02  0.28149566064E+02 -0.14922616325E+03  0.15841796354E+03  0.10000000000E+01 0.  0.
<mgrwt>
<rscale>  0 0.12498061E+03</rscale>
<asrwt>0</asrwt>
<pdfrwt beam="2">  1        4 0.31031468E-01 0.12498061E+03</pdfrwt>
<pdfrwt beam="1">  1       -4 0.29784908E-02 0.12498061E+03</pdfrwt>
<totfact> 0.86737708E+03</totfact>
</mgrwt>
</event>
<event>
 5    1  0.3401591E-002  0.1250014E+03  0.7818608E-02  0.1235067E+00
          4   -1    0    0  501    0  0.00000000000E+00  0.00000000000E+00  0.97273039968E+02  0.97281330195E+02  0.12700000000E+01 0.  1.
         -4   -1    0    0    0  501 -0.00000000000E+00 -0.00000000000E+00 -0.40138434317E+02  0.40158521007E+02  0.12700000000E+01 0.  1.
         25    2    1    2    0    0  0.00000000000E+00  0.00000000000E+00  0.57134605651E+02  0.13743985120E+03  0.12500139813E+03 0.  0.
    9000005    1    3    3    0    0  0.71705136247E+01  0.54588562603E+02  0.61072738731E+02  0.82232638586E+02  0.10000000000E+01 0.  0.
    9000005    1    3    3    0    0 -0.71705136247E+01 -0.54588562603E+02 -0.39381330803E+01  0.55207212616E+02  0.10000000000E+01 0.  0.
<mgrwt>
<rscale>  0 0.12500140E+03</rscale>
<asrwt>0</asrwt>
<pdfrwt beam="1">  1        4 0.14967266E-01 0.12500140E+03</pdfrwt>
<pdfrwt beam="2">  1       -4 0.61773266E-02 0.12500140E+03</pdfrwt>
<totfact> 0.10186576E+04</totfact>
</mgrwt>
</event>
<event>
 5    1  0.3401591E-002  0.1250018E+03  0.7818608E-02  0.1235066E+00
         -4   -1    0    0    0  501 -0.00000000000E+00  0.00000000000E+00  0.29917844231E+02  0.29944787584E+02  0.12700000000E+01 0. -1.
          4   -1    0    0  501    0  0.00000000000E+00 -0.00000000000E+00 -0.13048082104E+03  0.13048700150E+03  0.12700000000E+01 0. -1.
         25    2    1    2    0    0  0.00000000000E+00  0.00000000000E+00 -0.10056297681E+03  0.16043178908E+03  0.12500178656E+03 0.  0.
    9000005    1    3    3    0    0 -0.40095178271E+01  0.31619420953E+02  0.18708389925E+02  0.36971176181E+02  0.10000000000E+01 0.  0.
    9000005    1    3    3    0    0  0.40095178271E+01 -0.31619420953E+02 -0.11927136674E+03  0.12346061290E+03  0.10000000000E+01 0.  0.
<mgrwt>
<rscale>  0 0.12500179E+03</rscale>
<asrwt>0</asrwt>
<pdfrwt beam="2">  1        4 0.20076520E-01 0.12500179E+03</pdfrwt>
<pdfrwt beam="1">  1       -4 0.46052933E-02 0.12500179E+03</pdfrwt>
<totfact> 0.97255699E+03</totfact>
</mgrwt>
</event>
<event>
 5    1  0.3401591E-002  0.1249998E+03  0.7818608E-02  0.1235070E+00
          4   -1    0    0  501    0  0.00000000000E+00  0.00000000000E+00  0.42930108749E+02  0.42948889825E+02  0.12700000000E+01 0.  1.
         -4   -1    0    0    0  501 -0.00000000000E+00 -0.00000000000E+00 -0.90947464694E+02  0.90956331469E+02  0.12700000000E+01 0.  1.
         25    2    1    2    0    0  0.00000000000E+00  0.00000000000E+00 -0.48017355945E+02  0.13390522129E+03  0.12499976727E+03 0.  0.
    9000005    1    3    3    0    0 -0.35010772192E+02  0.20811139885E+02  0.26763956762E+02  0.48745944388E+02  0.10000000000E+01 0.  0.
    9000005    1    3    3    0    0  0.35010772192E+02 -0.20811139885E+02 -0.74781312707E+02  0.85159276905E+02  0.10000000000E+01 0.  0.
<mgrwt>
<rscale>  0 0.12499977E+03</rscale>
<asrwt>0</asrwt>
<pdfrwt beam="1">  1        4 0.66067589E-02 0.12499977E+03</pdfrwt>
<pdfrwt beam="2">  1       -4 0.13994044E-01 0.12499977E+03</pdfrwt>
<totfact> 0.10261252E+04</totfact>
</mgrwt>
</event>
<event>
 5    1  0.3401591E-002  0.1250002E+03  0.7818608E-02  0.1235069E+00
         -4   -1    0    0    0  501 -0.00000000000E+00  0.00000000000E+00  0.29853491727E+02  0.29880493107E+02  0.12700000000E+01 0.  1.
          4   -1    0    0  501    0  0.00000000000E+00 -0.00000000000E+00 -0.13075854837E+03  0.13076471570E+03  0.12700000000E+01 0.  1.
         25    2    1    2    0    0  0.00000000000E+00  0.00000000000E+00 -0.10090505665E+03  0.16064520881E+03  0.12500021063E+03 0.  0.
    9000005    1    3    3    0    0  0.42154391419E+01  0.28183945913E+02  0.21023121925E+02  0.35427057313E+02  0.10000000000E+01 0.  0.
    9000005    1    3    3    0    0 -0.42154391419E+01 -0.28183945913E+02 -0.12192817857E+03  0.12521815150E+03  0.10000000000E+01 0.  0.
<mgrwt>
<rscale>  0 0.12500021E+03</rscale>
<asrwt>0</asrwt>
<pdfrwt beam="2">  1        4 0.20119251E-01 0.12500021E+03</pdfrwt>
<pdfrwt beam="1">  1       -4 0.45953964E-02 0.12500021E+03</pdfrwt>
<totfact> 0.97218078E+03</totfact>
</mgrwt>
</event>
<event>
 5    1  0.3401591E-002  0.1249946E+03  0.7818608E-02  0.1235078E+00
          4   -1    0    0  501    0  0.00000000000E+00  0.00000000000E+00  0.70369067884E+01  0.71505913846E+01  0.12700000000E+01 0.  1.
         -4   -1    0    0    0  501 -0.00000000000E+00 -0.00000000000E+00 -0.55049889919E+03  0.55050036413E+03  0.12700000000E+01 0.  1.
         25    2    1    2    0    0  0.00000000000E+00  0.00000000000E+00 -0.54346199240E+03  0.55765095551E+03  0.12499460390E+03 0.  0.
    9000005    1    3    3    0    0  0.59420764221E+02  0.18366257145E+02 -0.24467926039E+03  0.25246205079E+03  0.10000000000E+01 0.  0.
    9000005    1    3    3    0    0 -0.59420764221E+02 -0.18366257145E+02 -0.29878273201E+03  0.30518890473E+03  0.10000000000E+01 0.  0.
<mgrwt>
<rscale>  0 0.12499460E+03</rscale>
<asrwt>0</asrwt>
<pdfrwt beam="1">  1        4 0.10914591E-02 0.12499460E+03</pdfrwt>
<pdfrwt beam="2">  1       -4 0.84700962E-01 0.12499460E+03</pdfrwt>
<totfact> 0.51660915E+03</totfact>
</mgrwt>
</event>
<event>
 5    1  0.3401591E-002  0.1249525E+03  0.7818608E-02  0.1235144E+00
         -4   -1    0    0    0  501 -0.00000000000E+00  0.00000000000E+00  0.10630142676E+03  0.10630901293E+03  0.12700000000E+01 0. -1.
          4   -1    0    0  501    0  0.00000000000E+00 -0.00000000000E+00 -0.36699123396E+02  0.36721091461E+02  0.12700000000E+01 0. -1.
         25    2    1    2    0    0  0.00000000000E+00  0.00000000000E+00  0.69602303361E+02  0.14303010439E+03  0.12495251150E+03 0.  0.
    9000005    1    3    3    0    0 -0.22470920800E+02  0.54258482666E+02  0.59173803093E+02  0.83375441200E+02  0.10000000000E+01 0.  0.
    9000005    1    3    3    0    0  0.22470920800E+02 -0.54258482666E+02  0.10428500268E+02  0.59654663193E+02  0.10000000000E+01 0.  0.
<mgrwt>
<rscale>  0 0.12495251E+03</rscale>
<asrwt>0</asrwt>
<pdfrwt beam="2">  1        4 0.56482924E-02 0.12495251E+03</pdfrwt>
<pdfrwt beam="1">  1       -4 0.16356339E-01 0.12495251E+03</pdfrwt>
<totfact> 0.10081946E+04</totfact>
</mgrwt>
</event>
<event>
 5    1  0.3401591E-002  0.1249947E+03  0.7818608E-02  0.1235078E+00
          4   -1    0    0  501    0  0.00000000000E+00  0.00000000000E+00  0.36956631457E+02  0.36978446542E+02  0.12700000000E+01 0. -1.
         -4   -1    0    0    0  501 -0.00000000000E+00 -0.00000000000E+00 -0.10563245088E+03  0.10564008509E+03  0.12700000000E+01 0. -1.
         25    2    1    2    0    0  0.00000000000E+00  0.00000000000E+00 -0.68675819422E+02  0.14261853164E+03  0.12499470946E+03 0.  0.
    9000005    1    3    3    0    0  0.13521317405E+02  0.60794493574E+02 -0.40169604892E+02  0.74117431353E+02  0.10000000000E+01 0.  0.
    9000005    1    3    3    0    0 -0.13521317405E+02 -0.60794493574E+02 -0.28506214531E+02  0.68501100284E+02  0.10000000000E+01 0.  0.
<mgrwt>
<rscale>  0 0.12499471E+03</rscale>
<asrwt>0</asrwt>
<pdfrwt beam="1">  1        4 0.56879010E-02 0.12499471E+03</pdfrwt>
<pdfrwt beam="2">  1       -4 0.16253411E-01 0.12499471E+03</pdfrwt>
<totfact> 0.10080802E+04</totfact>
</mgrwt>
</event>
<event>
 5    1  0.3401591E-002  0.1250015E+03  0.7818608E-02  0.1235067E+00
          4   -1    0    0  501    0  0.00000000000E+00  0.00000000000E+00  0.35997048653E+02  0.36019444911E+02  0.12700000000E+01 0.  1.
         -4   -1    0    0    0  501 -0.00000000000E+00 -0.00000000000E+00 -0.10845863920E+03  0.10846607450E+03  0.12700000000E+01 0.  1.
         25    2    1    2    0    0  0.00000000000E+00  0.00000000000E+00 -0.72461590550E+02  0.14448551941E+03  0.12500153285E+03 0.  0.
    9000005    1    3    3    0    0 -0.51115105350E+01 -0.34906875817E+02 -0.95853167024E+02  0.10214424677E+03  0.10000000000E+01 0.  0.
    9000005    1    3    3    0    0  0.51115105350E+01  0.34906875817E+02  0.23391576474E+02  0.42341272644E+02  0.10000000000E+01 0.  0.
<mgrwt>
<rscale>  0 0.12500153E+03</rscale>
<asrwt>0</asrwt>
<pdfrwt beam="1">  1        4 0.55403023E-02 0.12500153E+03</pdfrwt>
<pdfrwt beam="2">  1       -4 0.16688239E-01 0.12500153E+03</pdfrwt>
<totfact> 0.10041105E+04</totfact>
</mgrwt>
</event>
<event>
 5    1  0.3401591E-002  0.1250002E+03  0.7818608E-02  0.1235069E+00
         -4   -1    0    0    0  501 -0.00000000000E+00  0.00000000000E+00  0.22458476619E+03  0.22458835701E+03  0.12700000000E+01 0. -1.
          4   -1    0    0  501    0  0.00000000000E+00 -0.00000000000E+00 -0.17366341255E+02  0.17412716864E+02  0.12700000000E+01 0. -1.
         25    2    1    2    0    0  0.00000000000E+00  0.00000000000E+00  0.20721842494E+03  0.24200107388E+03  0.12500017649E+03 0.  0.
    9000005    1    3    3    0    0  0.49196784845E+02 -0.38320141591E+02  0.11147429202E+03  0.12773517398E+03  0.10000000000E+01 0.  0.
    9000005    1    3    3    0    0 -0.49196784845E+02  0.38320141591E+02  0.95744132916E+02  0.11426589989E+03  0.10000000000E+01 0.  0.
<mgrwt>
<rscale>  0 0.12500018E+03</rscale>
<asrwt>0</asrwt>
<pdfrwt beam="2">  1        4 0.26755886E-02 0.12500018E+03</pdfrwt>
<pdfrwt beam="1">  1       -4 0.34555344E-01 0.12500018E+03</pdfrwt>
<totfact> 0.83499916E+03</totfact>
</mgrwt>
</event>
<event>
 5    1  0.3401591E-002  0.1249984E+03  0.7818608E-02  0.1235072E+00
          4   -1    0    0  501    0  0.00000000000E+00  0.00000000000E+00  0.58040927893E+02  0.58054820736E+02  0.12700000000E+01 0. -1.
         -4   -1    0    0    0  501 -0.00000000000E+00 -0.00000000000E+00 -0.67272008063E+02  0.67283994893E+02  0.12700000000E+01 0. -1.
         25    2    1    2    0    0  0.00000000000E+00  0.00000000000E+00 -0.92310801700E+01  0.12533881563E+03  0.12499842344E+03 0.  0.
    9000005    1    3    3    0    0  0.42583995694E+02  0.30035795531E+02 -0.39200126055E+02  0.65216528466E+02  0.10000000000E+01 0.  0.
    9000005    1    3    3    0    0 -0.42583995694E+02 -0.30035795531E+02  0.29969045885E+02  0.60122287163E+02  0.10000000000E+01 0.  0.
<mgrwt>
<rscale>  0 0.12499842E+03</rscale>
<asrwt>0</asrwt>
<pdfrwt beam="1">  1        4 0.89313643E-02 0.12499842E+03</pdfrwt>
<pdfrwt beam="2">  1       -4 0.10351530E-01 0.12499842E+03</pdfrwt>
<totfact> 0.10445880E+04</totfact>
</mgrwt>
</event>
<event>
 5    1  0.3401591E-002  0.1250083E+03  0.7818608E-02  0.1235056E+00
         -4   -1    0    0    0  501 -0.00000000000E+00  0.00000000000E+00  0.77757797493E+02  0.77768168108E+02  0.12700000000E+01 0. -1.
          4   -1    0    0  501    0  0.00000000000E+00 -0.00000000000E+00 -0.50221050499E+02  0.50237105940E+02  0.12700000000E+01 0. -1.
         25    2    1    2    0    0  0.00000000000E+00  0.00000000000E+00  0.27536746994E+02  0.12800527405E+03  0.12500831072E+03 0.  0.
    9000005    1    3    3    0    0 -0.41984019190E+02 -0.41358706460E+02  0.35065286580E+02  0.68584070966E+02  0.10000000000E+01 0.  0.
    9000005    1    3    3    0    0  0.41984019190E+02  0.41358706460E+02 -0.75285395860E+01  0.59421203082E+02  0.10000000000E+01 0.  0.
<mgrwt>
<rscale>  0 0.12500831E+03</rscale>
<asrwt>0</asrwt>
<pdfrwt beam="2">  1        4 0.77283483E-02 0.12500831E+03</pdfrwt>
<pdfrwt beam="1">  1       -4 0.11964771E-01 0.12500831E+03</pdfrwt>
<totfact> 0.10385425E+04</totfact>
</mgrwt>
</event>
<event>
 5    1  0.3401591E-002  0.1249968E+03  0.7818608E-02  0.1235074E+00
         -4   -1    0    0    0  501 -0.00000000000E+00  0.00000000000E+00  0.26377403297E+02  0.26407959117E+02  0.12700000000E+01 0.  1.
          4   -1    0    0  501    0  0.00000000000E+00 -0.00000000000E+00 -0.14796408152E+03  0.14796953173E+03  0.12700000000E+01 0.  1.
         25    2    1    2    0    0  0.00000000000E+00  0.00000000000E+00 -0.12158667822E+03  0.17437749084E+03  0.12499675593E+03 0.  0.
    9000005    1    3    3    0    0  0.35678713612E+02  0.39709504142E+02 -0.10611080777E+03  0.11878686312E+03  0.10000000000E+01 0.  0.
    9000005    1    3    3    0    0 -0.35678713612E+02 -0.39709504142E+02 -0.15475870445E+02  0.55590627719E+02  0.10000000000E+01 0.  0.
<mgrwt>
<rscale>  0 0.12499676E+03</rscale>
<asrwt>0</asrwt>
<pdfrwt beam="2">  1        4 0.22766474E-01 0.12499676E+03</pdfrwt>
<pdfrwt beam="1">  1       -4 0.40608318E-02 0.12499676E+03</pdfrwt>
<totfact> 0.94645864E+03</totfact>
</mgrwt>
</event>
<event>
 5    1  0.3401591E-002  0.1250018E+03  0.7818608E-02  0.1235067E+00
         -4   -1    0    0    0  501 -0.00000000000E+00  0.00000000000E+00  0.51945941684E+03  0.51946096932E+03  0.12700000000E+01 0.  1.
          4   -1    0    0  501    0  0.00000000000E+00 -0.00000000000E+00 -0.74648544912E+01  0.75721167830E+01  0.12700000000E+01 0.  1.
         25    2    1    2    0    0  0.00000000000E+00  0.00000000000E+00  0.51199456235E+03  0.52703308610E+03  0.12500176786E+03 0.  0.
    9000005    1    3    3    0    0  0.18931020866E+02 -0.55354315085E+02  0.34864609626E+03  0.35352168843E+03  0.10000000000E+01 0.  0.
    9000005    1    3    3    0    0 -0.18931020866E+02  0.55354315085E+02  0.16334846608E+03  0.17351139767E+03  0.10000000000E+01 0.  0.
<mgrwt>
<rscale>  0 0.12500177E+03</rscale>
<asrwt>0</asrwt>
<pdfrwt beam="2">  1        4 0.11568096E-02 0.12500177E+03</pdfrwt>
<pdfrwt beam="1">  1       -4 0.79925198E-01 0.12500177E+03</pdfrwt>
<totfact> 0.53824197E+03</totfact>
</mgrwt>
</event>
<event>
 5    1  0.3401591E-002  0.1249996E+03  0.7818608E-02  0.1235070E+00
         -4   -1    0    0    0  501 -0.00000000000E+00  0.00000000000E+00  0.19904173439E+02  0.19944648913E+02  0.12700000000E+01 0.  1.
          4   -1    0    0  501    0  0.00000000000E+00 -0.00000000000E+00 -0.19600954673E+03  0.19601366103E+03  0.12700000000E+01 0.  1.
         25    2    1    2    0    0  0.00000000000E+00  0.00000000000E+00 -0.17610537329E+03  0.21595830994E+03  0.12499955652E+03 0.  0.
    9000005    1    3    3    0    0  0.52052641064E+02 -0.34246726943E+02 -0.96321461067E+02  0.11472201014E+03  0.10000000000E+01 0.  0.
    9000005    1    3    3    0    0 -0.52052641064E+02  0.34246726943E+02 -0.79783912225E+02  0.10123629980E+03  0.10000000000E+01 0.  0.
<mgrwt>
<rscale>  0 0.12499956E+03</rscale>
<asrwt>0</asrwt>
<pdfrwt beam="2">  1        4 0.30158744E-01 0.12499956E+03</pdfrwt>
<pdfrwt beam="1">  1       -4 0.30656106E-02 0.12499956E+03</pdfrwt>
<totfact> 0.87512830E+03</totfact>
</mgrwt>
</event>
<event>
 5    1  0.3401591E-002  0.1250032E+03  0.7818608E-02  0.1235064E+00
         -4   -1    0    0    0  501 -0.00000000000E+00  0.00000000000E+00  0.33692878095E+03  0.33693117447E+03  0.12700000000E+01 0. -1.
          4   -1    0    0  501    0  0.00000000000E+00 -0.00000000000E+00 -0.11557078299E+02  0.11626648650E+02  0.12700000000E+01 0. -1.
         25    2    1    2    0    0  0.00000000000E+00  0.00000000000E+00  0.32537170265E+03  0.34855782312E+03  0.12500324466E+03 0.  0.
    9000005    1    3    3    0    0 -0.28776695071E+02 -0.28174289461E+02  0.29593368136E+03  0.29866307527E+03  0.10000000000E+01 0.  0.
    9000005    1    3    3    0    0  0.28776695071E+02  0.28174289461E+02  0.29438021287E+02  0.49894747851E+02  0.10000000000E+01 0.  0.
<mgrwt>
<rscale>  0 0.12500324E+03</rscale>
<asrwt>0</asrwt>
<pdfrwt beam="2">  1        4 0.17835476E-02 0.12500324E+03</pdfrwt>
<pdfrwt beam="1">  1       -4 0.51840737E-01 0.12500324E+03</pdfrwt>
<totfact> 0.69878482E+03</totfact>
</mgrwt>
</event>
<event>
 5    1  0.3401591E-002  0.1250213E+03  0.7818608E-02  0.1235036E+00
         -4   -1    0    0    0  501 -0.00000000000E+00  0.00000000000E+00  0.28941000709E+02  0.28968852618E+02  0.12700000000E+01 0. -1.
          4   -1    0    0  501    0  0.00000000000E+00 -0.00000000000E+00 -0.13492306003E+03  0.13492903700E+03  0.12700000000E+01 0. -1.
         25    2    1    2    0    0  0.00000000000E+00  0.00000000000E+00 -0.10598205932E+03  0.16389788962E+03  0.12502128349E+03 0.  0.
    9000005    1    3    3    0    0  0.65598379964E+00  0.49270126549E+02 -0.10340088391E+03  0.11454570475E+03  0.10000000000E+01 0.  0.
    9000005    1    3    3    0    0 -0.65598379964E+00 -0.49270126549E+02 -0.25811754123E+01  0.49352184870E+02  0.10000000000E+01 0.  0.
<mgrwt>
<rscale>  0 0.12502128E+03</rscale>
<asrwt>0</asrwt>
<pdfrwt beam="2">  1        4 0.20759996E-01 0.12502128E+03</pdfrwt>
<pdfrwt beam="1">  1       -4 0.44550639E-02 0.12502128E+03</pdfrwt>
<totfact> 0.96550346E+03</totfact>
</mgrwt>
</event>
<event>
 5    1  0.3401591E-002  0.1249999E+03  0.7818608E-02  0.1235069E+00
          4   -1    0    0  501    0  0.00000000000E+00  0.00000000000E+00  0.10346952213E+03  0.10347731592E+03  0.12700000000E+01 0.  1.
         -4   -1    0    0    0  501 -0.00000000000E+00 -0.00000000000E+00 -0.37732694850E+02  0.37754061512E+02  0.12700000000E+01 0.  1.
         25    2    1    2    0    0  0.00000000000E+00  0.00000000000E+00  0.65736827278E+02  0.14123137743E+03  0.12499988604E+03 0.  0.
    9000005    1    3    3    0    0  0.44091387642E+01  0.17574071868E+02 -0.34705376360E+02  0.39163141536E+02  0.10000000000E+01 0.  0.
    9000005    1    3    3    0    0 -0.44091387642E+01 -0.17574071868E+02  0.10044220364E+03  0.10206823589E+03  0.10000000000E+01 0.  0.
<mgrwt>
<rscale>  0 0.12499989E+03</rscale>
<asrwt>0</asrwt>
<pdfrwt beam="1">  1        4 0.15920631E-01 0.12499989E+03</pdfrwt>
<pdfrwt beam="2">  1       -4 0.58072732E-02 0.12499989E+03</pdfrwt>
<totfact> 0.10108154E+04</totfact>
</mgrwt>
</event>
<event>
 5    1  0.3401591E-002  0.1250009E+03  0.7818608E-02  0.1235068E+00
          4   -1    0    0  501    0  0.00000000000E+00  0.00000000000E+00  0.23191599786E+02  0.23226347122E+02  0.12700000000E+01 0.  1.
         -4   -1    0    0    0  501 -0.00000000000E+00 -0.00000000000E+00 -0.16827297348E+03  0.16827776592E+03  0.12700000000E+01 0.  1.
         25    2    1    2    0    0  0.00000000000E+00  0.00000000000E+00 -0.14508137369E+03  0.19150411304E+03  0.12500088128E+03 0.  0.
    9000005    1    3    3    0    0 -0.19199777639E+02 -0.51747390592E+02 -0.27642213340E+02  0.61737475270E+02  0.10000000000E+01 0.  0.
    9000005    1    3    3    0    0  0.19199777639E+02  0.51747390592E+02 -0.11743916035E+03  0.12976663777E+03  0.10000000000E+01 0.  0.
<mgrwt>
<rscale>  0 0.12500088E+03</rscale>
<asrwt>0</asrwt>
<pdfrwt beam="1">  1        4 0.35709801E-02 0.12500088E+03</pdfrwt>
<pdfrwt beam="2">  1       -4 0.25891190E-01 0.12500088E+03</pdfrwt>
<totfact> 0.91584454E+03</totfact>
</mgrwt>
</event>
<event>
 5    1  0.3401591E-002  0.1250004E+03  0.7818608E-02  0.1235069E+00
         -4   -1    0    0    0  501 -0.00000000000E+00  0.00000000000E+00  0.35716464278E+03  0.35716690070E+03  0.12700000000E+01 0. -1.
          4   -1    0    0  501    0  0.00000000000E+00 -0.00000000000E+00 -0.10897732278E+02  0.10971484348E+02  0.12700000000E+01 0. -1.
         25    2    1    2    0    0  0.00000000000E+00  0.00000000000E+00  0.34626691051E+03  0.36813838505E+03  0.12500038893E+03 0.  0.
    9000005    1    3    3    0    0 -0.39339749767E+02  0.38578296616E+02  0.25997007695E+03  0.26574676252E+03  0.10000000000E+01 0.  0.
    9000005    1    3    3    0    0  0.39339749767E+02 -0.38578296616E+02  0.86296833555E+02  0.10239162252E+03  0.10000000000E+01 0.  0.
<mgrwt>
<rscale>  0 0.12500039E+03</rscale>
<asrwt>0</asrwt>
<pdfrwt beam="2">  1        4 0.16824211E-02 0.12500039E+03</pdfrwt>
<pdfrwt beam="1">  1       -4 0.54954255E-01 0.12500039E+03</pdfrwt>
<totfact> 0.67773561E+03</totfact>
</mgrwt>
</event>
<event>
 5    1  0.3401591E-002  0.1250009E+03  0.7818608E-02  0.1235068E+00
         -4   -1    0    0    0  501 -0.00000000000E+00  0.00000000000E+00  0.11997372750E+02  0.12064404374E+02  0.12700000000E+01 0. -1.
          4   -1    0    0  501    0  0.00000000000E+00 -0.00000000000E+00 -0.32462138265E+03  0.32462386692E+03  0.12700000000E+01 0. -1.
         25    2    1    2    0    0  0.00000000000E+00  0.00000000000E+00 -0.31262400990E+03  0.33668827130E+03  0.12500088184E+03 0.  0.
    9000005    1    3    3    0    0 -0.57398353504E+02  0.22120369558E+02 -0.18599215356E+03  0.19590294260E+03  0.10000000000E+01 0.  0.
    9000005    1    3    3    0    0  0.57398353504E+02 -0.22120369558E+02 -0.12663185634E+03  0.14078532869E+03  0.10000000000E+01 0.  0.
<mgrwt>
<rscale>  0 0.12500088E+03</rscale>
<asrwt>0</asrwt>
<pdfrwt beam="2">  1        4 0.49947092E-01 0.12500088E+03</pdfrwt>
<pdfrwt beam="1">  1       -4 0.18510973E-02 0.12500088E+03</pdfrwt>
<totfact> 0.71212883E+03</totfact>
</mgrwt>
</event>
<event>
 5    1  0.3401591E-002  0.1249979E+03  0.7818608E-02  0.1235073E+00
          4   -1    0    0  501    0  0.00000000000E+00  0.00000000000E+00  0.11263582325E+02  0.11334954204E+02  0.12700000000E+01 0. -1.
         -4   -1    0    0    0  501 -0.00000000000E+00 -0.00000000000E+00 -0.34562426001E+03  0.34562659332E+03  0.12700000000E+01 0. -1.
         25    2    1    2    0    0  0.00000000000E+00  0.00000000000E+00 -0.33436067769E+03  0.35696154752E+03  0.12499793449E+03 0.  0.
    9000005    1    3    3    0    0 -0.36284523252E+02  0.40141038214E+02 -0.77907008963E+02  0.94859747111E+02  0.10000000000E+01 0.  0.
    9000005    1    3    3    0    0  0.36284523252E+02 -0.40141038214E+02 -0.25645366872E+03  0.26210180041E+03  0.10000000000E+01 0.  0.
<mgrwt>
<rscale>  0 0.12499793E+03</rscale>
<asrwt>0</asrwt>
<pdfrwt beam="1">  1        4 0.17385287E-02 0.12499793E+03</pdfrwt>
<pdfrwt beam="2">  1       -4 0.53178624E-01 0.12499793E+03</pdfrwt>
<totfact> 0.68968585E+03</totfact>
</mgrwt>
</event>
<event>
 5    1  0.3401591E-002  0.1249975E+03  0.7818608E-02  0.1235073E+00
         -4   -1    0    0    0  501 -0.00000000000E+00  0.00000000000E+00  0.24749743424E+01  0.27817976194E+01  0.12700000000E+01 0.  1.
          4   -1    0    0  501    0  0.00000000000E+00 -0.00000000000E+00 -0.14858118420E+04  0.14858123848E+04  0.12700000000E+01 0.  1.
         25    2    1    2    0    0  0.00000000000E+00  0.00000000000E+00 -0.14833368677E+04  0.14885941824E+04  0.12499750751E+03 0.  0.
    9000005    1    3    3    0    0 -0.34327933567E+02 -0.45991319097E+02 -0.10361567983E+04  0.10377454019E+04  0.10000000000E+01 0.  0.
    9000005    1    3    3    0    0  0.34327933567E+02  0.45991319097E+02 -0.44718006932E+03  0.45084878048E+03  0.10000000000E+01 0.  0.
<mgrwt>
<rscale>  0 0.12499751E+03</rscale>
<asrwt>0</asrwt>
<pdfrwt beam="2">  1        4 0.22860941E+00 0.12499751E+03</pdfrwt>
<pdfrwt beam="1">  1       -4 0.40441001E-03 0.12499751E+03</pdfrwt>
<totfact> 0.18156882E+03</totfact>
</mgrwt>
</event>
<event>
 5    1  0.3401591E-002  0.1250036E+03  0.7818608E-02  0.1235064E+00
          4   -1    0    0  501    0  0.00000000000E+00  0.00000000000E+00  0.13468771170E+03  0.13469369913E+03  0.12700000000E+01 0.  1.
         -4   -1    0    0    0  501 -0.00000000000E+00 -0.00000000000E+00 -0.28983396195E+02  0.29011207404E+02  0.12700000000E+01 0.  1.
         25    2    1    2    0    0  0.00000000000E+00  0.00000000000E+00  0.10570431551E+03  0.16370490653E+03  0.12500357637E+03 0.  0.
    9000005    1    3    3    0    0 -0.27398461268E+02  0.54671734644E+02  0.69714992129E+02  0.92740791329E+02  0.10000000000E+01 0.  0.
    9000005    1    3    3    0    0  0.27398461268E+02 -0.54671734644E+02  0.35989323379E+02  0.70964115200E+02  0.10000000000E+01 0.  0.
<mgrwt>
<rscale>  0 0.12500358E+03</rscale>
<asrwt>0</asrwt>
<pdfrwt beam="1">  1        4 0.20723786E-01 0.12500358E+03</pdfrwt>
<pdfrwt beam="2">  1       -4 0.44615840E-02 0.12500358E+03</pdfrwt>
<totfact> 0.96625462E+03</totfact>
</mgrwt>
</event>
<event>
 5    1  0.3401591E-002  0.1250048E+03  0.7818608E-02  0.1235062E+00
          4   -1    0    0  501    0  0.00000000000E+00  0.00000000000E+00  0.25126266185E+03  0.25126587142E+03  0.12700000000E+01 0.  1.
         -4   -1    0    0    0  501 -0.00000000000E+00 -0.00000000000E+00 -0.15518430138E+02  0.15570310657E+02  0.12700000000E+01 0.  1.
         25    2    1    2    0    0  0.00000000000E+00  0.00000000000E+00  0.23574423171E+03  0.26683618208E+03  0.12500482102E+03 0.  0.
    9000005    1    3    3    0    0  0.26107376891E+02 -0.52280348453E+02  0.70585804732E+02  0.91641616049E+02  0.10000000000E+01 0.  0.
    9000005    1    3    3    0    0 -0.26107376891E+02  0.52280348453E+02  0.16515842698E+03  0.17519456603E+03  0.10000000000E+01 0.  0.
<mgrwt>
<rscale>  0 0.12500482E+03</rscale>
<asrwt>0</asrwt>
<pdfrwt beam="1">  1        4 0.38660032E-01 0.12500482E+03</pdfrwt>
<pdfrwt beam="2">  1       -4 0.23916885E-02 0.12500482E+03</pdfrwt>
<totfact> 0.79947593E+03</totfact>
</mgrwt>
</event>
<event>
 5    1  0.3401591E-002  0.1250039E+03  0.7818608E-02  0.1235063E+00
          4   -1    0    0  501    0  0.00000000000E+00  0.00000000000E+00  0.13140947793E+02  0.13202174400E+02  0.12700000000E+01 0.  1.
         -4   -1    0    0    0  501 -0.00000000000E+00 -0.00000000000E+00 -0.29652276342E+03  0.29652548309E+03  0.12700000000E+01 0.  1.
         25    2    1    2    0    0  0.00000000000E+00  0.00000000000E+00 -0.28338181562E+03  0.30972765749E+03  0.12500387350E+03 0.  0.
    9000005    1    3    3    0    0  0.53901747734E+02  0.62895056972E+00 -0.63349575569E+02  0.83186313252E+02  0.10000000000E+01 0.  0.
    9000005    1    3    3    0    0 -0.53901747734E+02 -0.62895056972E+00 -0.22003224005E+03  0.22654134424E+03  0.10000000000E+01 0.  0.
<mgrwt>
<rscale>  0 0.12500387E+03</rscale>
<asrwt>0</asrwt>
<pdfrwt beam="1">  1        4 0.20266034E-02 0.12500387E+03</pdfrwt>
<pdfrwt beam="2">  1       -4 0.45623801E-01 0.12500387E+03</pdfrwt>
<totfact> 0.74388208E+03</totfact>
</mgrwt>
</event>
<event>
 5    1  0.3401591E-002  0.1249994E+03  0.7818608E-02  0.1235070E+00
          4   -1    0    0  501    0  0.00000000000E+00  0.00000000000E+00  0.21440097757E+03  0.21440473895E+03  0.12700000000E+01 0. -1.
         -4   -1    0    0    0  501 -0.00000000000E+00 -0.00000000000E+00 -0.18193124328E+02  0.18237397644E+02  0.12700000000E+01 0. -1.
         25    2    1    2    0    0  0.00000000000E+00  0.00000000000E+00  0.19620785325E+03  0.23264213660E+03  0.12499936818E+03 0.  0.
    9000005    1    3    3    0    0 -0.42261072110E+02 -0.39758862916E+02  0.14129075198E+03  0.15274436812E+03  0.10000000000E+01 0.  0.
    9000005    1    3    3    0    0  0.42261072110E+02  0.39758862916E+02  0.54917101263E+02  0.79897768476E+02  0.10000000000E+01 0.  0.
<mgrwt>
<rscale>  0 0.12499937E+03</rscale>
<asrwt>0</asrwt>
<pdfrwt beam="1">  1        4 0.32988461E-01 0.12499937E+03</pdfrwt>
<pdfrwt beam="2">  1       -4 0.28026372E-02 0.12499937E+03</pdfrwt>
<totfact> 0.84906734E+03</totfact>
</mgrwt>
</event>
<event>
 5    1  0.3401591E-002  0.1249992E+03  0.7818608E-02  0.1235070E+00
          4   -1    0    0  501    0  0.00000000000E+00  0.00000000000E+00  0.11651549475E+03  0.11652241594E+03  0.12700000000E+01 0.  1.
         -4   -1    0    0    0  501 -0.00000000000E+00 -0.00000000000E+00 -0.33505232824E+02  0.33529293559E+02  0.12700000000E+01 0.  1.
         25    2    1    2    0    0  0.00000000000E+00  0.00000000000E+00  0.83010261929E+02  0.15005170950E+03  0.12499924776E+03 0.  0.
    9000005    1    3    3    0    0  0.65078071067E+01 -0.84843384694E+01 -0.32404808541E+02  0.34138060419E+02  0.10000000000E+01 0.  0.
    9000005    1    3    3    0    0 -0.65078071067E+01  0.84843384694E+01  0.11541507047E+03  0.11591364909E+03  0.10000000000E+01 0.  0.
<mgrwt>
<rscale>  0 0.12499925E+03</rscale>
<asrwt>0</asrwt>
<pdfrwt beam="1">  1        4 0.17927844E-01 0.12499925E+03</pdfrwt>
<pdfrwt beam="2">  1       -4 0.51570344E-02 0.12499925E+03</pdfrwt>
<totfact> 0.99295072E+03</totfact>
</mgrwt>
</event>
<event>
 5    1  0.3401591E-002  0.1250033E+03  0.7818608E-02  0.1235064E+00
         -4   -1    0    0    0  501 -0.00000000000E+00  0.00000000000E+00  0.14733935913E+03  0.14734483245E+03  0.12700000000E+01 0.  1.
          4   -1    0    0  501    0  0.00000000000E+00 -0.00000000000E+00 -0.26492157441E+02  0.26522581056E+02  0.12700000000E+01 0.  1.
         25    2    1    2    0    0  0.00000000000E+00  0.00000000000E+00  0.12084720169E+03  0.17386741350E+03  0.12500332524E+03 0.  0.
    9000005    1    3    3    0    0  0.42029588805E+02  0.22857032577E+02  0.45008940957E+01  0.48064418451E+02  0.10000000000E+01 0.  0.
    9000005    1    3    3    0    0 -0.42029588805E+02 -0.22857032577E+02  0.11634630759E+03  0.12580299505E+03  0.10000000000E+01 0.  0.
<mgrwt>
<rscale>  0 0.12500333E+03</rscale>
<asrwt>0</asrwt>
<pdfrwt beam="2">  1        4 0.40784778E-02 0.12500333E+03</pdfrwt>
<pdfrwt beam="1">  1       -4 0.22670355E-01 0.12500333E+03</pdfrwt>
<totfact> 0.94725614E+03</totfact>
</mgrwt>
</event>
<event>
 5    1  0.3401591E-002  0.1249958E+03  0.7818608E-02  0.1235076E+00
         -4   -1    0    0    0  501 -0.00000000000E+00  0.00000000000E+00  0.17819246971E+03  0.17819699537E+03  0.12700000000E+01 0.  1.
          4   -1    0    0  501    0  0.00000000000E+00 -0.00000000000E+00 -0.21896847463E+02  0.21933646045E+02  0.12700000000E+01 0.  1.
         25    2    1    2    0    0  0.00000000000E+00  0.00000000000E+00  0.15629562224E+03  0.20013064142E+03  0.12499580834E+03 0.  0.
    9000005    1    3    3    0    0  0.16396360151E+02  0.58041363946E+02  0.51968622784E+02  0.79620212942E+02  0.10000000000E+01 0.  0.
    9000005    1    3    3    0    0 -0.16396360151E+02 -0.58041363946E+02  0.10432699946E+03  0.12051042847E+03  0.10000000000E+01 0.  0.
<mgrwt>
<rscale>  0 0.12499581E+03</rscale>
<asrwt>0</asrwt>
<pdfrwt beam="2">  1        4 0.33719244E-02 0.12499581E+03</pdfrwt>
<pdfrwt beam="1">  1       -4 0.27417406E-01 0.12499581E+03</pdfrwt>
<totfact> 0.90121929E+03</totfact>
</mgrwt>
</event>
<event>
 5    1  0.3401591E-002  0.1249994E+03  0.7818608E-02  0.1235070E+00
          4   -1    0    0  501    0  0.00000000000E+00  0.00000000000E+00  0.13014435957E+03  0.13015055600E+03  0.12700000000E+01 0. -1.
         -4   -1    0    0    0  501 -0.00000000000E+00 -0.00000000000E+00 -0.29994102912E+02  0.30020977824E+02  0.12700000000E+01 0. -1.
         25    2    1    2    0    0  0.00000000000E+00  0.00000000000E+00  0.10015025665E+03  0.16017153382E+03  0.12499938536E+03 0.  0.
    9000005    1    3    3    0    0 -0.27826136668E+02 -0.44759125141E+02  0.93102332899E+02  0.10698933384E+03  0.10000000000E+01 0.  0.
    9000005    1    3    3    0    0  0.27826136668E+02  0.44759125141E+02  0.70479237553E+01  0.53182199979E+02  0.10000000000E+01 0.  0.
<mgrwt>
<rscale>  0 0.12499939E+03</rscale>
<asrwt>0</asrwt>
<pdfrwt beam="1">  1        4 0.20024754E-01 0.12499939E+03</pdfrwt>
<pdfrwt beam="2">  1       -4 0.46170212E-02 0.12499939E+03</pdfrwt>
<totfact> 0.97311069E+03</totfact>
</mgrwt>
</event>
<event>
 5    1  0.3401591E-002  0.1250003E+03  0.7818608E-02  0.1235069E+00
         -4   -1    0    0    0  501 -0.00000000000E+00  0.00000000000E+00  0.17337102263E+02  0.17383555876E+02  0.12700000000E+01 0.  1.
          4   -1    0    0  501    0  0.00000000000E+00 -0.00000000000E+00 -0.22496300758E+03  0.22496659236E+03  0.12700000000E+01 0.  1.
         25    2    1    2    0    0  0.00000000000E+00  0.00000000000E+00 -0.20762590531E+03  0.24235014823E+03  0.12500031117E+03 0.  0.
    9000005    1    3    3    0    0 -0.32561658340E+02 -0.48846646227E+02 -0.62275037818E+02  0.85588765482E+02  0.10000000000E+01 0.  0.
    9000005    1    3    3    0    0  0.32561658340E+02  0.48846646227E+02 -0.14535086749E+03  0.15676138275E+03  0.10000000000E+01 0.  0.
<mgrwt>
<rscale>  0 0.12500031E+03</rscale>
<asrwt>0</asrwt>
<pdfrwt beam="2">  1        4 0.34613540E-01 0.12500031E+03</pdfrwt>
<pdfrwt beam="1">  1       -4 0.26710958E-02 0.12500031E+03</pdfrwt>
<totfact> 0.83448017E+03</totfact>
</mgrwt>
</event>
<event>
 5    1  0.3401591E-002  0.1250010E+03  0.7818608E-02  0.1235068E+00
          4   -1    0    0  501    0  0.00000000000E+00  0.00000000000E+00  0.31056954252E+02  0.31082910215E+02  0.12700000000E+01 0. -1.
         -4   -1    0    0    0  501 -0.00000000000E+00 -0.00000000000E+00 -0.12569735714E+03  0.12570377279E+03  0.12700000000E+01 0. -1.
         25    2    1    2    0    0  0.00000000000E+00  0.00000000000E+00 -0.94640402890E+02  0.15678668300E+03  0.12500103242E+03 0.  0.
    9000005    1    3    3    0    0 -0.38825553763E+02  0.21904048954E+02  0.76125807977E+01  0.45234526326E+02  0.10000000000E+01 0.  0.
    9000005    1    3    3    0    0  0.38825553763E+02 -0.21904048954E+02 -0.10225298369E+03  0.11155215667E+03  0.10000000000E+01 0.  0.
<mgrwt>
<rscale>  0 0.12500103E+03</rscale>
<asrwt>0</asrwt>
<pdfrwt beam="1">  1        4 0.47804832E-02 0.12500103E+03</pdfrwt>
<pdfrwt beam="2">  1       -4 0.19340545E-01 0.12500103E+03</pdfrwt>
<totfact> 0.97963614E+03</totfact>
</mgrwt>
</event>
<event>
 5    1  0.3401591E-002  0.1249911E+03  0.7818608E-02  0.1235083E+00
          4   -1    0    0  501    0  0.00000000000E+00  0.00000000000E+00  0.10784478131E+03  0.10785225893E+03  0.12700000000E+01 0. -1.
         -4   -1    0    0    0  501 -0.00000000000E+00 -0.00000000000E+00 -0.36195997881E+02  0.36218271115E+02  0.12700000000E+01 0. -1.
         25    2    1    2    0    0  0.00000000000E+00  0.00000000000E+00  0.71648783430E+02  0.14407053004E+03  0.12499107752E+03 0.  0.
    9000005    1    3    3    0    0  0.35034008949E+02  0.34548695081E+02 -0.85741733483E+01  0.49955085461E+02  0.10000000000E+01 0.  0.
    9000005    1    3    3    0    0 -0.35034008949E+02 -0.34548695081E+02  0.80222956778E+02  0.94115444583E+02  0.10000000000E+01 0.  0.
<mgrwt>
<rscale>  0 0.12499108E+03</rscale>
<asrwt>0</asrwt>
<pdfrwt beam="1">  1        4 0.16593793E-01 0.12499108E+03</pdfrwt>
<pdfrwt beam="2">  1       -4 0.55709037E-02 0.12499108E+03</pdfrwt>
<totfact> 0.10051927E+04</totfact>
</mgrwt>
</event>
<event>
 4    1  0.3401591E-002  0.1248741E+03  0.7818608E-02  0.1235266E+00
         -4   -1    0    0    0  501 -0.00000000000E+00  0.00000000000E+00  0.15478819154E+02  0.15530831994E+02  0.12700000000E+01 0. -1.
          4   -1    0    0  501    0  0.00000000000E+00 -0.00000000000E+00 -0.25137694509E+03  0.25138015320E+03  0.12700000000E+01 0. -1.
    9000005    1    1    2    0    0 -0.40604436802E+02 -0.47071637601E+02 -0.13021426308E+03  0.14429557743E+03  0.10000000000E+01 0.  0.
    9000005    1    1    2    0    0  0.40604436802E+02  0.47071637601E+02 -0.10568386285E+03  0.12261540777E+03  0.10000000000E+01 0.  0.
<mgrwt>
<rscale>  0 0.12487413E+03</rscale>
<asrwt>0</asrwt>
<pdfrwt beam="2">  1        4 0.38677621E-01 0.12487413E+03</pdfrwt>
<pdfrwt beam="1">  1       -4 0.23856047E-02 0.12487413E+03</pdfrwt>
<totfact> 0.80170181E+03</totfact>
</mgrwt>
</event>
<event>
 5    1  0.3401591E-002  0.1249998E+03  0.7818608E-02  0.1235070E+00
         -4   -1    0    0    0  501 -0.00000000000E+00  0.00000000000E+00  0.84166540872E+02  0.84176121925E+02  0.12700000000E+01 0.  1.
          4   -1    0    0  501    0  0.00000000000E+00 -0.00000000000E+00 -0.46389884387E+02  0.46407265309E+02  0.12700000000E+01 0.  1.
         25    2    1    2    0    0  0.00000000000E+00  0.00000000000E+00  0.37776656485E+02  0.13058338723E+03  0.12499978098E+03 0.  0.
    9000005    1    3    3    0    0  0.82892889335E+01  0.26412489922E+02  0.77416872242E+02  0.82223500549E+02  0.10000000000E+01 0.  0.
    9000005    1    3    3    0    0 -0.82892889335E+01 -0.26412489922E+02 -0.39640215757E+02  0.48359886684E+02  0.10000000000E+01 0.  0.
<mgrwt>
<rscale>  0 0.12499978E+03</rscale>
<asrwt>0</asrwt>
<pdfrwt beam="2">  1        4 0.71389793E-02 0.12499978E+03</pdfrwt>
<pdfrwt beam="1">  1       -4 0.12950773E-01 0.12499978E+03</pdfrwt>
<totfact> 0.10332080E+04</totfact>
</mgrwt>
</event>
<event>
 5    1  0.3401591E-002  0.1250022E+03  0.7818608E-02  0.1235066E+00
          4   -1    0    0  501    0  0.00000000000E+00  0.00000000000E+00  0.37541529863E+02  0.37563005263E+02  0.12700000000E+01 0.  1.
         -4   -1    0    0    0  501 -0.00000000000E+00 -0.00000000000E+00 -0.10400005389E+03  0.10400780792E+03  0.12700000000E+01 0.  1.
         25    2    1    2    0    0  0.00000000000E+00  0.00000000000E+00 -0.66458524023E+02  0.14157081318E+03  0.12500223890E+03 0.  0.
    9000005    1    3    3    0    0  0.58191226415E+02  0.16648748571E+01 -0.74928053320E+01  0.58703771358E+02  0.10000000000E+01 0.  0.
    9000005    1    3    3    0    0 -0.58191226415E+02 -0.16648748571E+01 -0.58965718691E+02  0.82867041824E+02  0.10000000000E+01 0.  0.
<mgrwt>
<rscale>  0 0.12500224E+03</rscale>
<asrwt>0</asrwt>
<pdfrwt beam="1">  1        4 0.57778684E-02 0.12500224E+03</pdfrwt>
<pdfrwt beam="2">  1       -4 0.16002257E-01 0.12500224E+03</pdfrwt>
<totfact> 0.10100624E+04</totfact>
</mgrwt>
</event>
<event>
 5    1  0.3401591E-002  0.1250041E+03  0.7818608E-02  0.1235063E+00
          4   -1    0    0  501    0  0.00000000000E+00  0.00000000000E+00  0.45960264485E+02  0.45977807815E+02  0.12700000000E+01 0.  1.
         -4   -1    0    0    0  501 -0.00000000000E+00 -0.00000000000E+00 -0.84958975144E+02  0.84968466842E+02  0.12700000000E+01 0.  1.
         25    2    1    2    0    0  0.00000000000E+00  0.00000000000E+00 -0.38998710659E+02  0.13094627466E+03  0.12500410959E+03 0.  0.
    9000005    1    3    3    0    0  0.51533965940E+02  0.29614603988E+02 -0.39723373738E+02  0.71496299456E+02  0.10000000000E+01 0.  0.
    9000005    1    3    3    0    0 -0.51533965940E+02 -0.29614603988E+02  0.72466307949E+00  0.59449975201E+02  0.10000000000E+01 0.  0.
<mgrwt>
<rscale>  0 0.12500411E+03</rscale>
<asrwt>0</asrwt>
<pdfrwt beam="1">  1        4 0.70728895E-02 0.12500411E+03</pdfrwt>
<pdfrwt beam="2">  1       -4 0.13072691E-01 0.12500411E+03</pdfrwt>
<totfact> 0.10323284E+04</totfact>
</mgrwt>
</event>
<event>
 5    1  0.3401591E-002  0.1250009E+03  0.7818608E-02  0.1235068E+00
          4   -1    0    0  501    0  0.00000000000E+00  0.00000000000E+00  0.97462218431E+02  0.97470492568E+02  0.12700000000E+01 0.  1.
         -4   -1    0    0    0  501 -0.00000000000E+00 -0.00000000000E+00 -0.40060141830E+02  0.40080267756E+02  0.12700000000E+01 0.  1.
         25    2    1    2    0    0  0.00000000000E+00  0.00000000000E+00  0.57402076601E+02  0.13755076032E+03  0.12500085307E+03 0.  0.
    9000005    1    3    3    0    0 -0.28872184133E+02 -0.77043439106E+01  0.89096215087E+02  0.93979228953E+02  0.10000000000E+01 0.  0.
    9000005    1    3    3    0    0  0.28872184133E+02  0.77043439106E+01 -0.31694138486E+02  0.43571531372E+02  0.10000000000E+01 0.  0.
<mgrwt>
<rscale>  0 0.12500085E+03</rscale>
<asrwt>0</asrwt>
<pdfrwt beam="1">  1        4 0.14996372E-01 0.12500085E+03</pdfrwt>
<pdfrwt beam="2">  1       -4 0.61652833E-02 0.12500085E+03</pdfrwt>
<totfact> 0.10184387E+04</totfact>
</mgrwt>
</event>
<event>
 5    1  0.3401591E-002  0.1249981E+03  0.7818608E-02  0.1235072E+00
          4   -1    0    0  501    0  0.00000000000E+00  0.00000000000E+00  0.47037938744E+02  0.47055080292E+02  0.12700000000E+01 0. -1.
         -4   -1    0    0    0  501 -0.00000000000E+00 -0.00000000000E+00 -0.83005019853E+02  0.83014734962E+02  0.12700000000E+01 0. -1.
         25    2    1    2    0    0  0.00000000000E+00  0.00000000000E+00 -0.35967081110E+02  0.13006981525E+03  0.12499810365E+03 0.  0.
    9000005    1    3    3    0    0 -0.14100834936E+02  0.49457398149E+02  0.18957048202E+02  0.54820046097E+02  0.10000000000E+01 0.  0.
    9000005    1    3    3    0    0  0.14100834936E+02 -0.49457398149E+02 -0.54924129312E+02  0.75249769157E+02  0.10000000000E+01 0.  0.
<mgrwt>
<rscale>  0 0.12499810E+03</rscale>
<asrwt>0</asrwt>
<pdfrwt beam="1">  1        4 0.72386719E-02 0.12499810E+03</pdfrwt>
<pdfrwt beam="2">  1       -4 0.12772069E-01 0.12499810E+03</pdfrwt>
<totfact> 0.10343457E+04</totfact>
</mgrwt>
</event>
<event>
 5    1  0.3401591E-002  0.1249998E+03  0.7818608E-02  0.1235070E+00
         -4   -1    0    0    0  501 -0.00000000000E+00  0.00000000000E+00  0.71781058507E+02  0.71792292486E+02  0.12700000000E+01 0.  1.
          4   -1    0    0  501    0  0.00000000000E+00 -0.00000000000E+00 -0.54395892234E+02  0.54410715783E+02  0.12700000000E+01 0.  1.
         25    2    1    2    0    0  0.00000000000E+00  0.00000000000E+00  0.17385166273E+02  0.12620300827E+03  0.12499982116E+03 0.  0.
    9000005    1    3    3    0    0 -0.47692505320E+02  0.15480136834E+02 -0.28962917565E+02  0.57914249490E+02  0.10000000000E+01 0.  0.
    9000005    1    3    3    0    0  0.47692505320E+02 -0.15480136834E+02  0.46348083838E+02  0.68288758779E+02  0.10000000000E+01 0.  0.
<mgrwt>
<rscale>  0 0.12499982E+03</rscale>
<asrwt>0</asrwt>
<pdfrwt beam="2">  1        4 0.83706032E-02 0.12499982E+03</pdfrwt>
<pdfrwt beam="1">  1       -4 0.11045244E-01 0.12499982E+03</pdfrwt>
<totfact> 0.10426555E+04</totfact>
</mgrwt>
</event>
<event>
 5    1  0.3401591E-002  0.1250022E+03  0.7818608E-02  0.1235066E+00
          4   -1    0    0  501    0  0.00000000000E+00  0.00000000000E+00  0.87718315264E+02  0.87727508415E+02  0.12700000000E+01 0.  1.
         -4   -1    0    0    0  501 -0.00000000000E+00 -0.00000000000E+00 -0.44512728148E+02  0.44530841753E+02  0.12700000000E+01 0.  1.
         25    2    1    2    0    0  0.00000000000E+00  0.00000000000E+00  0.43205587116E+02  0.13225835017E+03  0.12500219371E+03 0.  0.
    9000005    1    3    3    0    0  0.42665150349E+02 -0.45661445574E+02  0.21944727383E+02  0.66240876550E+02  0.10000000000E+01 0.  0.
    9000005    1    3    3    0    0 -0.42665150349E+02  0.45661445574E+02  0.21260859733E+02  0.66017473617E+02  0.10000000000E+01 0.  0.
<mgrwt>
<rscale>  0 0.12500219E+03</rscale>
<asrwt>0</asrwt>
<pdfrwt beam="1">  1        4 0.13497226E-01 0.12500219E+03</pdfrwt>
<pdfrwt beam="2">  1       -4 0.68502126E-02 0.12500219E+03</pdfrwt>
<totfact> 0.10295678E+04</totfact>
</mgrwt>
</event>
<event>
 5    1  0.3401591E-002  0.1250037E+03  0.7818608E-02  0.1235063E+00
          4   -1    0    0  501    0  0.00000000000E+00  0.00000000000E+00  0.26888739239E+03  0.26889039159E+03  0.12700000000E+01 0.  1.
         -4   -1    0    0    0  501 -0.00000000000E+00 -0.00000000000E+00 -0.14497479321E+02  0.14552999919E+02  0.12700000000E+01 0.  1.
         25    2    1    2    0    0  0.00000000000E+00  0.00000000000E+00  0.25438991307E+03  0.28344339151E+03  0.12500371321E+03 0.  0.
    9000005    1    3    3    0    0  0.62394306247E+02  0.32806867106E+01  0.12426497105E+03  0.13909203927E+03  0.10000000000E+01 0.  0.
    9000005    1    3    3    0    0 -0.62394306247E+02 -0.32806867106E+01  0.13012494202E+03  0.14435135224E+03  0.10000000000E+01 0.  0.
<mgrwt>
<rscale>  0 0.12500371E+03</rscale>
<asrwt>0</asrwt>
<pdfrwt beam="1">  1        4 0.41371797E-01 0.12500371E+03</pdfrwt>
<pdfrwt beam="2">  1       -4 0.22348827E-02 0.12500371E+03</pdfrwt>
<totfact> 0.77717323E+03</totfact>
</mgrwt>
</event>
<event>
 5    1  0.3401591E-002  0.1250027E+03  0.7818608E-02  0.1235065E+00
         -4   -1    0    0    0  501 -0.00000000000E+00  0.00000000000E+00  0.27164361675E+02  0.27194033264E+02  0.12700000000E+01 0. -1.
          4   -1    0    0  501    0  0.00000000000E+00 -0.00000000000E+00 -0.14369576558E+03  0.14370137767E+03  0.12700000000E+01 0. -1.
         25    2    1    2    0    0  0.00000000000E+00  0.00000000000E+00 -0.11653140391E+03  0.17089541094E+03  0.12500269351E+03 0.  0.
    9000005    1    3    3    0    0  0.42987739082E+02 -0.38725485897E+02 -0.25976751036E+02  0.63430281126E+02  0.10000000000E+01 0.  0.
    9000005    1    3    3    0    0 -0.42987739082E+02  0.38725485897E+02 -0.90554652870E+02  0.10746512981E+03  0.10000000000E+01 0.  0.
<mgrwt>
<rscale>  0 0.12500269E+03</rscale>
<asrwt>0</asrwt>
<pdfrwt beam="2">  1        4 0.22109755E-01 0.12500269E+03</pdfrwt>
<pdfrwt beam="1">  1       -4 0.41818468E-02 0.12500269E+03</pdfrwt>
<totfact> 0.95276247E+03</totfact>
</mgrwt>
</event>
<event>
 5    1  0.3401591E-002  0.1250002E+03  0.7818608E-02  0.1235069E+00
         -4   -1    0    0    0  501 -0.00000000000E+00  0.00000000000E+00  0.48364700293E+03  0.48364867037E+03  0.12700000000E+01 0. -1.
          4   -1    0    0  501    0  0.00000000000E+00 -0.00000000000E+00 -0.80250600710E+01  0.81249301009E+01  0.12700000000E+01 0. -1.
         25    2    1    2    0    0  0.00000000000E+00  0.00000000000E+00  0.47562194286E+03  0.49177360047E+03  0.12500016633E+03 0.  0.
    9000005    1    3    3    0    0  0.14981361305E+02 -0.60508679849E+02  0.25519226048E+03  0.26269722368E+03  0.10000000000E+01 0.  0.
    9000005    1    3    3    0    0 -0.14981361305E+02  0.60508679849E+02  0.22042968239E+03  0.22907637678E+03  0.10000000000E+01 0.  0.
<mgrwt>
<rscale>  0 0.12500017E+03</rscale>
<asrwt>0</asrwt>
<pdfrwt beam="2">  1        4 0.12424348E-02 0.12500017E+03</pdfrwt>
<pdfrwt beam="1">  1       -4 0.74415064E-01 0.12500017E+03</pdfrwt>
<totfact> 0.56508111E+03</totfact>
</mgrwt>
</event>
<event>
 5    1  0.3401591E-002  0.1249986E+03  0.7818608E-02  0.1235071E+00
          4   -1    0    0  501    0  0.00000000000E+00  0.00000000000E+00  0.30870681346E+03  0.30870942580E+03  0.12700000000E+01 0.  1.
         -4   -1    0    0    0  501 -0.00000000000E+00 -0.00000000000E+00 -0.12618773916E+02  0.12682521640E+02  0.12700000000E+01 0.  1.
         25    2    1    2    0    0  0.00000000000E+00  0.00000000000E+00  0.29608803954E+03  0.32139194744E+03  0.12499862686E+03 0.  0.
    9000005    1    3    3    0    0  0.44684845925E+02 -0.43640319287E+02  0.14293312012E+03  0.15598746665E+03  0.10000000000E+01 0.  0.
    9000005    1    3    3    0    0 -0.44684845925E+02  0.43640319287E+02  0.15315491942E+03  0.16540448079E+03  0.10000000000E+01 0.  0.
<mgrwt>
<rscale>  0 0.12499863E+03</rscale>
<asrwt>0</asrwt>
<pdfrwt beam="1">  1        4 0.47498459E-01 0.12499863E+03</pdfrwt>
<pdfrwt beam="2">  1       -4 0.19464545E-02 0.12499863E+03</pdfrwt>
<totfact> 0.72993098E+03</totfact>
</mgrwt>
</event>
<event>
 5    1  0.3401591E-002  0.1250022E+03  0.7818608E-02  0.1235066E+00
         -4   -1    0    0    0  501 -0.00000000000E+00  0.00000000000E+00  0.83702293794E+03  0.83702390141E+03  0.12700000000E+01 0.  1.
          4   -1    0    0  501    0  0.00000000000E+00 -0.00000000000E+00 -0.45796203598E+01  0.47524543807E+01  0.12700000000E+01 0.  1.
         25    2    1    2    0    0  0.00000000000E+00  0.00000000000E+00  0.83244331758E+03  0.84177635579E+03  0.12500222474E+03 0.  0.
    9000005    1    3    3    0    0  0.42129683466E+02  0.45888237385E+02  0.44972231542E+03  0.45401740225E+03  0.10000000000E+01 0.  0.
    9000005    1    3    3    0    0 -0.42129683466E+02 -0.45888237385E+02  0.38272100215E+03  0.38775895354E+03  0.10000000000E+01 0.  0.
<mgrwt>
<rscale>  0 0.12500222E+03</rscale>
<asrwt>0</asrwt>
<pdfrwt beam="2">  1        4 0.71792541E-03 0.12500222E+03</pdfrwt>
<pdfrwt beam="1">  1       -4 0.12878624E+00 0.12500222E+03</pdfrwt>
<totfact> 0.36464425E+03</totfact>
</mgrwt>
</event>
<event>
 5    1  0.3401591E-002  0.1250010E+03  0.7818608E-02  0.1235068E+00
         -4   -1    0    0    0  501 -0.00000000000E+00  0.00000000000E+00  0.20812382273E+02  0.20851094836E+02  0.12700000000E+01 0.  1.
          4   -1    0    0  501    0  0.00000000000E+00 -0.00000000000E+00 -0.18747635593E+03  0.18748065749E+03  0.12700000000E+01 0.  1.
         25    2    1    2    0    0  0.00000000000E+00  0.00000000000E+00 -0.16666397365E+03  0.20833175232E+03  0.12500095564E+03 0.  0.
    9000005    1    3    3    0    0 -0.39606487719E+01 -0.51919699181E+02 -0.14092084206E+03  0.15023656555E+03  0.10000000000E+01 0.  0.
    9000005    1    3    3    0    0  0.39606487719E+01  0.51919699181E+02 -0.25743131596E+02  0.58095186773E+02  0.10000000000E+01 0.  0.
<mgrwt>
<rscale>  0 0.12500096E+03</rscale>
<asrwt>0</asrwt>
<pdfrwt beam="2">  1        4 0.28845824E-01 0.12500096E+03</pdfrwt>
<pdfrwt beam="1">  1       -4 0.32052139E-02 0.12500096E+03</pdfrwt>
<totfact> 0.88747158E+03</totfact>
</mgrwt>
</event>
<event>
 5    1  0.3401591E-002  0.1249994E+03  0.7818608E-02  0.1235070E+00
          4   -1    0    0  501    0  0.00000000000E+00  0.00000000000E+00  0.61530867232E+02  0.61543972267E+02  0.12700000000E+01 0.  1.
         -4   -1    0    0    0  501 -0.00000000000E+00 -0.00000000000E+00 -0.63457531762E+02  0.63470238989E+02  0.12700000000E+01 0.  1.
         25    2    1    2    0    0  0.00000000000E+00  0.00000000000E+00 -0.19266645297E+01  0.12501421126E+03  0.12499936392E+03 0.  0.
    9000005    1    3    3    0    0 -0.32542147170E+02  0.30551693843E+02  0.42777579226E+02  0.61832989767E+02  0.10000000000E+01 0.  0.
    9000005    1    3    3    0    0  0.32542147170E+02 -0.30551693843E+02 -0.44704243756E+02  0.63181221489E+02  0.10000000000E+01 0.  0.
<mgrwt>
<rscale>  0 0.12499936E+03</rscale>
<asrwt>0</asrwt>
<pdfrwt beam="1">  1        4 0.94682729E-02 0.12499936E+03</pdfrwt>
<pdfrwt beam="2">  1       -4 0.97646827E-02 0.12499936E+03</pdfrwt>
<totfact> 0.10452704E+04</totfact>
</mgrwt>
</event>
<event>
 5    1  0.3401591E-002  0.1249966E+03  0.7818608E-02  0.1235075E+00
          4   -1    0    0  501    0  0.00000000000E+00  0.00000000000E+00  0.35460627316E+03  0.35460854737E+03  0.12700000000E+01 0.  1.
         -4   -1    0    0    0  501 -0.00000000000E+00 -0.00000000000E+00 -0.10976207639E+02  0.11049435920E+02  0.12700000000E+01 0.  1.
         25    2    1    2    0    0  0.00000000000E+00  0.00000000000E+00  0.34363006553E+03  0.36565798329E+03  0.12499655519E+03 0.  0.
    9000005    1    3    3    0    0  0.51614179763E+02  0.34395914959E+02  0.14954930133E+03  0.16190458934E+03  0.10000000000E+01 0.  0.
    9000005    1    3    3    0    0 -0.51614179763E+02 -0.34395914959E+02  0.19408076419E+03  0.20375339395E+03  0.10000000000E+01 0.  0.
<mgrwt>
<rscale>  0 0.12499656E+03</rscale>
<asrwt>0</asrwt>
<pdfrwt beam="1">  1        4 0.54560616E-01 0.12499656E+03</pdfrwt>
<pdfrwt beam="2">  1       -4 0.16944553E-02 0.12499656E+03</pdfrwt>
<totfact> 0.68040835E+03</totfact>
</mgrwt>
</event>
<event>
 4    1  0.3401591E-002  0.1240424E+03  0.7818608E-02  0.1236573E+00
         -4   -1    0    0    0  501 -0.00000000000E+00  0.00000000000E+00  0.16419130048E+02  0.16468173291E+02  0.12700000000E+01 0.  1.
          4   -1    0    0  501    0  0.00000000000E+00 -0.00000000000E+00 -0.23387712488E+03  0.23388057303E+03  0.12700000000E+01 0.  1.
    9000005    1    1    2    0    0 -0.29668001070E+02 -0.14997570011E+02 -0.30737446862E+01  0.33400079343E+02  0.10000000000E+01 0.  0.
    9000005    1    1    2    0    0  0.29668001070E+02  0.14997570011E+02 -0.21438425014E+03  0.21694866698E+03  0.10000000000E+01 0.  0.
<mgrwt>
<rscale>  0 0.12404239E+03</rscale>
<asrwt>0</asrwt>
<pdfrwt beam="2">  1        4 0.35985132E-01 0.12404239E+03</pdfrwt>
<pdfrwt beam="1">  1       -4 0.25300580E-02 0.12404239E+03</pdfrwt>
<totfact> 0.84059947E+03</totfact>
</mgrwt>
</event>
<event>
 5    1  0.3401591E-002  0.1250024E+03  0.7818608E-02  0.1235065E+00
         -4   -1    0    0    0  501 -0.00000000000E+00  0.00000000000E+00  0.82498475263E+02  0.82508250016E+02  0.12700000000E+01 0.  1.
          4   -1    0    0  501    0  0.00000000000E+00 -0.00000000000E+00 -0.47330095412E+02  0.47347131188E+02  0.12700000000E+01 0.  1.
         25    2    1    2    0    0  0.00000000000E+00  0.00000000000E+00  0.35168379851E+02  0.12985538120E+03  0.12500242032E+03 0.  0.
    9000005    1    3    3    0    0  0.40166129531E+02  0.46121984491E+02  0.42465021276E+01  0.61315480877E+02  0.10000000000E+01 0.  0.
    9000005    1    3    3    0    0 -0.40166129531E+02 -0.46121984491E+02  0.30921877723E+02  0.68539900327E+02  0.10000000000E+01 0.  0.
<mgrwt>
<rscale>  0 0.12500242E+03</rscale>
<asrwt>0</asrwt>
<pdfrwt beam="2">  1        4 0.72836155E-02 0.12500242E+03</pdfrwt>
<pdfrwt beam="1">  1       -4 0.12694135E-01 0.12500242E+03</pdfrwt>
<totfact> 0.10347037E+04</totfact>
</mgrwt>
</event>
<event>
 5    1  0.3401591E-002  0.1250023E+03  0.7818608E-02  0.1235066E+00
          4   -1    0    0  501    0  0.00000000000E+00  0.00000000000E+00  0.11605922552E+03  0.11606617392E+03  0.12700000000E+01 0.  1.
         -4   -1    0    0    0  501 -0.00000000000E+00 -0.00000000000E+00 -0.33638695664E+02  0.33662661005E+02  0.12700000000E+01 0.  1.
         25    2    1    2    0    0  0.00000000000E+00  0.00000000000E+00  0.82420529853E+02  0.14972883492E+03  0.12500232104E+03 0.  0.
    9000005    1    3    3    0    0 -0.28774088092E+02 -0.11494612318E+02  0.10621629898E+03  0.11064798429E+03  0.10000000000E+01 0.  0.
    9000005    1    3    3    0    0  0.28774088092E+02  0.11494612318E+02 -0.23795769127E+02  0.39080850633E+02  0.10000000000E+01 0.  0.
<mgrwt>
<rscale>  0 0.12500232E+03</rscale>
<asrwt>0</asrwt>
<pdfrwt beam="1">  1        4 0.17857643E-01 0.12500232E+03</pdfrwt>
<pdfrwt beam="2">  1       -4 0.51775619E-02 0.12500232E+03</pdfrwt>
<totfact> 0.99352588E+03</totfact>
</mgrwt>
</event>
<event>
 5    1  0.3401591E-002  0.1249985E+03  0.7818608E-02  0.1235072E+00
          4   -1    0    0  501    0  0.00000000000E+00  0.00000000000E+00  0.28457899340E+02  0.28486223598E+02  0.12700000000E+01 0.  1.
         -4   -1    0    0    0  501 -0.00000000000E+00 -0.00000000000E+00 -0.13716139193E+03  0.13716727138E+03  0.12700000000E+01 0.  1.
         25    2    1    2    0    0  0.00000000000E+00  0.00000000000E+00 -0.10870349259E+03  0.16565349497E+03  0.12499852437E+03 0.  0.
    9000005    1    3    3    0    0  0.20891646676E+02  0.96622049902E+01  0.22641812548E+02  0.32302798355E+02  0.10000000000E+01 0.  0.
    9000005    1    3    3    0    0 -0.20891646676E+02 -0.96622049902E+01 -0.13134530514E+03  0.13335069662E+03  0.10000000000E+01 0.  0.
<mgrwt>
<rscale>  0 0.12499852E+03</rscale>
<asrwt>0</asrwt>
<pdfrwt beam="1">  1        4 0.43807695E-02 0.12499852E+03</pdfrwt>
<pdfrwt beam="2">  1       -4 0.21104383E-01 0.12499852E+03</pdfrwt>
<totfact> 0.96266965E+03</totfact>
</mgrwt>
</event>
<event>
 5    1  0.3401591E-002  0.1249995E+03  0.7818608E-02  0.1235070E+00
          4   -1    0    0  501    0  0.00000000000E+00  0.00000000000E+00  0.34078877682E+01  0.36368391552E+01  0.12700000000E+01 0. -1.
         -4   -1    0    0    0  501 -0.00000000000E+00 -0.00000000000E+00 -0.11087464473E+04  0.11087471747E+04  0.12700000000E+01 0. -1.
         25    2    1    2    0    0  0.00000000000E+00  0.00000000000E+00 -0.11053385596E+04  0.11123840138E+04  0.12499945195E+03 0.  0.
    9000005    1    3    3    0    0 -0.55385380101E+01  0.60748549437E+02 -0.43190533007E+03  0.43619293415E+03  0.10000000000E+01 0.  0.
    9000005    1    3    3    0    0  0.55385380101E+01 -0.60748549437E+02 -0.67343322949E+03  0.67619107968E+03  0.10000000000E+01 0.  0.
<mgrwt>
<rscale>  0 0.12499945E+03</rscale>
<asrwt>0</asrwt>
<pdfrwt beam="1">  1        4 0.54195890E-03 0.12499945E+03</pdfrwt>
<pdfrwt beam="2">  1       -4 0.17059377E+00 0.12499945E+03</pdfrwt>
<totfact> 0.27124126E+03</totfact>
</mgrwt>
</event>
<event>
 5    1  0.3401591E-002  0.1249983E+03  0.7818608E-02  0.1235072E+00
          4   -1    0    0  501    0  0.00000000000E+00  0.00000000000E+00  0.10286828024E+03  0.10287611958E+03  0.12700000000E+01 0. -1.
         -4   -1    0    0    0  501 -0.00000000000E+00 -0.00000000000E+00 -0.37952377090E+02  0.37973620144E+02  0.12700000000E+01 0. -1.
         25    2    1    2    0    0  0.00000000000E+00  0.00000000000E+00  0.64915903147E+02  0.14084973972E+03  0.12499829878E+03 0.  0.
    9000005    1    3    3    0    0  0.41663003380E+02 -0.46561385218E+02  0.33779367920E+02  0.71033894312E+02  0.10000000000E+01 0.  0.
    9000005    1    3    3    0    0 -0.41663003380E+02  0.46561385218E+02  0.31136535226E+02  0.69815845407E+02  0.10000000000E+01 0.  0.
<mgrwt>
<rscale>  0 0.12499830E+03</rscale>
<asrwt>0</asrwt>
<pdfrwt beam="1">  1        4 0.15828126E-01 0.12499830E+03</pdfrwt>
<pdfrwt beam="2">  1       -4 0.58410644E-02 0.12499830E+03</pdfrwt>
<totfact> 0.10116393E+04</totfact>
</mgrwt>
</event>
<event>
 5    1  0.3401591E-002  0.1250004E+03  0.7818608E-02  0.1235069E+00
         -4   -1    0    0    0  501 -0.00000000000E+00  0.00000000000E+00  0.26629262783E+02  0.26659529935E+02  0.12700000000E+01 0. -1.
          4   -1    0    0  501    0  0.00000000000E+00 -0.00000000000E+00 -0.14657464092E+03  0.14658014279E+03  0.12700000000E+01 0. -1.
         25    2    1    2    0    0  0.00000000000E+00  0.00000000000E+00 -0.11994537813E+03  0.17323967272E+03  0.12500036188E+03 0.  0.
    9000005    1    3    3    0    0 -0.14467640836E+02 -0.53603607808E+02 -0.20222982634E+02  0.59098463838E+02  0.10000000000E+01 0.  0.
    9000005    1    3    3    0    0  0.14467640836E+02  0.53603607808E+02 -0.99722395498E+02  0.11414120888E+03  0.10000000000E+01 0.  0.
<mgrwt>
<rscale>  0 0.12500036E+03</rscale>
<asrwt>0</asrwt>
<pdfrwt beam="2">  1        4 0.22552696E-01 0.12500036E+03</pdfrwt>
<pdfrwt beam="1">  1       -4 0.40995612E-02 0.12500036E+03</pdfrwt>
<totfact> 0.94847463E+03</totfact>
</mgrwt>
</event>
<event>
 5    1  0.3401591E-002  0.1250028E+03  0.7818608E-02  0.1235065E+00
          4   -1    0    0  501    0  0.00000000000E+00  0.00000000000E+00  0.70747142957E+03  0.70747256947E+03  0.12700000000E+01 0. -1.
         -4   -1    0    0    0  501 -0.00000000000E+00 -0.00000000000E+00 -0.54474841388E+01  0.55935662544E+01  0.12700000000E+01 0. -1.
         25    2    1    2    0    0  0.00000000000E+00  0.00000000000E+00  0.70202394543E+03  0.71306613573E+03  0.12500277582E+03 0.  0.
    9000005    1    3    3    0    0 -0.14566998473E+02  0.36321364986E+02  0.62895071858E+03  0.63016779147E+03  0.10000000000E+01 0.  0.
    9000005    1    3    3    0    0  0.14566998473E+02 -0.36321364986E+02  0.73073226849E+02  0.82898344260E+02  0.10000000000E+01 0.  0.
<mgrwt>
<rscale>  0 0.12500278E+03</rscale>
<asrwt>0</asrwt>
<pdfrwt beam="1">  1        4 0.10885303E+00 0.12500278E+03</pdfrwt>
<pdfrwt beam="2">  1       -4 0.84939966E-03 0.12500278E+03</pdfrwt>
<totfact> 0.42403313E+03</totfact>
</mgrwt>
</event>
<event>
 5    1  0.3401591E-002  0.1250015E+03  0.7818608E-02  0.1235067E+00
         -4   -1    0    0    0  501 -0.00000000000E+00  0.00000000000E+00  0.46167562876E+03  0.46167737555E+03  0.12700000000E+01 0.  1.
          4   -1    0    0  501    0  0.00000000000E+00 -0.00000000000E+00 -0.84117986481E+01  0.85071297448E+01  0.12700000000E+01 0.  1.
         25    2    1    2    0    0  0.00000000000E+00  0.00000000000E+00  0.45326383011E+03  0.47018450529E+03  0.12500147730E+03 0.  0.
    9000005    1    3    3    0    0  0.39748953237E+02  0.45667186404E+02  0.16837571379E+03  0.17893253531E+03  0.10000000000E+01 0.  0.
    9000005    1    3    3    0    0 -0.39748953237E+02 -0.45667186404E+02  0.28488811632E+03  0.29125196998E+03  0.10000000000E+01 0.  0.
<mgrwt>
<rscale>  0 0.12500148E+03</rscale>
<asrwt>0</asrwt>
<pdfrwt beam="2">  1        4 0.13015905E-02 0.12500148E+03</pdfrwt>
<pdfrwt beam="1">  1       -4 0.71034482E-01 0.12500148E+03</pdfrwt>
<totfact> 0.58252347E+03</totfact>
</mgrwt>
</event>
<event>
 5    1  0.3401591E-002  0.1249996E+03  0.7818608E-02  0.1235070E+00
         -4   -1    0    0    0  501 -0.00000000000E+00  0.00000000000E+00  0.92146472820E+03  0.92146560338E+03  0.12700000000E+01 0. -1.
          4   -1    0    0  501    0  0.00000000000E+00 -0.00000000000E+00 -0.41431282358E+01  0.43334064635E+01  0.12700000000E+01 0. -1.
         25    2    1    2    0    0  0.00000000000E+00  0.00000000000E+00  0.91732159996E+03  0.92579900984E+03  0.12499955548E+03 0.  0.
    9000005    1    3    3    0    0 -0.31899373085E+02 -0.52536688890E+02  0.54230695462E+03  0.54577972362E+03  0.10000000000E+01 0.  0.
    9000005    1    3    3    0    0  0.31899373085E+02  0.52536688890E+02  0.37501464534E+03  0.38001928622E+03  0.10000000000E+01 0.  0.
<mgrwt>
<rscale>  0 0.12499956E+03</rscale>
<asrwt>0</asrwt>
<pdfrwt beam="2">  1        4 0.65210748E-03 0.12499956E+03</pdfrwt>
<pdfrwt beam="1">  1       -4 0.14177872E+00 0.12499956E+03</pdfrwt>
<totfact> 0.33191348E+03</totfact>
</mgrwt>
</event>
<event>
 5    1  0.3401591E-002  0.1250021E+03  0.7818608E-02  0.1235066E+00
         -4   -1    0    0    0  501 -0.00000000000E+00  0.00000000000E+00  0.21945611567E+02  0.21982328518E+02  0.12700000000E+01 0.  1.
          4   -1    0    0  501    0  0.00000000000E+00 -0.00000000000E+00 -0.17781517928E+03  0.17781971455E+03  0.12700000000E+01 0.  1.
         25    2    1    2    0    0  0.00000000000E+00  0.00000000000E+00 -0.15586956771E+03  0.19980204306E+03  0.12500213708E+03 0.  0.
    9000005    1    3    3    0    0  0.32448415958E+02 -0.44498144857E+02 -0.30724125133E+02  0.63071042952E+02  0.10000000000E+01 0.  0.
    9000005    1    3    3    0    0 -0.32448415958E+02  0.44498144857E+02 -0.12514544258E+03  0.13673100011E+03  0.10000000000E+01 0.  0.
<mgrwt>
<rscale>  0 0.12500214E+03</rscale>
<asrwt>0</asrwt>
<pdfrwt beam="2">  1        4 0.27359354E-01 0.12500214E+03</pdfrwt>
<pdfrwt beam="1">  1       -4 0.33794213E-02 0.12500214E+03</pdfrwt>
<totfact> 0.90164592E+03</totfact>
</mgrwt>
</event>
<event>
 5    1  0.3401591E-002  0.1249978E+03  0.7818608E-02  0.1235073E+00
          4   -1    0    0  501    0  0.00000000000E+00  0.00000000000E+00  0.59556708256E+02  0.59570247593E+02  0.12700000000E+01 0. -1.
         -4   -1    0    0    0  501 -0.00000000000E+00 -0.00000000000E+00 -0.65559297844E+02  0.65571597767E+02  0.12700000000E+01 0. -1.
         25    2    1    2    0    0  0.00000000000E+00  0.00000000000E+00 -0.60025895880E+01  0.12514184536E+03  0.12499780149E+03 0.  0.
    9000005    1    3    3    0    0  0.40831442110E+02 -0.40481976429E+02 -0.27506337474E+02  0.63746338574E+02  0.10000000000E+01 0.  0.
    9000005    1    3    3    0    0 -0.40831442110E+02  0.40481976429E+02  0.21503747886E+02  0.61395506786E+02  0.10000000000E+01 0.  0.
<mgrwt>
<rscale>  0 0.12499780E+03</rscale>
<asrwt>0</asrwt>
<pdfrwt beam="1">  1        4 0.91645581E-02 0.12499780E+03</pdfrwt>
<pdfrwt beam="2">  1       -4 0.10088033E-01 0.12499780E+03</pdfrwt>
<totfact> 0.10450302E+04</totfact>
</mgrwt>
</event>
<event>
 5    1  0.3401591E-002  0.1249966E+03  0.7818608E-02  0.1235075E+00
         -4   -1    0    0    0  501 -0.00000000000E+00  0.00000000000E+00  0.17932907491E+04  0.17932911988E+04  0.12700000000E+01 0. -1.
          4   -1    0    0  501    0  0.00000000000E+00 -0.00000000000E+00 -0.19925264668E+01  0.23628503382E+01  0.12700000000E+01 0. -1.
         25    2    1    2    0    0  0.00000000000E+00  0.00000000000E+00  0.17912982226E+04  0.17956540491E+04  0.12499656712E+03 0.  0.
    9000005    1    3    3    0    0  0.39065109346E+02  0.47987621607E+02  0.10210017412E+04  0.10228755790E+04  0.10000000000E+01 0.  0.
    9000005    1    3    3    0    0 -0.39065109346E+02 -0.47987621607E+02  0.77029648138E+03  0.77277847008E+03  0.10000000000E+01 0.  0.
<mgrwt>
<rscale>  0 0.12499657E+03</rscale>
<asrwt>0</asrwt>
<pdfrwt beam="2">  1        4 0.33506134E-03 0.12499657E+03</pdfrwt>
<pdfrwt beam="1">  1       -4 0.27592124E+00 0.12499657E+03</pdfrwt>
<totfact> 0.12771339E+03</totfact>
</mgrwt>
</event>
<event>
 5    1  0.3401591E-002  0.1249990E+03  0.7818608E-02  0.1235071E+00
          4   -1    0    0  501    0  0.00000000000E+00  0.00000000000E+00  0.91007215353E+01  0.91889081214E+01  0.12700000000E+01 0.  1.
         -4   -1    0    0    0  501 -0.00000000000E+00 -0.00000000000E+00 -0.42705898976E+03  0.42706087813E+03  0.12700000000E+01 0.  1.
         25    2    1    2    0    0  0.00000000000E+00  0.00000000000E+00 -0.41795826822E+03  0.43624978625E+03  0.12499904813E+03 0.  0.
    9000005    1    3    3    0    0 -0.38071977179E+02  0.18954533368E+02 -0.49181694920E+02  0.65027601038E+02  0.10000000000E+01 0.  0.
    9000005    1    3    3    0    0  0.38071977179E+02 -0.18954533368E+02 -0.36877657330E+03  0.37122218522E+03  0.10000000000E+01 0.  0.
<mgrwt>
<rscale>  0 0.12499905E+03</rscale>
<asrwt>0</asrwt>
<pdfrwt beam="1">  1        4 0.14070402E-02 0.12499905E+03</pdfrwt>
<pdfrwt beam="2">  1       -4 0.65708296E-01 0.12499905E+03</pdfrwt>
<totfact> 0.61174834E+03</totfact>
</mgrwt>
</event>
<event>
 5    1  0.3401591E-002  0.1249984E+03  0.7818608E-02  0.1235072E+00
          4   -1    0    0  501    0  0.00000000000E+00  0.00000000000E+00  0.12244145501E+02  0.12309833429E+02  0.12700000000E+01 0. -1.
         -4   -1    0    0    0  501 -0.00000000000E+00 -0.00000000000E+00 -0.31810159954E+03  0.31810413473E+03  0.12700000000E+01 0. -1.
         25    2    1    2    0    0  0.00000000000E+00  0.00000000000E+00 -0.30585745404E+03  0.33041396816E+03  0.12499843263E+03 0.  0.
    9000005    1    3    3    0    0 -0.72002218337E+01  0.27013501680E+02 -0.51948421595E+01  0.28452747715E+02  0.10000000000E+01 0.  0.
    9000005    1    3    3    0    0  0.72002218337E+01 -0.27013501680E+02 -0.30066261188E+03  0.30196122044E+03  0.10000000000E+01 0.  0.
<mgrwt>
<rscale>  0 0.12499843E+03</rscale>
<asrwt>0</asrwt>
<pdfrwt beam="1">  1        4 0.18889629E-02 0.12499843E+03</pdfrwt>
<pdfrwt beam="2">  1       -4 0.48943949E-01 0.12499843E+03</pdfrwt>
<totfact> 0.71936905E+03</totfact>
</mgrwt>
</event>
<event>
 5    1  0.3401591E-002  0.1250005E+03  0.7818608E-02  0.1235069E+00
         -4   -1    0    0    0  501 -0.00000000000E+00  0.00000000000E+00  0.46643759337E+02  0.46661045692E+02  0.12700000000E+01 0. -1.
          4   -1    0    0  501    0  0.00000000000E+00 -0.00000000000E+00 -0.83709486043E+02  0.83719119403E+02  0.12700000000E+01 0. -1.
         25    2    1    2    0    0  0.00000000000E+00  0.00000000000E+00 -0.37065726706E+02  0.13038016509E+03  0.12500047741E+03 0.  0.
    9000005    1    3    3    0    0  0.34291062407E+02  0.16627262696E+02 -0.70191513423E+02  0.79876100195E+02  0.10000000000E+01 0.  0.
    9000005    1    3    3    0    0 -0.34291062407E+02 -0.16627262696E+02  0.33125786717E+02  0.50504064900E+02  0.10000000000E+01 0.  0.
<mgrwt>
<rscale>  0 0.12500048E+03</rscale>
<asrwt>0</asrwt>
<pdfrwt beam="2">  1        4 0.12880453E-01 0.12500048E+03</pdfrwt>
<pdfrwt beam="1">  1       -4 0.71780337E-02 0.12500048E+03</pdfrwt>
<totfact> 0.10336270E+04</totfact>
</mgrwt>
</event>
<event>
 5    1  0.3401591E-002  0.1250003E+03  0.7818608E-02  0.1235069E+00
          4   -1    0    0  501    0  0.00000000000E+00  0.00000000000E+00  0.81066925401E+03  0.81067024881E+03  0.12700000000E+01 0.  1.
         -4   -1    0    0    0  501 -0.00000000000E+00 -0.00000000000E+00 -0.47338799867E+01  0.49012773568E+01  0.12700000000E+01 0.  1.
         25    2    1    2    0    0  0.00000000000E+00  0.00000000000E+00  0.80593537403E+03  0.81557152617E+03  0.12500034873E+03 0.  0.
    9000005    1    3    3    0    0  0.14416170709E+00 -0.53231607817E+02  0.18937976283E+03  0.19672142594E+03  0.10000000000E+01 0.  0.
    9000005    1    3    3    0    0 -0.14416170709E+00  0.53231607817E+02  0.61655561120E+03  0.61885010023E+03  0.10000000000E+01 0.  0.
<mgrwt>
<rscale>  0 0.12500035E+03</rscale>
<asrwt>0</asrwt>
<pdfrwt beam="1">  1        4 0.12473125E+00 0.12500035E+03</pdfrwt>
<pdfrwt beam="2">  1       -4 0.74124274E-03 0.12500035E+03</pdfrwt>
<totfact> 0.37578683E+03</totfact>
</mgrwt>
</event>
<event>
 5    1  0.3401591E-002  0.1249892E+03  0.7818608E-02  0.1235086E+00
          4   -1    0    0  501    0  0.00000000000E+00  0.00000000000E+00  0.40301299068E+03  0.40301499173E+03  0.12700000000E+01 0.  1.
         -4   -1    0    0    0  501 -0.00000000000E+00 -0.00000000000E+00 -0.96472930361E+01  0.97305273713E+01  0.12700000000E+01 0.  1.
         25    2    1    2    0    0  0.00000000000E+00  0.00000000000E+00  0.39336569764E+03  0.41274551910E+03  0.12498916534E+03 0.  0.
    9000005    1    3    3    0    0  0.94671976440E+01  0.40517390230E+02  0.42736833437E+02  0.59655038970E+02  0.10000000000E+01 0.  0.
    9000005    1    3    3    0    0 -0.94671976440E+01 -0.40517390230E+02  0.35062886421E+03  0.35309048013E+03  0.10000000000E+01 0.  0.
<mgrwt>
<rscale>  0 0.12498917E+03</rscale>
<asrwt>0</asrwt>
<pdfrwt beam="1">  1        4 0.62008573E-01 0.12498917E+03</pdfrwt>
<pdfrwt beam="2">  1       -4 0.14907551E-02 0.12498917E+03</pdfrwt>
<totfact> 0.63346899E+03</totfact>
</mgrwt>
</event>
<event>
 5    1  0.3401591E-002  0.1249936E+03  0.7818608E-02  0.1235079E+00
         -4   -1    0    0    0  501 -0.00000000000E+00  0.00000000000E+00  0.91001488520E+02  0.91010350031E+02  0.12700000000E+01 0.  1.
          4   -1    0    0  501    0  0.00000000000E+00 -0.00000000000E+00 -0.42900353620E+02  0.42919147717E+02  0.12700000000E+01 0.  1.
         25    2    1    2    0    0  0.00000000000E+00  0.00000000000E+00  0.48101134900E+02  0.13392949775E+03  0.12499356459E+03 0.  0.
    9000005    1    3    3    0    0 -0.32929171301E+02 -0.26077154925E+02  0.73623675513E+02  0.84769062326E+02  0.10000000000E+01 0.  0.
    9000005    1    3    3    0    0  0.32929171301E+02  0.26077154925E+02 -0.25522540613E+02  0.49160435422E+02  0.10000000000E+01 0.  0.
<mgrwt>
<rscale>  0 0.12499356E+03</rscale>
<asrwt>0</asrwt>
<pdfrwt beam="2">  1        4 0.66021818E-02 0.12499356E+03</pdfrwt>
<pdfrwt beam="1">  1       -4 0.14002356E-01 0.12499356E+03</pdfrwt>
<totfact> 0.10262173E+04</totfact>
</mgrwt>
</event>
<event>
 5    1  0.3401591E-002  0.1249920E+03  0.7818608E-02  0.1235082E+00
         -4   -1    0    0    0  501 -0.00000000000E+00  0.00000000000E+00  0.13644863429E+03  0.13645454445E+03  0.12700000000E+01 0.  1.
          4   -1    0    0  501    0  0.00000000000E+00 -0.00000000000E+00 -0.28603696498E+02  0.28631876525E+02  0.12700000000E+01 0.  1.
         25    2    1    2    0    0  0.00000000000E+00  0.00000000000E+00  0.10784493779E+03  0.16508642097E+03  0.12499198287E+03 0.  0.
    9000005    1    3    3    0    0  0.44266003543E+02  0.36274124849E+02  0.87059415222E+02  0.10419036895E+03  0.10000000000E+01 0.  0.
    9000005    1    3    3    0    0 -0.44266003543E+02 -0.36274124849E+02  0.20785522571E+02  0.60896052021E+02  0.10000000000E+01 0.  0.
<mgrwt>
<rscale>  0 0.12499198E+03</rscale>
<asrwt>0</asrwt>
<pdfrwt beam="2">  1        4 0.44031909E-02 0.12499198E+03</pdfrwt>
<pdfrwt beam="1">  1       -4 0.20994721E-01 0.12499198E+03</pdfrwt>
<totfact> 0.96388386E+03</totfact>
</mgrwt>
</event>
<event>
 5    1  0.3401591E-002  0.1249991E+03  0.7818608E-02  0.1235071E+00
         -4   -1    0    0    0  501 -0.00000000000E+00  0.00000000000E+00  0.24403506404E+03  0.24403836867E+03  0.12700000000E+01 0. -1.
          4   -1    0    0  501    0  0.00000000000E+00 -0.00000000000E+00 -0.15978090020E+02  0.16028482795E+02  0.12700000000E+01 0. -1.
         25    2    1    2    0    0  0.00000000000E+00  0.00000000000E+00  0.22805697402E+03  0.26006685146E+03  0.12499913532E+03 0.  0.
    9000005    1    3    3    0    0 -0.38361751556E+02  0.20842082839E+02  0.21002584469E+02  0.48457455091E+02  0.10000000000E+01 0.  0.
    9000005    1    3    3    0    0  0.38361751556E+02 -0.20842082839E+02  0.20705438955E+03  0.21160939637E+03  0.10000000000E+01 0.  0.
<mgrwt>
<rscale>  0 0.12499914E+03</rscale>
<asrwt>0</asrwt>
<pdfrwt beam="2">  1        4 0.24622982E-02 0.12499914E+03</pdfrwt>
<pdfrwt beam="1">  1       -4 0.37547988E-01 0.12499914E+03</pdfrwt>
<totfact> 0.80898235E+03</totfact>
</mgrwt>
</event>
<event>
 5    1  0.3401591E-002  0.1249968E+03  0.7818608E-02  0.1235074E+00
          4   -1    0    0  501    0  0.00000000000E+00  0.00000000000E+00  0.16239359555E+03  0.16239856149E+03  0.12700000000E+01 0. -1.
         -4   -1    0    0    0  501 -0.00000000000E+00 -0.00000000000E+00 -0.24030863483E+02  0.24064399011E+02  0.12700000000E+01 0. -1.
         25    2    1    2    0    0  0.00000000000E+00  0.00000000000E+00  0.13836273206E+03  0.18646296050E+03  0.12499676002E+03 0.  0.
    9000005    1    3    3    0    0  0.51587340412E+02  0.28757744609E+02  0.99635787106E+02  0.11582983915E+03  0.10000000000E+01 0.  0.
    9000005    1    3    3    0    0 -0.51587340412E+02 -0.28757744609E+02  0.38726944957E+02  0.70633121349E+02  0.10000000000E+01 0.  0.
<mgrwt>
<rscale>  0 0.12499676E+03</rscale>
<asrwt>0</asrwt>
<pdfrwt beam="1">  1        4 0.24986591E-01 0.12499676E+03</pdfrwt>
<pdfrwt beam="2">  1       -4 0.37000177E-02 0.12499676E+03</pdfrwt>
<totfact> 0.92473130E+03</totfact>
</mgrwt>
</event>
<event>
 5    1  0.3401591E-002  0.1249981E+03  0.7818608E-02  0.1235072E+00
          4   -1    0    0  501    0  0.00000000000E+00  0.00000000000E+00  0.24465617055E+03  0.24465946678E+03  0.12700000000E+01 0.  1.
         -4   -1    0    0    0  501 -0.00000000000E+00 -0.00000000000E+00 -0.15937134841E+02  0.15987656705E+02  0.12700000000E+01 0.  1.
         25    2    1    2    0    0  0.00000000000E+00  0.00000000000E+00  0.22871903571E+03  0.26064712349E+03  0.12499810274E+03 0.  0.
    9000005    1    3    3    0    0 -0.61682654674E+02 -0.70684292293E+01  0.12916579764E+03  0.14331613956E+03  0.10000000000E+01 0.  0.
    9000005    1    3    3    0    0  0.61682654674E+02  0.70684292293E+01  0.99553238066E+02  0.11733098392E+03  0.10000000000E+01 0.  0.
<mgrwt>
<rscale>  0 0.12499810E+03</rscale>
<asrwt>0</asrwt>
<pdfrwt beam="1">  1        4 0.37643548E-01 0.12499810E+03</pdfrwt>
<pdfrwt beam="2">  1       -4 0.24560070E-02 0.12499810E+03</pdfrwt>
<totfact> 0.80818746E+03</totfact>
</mgrwt>
</event>
<event>
 5    1  0.3401591E-002  0.1249937E+03  0.7818608E-02  0.1235079E+00
          4   -1    0    0  501    0  0.00000000000E+00  0.00000000000E+00  0.74011488699E+02  0.74022384178E+02  0.12700000000E+01 0.  1.
         -4   -1    0    0    0  501 -0.00000000000E+00 -0.00000000000E+00 -0.52751253574E+02  0.52766539148E+02  0.12700000000E+01 0.  1.
         25    2    1    2    0    0  0.00000000000E+00  0.00000000000E+00  0.21260235125E+02  0.12678892333E+03  0.12499373377E+03 0.  0.
    9000005    1    3    3    0    0 -0.24808815547E+02  0.57340991112E+02  0.11826798331E+02  0.63595123628E+02  0.10000000000E+01 0.  0.
    9000005    1    3    3    0    0  0.24808815547E+02 -0.57340991112E+02  0.94334367937E+01  0.63193799698E+02  0.10000000000E+01 0.  0.
<mgrwt>
<rscale>  0 0.12499373E+03</rscale>
<asrwt>0</asrwt>
<pdfrwt beam="1">  1        4 0.11388397E-01 0.12499373E+03</pdfrwt>
<pdfrwt beam="2">  1       -4 0.81175914E-02 0.12499373E+03</pdfrwt>
<totfact> 0.10415208E+04</totfact>
</mgrwt>
</event>
<event>
 5    1  0.3401591E-002  0.1249988E+03  0.7818608E-02  0.1235071E+00
          4   -1    0    0  501    0  0.00000000000E+00  0.00000000000E+00  0.11532574470E+02  0.11602291752E+02  0.12700000000E+01 0.  1.
         -4   -1    0    0    0  501 -0.00000000000E+00 -0.00000000000E+00 -0.33761646535E+03  0.33761885400E+03  0.12700000000E+01 0.  1.
         25    2    1    2    0    0  0.00000000000E+00  0.00000000000E+00 -0.32608389088E+03  0.34922114575E+03  0.12499881899E+03 0.  0.
    9000005    1    3    3    0    0 -0.94618942681E+01  0.22590217355E+01  0.94179834460E+01  0.13576782923E+02  0.10000000000E+01 0.  0.
    9000005    1    3    3    0    0  0.94618942681E+01 -0.22590217355E+01 -0.33550187432E+03  0.33564436283E+03  0.10000000000E+01 0.  0.
<mgrwt>
<rscale>  0 0.12499882E+03</rscale>
<asrwt>0</asrwt>
<pdfrwt beam="1">  1        4 0.17797891E-02 0.12499882E+03</pdfrwt>
<pdfrwt beam="2">  1       -4 0.51946534E-01 0.12499882E+03</pdfrwt>
<totfact> 0.69812152E+03</totfact>
</mgrwt>
</event>
<event>
 5    1  0.3401591E-002  0.1250071E+03  0.7818608E-02  0.1235058E+00
          4   -1    0    0  501    0  0.00000000000E+00  0.00000000000E+00  0.98088536999E+03  0.98088619216E+03  0.12700000000E+01 0. -1.
         -4   -1    0    0    0  501 -0.00000000000E+00 -0.00000000000E+00 -0.38807365979E+01  0.40832605283E+01  0.12700000000E+01 0. -1.
         25    2    1    2    0    0  0.00000000000E+00  0.00000000000E+00  0.97700463340E+03  0.98496945269E+03  0.12500707600E+03 0.  0.
    9000005    1    3    3    0    0  0.95297806142E+01  0.61417870751E+02  0.43700230519E+03  0.44140116256E+03  0.10000000000E+01 0.  0.
    9000005    1    3    3    0    0 -0.95297806142E+01 -0.61417870751E+02  0.54000232820E+03  0.54356829012E+03  0.10000000000E+01 0.  0.
<mgrwt>
<rscale>  0 0.12500708E+03</rscale>
<asrwt>0</asrwt>
<pdfrwt beam="1">  1        4 0.15092083E+00 0.12500708E+03</pdfrwt>
<pdfrwt beam="2">  1       -4 0.61267942E-03 0.12500708E+03</pdfrwt>
<totfact> 0.31101279E+03</totfact>
</mgrwt>
</event>
<event>
 5    1  0.3401591E-002  0.1250051E+03  0.7818608E-02  0.1235061E+00
         -4   -1    0    0    0  501 -0.00000000000E+00  0.00000000000E+00  0.66404750065E+02  0.66416893417E+02  0.12700000000E+01 0. -1.
          4   -1    0    0  501    0  0.00000000000E+00 -0.00000000000E+00 -0.58805246934E+02  0.58818959247E+02  0.12700000000E+01 0. -1.
         25    2    1    2    0    0  0.00000000000E+00  0.00000000000E+00  0.75995031314E+01  0.12523585266E+03  0.12500506528E+03 0.  0.
    9000005    1    3    3    0    0 -0.22992530296E+01  0.41485366315E+02  0.50568315574E+02  0.65455914345E+02  0.10000000000E+01 0.  0.
    9000005    1    3    3    0    0  0.22992530296E+01 -0.41485366315E+02 -0.42968812442E+02  0.59779938319E+02  0.10000000000E+01 0.  0.
<mgrwt>
<rscale>  0 0.12500507E+03</rscale>
<asrwt>0</asrwt>
<pdfrwt beam="2">  1        4 0.90489500E-02 0.12500507E+03</pdfrwt>
<pdfrwt beam="1">  1       -4 0.10218104E-01 0.12500507E+03</pdfrwt>
<totfact> 0.10446546E+04</totfact>
</mgrwt>
</event>
<event>
 5    1  0.3401591E-002  0.1250028E+03  0.7818608E-02  0.1235065E+00
         -4   -1    0    0    0  501 -0.00000000000E+00  0.00000000000E+00  0.17045509970E+02  0.17092756072E+02  0.12700000000E+01 0. -1.
          4   -1    0    0  501    0  0.00000000000E+00 -0.00000000000E+00 -0.22881017170E+03  0.22881369621E+03  0.12700000000E+01 0. -1.
         25    2    1    2    0    0  0.00000000000E+00  0.00000000000E+00 -0.21176466173E+03  0.24590645228E+03  0.12500284523E+03 0.  0.
    9000005    1    3    3    0    0  0.52117389864E+02 -0.16622096115E+02 -0.16532035265E+03  0.17413883945E+03  0.10000000000E+01 0.  0.
    9000005    1    3    3    0    0 -0.52117389864E+02  0.16622096115E+02 -0.46444309085E+02  0.71767612834E+02  0.10000000000E+01 0.  0.
<mgrwt>
<rscale>  0 0.12500285E+03</rscale>
<asrwt>0</asrwt>
<pdfrwt beam="2">  1        4 0.35205468E-01 0.12500285E+03</pdfrwt>
<pdfrwt beam="1">  1       -4 0.26262917E-02 0.12500285E+03</pdfrwt>
<totfact> 0.82920239E+03</totfact>
</mgrwt>
</event>
<event>
 5    1  0.3401591E-002  0.1249982E+03  0.7818608E-02  0.1235072E+00
          4   -1    0    0  501    0  0.00000000000E+00  0.00000000000E+00  0.12308829190E+03  0.12309484352E+03  0.12700000000E+01 0. -1.
         -4   -1    0    0    0  501 -0.00000000000E+00 -0.00000000000E+00 -0.31714313494E+02  0.31739731890E+02  0.12700000000E+01 0. -1.
         25    2    1    2    0    0  0.00000000000E+00  0.00000000000E+00  0.91373978403E+02  0.15483457541E+03  0.12499816724E+03 0.  0.
    9000005    1    3    3    0    0  0.40506131393E+02 -0.16443844111E+02 -0.96258123350E+01  0.44775025993E+02  0.10000000000E+01 0.  0.
    9000005    1    3    3    0    0 -0.40506131393E+02  0.16443844111E+02  0.10099979074E+03  0.11005954942E+03  0.10000000000E+01 0.  0.
<mgrwt>
<rscale>  0 0.12499817E+03</rscale>
<asrwt>0</asrwt>
<pdfrwt beam="1">  1        4 0.18939119E-01 0.12499817E+03</pdfrwt>
<pdfrwt beam="2">  1       -4 0.48815845E-02 0.12499817E+03</pdfrwt>
<totfact> 0.98352038E+03</totfact>
</mgrwt>
</event>
<event>
 5    1  0.3401591E-002  0.1249993E+03  0.7818608E-02  0.1235070E+00
         -4   -1    0    0    0  501 -0.00000000000E+00  0.00000000000E+00  0.58174723159E+02  0.58188584058E+02  0.12700000000E+01 0.  1.
          4   -1    0    0  501    0  0.00000000000E+00 -0.00000000000E+00 -0.67118216137E+02  0.67130230429E+02  0.12700000000E+01 0.  1.
         25    2    1    2    0    0  0.00000000000E+00  0.00000000000E+00 -0.89434929779E+01  0.12531881449E+03  0.12499927679E+03 0.  0.
    9000005    1    3    3    0    0  0.13375126537E+02 -0.27587022438E+02  0.50121720895E+02  0.58763294005E+02  0.10000000000E+01 0.  0.
    9000005    1    3    3    0    0 -0.13375126537E+02  0.27587022438E+02 -0.59065213872E+02  0.66555520482E+02  0.10000000000E+01 0.  0.
<mgrwt>
<rscale>  0 0.12499928E+03</rscale>
<asrwt>0</asrwt>
<pdfrwt beam="2">  1        4 0.10327870E-01 0.12499928E+03</pdfrwt>
<pdfrwt beam="1">  1       -4 0.89519478E-02 0.12499928E+03</pdfrwt>
<totfact> 0.10446113E+04</totfact>
</mgrwt>
</event>
<event>
 5    1  0.3401591E-002  0.1250035E+03  0.7818608E-02  0.1235064E+00
          4   -1    0    0  501    0  0.00000000000E+00  0.00000000000E+00  0.19168160139E+03  0.19168580859E+03  0.12700000000E+01 0.  1.
         -4   -1    0    0    0  501 -0.00000000000E+00 -0.00000000000E+00 -0.20355769648E+02  0.20395348929E+02  0.12700000000E+01 0.  1.
         25    2    1    2    0    0  0.00000000000E+00  0.00000000000E+00  0.17132583175E+03  0.21208115752E+03  0.12500350695E+03 0.  0.
    9000005    1    3    3    0    0  0.24201770423E+02 -0.14775553756E+02  0.18014743020E+03  0.18236814219E+03  0.10000000000E+01 0.  0.
    9000005    1    3    3    0    0 -0.24201770423E+02  0.14775553756E+02 -0.88215984488E+01  0.29713015323E+02  0.10000000000E+01 0.  0.
<mgrwt>
<rscale>  0 0.12500351E+03</rscale>
<asrwt>0</asrwt>
<pdfrwt beam="1">  1        4 0.29492844E-01 0.12500351E+03</pdfrwt>
<pdfrwt beam="2">  1       -4 0.31350252E-02 0.12500351E+03</pdfrwt>
<totfact> 0.88130217E+03</totfact>
</mgrwt>
</event>
<event>
 5    1  0.3401591E-002  0.1249954E+03  0.7818608E-02  0.1235076E+00
         -4   -1    0    0    0  501 -0.00000000000E+00  0.00000000000E+00  0.55007184780E+01  0.56454232591E+01  0.12700000000E+01 0.  1.
          4   -1    0    0  501    0  0.00000000000E+00 -0.00000000000E+00 -0.70071858840E+03  0.70071973929E+03  0.12700000000E+01 0.  1.
         25    2    1    2    0    0  0.00000000000E+00  0.00000000000E+00 -0.69521786993E+03  0.70636516255E+03  0.12499542473E+03 0.  0.
    9000005    1    3    3    0    0 -0.46867570974E+02 -0.38400730110E+02 -0.26120417085E+03  0.26814138836E+03  0.10000000000E+01 0.  0.
    9000005    1    3    3    0    0  0.46867570974E+02  0.38400730110E+02 -0.43401369908E+03  0.43822377420E+03  0.10000000000E+01 0.  0.
<mgrwt>
<rscale>  0 0.12499542E+03</rscale>
<asrwt>0</asrwt>
<pdfrwt beam="2">  1        4 0.10781401E+00 0.12499542E+03</pdfrwt>
<pdfrwt beam="1">  1       -4 0.85748460E-03 0.12499542E+03</pdfrwt>
<totfact> 0.42757113E+03</totfact>
</mgrwt>
</event>
<event>
 5    1  0.3401591E-002  0.1250058E+03  0.7818608E-02  0.1235060E+00
          4   -1    0    0  501    0  0.00000000000E+00  0.00000000000E+00  0.19688991734E+02  0.19729908655E+02  0.12700000000E+01 0.  1.
         -4   -1    0    0    0  501 -0.00000000000E+00 -0.00000000000E+00 -0.19816710764E+03  0.19817117714E+03  0.12700000000E+01 0.  1.
         25    2    1    2    0    0  0.00000000000E+00  0.00000000000E+00 -0.17847811590E+03  0.21790108580E+03  0.12500578120E+03 0.  0.
    9000005    1    3    3    0    0  0.52368562929E+01 -0.62271737422E+02 -0.88112899671E+02  0.10802813075E+03  0.10000000000E+01 0.  0.
    9000005    1    3    3    0    0 -0.52368562929E+01  0.62271737422E+02 -0.90365216234E+02  0.10987295504E+03  0.10000000000E+01 0.  0.
<mgrwt>
<rscale>  0 0.12500578E+03</rscale>
<asrwt>0</asrwt>
<pdfrwt beam="1">  1        4 0.30325363E-02 0.12500578E+03</pdfrwt>
<pdfrwt beam="2">  1       -4 0.30490706E-01 0.12500578E+03</pdfrwt>
<totfact> 0.87190308E+03</totfact>
</mgrwt>
</event>
<event>
 5    1  0.3401591E-002  0.1250020E+03  0.7818608E-02  0.1235066E+00
         -4   -1    0    0    0  501 -0.00000000000E+00  0.00000000000E+00  0.63187730082E+01  0.64451371070E+01  0.12700000000E+01 0.  1.
          4   -1    0    0  501    0  0.00000000000E+00 -0.00000000000E+00 -0.61196972856E+03  0.61197104635E+03  0.12700000000E+01 0.  1.
         25    2    1    2    0    0  0.00000000000E+00  0.00000000000E+00 -0.60565095555E+03  0.61841618346E+03  0.12500198400E+03 0.  0.
    9000005    1    3    3    0    0  0.38351183007E+02 -0.27841811824E+02 -0.10129592825E+03  0.11183847640E+03  0.10000000000E+01 0.  0.
    9000005    1    3    3    0    0 -0.38351183007E+02  0.27841811824E+02 -0.50435502731E+03  0.50657770706E+03  0.10000000000E+01 0.  0.
<mgrwt>
<rscale>  0 0.12500198E+03</rscale>
<asrwt>0</asrwt>
<pdfrwt beam="2">  1        4 0.94158964E-01 0.12500198E+03</pdfrwt>
<pdfrwt beam="1">  1       -4 0.98194109E-03 0.12500198E+03</pdfrwt>
<totfact> 0.47723329E+03</totfact>
</mgrwt>
</event>
<event>
 5    1  0.3401591E-002  0.1250017E+03  0.7818608E-02  0.1235067E+00
         -4   -1    0    0    0  501 -0.00000000000E+00  0.00000000000E+00  0.18846494572E+03  0.18846922472E+03  0.12700000000E+01 0.  1.
          4   -1    0    0  501    0  0.00000000000E+00 -0.00000000000E+00 -0.20703243715E+02  0.20742159972E+02  0.12700000000E+01 0.  1.
         25    2    1    2    0    0  0.00000000000E+00  0.00000000000E+00  0.16776170201E+03  0.20921138469E+03  0.12500165928E+03 0.  0.
    9000005    1    3    3    0    0 -0.46448831327E+02  0.15825728048E+02  0.14864569681E+03  0.15653910304E+03  0.10000000000E+01 0.  0.
    9000005    1    3    3    0    0  0.46448831327E+02 -0.15825728048E+02  0.19116005198E+02  0.52672281653E+02  0.10000000000E+01 0.  0.
<mgrwt>
<rscale>  0 0.12500166E+03</rscale>
<asrwt>0</asrwt>
<pdfrwt beam="2">  1        4 0.31884372E-02 0.12500166E+03</pdfrwt>
<pdfrwt beam="1">  1       -4 0.28997929E-01 0.12500166E+03</pdfrwt>
<totfact> 0.88601547E+03</totfact>
</mgrwt>
</event>
<event>
 5    1  0.3401591E-002  0.1250001E+03  0.7818608E-02  0.1235069E+00
          4   -1    0    0  501    0  0.00000000000E+00  0.00000000000E+00  0.21446473347E+03  0.21446849373E+03  0.12700000000E+01 0. -1.
         -4   -1    0    0    0  501 -0.00000000000E+00 -0.00000000000E+00 -0.18187913364E+02  0.18232199334E+02  0.12700000000E+01 0. -1.
         25    2    1    2    0    0  0.00000000000E+00  0.00000000000E+00  0.19627682010E+03  0.23270069306E+03  0.12500008976E+03 0.  0.
    9000005    1    3    3    0    0  0.51872716970E+02  0.15345163786E+02  0.15638618194E+03  0.16548078655E+03  0.10000000000E+01 0.  0.
    9000005    1    3    3    0    0 -0.51872716970E+02 -0.15345163786E+02  0.39890638167E+02  0.67219906507E+02  0.10000000000E+01 0.  0.
<mgrwt>
<rscale>  0 0.12500009E+03</rscale>
<asrwt>0</asrwt>
<pdfrwt beam="1">  1        4 0.32998268E-01 0.12500009E+03</pdfrwt>
<pdfrwt beam="2">  1       -4 0.28018366E-02 0.12500009E+03</pdfrwt>
<totfact> 0.84896452E+03</totfact>
</mgrwt>
</event>
<event>
 5    1  0.3401591E-002  0.1249998E+03  0.7818608E-02  0.1235070E+00
          4   -1    0    0  501    0  0.00000000000E+00  0.00000000000E+00  0.10961301205E+02  0.11034628408E+02  0.12700000000E+01 0. -1.
         -4   -1    0    0    0  501 -0.00000000000E+00 -0.00000000000E+00 -0.35510391918E+03  0.35510619020E+03  0.12700000000E+01 0. -1.
         25    2    1    2    0    0  0.00000000000E+00  0.00000000000E+00 -0.34414261797E+03  0.36614081861E+03  0.12499983017E+03 0.  0.
    9000005    1    3    3    0    0  0.57010999125E+02  0.45753540932E+01 -0.24582792659E+03  0.25239563660E+03  0.10000000000E+01 0.  0.
    9000005    1    3    3    0    0 -0.57010999125E+02 -0.45753540932E+01 -0.98314691389E+02  0.11374518200E+03  0.10000000000E+01 0.  0.
<mgrwt>
<rscale>  0 0.12499983E+03</rscale>
<asrwt>0</asrwt>
<pdfrwt beam="1">  1        4 0.16921696E-02 0.12499983E+03</pdfrwt>
<pdfrwt beam="2">  1       -4 0.54637179E-01 0.12499983E+03</pdfrwt>
<totfact> 0.67984881E+03</totfact>
</mgrwt>
</event>
<event>
 5    1  0.3401591E-002  0.1250025E+03  0.7818608E-02  0.1235065E+00
          4   -1    0    0  501    0  0.00000000000E+00  0.00000000000E+00  0.63933098528E+02  0.63945711251E+02  0.12700000000E+01 0. -1.
         -4   -1    0    0    0  501 -0.00000000000E+00 -0.00000000000E+00 -0.61076197886E+02  0.61089400457E+02  0.12700000000E+01 0. -1.
         25    2    1    2    0    0  0.00000000000E+00  0.00000000000E+00  0.28569006417E+01  0.12503511171E+03  0.12500246909E+03 0.  0.
    9000005    1    3    3    0    0 -0.10361803319E+01 -0.58424241874E+02  0.23591370890E+02  0.63023951707E+02  0.10000000000E+01 0.  0.
    9000005    1    3    3    0    0  0.10361803319E+01  0.58424241874E+02 -0.20734470249E+02  0.62011160002E+02  0.10000000000E+01 0.  0.
<mgrwt>
<rscale>  0 0.12500247E+03</rscale>
<asrwt>0</asrwt>
<pdfrwt beam="1">  1        4 0.98378471E-02 0.12500247E+03</pdfrwt>
<pdfrwt beam="2">  1       -4 0.93983239E-02 0.12500247E+03</pdfrwt>
<totfact> 0.10451517E+04</totfact>
</mgrwt>
</event>
<event>
 5    1  0.3401591E-002  0.1250013E+03  0.7818608E-02  0.1235067E+00
         -4   -1    0    0    0  501 -0.00000000000E+00  0.00000000000E+00  0.10263355941E+03  0.10264141667E+03  0.12700000000E+01 0. -1.
          4   -1    0    0  501    0  0.00000000000E+00 -0.00000000000E+00 -0.38041037409E+02  0.38062230980E+02  0.12700000000E+01 0. -1.
         25    2    1    2    0    0  0.00000000000E+00  0.00000000000E+00  0.64592521997E+02  0.14070364765E+03  0.12500129025E+03 0.  0.
    9000005    1    3    3    0    0 -0.20163766261E+02 -0.12127601069E+02  0.97462367802E+02  0.10026748882E+03  0.10000000000E+01 0.  0.
    9000005    1    3    3    0    0  0.20163766261E+02  0.12127601069E+02 -0.32869845805E+02  0.40436158828E+02  0.10000000000E+01 0.  0.
<mgrwt>
<rscale>  0 0.12500129E+03</rscale>
<asrwt>0</asrwt>
<pdfrwt beam="2">  1        4 0.58547020E-02 0.12500129E+03</pdfrwt>
<pdfrwt beam="1">  1       -4 0.15792013E-01 0.12500129E+03</pdfrwt>
<totfact> 0.10118729E+04</totfact>
</mgrwt>
</event>
<event>
 5    1  0.3401591E-002  0.1250238E+03  0.7818608E-02  0.1235032E+00
         -4   -1    0    0    0  501 -0.00000000000E+00  0.00000000000E+00  0.92596253489E+02  0.92604962395E+02  0.12700000000E+01 0. -1.
          4   -1    0    0  501    0  0.00000000000E+00 -0.00000000000E+00 -0.42181656530E+02  0.42200770699E+02  0.12700000000E+01 0. -1.
         25    2    1    2    0    0  0.00000000000E+00  0.00000000000E+00  0.50414596959E+02  0.13480573309E+03  0.12502381409E+03 0.  0.
    9000005    1    3    3    0    0  0.41920319572E+02 -0.10838877375E+02 -0.23396643440E+02  0.49225982774E+02  0.10000000000E+01 0.  0.
    9000005    1    3    3    0    0 -0.41920319572E+02  0.10838877375E+02  0.73811240399E+02  0.85579750321E+02  0.10000000000E+01 0.  0.
<mgrwt>
<rscale>  0 0.12502381E+03</rscale>
<asrwt>0</asrwt>
<pdfrwt beam="2">  1        4 0.64916259E-02 0.12502381E+03</pdfrwt>
<pdfrwt beam="1">  1       -4 0.14247718E-01 0.12502381E+03</pdfrwt>
<totfact> 0.10236668E+04</totfact>
</mgrwt>
</event>
<event>
 5    1  0.3401591E-002  0.1250048E+03  0.7818608E-02  0.1235062E+00
          4   -1    0    0  501    0  0.00000000000E+00  0.00000000000E+00  0.24017541263E+03  0.24017877036E+03  0.12700000000E+01 0.  1.
         -4   -1    0    0    0  501 -0.00000000000E+00 -0.00000000000E+00 -0.16237129672E+02  0.16286720971E+02  0.12700000000E+01 0.  1.
         25    2    1    2    0    0  0.00000000000E+00  0.00000000000E+00  0.22393828296E+03  0.25646549133E+03  0.12500477459E+03 0.  0.
    9000005    1    3    3    0    0 -0.26640384271E+02  0.42345417945E+02  0.18880878500E+03  0.19532691004E+03  0.10000000000E+01 0.  0.
    9000005    1    3    3    0    0  0.26640384271E+02 -0.42345417945E+02  0.35129497963E+02  0.61138581291E+02  0.10000000000E+01 0.  0.
<mgrwt>
<rscale>  0 0.12500477E+03</rscale>
<asrwt>0</asrwt>
<pdfrwt beam="1">  1        4 0.36954138E-01 0.12500477E+03</pdfrwt>
<pdfrwt beam="2">  1       -4 0.25020929E-02 0.12500477E+03</pdfrwt>
<totfact> 0.81395996E+03</totfact>
</mgrwt>
</event>
<event>
 5    1  0.3401591E-002  0.1250012E+03  0.7818608E-02  0.1235067E+00
          4   -1    0    0  501    0  0.00000000000E+00  0.00000000000E+00  0.67594919591E+01  0.68777635569E+01  0.12700000000E+01 0.  1.
         -4   -1    0    0    0  501 -0.00000000000E+00 -0.00000000000E+00 -0.57277155615E+03  0.57277296413E+03  0.12700000000E+01 0.  1.
         25    2    1    2    0    0  0.00000000000E+00  0.00000000000E+00 -0.56601206420E+03  0.57965072769E+03  0.12500123717E+03 0.  0.
    9000005    1    3    3    0    0  0.36867093333E+02  0.32681655486E+02 -0.10472824025E+03  0.11574228908E+03  0.10000000000E+01 0.  0.
    9000005    1    3    3    0    0 -0.36867093333E+02 -0.32681655486E+02 -0.46128382394E+03  0.46390843860E+03  0.10000000000E+01 0.  0.
<mgrwt>
<rscale>  0 0.12500124E+03</rscale>
<asrwt>0</asrwt>
<pdfrwt beam="1">  1        4 0.10491284E-02 0.12500124E+03</pdfrwt>
<pdfrwt beam="2">  1       -4 0.88127869E-01 0.12500124E+03</pdfrwt>
<totfact> 0.50176489E+03</totfact>
</mgrwt>
</event>
<event>
 5    1  0.3401591E-002  0.1250013E+03  0.7818608E-02  0.1235067E+00
          4   -1    0    0  501    0  0.00000000000E+00  0.00000000000E+00  0.54042814134E+01  0.55515004815E+01  0.12700000000E+01 0.  1.
         -4   -1    0    0    0  501 -0.00000000000E+00 -0.00000000000E+00 -0.71296043595E+03  0.71296156708E+03  0.12700000000E+01 0.  1.
         25    2    1    2    0    0  0.00000000000E+00  0.00000000000E+00 -0.70755615454E+03  0.71851306756E+03  0.12500126572E+03 0.  0.
    9000005    1    3    3    0    0 -0.40499942671E+02  0.44785735260E+02 -0.44634155520E+03  0.45040847165E+03  0.10000000000E+01 0.  0.
    9000005    1    3    3    0    0  0.40499942671E+02 -0.44785735260E+02 -0.26121459934E+03  0.26810459591E+03  0.10000000000E+01 0.  0.
<mgrwt>
<rscale>  0 0.12500127E+03</rscale>
<asrwt>0</asrwt>
<pdfrwt beam="1">  1        4 0.84284003E-03 0.12500127E+03</pdfrwt>
<pdfrwt beam="2">  1       -4 0.10969756E+00 0.12500127E+03</pdfrwt>
<totfact> 0.42126113E+03</totfact>
</mgrwt>
</event>
<event>
 5    1  0.3401591E-002  0.1250006E+03  0.7818608E-02  0.1235068E+00
          4   -1    0    0  501    0  0.00000000000E+00  0.00000000000E+00  0.88858271807E+02  0.88867347032E+02  0.12700000000E+01 0.  1.
         -4   -1    0    0    0  501 -0.00000000000E+00 -0.00000000000E+00 -0.43940409156E+02  0.43958758590E+02  0.12700000000E+01 0.  1.
         25    2    1    2    0    0  0.00000000000E+00  0.00000000000E+00  0.44917862651E+02  0.13282610562E+03  0.12500063980E+03 0.  0.
    9000005    1    3    3    0    0 -0.85385332930E+01 -0.61587359195E+02  0.15790671701E+02  0.64158044516E+02  0.10000000000E+01 0.  0.
    9000005    1    3    3    0    0  0.85385332930E+01  0.61587359195E+02  0.29127190950E+02  0.68668061106E+02  0.10000000000E+01 0.  0.
<mgrwt>
<rscale>  0 0.12500064E+03</rscale>
<asrwt>0</asrwt>
<pdfrwt beam="1">  1        4 0.13672613E-01 0.12500064E+03</pdfrwt>
<pdfrwt beam="2">  1       -4 0.67621726E-02 0.12500064E+03</pdfrwt>
<totfact> 0.10283949E+04</totfact>
</mgrwt>
</event>
<event>
 5    1  0.3401591E-002  0.1249985E+03  0.7818608E-02  0.1235072E+00
          4   -1    0    0  501    0  0.00000000000E+00  0.00000000000E+00  0.79641051752E+03  0.79641153013E+03  0.12700000000E+01 0.  1.
         -4   -1    0    0    0  501 -0.00000000000E+00 -0.00000000000E+00 -0.48214575234E+01  0.49859154275E+01  0.12700000000E+01 0.  1.
         25    2    1    2    0    0  0.00000000000E+00  0.00000000000E+00  0.79158906000E+03  0.80139744556E+03  0.12499850332E+03 0.  0.
    9000005    1    3    3    0    0  0.15162915945E+02  0.22593486633E+02  0.35120656581E+02  0.44439173900E+02  0.10000000000E+01 0.  0.
    9000005    1    3    3    0    0 -0.15162915945E+02 -0.22593486633E+02  0.75646840342E+03  0.75695827166E+03  0.10000000000E+01 0.  0.
<mgrwt>
<rscale>  0 0.12499850E+03</rscale>
<asrwt>0</asrwt>
<pdfrwt beam="1">  1        4 0.12253736E+00 0.12499850E+03</pdfrwt>
<pdfrwt beam="2">  1       -4 0.75449160E-03 0.12499850E+03</pdfrwt>
<totfact> 0.38203682E+03</totfact>
</mgrwt>
</event>
<event>
 5    1  0.3401591E-002  0.1250020E+03  0.7818608E-02  0.1235066E+00
          4   -1    0    0  501    0  0.00000000000E+00  0.00000000000E+00  0.35860178817E+02  0.35882660503E+02  0.12700000000E+01 0.  1.
         -4   -1    0    0    0  501 -0.00000000000E+00 -0.00000000000E+00 -0.10887324769E+03  0.10888065468E+03  0.12700000000E+01 0.  1.
         25    2    1    2    0    0  0.00000000000E+00  0.00000000000E+00 -0.73013068874E+02  0.14476331518E+03  0.12500203676E+03 0.  0.
    9000005    1    3    3    0    0 -0.53768295443E+02  0.63940852022E+01 -0.72639303039E+02  0.90605641471E+02  0.10000000000E+01 0.  0.
    9000005    1    3    3    0    0  0.53768295443E+02 -0.63940852022E+01 -0.37376583454E+00  0.54157673707E+02  0.10000000000E+01 0.  0.
<mgrwt>
<rscale>  0 0.12500204E+03</rscale>
<asrwt>0</asrwt>
<pdfrwt beam="1">  1        4 0.55192497E-02 0.12500204E+03</pdfrwt>
<pdfrwt beam="2">  1       -4 0.16752029E-01 0.12500204E+03</pdfrwt>
<totfact> 0.10035339E+04</totfact>
</mgrwt>
</event>
<event>
 5    1  0.3401591E-002  0.1249966E+03  0.7818608E-02  0.1235075E+00
         -4   -1    0    0    0  501 -0.00000000000E+00  0.00000000000E+00  0.37346066001E+02  0.37367653737E+02  0.12700000000E+01 0. -1.
          4   -1    0    0  501    0  0.00000000000E+00 -0.00000000000E+00 -0.10453464977E+03  0.10454236415E+03  0.12700000000E+01 0. -1.
         25    2    1    2    0    0  0.00000000000E+00  0.00000000000E+00 -0.67188583765E+02  0.14191001789E+03  0.12499658950E+03 0.  0.
    9000005    1    3    3    0    0  0.32791650045E+02  0.21412955621E+02 -0.88878579709E+02  0.97129855926E+02  0.10000000000E+01 0.  0.
    9000005    1    3    3    0    0 -0.32791650045E+02 -0.21412955621E+02  0.21689995943E+02  0.44780161960E+02  0.10000000000E+01 0.  0.
<mgrwt>
<rscale>  0 0.12499659E+03</rscale>
<asrwt>0</asrwt>
<pdfrwt beam="2">  1        4 0.16084508E-01 0.12499659E+03</pdfrwt>
<pdfrwt beam="1">  1       -4 0.57478027E-02 0.12499659E+03</pdfrwt>
<totfact> 0.10094928E+04</totfact>
</mgrwt>
</event>
<event>
 5    1  0.3401591E-002  0.1249996E+03  0.7818608E-02  0.1235070E+00
         -4   -1    0    0    0  501 -0.00000000000E+00  0.00000000000E+00  0.16691606366E+04  0.16691611198E+04  0.12700000000E+01 0. -1.
          4   -1    0    0  501    0  0.00000000000E+00 -0.00000000000E+00 -0.21674124983E+01  0.25120861724E+01  0.12700000000E+01 0. -1.
         25    2    1    2    0    0  0.00000000000E+00  0.00000000000E+00  0.16669932241E+04  0.16716732060E+04  0.12499959275E+03 0.  0.
    9000005    1    3    3    0    0 -0.45228067708E+02 -0.29857831323E+02  0.41737954198E+03  0.42088448565E+03  0.10000000000E+01 0.  0.
    9000005    1    3    3    0    0  0.45228067708E+02  0.29857831323E+02  0.12496136822E+04  0.12507887203E+04  0.10000000000E+01 0.  0.
<mgrwt>
<rscale>  0 0.12499959E+03</rscale>
<asrwt>0</asrwt>
<pdfrwt beam="2">  1        4 0.35999857E-03 0.12499959E+03</pdfrwt>
<pdfrwt beam="1">  1       -4 0.25682051E+00 0.12499959E+03</pdfrwt>
<totfact> 0.14786162E+03</totfact>
</mgrwt>
</event>
<event>
 5    1  0.3401591E-002  0.1250066E+03  0.7818608E-02  0.1235059E+00
         -4   -1    0    0    0  501 -0.00000000000E+00  0.00000000000E+00  0.16025811943E+04  0.16025816975E+04  0.12700000000E+01 0. -1.
          4   -1    0    0  501    0  0.00000000000E+00 -0.00000000000E+00 -0.22717844510E+01  0.26026725863E+01  0.12700000000E+01 0. -1.
         25    2    1    2    0    0  0.00000000000E+00  0.00000000000E+00  0.16003094099E+04  0.16051843701E+04  0.12500661895E+03 0.  0.
    9000005    1    3    3    0    0 -0.37497780247E+02  0.42175976969E+02  0.45541651084E+03  0.45890096415E+03  0.10000000000E+01 0.  0.
    9000005    1    3    3    0    0  0.37497780247E+02 -0.42175976969E+02  0.11448928990E+04  0.11462834060E+04  0.10000000000E+01 0.  0.
<mgrwt>
<rscale>  0 0.12500662E+03</rscale>
<asrwt>0</asrwt>
<pdfrwt beam="2">  1        4 0.37499747E-03 0.12500662E+03</pdfrwt>
<pdfrwt beam="1">  1       -4 0.24657610E+00 0.12500662E+03</pdfrwt>
<totfact> 0.15950425E+03</totfact>
</mgrwt>
</event>
<event>
 5    1  0.3401591E-002  0.1249995E+03  0.7818608E-02  0.1235070E+00
         -4   -1    0    0    0  501 -0.00000000000E+00  0.00000000000E+00  0.34383573340E+03  0.34383807885E+03  0.12700000000E+01 0. -1.
          4   -1    0    0  501    0  0.00000000000E+00 -0.00000000000E+00 -0.11322835003E+02  0.11393835724E+02  0.12700000000E+01 0. -1.
         25    2    1    2    0    0  0.00000000000E+00  0.00000000000E+00  0.33251289840E+03  0.35523191457E+03  0.12499954211E+03 0.  0.
    9000005    1    3    3    0    0 -0.34772356627E+02  0.16460147745E+02  0.26305940684E+02  0.46616046212E+02  0.10000000000E+01 0.  0.
    9000005    1    3    3    0    0  0.34772356627E+02 -0.16460147745E+02  0.30620695772E+03  0.30861586836E+03  0.10000000000E+01 0.  0.
<mgrwt>
<rscale>  0 0.12499954E+03</rscale>
<asrwt>0</asrwt>
<pdfrwt beam="2">  1        4 0.17476170E-02 0.12499954E+03</pdfrwt>
<pdfrwt beam="1">  1       -4 0.52903437E-01 0.12499954E+03</pdfrwt>
<totfact> 0.69153496E+03</totfact>
</mgrwt>
</event>
<event>
 5    1  0.3401591E-002  0.1250007E+03  0.7818608E-02  0.1235068E+00
          4   -1    0    0  501    0  0.00000000000E+00  0.00000000000E+00  0.65996928186E+01  0.67207771351E+01  0.12700000000E+01 0.  1.
         -4   -1    0    0    0  501 -0.00000000000E+00 -0.00000000000E+00 -0.58638797849E+03  0.58638935378E+03  0.12700000000E+01 0.  1.
         25    2    1    2    0    0  0.00000000000E+00  0.00000000000E+00 -0.57978828568E+03  0.59311013091E+03  0.12500068473E+03 0.  0.
    9000005    1    3    3    0    0  0.14607946837E+02  0.32997447445E+02 -0.53197798452E+03  0.53320146255E+03  0.10000000000E+01 0.  0.
    9000005    1    3    3    0    0 -0.14607946837E+02 -0.32997447445E+02 -0.47810301158E+02  0.59908668367E+02  0.10000000000E+01 0.  0.
<mgrwt>
<rscale>  0 0.12500068E+03</rscale>
<asrwt>0</asrwt>
<pdfrwt beam="1">  1        4 0.10247578E-02 0.12500068E+03</pdfrwt>
<pdfrwt beam="2">  1       -4 0.90222915E-01 0.12500068E+03</pdfrwt>
<totfact> 0.49304703E+03</totfact>
</mgrwt>
</event>
<event>
 5    1  0.3401591E-002  0.1250004E+03  0.7818608E-02  0.1235069E+00
         -4   -1    0    0    0  501 -0.00000000000E+00  0.00000000000E+00  0.21250833999E+02  0.21288749274E+02  0.12700000000E+01 0. -1.
          4   -1    0    0  501    0  0.00000000000E+00 -0.00000000000E+00 -0.18361341095E+03  0.18361780300E+03  0.12700000000E+01 0. -1.
         25    2    1    2    0    0  0.00000000000E+00  0.00000000000E+00 -0.16236257695E+03  0.20490655228E+03  0.12500035509E+03 0.  0.
    9000005    1    3    3    0    0  0.15136590457E+02 -0.72192013557E+01  0.17501412535E+02  0.24259692488E+02  0.10000000000E+01 0.  0.
    9000005    1    3    3    0    0 -0.15136590457E+02  0.72192013557E+01 -0.17986398949E+03  0.18064685979E+03  0.10000000000E+01 0.  0.
<mgrwt>
<rscale>  0 0.12500036E+03</rscale>
<asrwt>0</asrwt>
<pdfrwt beam="2">  1        4 0.28251470E-01 0.12500036E+03</pdfrwt>
<pdfrwt beam="1">  1       -4 0.32726136E-02 0.12500036E+03</pdfrwt>
<totfact> 0.89313814E+03</totfact>
</mgrwt>
</event>
<event>
 5    1  0.3401591E-002  0.1249831E+03  0.7818608E-02  0.1235096E+00
          4   -1    0    0  501    0  0.00000000000E+00  0.00000000000E+00  0.21243760837E+02  0.21281688713E+02  0.12700000000E+01 0. -1.
         -4   -1    0    0    0  501 -0.00000000000E+00 -0.00000000000E+00 -0.18362370431E+03  0.18362809612E+03  0.12700000000E+01 0. -1.
         25    2    1    2    0    0  0.00000000000E+00  0.00000000000E+00 -0.16237994348E+03  0.20490978484E+03  0.12498309437E+03 0.  0.
    9000005    1    3    3    0    0 -0.44109820573E+02 -0.43805509990E+02 -0.91506387065E+02  0.11063009469E+03  0.10000000000E+01 0.  0.
    9000005    1    3    3    0    0  0.44109820573E+02  0.43805509990E+02 -0.70873556411E+02  0.94279690150E+02  0.10000000000E+01 0.  0.
<mgrwt>
<rscale>  0 0.12498309E+03</rscale>
<asrwt>0</asrwt>
<pdfrwt beam="1">  1        4 0.32715264E-02 0.12498309E+03</pdfrwt>
<pdfrwt beam="2">  1       -4 0.28253055E-01 0.12498309E+03</pdfrwt>
<totfact> 0.89347767E+03</totfact>
</mgrwt>
</event>
<event>
 5    1  0.3401591E-002  0.1250005E+03  0.7818608E-02  0.1235069E+00
          4   -1    0    0  501    0  0.00000000000E+00  0.00000000000E+00  0.17342207224E+03  0.17342672239E+03  0.12700000000E+01 0.  1.
         -4   -1    0    0    0  501 -0.00000000000E+00 -0.00000000000E+00 -0.22501843168E+02  0.22537653959E+02  0.12700000000E+01 0.  1.
         25    2    1    2    0    0  0.00000000000E+00  0.00000000000E+00  0.15092022907E+03  0.19596437635E+03  0.12500048502E+03 0.  0.
    9000005    1    3    3    0    0  0.19788966928E+02  0.32895340240E+02 -0.18451640526E+01  0.38446212453E+02  0.10000000000E+01 0.  0.
    9000005    1    3    3    0    0 -0.19788966928E+02 -0.32895340240E+02  0.15276539312E+03  0.15751816390E+03  0.10000000000E+01 0.  0.
<mgrwt>
<rscale>  0 0.12500049E+03</rscale>
<asrwt>0</asrwt>
<pdfrwt beam="1">  1        4 0.26683431E-01 0.12500049E+03</pdfrwt>
<pdfrwt beam="2">  1       -4 0.34649345E-02 0.12500049E+03</pdfrwt>
<totfact> 0.90818778E+03</totfact>
</mgrwt>
</event>
<event>
 5    1  0.3401591E-002  0.1250008E+03  0.7818608E-02  0.1235068E+00
          4   -1    0    0  501    0  0.00000000000E+00  0.00000000000E+00  0.10435452886E+03  0.10436225656E+03  0.12700000000E+01 0.  1.
         -4   -1    0    0    0  501 -0.00000000000E+00 -0.00000000000E+00 -0.37413062821E+02  0.37434611920E+02  0.12700000000E+01 0.  1.
         25    2    1    2    0    0  0.00000000000E+00  0.00000000000E+00  0.66941466038E+02  0.14179686848E+03  0.12500076813E+03 0.  0.
    9000005    1    3    3    0    0  0.15345556361E+02  0.23240263598E+02  0.96931520304E+02  0.10085789796E+03  0.10000000000E+01 0.  0.
    9000005    1    3    3    0    0 -0.15345556361E+02 -0.23240263598E+02 -0.29990054266E+02  0.40938970517E+02  0.10000000000E+01 0.  0.
<mgrwt>
<rscale>  0 0.12500077E+03</rscale>
<asrwt>0</asrwt>
<pdfrwt beam="1">  1        4 0.16056795E-01 0.12500077E+03</pdfrwt>
<pdfrwt beam="2">  1       -4 0.57581079E-02 0.12500077E+03</pdfrwt>
<totfact> 0.10096305E+04</totfact>
</mgrwt>
</event>
<event>
 5    1  0.3401591E-002  0.1250017E+03  0.7818608E-02  0.1235067E+00
          4   -1    0    0  501    0  0.00000000000E+00  0.00000000000E+00  0.93708401478E+01  0.94565080805E+01  0.12700000000E+01 0. -1.
         -4   -1    0    0    0  501 -0.00000000000E+00 -0.00000000000E+00 -0.41487922233E+03  0.41488116614E+03  0.12700000000E+01 0. -1.
         25    2    1    2    0    0  0.00000000000E+00  0.00000000000E+00 -0.40550838218E+03  0.42433767422E+03  0.12500165497E+03 0.  0.
    9000005    1    3    3    0    0 -0.44801876931E+02  0.30523020403E+02 -0.30828873079E+03  0.31302045378E+03  0.10000000000E+01 0.  0.
    9000005    1    3    3    0    0  0.44801876931E+02 -0.30523020403E+02 -0.97219651389E+02  0.11131722044E+03  0.10000000000E+01 0.  0.
<mgrwt>
<rscale>  0 0.12500165E+03</rscale>
<asrwt>0</asrwt>
<pdfrwt beam="1">  1        4 0.14484074E-02 0.12500165E+03</pdfrwt>
<pdfrwt beam="2">  1       -4 0.63834298E-01 0.12500165E+03</pdfrwt>
<totfact> 0.62250356E+03</totfact>
</mgrwt>
</event>
<event>
 5    1  0.3401591E-002  0.1250064E+03  0.7818608E-02  0.1235059E+00
         -4   -1    0    0    0  501 -0.00000000000E+00  0.00000000000E+00  0.84082198242E+03  0.84082294154E+03  0.12700000000E+01 0. -1.
          4   -1    0    0  501    0  0.00000000000E+00 -0.00000000000E+00 -0.45584615322E+01  0.47320684209E+01  0.12700000000E+01 0. -1.
         25    2    1    2    0    0  0.00000000000E+00  0.00000000000E+00  0.83626352089E+03  0.84555500996E+03  0.12500639385E+03 0.  0.
    9000005    1    3    3    0    0  0.10864066092E+02  0.41533205540E+02  0.11093355335E+03  0.11895498456E+03  0.10000000000E+01 0.  0.
    9000005    1    3    3    0    0 -0.10864066092E+02 -0.41533205540E+02  0.72532996754E+03  0.72660002540E+03  0.10000000000E+01 0.  0.
<mgrwt>
<rscale>  0 0.12500639E+03</rscale>
<asrwt>0</asrwt>
<pdfrwt beam="2">  1        4 0.71472992E-03 0.12500639E+03</pdfrwt>
<pdfrwt beam="1">  1       -4 0.12937066E+00 0.12500639E+03</pdfrwt>
<totfact> 0.36304839E+03</totfact>
</mgrwt>
</event>
<event>
 5    1  0.3401591E-002  0.1249993E+03  0.7818608E-02  0.1235070E+00
          4   -1    0    0  501    0  0.00000000000E+00  0.00000000000E+00  0.18882221261E+02  0.18924882556E+02  0.12700000000E+01 0. -1.
         -4   -1    0    0    0  501 -0.00000000000E+00 -0.00000000000E+00 -0.20659407306E+03  0.20659797657E+03  0.12700000000E+01 0. -1.
         25    2    1    2    0    0  0.00000000000E+00  0.00000000000E+00 -0.18771185180E+03  0.22552285913E+03  0.12499928273E+03 0.  0.
    9000005    1    3    3    0    0  0.35413942774E+02  0.41198966817E+02 -0.38138683559E+02  0.66385701723E+02  0.10000000000E+01 0.  0.
    9000005    1    3    3    0    0 -0.35413942774E+02 -0.41198966817E+02 -0.14957316824E+03  0.15913715740E+03  0.10000000000E+01 0.  0.
<mgrwt>
<rscale>  0 0.12499928E+03</rscale>
<asrwt>0</asrwt>
<pdfrwt beam="1">  1        4 0.29085392E-02 0.12499928E+03</pdfrwt>
<pdfrwt beam="2">  1       -4 0.31787284E-01 0.12499928E+03</pdfrwt>
<totfact> 0.86003219E+03</totfact>
</mgrwt>
</event>
<event>
 5    1  0.3401591E-002  0.1249980E+03  0.7818608E-02  0.1235072E+00
         -4   -1    0    0    0  501 -0.00000000000E+00  0.00000000000E+00  0.75538585469E+01  0.76598746038E+01  0.12700000000E+01 0.  1.
          4   -1    0    0  501    0  0.00000000000E+00 -0.00000000000E+00 -0.51339320665E+03  0.51339477747E+03  0.12700000000E+01 0.  1.
         25    2    1    2    0    0  0.00000000000E+00  0.00000000000E+00 -0.50583934810E+03  0.52105465207E+03  0.12499801742E+03 0.  0.
    9000005    1    3    3    0    0 -0.17655389137E+02 -0.59945070506E+02 -0.25309878791E+03  0.26070120959E+03  0.10000000000E+01 0.  0.
    9000005    1    3    3    0    0  0.17655389137E+02  0.59945070506E+02 -0.25274056020E+03  0.26035344248E+03  0.10000000000E+01 0.  0.
<mgrwt>
<rscale>  0 0.12499802E+03</rscale>
<asrwt>0</asrwt>
<pdfrwt beam="2">  1        4 0.78991819E-01 0.12499802E+03</pdfrwt>
<pdfrwt beam="1">  1       -4 0.11704084E-02 0.12499802E+03</pdfrwt>
<totfact> 0.54269381E+03</totfact>
</mgrwt>
</event>
<event>
 5    1  0.3401591E-002  0.1249985E+03  0.7818608E-02  0.1235072E+00
         -4   -1    0    0    0  501 -0.00000000000E+00  0.00000000000E+00  0.37560438942E+03  0.37560653649E+03  0.12700000000E+01 0.  1.
          4   -1    0    0  501    0  0.00000000000E+00 -0.00000000000E+00 -0.10358696900E+02  0.10436258978E+02  0.12700000000E+01 0.  1.
         25    2    1    2    0    0  0.00000000000E+00  0.00000000000E+00  0.36524569252E+03  0.38604279547E+03  0.12499849609E+03 0.  0.
    9000005    1    3    3    0    0  0.43320035326E+02 -0.19452505923E+02  0.57167313939E+02  0.74324472621E+02  0.10000000000E+01 0.  0.
    9000005    1    3    3    0    0 -0.43320035326E+02  0.19452505923E+02  0.30807837858E+03  0.31171832284E+03  0.10000000000E+01 0.  0.
<mgrwt>
<rscale>  0 0.12499850E+03</rscale>
<asrwt>0</asrwt>
<pdfrwt beam="2">  1        4 0.15997773E-02 0.12499850E+03</pdfrwt>
<pdfrwt beam="1">  1       -4 0.57791416E-01 0.12499850E+03</pdfrwt>
<totfact> 0.65935462E+03</totfact>
</mgrwt>
</event>
<event>
 5    1  0.3401591E-002  0.1249970E+03  0.7818608E-02  0.1235074E+00
         -4   -1    0    0    0  501 -0.00000000000E+00  0.00000000000E+00  0.11056470802E+03  0.11057200170E+03  0.12700000000E+01 0. -1.
          4   -1    0    0  501    0  0.00000000000E+00 -0.00000000000E+00 -0.35308398990E+02  0.35331231782E+02  0.12700000000E+01 0. -1.
         25    2    1    2    0    0  0.00000000000E+00  0.00000000000E+00  0.75256309031E+02  0.14590323348E+03  0.12499696593E+03 0.  0.
    9000005    1    3    3    0    0 -0.48996187404E+02 -0.37811693526E+02  0.47717298178E+02  0.78155557018E+02  0.10000000000E+01 0.  0.
    9000005    1    3    3    0    0  0.48996187404E+02  0.37811693526E+02  0.27539010854E+02  0.67747676464E+02  0.10000000000E+01 0.  0.
<mgrwt>
<rscale>  0 0.12499697E+03</rscale>
<asrwt>0</asrwt>
<pdfrwt beam="2">  1        4 0.54343788E-02 0.12499697E+03</pdfrwt>
<pdfrwt beam="1">  1       -4 0.17012273E-01 0.12499697E+03</pdfrwt>
<totfact> 0.10013353E+04</totfact>
</mgrwt>
</event>
<event>
 5    1  0.3401591E-002  0.1249997E+03  0.7818608E-02  0.1235070E+00
          4   -1    0    0  501    0  0.00000000000E+00  0.00000000000E+00  0.16291540007E+03  0.16292035011E+03  0.12700000000E+01 0. -1.
         -4   -1    0    0    0  501 -0.00000000000E+00 -0.00000000000E+00 -0.23954911184E+02  0.23988552891E+02  0.12700000000E+01 0. -1.
         25    2    1    2    0    0  0.00000000000E+00  0.00000000000E+00  0.13896048889E+03  0.18690890300E+03  0.12499968220E+03 0.  0.
    9000005    1    3    3    0    0 -0.55661690938E+02 -0.28167481799E+02  0.74994397964E+02  0.97554039357E+02  0.10000000000E+01 0.  0.
    9000005    1    3    3    0    0  0.55661690938E+02  0.28167481799E+02  0.63966090925E+02  0.89354863647E+02  0.10000000000E+01 0.  0.
<mgrwt>
<rscale>  0 0.12499968E+03</rscale>
<asrwt>0</asrwt>
<pdfrwt beam="1">  1        4 0.25066877E-01 0.12499968E+03</pdfrwt>
<pdfrwt beam="2">  1       -4 0.36883395E-02 0.12499968E+03</pdfrwt>
<totfact> 0.92388611E+03</totfact>
</mgrwt>
</event>
<event>
 5    1  0.3401591E-002  0.1250029E+03  0.7818608E-02  0.1235065E+00
          4   -1    0    0  501    0  0.00000000000E+00  0.00000000000E+00  0.26838406383E+02  0.26868437937E+02  0.12700000000E+01 0.  1.
         -4   -1    0    0    0  501 -0.00000000000E+00 -0.00000000000E+00 -0.14543965118E+03  0.14544519598E+03  0.12700000000E+01 0.  1.
         25    2    1    2    0    0  0.00000000000E+00  0.00000000000E+00 -0.11860124479E+03  0.17231363392E+03  0.12500293264E+03 0.  0.
    9000005    1    3    3    0    0 -0.52478538051E+02  0.26919395944E+02 -0.30823066065E+02  0.66556083386E+02  0.10000000000E+01 0.  0.
    9000005    1    3    3    0    0  0.52478538051E+02 -0.26919395944E+02 -0.87778178727E+02  0.10575755053E+03  0.10000000000E+01 0.  0.
<mgrwt>
<rscale>  0 0.12500293E+03</rscale>
<asrwt>0</asrwt>
<pdfrwt beam="1">  1        4 0.41317223E-02 0.12500293E+03</pdfrwt>
<pdfrwt beam="2">  1       -4 0.22378067E-01 0.12500293E+03</pdfrwt>
<totfact> 0.95012905E+03</totfact>
</mgrwt>
</event>
<event>
 5    1  0.3401591E-002  0.1250046E+03  0.7818608E-02  0.1235062E+00
          4   -1    0    0  501    0  0.00000000000E+00  0.00000000000E+00  0.74448676293E+02  0.74459507799E+02  0.12700000000E+01 0. -1.
         -4   -1    0    0    0  501 -0.00000000000E+00 -0.00000000000E+00 -0.52450572271E+02  0.52465945446E+02  0.12700000000E+01 0. -1.
         25    2    1    2    0    0  0.00000000000E+00  0.00000000000E+00  0.21998104022E+02  0.12692545325E+03  0.12500461632E+03 0.  0.
    9000005    1    3    3    0    0 -0.54903286749E+02 -0.28202141158E+02  0.20937555229E+02  0.65185219803E+02  0.10000000000E+01 0.  0.
    9000005    1    3    3    0    0  0.54903286749E+02  0.28202141158E+02  0.10605487928E+01  0.61740233443E+02  0.10000000000E+01 0.  0.
<mgrwt>
<rscale>  0 0.12500462E+03</rscale>
<asrwt>0</asrwt>
<pdfrwt beam="1">  1        4 0.11455658E-01 0.12500462E+03</pdfrwt>
<pdfrwt beam="2">  1       -4 0.80713347E-02 0.12500462E+03</pdfrwt>
<totfact> 0.10409681E+04</totfact>
</mgrwt>
</event>
<event>
 5    1  0.3401591E-002  0.1250003E+03  0.7818608E-02  0.1235069E+00
          4   -1    0    0  501    0  0.00000000000E+00  0.00000000000E+00  0.79781610650E+02  0.79791718229E+02  0.12700000000E+01 0. -1.
         -4   -1    0    0    0  501 -0.00000000000E+00 -0.00000000000E+00 -0.48940539453E+02  0.48957014839E+02  0.12700000000E+01 0. -1.
         25    2    1    2    0    0  0.00000000000E+00  0.00000000000E+00  0.30841071197E+02  0.12874873307E+03  0.12500025838E+03 0.  0.
    9000005    1    3    3    0    0 -0.38611812574E+02  0.76741336224E+01  0.65409457343E+02  0.76348945684E+02  0.10000000000E+01 0.  0.
    9000005    1    3    3    0    0  0.38611812574E+02 -0.76741336224E+01 -0.34568386146E+02  0.52399787384E+02  0.10000000000E+01 0.  0.
<mgrwt>
<rscale>  0 0.12500026E+03</rscale>
<asrwt>0</asrwt>
<pdfrwt beam="1">  1        4 0.12276139E-01 0.12500026E+03</pdfrwt>
<pdfrwt beam="2">  1       -4 0.75313587E-02 0.12500026E+03</pdfrwt>
<totfact> 0.10371289E+04</totfact>
</mgrwt>
</event>
<event>
 5    1  0.3401591E-002  0.1250065E+03  0.7818608E-02  0.1235059E+00
          4   -1    0    0  501    0  0.00000000000E+00  0.00000000000E+00  0.47398918254E+02  0.47415929303E+02  0.12700000000E+01 0.  1.
         -4   -1    0    0    0  501 -0.00000000000E+00 -0.00000000000E+00 -0.82384119447E+02  0.82393907766E+02  0.12700000000E+01 0.  1.
         25    2    1    2    0    0  0.00000000000E+00  0.00000000000E+00 -0.34985201192E+02  0.12980983707E+03  0.12500651782E+03 0.  0.
    9000005    1    3    3    0    0  0.89822695496E+01 -0.57381327482E+02  0.64668820930E+01  0.58447570299E+02  0.10000000000E+01 0.  0.
    9000005    1    3    3    0    0 -0.89822695496E+01  0.57381327482E+02 -0.41452083285E+02  0.71362266770E+02  0.10000000000E+01 0.  0.
<mgrwt>
<rscale>  0 0.12500652E+03</rscale>
<asrwt>0</asrwt>
<pdfrwt beam="1">  1        4 0.72942027E-02 0.12500652E+03</pdfrwt>
<pdfrwt beam="2">  1       -4 0.12676541E-01 0.12500652E+03</pdfrwt>
<totfact> 0.10347055E+04</totfact>
</mgrwt>
</event>
<event>
 5    1  0.3401591E-002  0.1249822E+03  0.7818608E-02  0.1235097E+00
         -4   -1    0    0    0  501 -0.00000000000E+00  0.00000000000E+00  0.25679790547E+02  0.25711175441E+02  0.12700000000E+01 0. -1.
          4   -1    0    0  501    0  0.00000000000E+00 -0.00000000000E+00 -0.15194348357E+03  0.15194879104E+03  0.12700000000E+01 0. -1.
         25    2    1    2    0    0  0.00000000000E+00  0.00000000000E+00 -0.12626369302E+03  0.17765996648E+03  0.12498217279E+03 0.  0.
    9000005    1    3    3    0    0  0.70722968619E+01  0.59491670438E+02 -0.88355036183E+02  0.10675621131E+03  0.10000000000E+01 0.  0.
    9000005    1    3    3    0    0 -0.70722968619E+01 -0.59491670438E+02 -0.37908656840E+02  0.70903755174E+02  0.10000000000E+01 0.  0.
<mgrwt>
<rscale>  0 0.12498217E+03</rscale>
<asrwt>0</asrwt>
<pdfrwt beam="2">  1        4 0.23378743E-01 0.12498217E+03</pdfrwt>
<pdfrwt beam="1">  1       -4 0.39535596E-02 0.12498217E+03</pdfrwt>
<totfact> 0.94077529E+03</totfact>
</mgrwt>
</event>
<event>
 5    1  0.3401591E-002  0.1250046E+03  0.7818608E-02  0.1235062E+00
          4   -1    0    0  501    0  0.00000000000E+00  0.00000000000E+00  0.47852053426E+02  0.47868903446E+02  0.12700000000E+01 0.  1.
         -4   -1    0    0    0  501 -0.00000000000E+00 -0.00000000000E+00 -0.81601699196E+02  0.81611581357E+02  0.12700000000E+01 0.  1.
         25    2    1    2    0    0  0.00000000000E+00  0.00000000000E+00 -0.33749645770E+02  0.12948048480E+03  0.12500462934E+03 0.  0.
    9000005    1    3    3    0    0  0.27600456664E+02 -0.19873773735E+02  0.37431298233E+02  0.50585118147E+02  0.10000000000E+01 0.  0.
    9000005    1    3    3    0    0 -0.27600456664E+02  0.19873773735E+02 -0.71180944003E+02  0.78895366656E+02  0.10000000000E+01 0.  0.
<mgrwt>
<rscale>  0 0.12500463E+03</rscale>
<asrwt>0</asrwt>
<pdfrwt beam="1">  1        4 0.73639107E-02 0.12500463E+03</pdfrwt>
<pdfrwt beam="2">  1       -4 0.12556164E-01 0.12500463E+03</pdfrwt>
<totfact> 0.10354551E+04</totfact>
</mgrwt>
</event>
<event>
 5    1  0.3401591E-002  0.1250081E+03  0.7818608E-02  0.1235057E+00
          4   -1    0    0  501    0  0.00000000000E+00  0.00000000000E+00  0.23747245888E+03  0.23747585483E+03  0.12700000000E+01 0.  1.
         -4   -1    0    0    0  501 -0.00000000000E+00 -0.00000000000E+00 -0.16423381923E+02  0.16472412507E+02  0.12700000000E+01 0.  1.
         25    2    1    2    0    0  0.00000000000E+00  0.00000000000E+00  0.22104907696E+03  0.25394826734E+03  0.12500811197E+03 0.  0.
    9000005    1    3    3    0    0  0.11982471561E+02 -0.26746947262E+02  0.22265599876E+03  0.22457887834E+03  0.10000000000E+01 0.  0.
    9000005    1    3    3    0    0 -0.11982471561E+02  0.26746947262E+02 -0.16069217988E+01  0.29369389000E+02  0.10000000000E+01 0.  0.
<mgrwt>
<rscale>  0 0.12500811E+03</rscale>
<asrwt>0</asrwt>
<pdfrwt beam="1">  1        4 0.36538256E-01 0.12500811E+03</pdfrwt>
<pdfrwt beam="2">  1       -4 0.25307070E-02 0.12500811E+03</pdfrwt>
<totfact> 0.81748140E+03</totfact>
</mgrwt>
</event>
<event>
 5    1  0.3401591E-002  0.1250019E+03  0.7818608E-02  0.1235066E+00
          4   -1    0    0  501    0  0.00000000000E+00  0.00000000000E+00  0.30025058571E+02  0.30051905799E+02  0.12700000000E+01 0. -1.
         -4   -1    0    0    0  501 -0.00000000000E+00 -0.00000000000E+00 -0.13001557948E+03  0.13002178205E+03  0.12700000000E+01 0. -1.
         25    2    1    2    0    0  0.00000000000E+00  0.00000000000E+00 -0.99990520914E+02  0.16007368785E+03  0.12500192507E+03 0.  0.
    9000005    1    3    3    0    0  0.59825200472E+02 -0.12558714431E+02 -0.66622678626E+02  0.90423211771E+02  0.10000000000E+01 0.  0.
    9000005    1    3    3    0    0 -0.59825200472E+02  0.12558714431E+02 -0.33367842288E+02  0.69650476083E+02  0.10000000000E+01 0.  0.
<mgrwt>
<rscale>  0 0.12500193E+03</rscale>
<asrwt>0</asrwt>
<pdfrwt beam="1">  1        4 0.46217821E-02 0.12500193E+03</pdfrwt>
<pdfrwt beam="2">  1       -4 0.20004939E-01 0.12500193E+03</pdfrwt>
<totfact> 0.97324369E+03</totfact>
</mgrwt>
</event>
<event>
 5    1  0.3401591E-002  0.1249997E+03  0.7818608E-02  0.1235070E+00
          4   -1    0    0  501    0  0.00000000000E+00  0.00000000000E+00  0.15588343444E+02  0.15639992050E+02  0.12700000000E+01 0. -1.
         -4   -1    0    0    0  501 -0.00000000000E+00 -0.00000000000E+00 -0.25011901514E+03  0.25012223938E+03  0.12700000000E+01 0. -1.
         25    2    1    2    0    0  0.00000000000E+00  0.00000000000E+00 -0.23453067169E+03  0.26576223143E+03  0.12499971076E+03 0.  0.
    9000005    1    3    3    0    0  0.13864034428E+02 -0.57986154074E+02 -0.77454017028E+02  0.97748300592E+02  0.10000000000E+01 0.  0.
    9000005    1    3    3    0    0 -0.13864034428E+02  0.57986154074E+02 -0.15707665467E+03  0.16801393084E+03  0.10000000000E+01 0.  0.
<mgrwt>
<rscale>  0 0.12499971E+03</rscale>
<asrwt>0</asrwt>
<pdfrwt beam="1">  1        4 0.24024279E-02 0.12499971E+03</pdfrwt>
<pdfrwt beam="2">  1       -4 0.38484067E-01 0.12499971E+03</pdfrwt>
<totfact> 0.80104670E+03</totfact>
</mgrwt>
</event>
<event>
 5    1  0.3401591E-002  0.1249961E+03  0.7818608E-02  0.1235075E+00
          4   -1    0    0  501    0  0.00000000000E+00  0.00000000000E+00  0.18338626944E+03  0.18339066693E+03  0.12700000000E+01 0. -1.
         -4   -1    0    0    0  501 -0.00000000000E+00 -0.00000000000E+00 -0.21275758475E+02  0.21313629411E+02  0.12700000000E+01 0. -1.
         25    2    1    2    0    0  0.00000000000E+00  0.00000000000E+00  0.16211051096E+03  0.20470429634E+03  0.12499612465E+03 0.  0.
    9000005    1    3    3    0    0 -0.60430601887E+02 -0.14237395908E+02  0.92687052714E+02  0.11156366267E+03  0.10000000000E+01 0.  0.
    9000005    1    3    3    0    0  0.60430601887E+02  0.14237395908E+02  0.69423458248E+02  0.93140633677E+02  0.10000000000E+01 0.  0.
<mgrwt>
<rscale>  0 0.12499612E+03</rscale>
<asrwt>0</asrwt>
<pdfrwt beam="1">  1        4 0.28216525E-01 0.12499612E+03</pdfrwt>
<pdfrwt beam="2">  1       -4 0.32764449E-02 0.12499612E+03</pdfrwt>
<totfact> 0.89355852E+03</totfact>
</mgrwt>
</event>
<event>
 5    1  0.3401591E-002  0.1249964E+03  0.7818608E-02  0.1235075E+00
          4   -1    0    0  501    0  0.00000000000E+00  0.00000000000E+00  0.59736050706E+01  0.61071153207E+01  0.12700000000E+01 0.  1.
         -4   -1    0    0    0  501 -0.00000000000E+00 -0.00000000000E+00 -0.64652029449E+03  0.64652154185E+03  0.12700000000E+01 0.  1.
         25    2    1    2    0    0  0.00000000000E+00  0.00000000000E+00 -0.64054668941E+03  0.65262865717E+03  0.12499641133E+03 0.  0.
    9000005    1    3    3    0    0  0.26944941232E+02  0.46860680037E+02 -0.48397812962E+03  0.48698848358E+03  0.10000000000E+01 0.  0.
    9000005    1    3    3    0    0 -0.26944941232E+02 -0.46860680037E+02 -0.15656855980E+03  0.16564017359E+03  0.10000000000E+01 0.  0.
<mgrwt>
<rscale>  0 0.12499641E+03</rscale>
<asrwt>0</asrwt>
<pdfrwt beam="1">  1        4 0.92938265E-03 0.12499641E+03</pdfrwt>
<pdfrwt beam="2">  1       -4 0.99474972E-01 0.12499641E+03</pdfrwt>
<totfact> 0.45708976E+03</totfact>
</mgrwt>
</event>
<event>
 5    1  0.3401591E-002  0.1250000E+03  0.7818608E-02  0.1235069E+00
         -4   -1    0    0    0  501 -0.00000000000E+00  0.00000000000E+00  0.57997834451E+01  0.59372037198E+01  0.12700000000E+01 0. -1.
          4   -1    0    0  501    0  0.00000000000E+00 -0.00000000000E+00 -0.66549328087E+03  0.66549449268E+03  0.12700000000E+01 0. -1.
         25    2    1    2    0    0  0.00000000000E+00  0.00000000000E+00 -0.65969349743E+03  0.67143169640E+03  0.12500004953E+03 0.  0.
    9000005    1    3    3    0    0 -0.39184683871E+02 -0.37158697515E+02 -0.49877397291E+03  0.50168982879E+03  0.10000000000E+01 0.  0.
    9000005    1    3    3    0    0  0.39184683871E+02  0.37158697515E+02 -0.16091952451E+03  0.16974186761E+03  0.10000000000E+01 0.  0.
<mgrwt>
<rscale>  0 0.12500005E+03</rscale>
<asrwt>0</asrwt>
<pdfrwt beam="2">  1        4 0.10239419E+00 0.12500005E+03</pdfrwt>
<pdfrwt beam="1">  1       -4 0.90293891E-03 0.12500005E+03</pdfrwt>
<totfact> 0.44638250E+03</totfact>
</mgrwt>
</event>
<event>
 5    1  0.3401591E-002  0.1250001E+03  0.7818608E-02  0.1235069E+00
         -4   -1    0    0    0  501 -0.00000000000E+00  0.00000000000E+00  0.69123786876E+02  0.69135452642E+02  0.12700000000E+01 0. -1.
          4   -1    0    0  501    0  0.00000000000E+00 -0.00000000000E+00 -0.56487451229E+02  0.56501726048E+02  0.12700000000E+01 0. -1.
         25    2    1    2    0    0  0.00000000000E+00  0.00000000000E+00  0.12636335647E+02  0.12563717869E+03  0.12500009476E+03 0.  0.
    9000005    1    3    3    0    0 -0.49095916021E+02 -0.28174167487E+02 -0.20294378513E+02  0.60141952768E+02  0.10000000000E+01 0.  0.
    9000005    1    3    3    0    0  0.49095916021E+02  0.28174167487E+02  0.32930714160E+02  0.65495225922E+02  0.10000000000E+01 0.  0.
<mgrwt>
<rscale>  0 0.12500009E+03</rscale>
<asrwt>0</asrwt>
<pdfrwt beam="2">  1        4 0.86923726E-02 0.12500009E+03</pdfrwt>
<pdfrwt beam="1">  1       -4 0.10636424E-01 0.12500009E+03</pdfrwt>
<totfact> 0.10438905E+04</totfact>
</mgrwt>
</event>
<event>
 5    1  0.3401591E-002  0.1250020E+03  0.7818608E-02  0.1235066E+00
         -4   -1    0    0    0  501 -0.00000000000E+00  0.00000000000E+00  0.40776074837E+02  0.40795847572E+02  0.12700000000E+01 0.  1.
          4   -1    0    0  501    0  0.00000000000E+00 -0.00000000000E+00 -0.95753456284E+02  0.95761878064E+02  0.12700000000E+01 0.  1.
         25    2    1    2    0    0  0.00000000000E+00  0.00000000000E+00 -0.54977381447E+02  0.13655772564E+03  0.12500199982E+03 0.  0.
    9000005    1    3    3    0    0  0.18373223726E+01  0.38208252043E+02 -0.81474993840E+02  0.90013448434E+02  0.10000000000E+01 0.  0.
    9000005    1    3    3    0    0 -0.18373223726E+01 -0.38208252043E+02  0.26497612393E+02  0.46544277202E+02  0.10000000000E+01 0.  0.
<mgrwt>
<rscale>  0 0.12500200E+03</rscale>
<asrwt>0</asrwt>
<pdfrwt beam="2">  1        4 0.14733470E-01 0.12500200E+03</pdfrwt>
<pdfrwt beam="1">  1       -4 0.62754111E-02 0.12500200E+03</pdfrwt>
<totfact> 0.10204881E+04</totfact>
</mgrwt>
</event>
<event>
 5    1  0.3401591E-002  0.1249989E+03  0.7818608E-02  0.1235071E+00
          4   -1    0    0  501    0  0.00000000000E+00  0.00000000000E+00  0.21959239059E+02  0.21995933262E+02  0.12700000000E+01 0. -1.
         -4   -1    0    0    0  501 -0.00000000000E+00 -0.00000000000E+00 -0.17769592725E+03  0.17770046556E+03  0.12700000000E+01 0. -1.
         25    2    1    2    0    0  0.00000000000E+00  0.00000000000E+00 -0.15573668819E+03  0.19969639882E+03  0.12499894261E+03 0.  0.
    9000005    1    3    3    0    0 -0.49933765610E+02  0.29860662100E+02 -0.11430391823E+03  0.12826311165E+03  0.10000000000E+01 0.  0.
    9000005    1    3    3    0    0  0.49933765610E+02 -0.29860662100E+02 -0.41432769962E+02  0.71433287169E+02  0.10000000000E+01 0.  0.
<mgrwt>
<rscale>  0 0.12499894E+03</rscale>
<asrwt>0</asrwt>
<pdfrwt beam="1">  1        4 0.33815163E-02 0.12499894E+03</pdfrwt>
<pdfrwt beam="2">  1       -4 0.27341006E-01 0.12499894E+03</pdfrwt>
<totfact> 0.90188871E+03</totfact>
</mgrwt>
</event>
<event>
 5    1  0.3401591E-002  0.1249987E+03  0.7818608E-02  0.1235071E+00
         -4   -1    0    0    0  501 -0.00000000000E+00  0.00000000000E+00  0.19272916773E+03  0.19273335206E+03  0.12700000000E+01 0. -1.
          4   -1    0    0  501    0  0.00000000000E+00 -0.00000000000E+00 -0.20243369196E+02  0.20283167810E+02  0.12700000000E+01 0. -1.
         25    2    1    2    0    0  0.00000000000E+00  0.00000000000E+00  0.17248579854E+03  0.21301651987E+03  0.12499874815E+03 0.  0.
    9000005    1    3    3    0    0 -0.36580867377E+02  0.29709766688E+02  0.16303367984E+02  0.49876145624E+02  0.10000000000E+01 0.  0.
    9000005    1    3    3    0    0  0.36580867377E+02 -0.29709766688E+02  0.15618243055E+03  0.16314037424E+03  0.10000000000E+01 0.  0.
<mgrwt>
<rscale>  0 0.12499875E+03</rscale>
<asrwt>0</asrwt>
<pdfrwt beam="2">  1        4 0.31177479E-02 0.12499875E+03</pdfrwt>
<pdfrwt beam="1">  1       -4 0.29654023E-01 0.12499875E+03</pdfrwt>
<totfact> 0.87988064E+03</totfact>
</mgrwt>
</event>
<event>
 5    1  0.3401591E-002  0.1250014E+03  0.7818608E-02  0.1235067E+00
          4   -1    0    0  501    0  0.00000000000E+00  0.00000000000E+00  0.30075900766E+02  0.30102702651E+02  0.12700000000E+01 0.  1.
         -4   -1    0    0    0  501 -0.00000000000E+00 -0.00000000000E+00 -0.12979487874E+03  0.12980109185E+03  0.12700000000E+01 0.  1.
         25    2    1    2    0    0  0.00000000000E+00  0.00000000000E+00 -0.99718977970E+02  0.15990379450E+03  0.12500139571E+03 0.  0.
    9000005    1    3    3    0    0 -0.57702884599E+02  0.22630666334E+02 -0.60058562697E+02  0.86312229163E+02  0.10000000000E+01 0.  0.
    9000005    1    3    3    0    0  0.57702884599E+02 -0.22630666334E+02 -0.39660415273E+02  0.73591565341E+02  0.10000000000E+01 0.  0.
<mgrwt>
<rscale>  0 0.12500140E+03</rscale>
<asrwt>0</asrwt>
<pdfrwt beam="1">  1        4 0.46296014E-02 0.12500140E+03</pdfrwt>
<pdfrwt beam="2">  1       -4 0.19970982E-01 0.12500140E+03</pdfrwt>
<totfact> 0.97358282E+03</totfact>
</mgrwt>
</event>
<event>
 5    1  0.3401591E-002  0.1250038E+03  0.7818608E-02  0.1235063E+00
          4   -1    0    0  501    0  0.00000000000E+00  0.00000000000E+00  0.18600586064E+03  0.18601019620E+03  0.12700000000E+01 0.  1.
         -4   -1    0    0    0  501 -0.00000000000E+00 -0.00000000000E+00 -0.20978181535E+02  0.21016588699E+02  0.12700000000E+01 0.  1.
         25    2    1    2    0    0  0.00000000000E+00  0.00000000000E+00  0.16502767910E+03  0.20702678490E+03  0.12500381913E+03 0.  0.
    9000005    1    3    3    0    0  0.16638148921E+02  0.51307015885E+02  0.13478806444E+03  0.14518285089E+03  0.10000000000E+01 0.  0.
    9000005    1    3    3    0    0 -0.16638148921E+02 -0.51307015885E+02  0.30239614663E+02  0.61843934008E+02  0.10000000000E+01 0.  0.
<mgrwt>
<rscale>  0 0.12500382E+03</rscale>
<asrwt>0</asrwt>
<pdfrwt beam="1">  1        4 0.28619574E-01 0.12500382E+03</pdfrwt>
<pdfrwt beam="2">  1       -4 0.32307005E-02 0.12500382E+03</pdfrwt>
<totfact> 0.88956161E+03</totfact>
</mgrwt>
</event>
<event>
 5    1  0.3401591E-002  0.1249959E+03  0.7818608E-02  0.1235076E+00
          4   -1    0    0  501    0  0.00000000000E+00  0.00000000000E+00  0.19106315022E+02  0.19148477060E+02  0.12700000000E+01 0.  1.
         -4   -1    0    0    0  501 -0.00000000000E+00 -0.00000000000E+00 -0.20416529794E+03  0.20416924789E+03  0.12700000000E+01 0.  1.
         25    2    1    2    0    0  0.00000000000E+00  0.00000000000E+00 -0.18505898292E+03  0.22331772495E+03  0.12499591640E+03 0.  0.
    9000005    1    3    3    0    0 -0.45665801765E+02 -0.41946551135E+02 -0.10638182834E+03  0.12313802014E+03  0.10000000000E+01 0.  0.
    9000005    1    3    3    0    0  0.45665801765E+02  0.41946551135E+02 -0.78677154582E+02  0.10017970481E+03  0.10000000000E+01 0.  0.
<mgrwt>
<rscale>  0 0.12499592E+03</rscale>
<asrwt>0</asrwt>
<pdfrwt beam="1">  1        4 0.29429803E-02 0.12499592E+03</pdfrwt>
<pdfrwt beam="2">  1       -4 0.31413591E-01 0.12499592E+03</pdfrwt>
<totfact> 0.86353945E+03</totfact>
</mgrwt>
</event>
<event>
 5    1  0.3401591E-002  0.1249926E+03  0.7818608E-02  0.1235081E+00
         -4   -1    0    0    0  501 -0.00000000000E+00  0.00000000000E+00  0.16154173549E+02  0.16204018732E+02  0.12700000000E+01 0. -1.
          4   -1    0    0  501    0  0.00000000000E+00 -0.00000000000E+00 -0.24135781284E+03  0.24136115412E+03  0.12700000000E+01 0. -1.
         25    2    1    2    0    0  0.00000000000E+00  0.00000000000E+00 -0.22520363929E+03  0.25756517286E+03  0.12499255625E+03 0.  0.
    9000005    1    3    3    0    0 -0.19915167063E+01  0.38603294971E+02 -0.21377512726E+03  0.21724406909E+03  0.10000000000E+01 0.  0.
    9000005    1    3    3    0    0  0.19915167063E+01 -0.38603294971E+02 -0.11428512035E+02  0.40321103764E+02  0.10000000000E+01 0.  0.
<mgrwt>
<rscale>  0 0.12499256E+03</rscale>
<asrwt>0</asrwt>
<pdfrwt beam="2">  1        4 0.37136060E-01 0.12499256E+03</pdfrwt>
<pdfrwt beam="1">  1       -4 0.24893489E-02 0.12499256E+03</pdfrwt>
<totfact> 0.81262441E+03</totfact>
</mgrwt>
</event>
<event>
 5    1  0.3401591E-002  0.1249994E+03  0.7818608E-02  0.1235070E+00
          4   -1    0    0  501    0  0.00000000000E+00  0.00000000000E+00  0.18363543652E+02  0.18407407082E+02  0.12700000000E+01 0.  1.
         -4   -1    0    0    0  501 -0.00000000000E+00 -0.00000000000E+00 -0.21241616427E+03  0.21241996080E+03  0.12700000000E+01 0.  1.
         25    2    1    2    0    0  0.00000000000E+00  0.00000000000E+00 -0.19405262062E+03  0.23082736788E+03  0.12499941677E+03 0.  0.
    9000005    1    3    3    0    0 -0.41312094366E+02  0.46346535804E+02 -0.11015205613E+03  0.12644827397E+03  0.10000000000E+01 0.  0.
    9000005    1    3    3    0    0  0.41312094366E+02 -0.46346535804E+02 -0.83900564494E+02  0.10437909390E+03  0.10000000000E+01 0.  0.
<mgrwt>
<rscale>  0 0.12499942E+03</rscale>
<asrwt>0</asrwt>
<pdfrwt beam="1">  1        4 0.28288269E-02 0.12499942E+03</pdfrwt>
<pdfrwt beam="2">  1       -4 0.32683074E-01 0.12499942E+03</pdfrwt>
<totfact> 0.85183825E+03</totfact>
</mgrwt>
</event>
<event>
 5    1  0.3401591E-002  0.1250007E+03  0.7818608E-02  0.1235068E+00
          4   -1    0    0  501    0  0.00000000000E+00  0.00000000000E+00  0.17522552663E+02  0.17568515925E+02  0.12700000000E+01 0.  1.
         -4   -1    0    0    0  501 -0.00000000000E+00 -0.00000000000E+00 -0.22258972150E+03  0.22259334450E+03  0.12700000000E+01 0.  1.
         25    2    1    2    0    0  0.00000000000E+00  0.00000000000E+00 -0.20506716883E+03  0.24016186043E+03  0.12500070188E+03 0.  0.
    9000005    1    3    3    0    0 -0.27957341870E+02 -0.10087304981E+02 -0.20815052550E+03  0.21026413853E+03  0.10000000000E+01 0.  0.
    9000005    1    3    3    0    0  0.27957341870E+02  0.10087304981E+02  0.30833566663E+01  0.29897721895E+02  0.10000000000E+01 0.  0.
<mgrwt>
<rscale>  0 0.12500070E+03</rscale>
<asrwt>0</asrwt>
<pdfrwt beam="1">  1        4 0.26995918E-02 0.12500070E+03</pdfrwt>
<pdfrwt beam="2">  1       -4 0.34248385E-01 0.12500070E+03</pdfrwt>
<totfact> 0.83771957E+03</totfact>
</mgrwt>
</event>
<event>
 5    1  0.3401591E-002  0.1250010E+03  0.7818608E-02  0.1235068E+00
         -4   -1    0    0    0  501 -0.00000000000E+00  0.00000000000E+00  0.92388401517E+02  0.92397130014E+02  0.12700000000E+01 0.  1.
          4   -1    0    0  501    0  0.00000000000E+00 -0.00000000000E+00 -0.42261176028E+02  0.42280254248E+02  0.12700000000E+01 0.  1.
         25    2    1    2    0    0  0.00000000000E+00  0.00000000000E+00  0.50127225489E+02  0.13467738426E+03  0.12500103638E+03 0.  0.
    9000005    1    3    3    0    0  0.55288995670E+02  0.14196667681E+02 -0.23394062863E+01  0.57139226782E+02  0.10000000000E+01 0.  0.
    9000005    1    3    3    0    0 -0.55288995670E+02 -0.14196667681E+02  0.52466631776E+02  0.77538157480E+02  0.10000000000E+01 0.  0.
<mgrwt>
<rscale>  0 0.12500104E+03</rscale>
<asrwt>0</asrwt>
<pdfrwt beam="2">  1        4 0.65038585E-02 0.12500104E+03</pdfrwt>
<pdfrwt beam="1">  1       -4 0.14215739E-01 0.12500104E+03</pdfrwt>
<totfact> 0.10244636E+04</totfact>
</mgrwt>
</event>
<event>
 5    1  0.3401591E-002  0.1250013E+03  0.7818608E-02  0.1235067E+00
         -4   -1    0    0    0  501 -0.00000000000E+00  0.00000000000E+00  0.14742106697E+02  0.14796709427E+02  0.12700000000E+01 0.  1.
          4   -1    0    0  501    0  0.00000000000E+00 -0.00000000000E+00 -0.26443194071E+03  0.26443499044E+03  0.12700000000E+01 0.  1.
         25    2    1    2    0    0  0.00000000000E+00  0.00000000000E+00 -0.24968983401E+03  0.27923169986E+03  0.12500131599E+03 0.  0.
    9000005    1    3    3    0    0 -0.20068540965E+02  0.57010278549E+02 -0.89354843383E+02  0.10788051832E+03  0.10000000000E+01 0.  0.
    9000005    1    3    3    0    0  0.20068540965E+02 -0.57010278549E+02 -0.16033499063E+03  0.17135118155E+03  0.10000000000E+01 0.  0.
<mgrwt>
<rscale>  0 0.12500132E+03</rscale>
<asrwt>0</asrwt>
<pdfrwt beam="2">  1        4 0.40686269E-01 0.12500132E+03</pdfrwt>
<pdfrwt beam="1">  1       -4 0.22724514E-02 0.12500132E+03</pdfrwt>
<totfact> 0.78277798E+03</totfact>
</mgrwt>
</event>
<event>
 5    1  0.3401591E-002  0.1249997E+03  0.7818608E-02  0.1235070E+00
          4   -1    0    0  501    0  0.00000000000E+00  0.00000000000E+00  0.22519859167E+02  0.22555641354E+02  0.12700000000E+01 0.  1.
         -4   -1    0    0    0  501 -0.00000000000E+00 -0.00000000000E+00 -0.17328125353E+03  0.17328590746E+03  0.12700000000E+01 0.  1.
         25    2    1    2    0    0  0.00000000000E+00  0.00000000000E+00 -0.15076139436E+03  0.19584154881E+03  0.12499965685E+03 0.  0.
    9000005    1    3    3    0    0 -0.11626156536E+02 -0.61400775107E+02 -0.75500565263E+02  0.98013050430E+02  0.10000000000E+01 0.  0.
    9000005    1    3    3    0    0  0.11626156536E+02  0.61400775107E+02 -0.75260829098E+02  0.97828498384E+02  0.10000000000E+01 0.  0.
<mgrwt>
<rscale>  0 0.12499966E+03</rscale>
<asrwt>0</asrwt>
<pdfrwt beam="1">  1        4 0.34677043E-02 0.12499966E+03</pdfrwt>
<pdfrwt beam="2">  1       -4 0.26661764E-01 0.12499966E+03</pdfrwt>
<totfact> 0.90841420E+03</totfact>
</mgrwt>
</event>
<event>
 5    1  0.3401591E-002  0.1250006E+03  0.7818608E-02  0.1235068E+00
         -4   -1    0    0    0  501 -0.00000000000E+00  0.00000000000E+00  0.21971793688E+02  0.22008466959E+02  0.12700000000E+01 0. -1.
          4   -1    0    0  501    0  0.00000000000E+00 -0.00000000000E+00 -0.17759917247E+03  0.17760371325E+03  0.12700000000E+01 0. -1.
         25    2    1    2    0    0  0.00000000000E+00  0.00000000000E+00 -0.15562737878E+03  0.19961218021E+03  0.12500056585E+03 0.  0.
    9000005    1    3    3    0    0 -0.52495039366E+02  0.27342978226E+02 -0.10982796298E+03  0.12476597721E+03  0.10000000000E+01 0.  0.
    9000005    1    3    3    0    0  0.52495039366E+02 -0.27342978226E+02 -0.45799415797E+02  0.74846203001E+02  0.10000000000E+01 0.  0.
<mgrwt>
<rscale>  0 0.12500057E+03</rscale>
<asrwt>0</asrwt>
<pdfrwt beam="2">  1        4 0.27326119E-01 0.12500057E+03</pdfrwt>
<pdfrwt beam="1">  1       -4 0.33834464E-02 0.12500057E+03</pdfrwt>
<totfact> 0.90199815E+03</totfact>
</mgrwt>
</event>
<event>
 5    1  0.3401591E-002  0.1249994E+03  0.7818608E-02  0.1235070E+00
         -4   -1    0    0    0  501 -0.00000000000E+00  0.00000000000E+00  0.14626271562E+03  0.14626822923E+03  0.12700000000E+01 0.  1.
          4   -1    0    0  501    0  0.00000000000E+00 -0.00000000000E+00 -0.26685686338E+02  0.26715889566E+02  0.12700000000E+01 0.  1.
         25    2    1    2    0    0  0.00000000000E+00  0.00000000000E+00  0.11957702928E+03  0.17298411879E+03  0.12499935769E+03 0.  0.
    9000005    1    3    3    0    0  0.56115292752E+02  0.42007281722E+00  0.21735403318E+02  0.60187459650E+02  0.10000000000E+01 0.  0.
    9000005    1    3    3    0    0 -0.56115292752E+02 -0.42007281722E+00  0.97841625965E+02  0.11279665914E+03  0.10000000000E+01 0.  0.
<mgrwt>
<rscale>  0 0.12499936E+03</rscale>
<asrwt>0</asrwt>
<pdfrwt beam="2">  1        4 0.41082375E-02 0.12499936E+03</pdfrwt>
<pdfrwt beam="1">  1       -4 0.22504705E-01 0.12499936E+03</pdfrwt>
<totfact> 0.94896713E+03</totfact>
</mgrwt>
</event>
<event>
 5    1  0.3401591E-002  0.1250027E+03  0.7818608E-02  0.1235065E+00
         -4   -1    0    0    0  501 -0.00000000000E+00  0.00000000000E+00  0.11717584077E+02  0.11786207049E+02  0.12700000000E+01 0. -1.
          4   -1    0    0  501    0  0.00000000000E+00 -0.00000000000E+00 -0.33233754117E+03  0.33233996776E+03  0.12700000000E+01 0. -1.
         25    2    1    2    0    0  0.00000000000E+00  0.00000000000E+00 -0.32061995710E+03  0.34412617481E+03  0.12500266918E+03 0.  0.
    9000005    1    3    3    0    0 -0.45938282183E+02  0.95440445327E+01 -0.27395057511E+03  0.27794123868E+03  0.10000000000E+01 0.  0.
    9000005    1    3    3    0    0  0.45938282183E+02 -0.95440445327E+01 -0.46669381991E+02  0.66184936137E+02  0.10000000000E+01 0.  0.
<mgrwt>
<rscale>  0 0.12500267E+03</rscale>
<asrwt>0</asrwt>
<pdfrwt beam="2">  1        4 0.51134311E-01 0.12500267E+03</pdfrwt>
<pdfrwt beam="1">  1       -4 0.18081708E-02 0.12500267E+03</pdfrwt>
<totfact> 0.70371464E+03</totfact>
</mgrwt>
</event>
<event>
 5    1  0.3401591E-002  0.1250020E+03  0.7818608E-02  0.1235066E+00
         -4   -1    0    0    0  501 -0.00000000000E+00  0.00000000000E+00  0.47049556539E+02  0.47066693856E+02  0.12700000000E+01 0.  1.
          4   -1    0    0  501    0  0.00000000000E+00 -0.00000000000E+00 -0.82989646830E+02  0.82999363739E+02  0.12700000000E+01 0.  1.
         25    2    1    2    0    0  0.00000000000E+00  0.00000000000E+00 -0.35940090291E+02  0.13006605759E+03  0.12500195698E+03 0.  0.
    9000005    1    3    3    0    0  0.29148202836E+02 -0.40173811852E+02  0.21539551915E+02  0.54115664867E+02  0.10000000000E+01 0.  0.
    9000005    1    3    3    0    0 -0.29148202836E+02  0.40173811852E+02 -0.57479642206E+02  0.75950392727E+02  0.10000000000E+01 0.  0.
<mgrwt>
<rscale>  0 0.12500196E+03</rscale>
<asrwt>0</asrwt>
<pdfrwt beam="2">  1        4 0.12769704E-01 0.12500196E+03</pdfrwt>
<pdfrwt beam="1">  1       -4 0.72404591E-02 0.12500196E+03</pdfrwt>
<totfact> 0.10342638E+04</totfact>
</mgrwt>
</event>
<event>
 5    1  0.3401591E-002  0.1250048E+03  0.7818608E-02  0.1235062E+00
          4   -1    0    0  501    0  0.00000000000E+00  0.00000000000E+00  0.48848083212E+01  0.50472024266E+01  0.12700000000E+01 0.  1.
         -4   -1    0    0    0  501 -0.00000000000E+00 -0.00000000000E+00 -0.78649582893E+03  0.78649685430E+03  0.12700000000E+01 0.  1.
         25    2    1    2    0    0  0.00000000000E+00  0.00000000000E+00 -0.78161102061E+03  0.79154405673E+03  0.12500482472E+03 0.  0.
    9000005    1    3    3    0    0 -0.30356882974E+02  0.24610450808E+02 -0.69961099521E+03  0.70070233284E+03  0.10000000000E+01 0.  0.
    9000005    1    3    3    0    0  0.30356882974E+02 -0.24610450808E+02 -0.82000025402E+02  0.90841723887E+02  0.10000000000E+01 0.  0.
<mgrwt>
<rscale>  0 0.12500482E+03</rscale>
<asrwt>0</asrwt>
<pdfrwt beam="1">  1        4 0.76408033E-03 0.12500482E+03</pdfrwt>
<pdfrwt beam="2">  1       -4 0.12101183E+00 0.12500482E+03</pdfrwt>
<totfact> 0.38640976E+03</totfact>
</mgrwt>
</event>
<event>
 5    1  0.3401591E-002  0.1250024E+03  0.7818608E-02  0.1235066E+00
          4   -1    0    0  501    0  0.00000000000E+00  0.00000000000E+00  0.13730546246E+02  0.13789155166E+02  0.12700000000E+01 0. -1.
         -4   -1    0    0    0  501 -0.00000000000E+00 -0.00000000000E+00 -0.28383841825E+03  0.28384125947E+03  0.12700000000E+01 0. -1.
         25    2    1    2    0    0  0.00000000000E+00  0.00000000000E+00 -0.27010787200E+03  0.29763041463E+03  0.12500240476E+03 0.  0.
    9000005    1    3    3    0    0  0.36870848895E+02 -0.35516040776E+02 -0.49717455629E+02  0.71369979998E+02  0.10000000000E+01 0.  0.
    9000005    1    3    3    0    0 -0.36870848895E+02  0.35516040776E+02 -0.22039041638E+03  0.22626043463E+03  0.10000000000E+01 0.  0.
<mgrwt>
<rscale>  0 0.12500240E+03</rscale>
<asrwt>0</asrwt>
<pdfrwt beam="1">  1        4 0.21171189E-02 0.12500240E+03</pdfrwt>
<pdfrwt beam="2">  1       -4 0.43672172E-01 0.12500240E+03</pdfrwt>
<totfact> 0.75892989E+03</totfact>
</mgrwt>
</event>
<event>
 5    1  0.3401591E-002  0.1250028E+03  0.7818608E-02  0.1235065E+00
         -4   -1    0    0    0  501 -0.00000000000E+00  0.00000000000E+00  0.88846296323E+02  0.88855372771E+02  0.12700000000E+01 0.  1.
          4   -1    0    0  501    0  0.00000000000E+00 -0.00000000000E+00 -0.43947865852E+02  0.43966212174E+02  0.12700000000E+01 0.  1.
         25    2    1    2    0    0  0.00000000000E+00  0.00000000000E+00  0.44898430471E+02  0.13282158495E+03  0.12500281744E+03 0.  0.
    9000005    1    3    3    0    0 -0.47897061978E+02 -0.83891288198E+01  0.64159092473E+02  0.80510217832E+02  0.10000000000E+01 0.  0.
    9000005    1    3    3    0    0  0.47897061978E+02  0.83891288198E+01 -0.19260662002E+02  0.52311367113E+02  0.10000000000E+01 0.  0.
<mgrwt>
<rscale>  0 0.12500282E+03</rscale>
<asrwt>0</asrwt>
<pdfrwt beam="2">  1        4 0.67633197E-02 0.12500282E+03</pdfrwt>
<pdfrwt beam="1">  1       -4 0.13670770E-01 0.12500282E+03</pdfrwt>
<totfact> 0.10283540E+04</totfact>
</mgrwt>
</event>
<event>
 5    1  0.3401591E-002  0.1250013E+03  0.7818608E-02  0.1235067E+00
          4   -1    0    0  501    0  0.00000000000E+00  0.00000000000E+00  0.44244716693E+02  0.44262939975E+02  0.12700000000E+01 0.  1.
         -4   -1    0    0    0  501 -0.00000000000E+00 -0.00000000000E+00 -0.88248310202E+02  0.88257448148E+02  0.12700000000E+01 0.  1.
         25    2    1    2    0    0  0.00000000000E+00  0.00000000000E+00 -0.44003593509E+02  0.13252038812E+03  0.12500134810E+03 0.  0.
    9000005    1    3    3    0    0  0.13201318462E+02  0.60283314578E+02 -0.32442080364E+02  0.69726905883E+02  0.10000000000E+01 0.  0.
    9000005    1    3    3    0    0 -0.13201318462E+02 -0.60283314578E+02 -0.11561513145E+02  0.62793482240E+02  0.10000000000E+01 0.  0.
<mgrwt>
<rscale>  0 0.12500135E+03</rscale>
<asrwt>0</asrwt>
<pdfrwt beam="1">  1        4 0.68089842E-02 0.12500135E+03</pdfrwt>
<pdfrwt beam="2">  1       -4 0.13578768E-01 0.12500135E+03</pdfrwt>
<totfact> 0.10290291E+04</totfact>
</mgrwt>
</event>
<event>
 5    1  0.3401591E-002  0.1249999E+03  0.7818608E-02  0.1235069E+00
          4   -1    0    0  501    0  0.00000000000E+00  0.00000000000E+00  0.15072106960E+03  0.15072642012E+03  0.12700000000E+01 0. -1.
         -4   -1    0    0    0  501 -0.00000000000E+00 -0.00000000000E+00 -0.25895667826E+02  0.25926791397E+02  0.12700000000E+01 0. -1.
         25    2    1    2    0    0  0.00000000000E+00  0.00000000000E+00  0.12482540177E+03  0.17665321151E+03  0.12499990484E+03 0.  0.
    9000005    1    3    3    0    0  0.15673761468E+02 -0.64160013372E+01  0.14742286864E+03  0.14839586945E+03  0.10000000000E+01 0.  0.
    9000005    1    3    3    0    0 -0.15673761468E+02  0.64160013372E+01 -0.22597466866E+02  0.28257342064E+02  0.10000000000E+01 0.  0.
<mgrwt>
<rscale>  0 0.12499990E+03</rscale>
<asrwt>0</asrwt>
<pdfrwt beam="1">  1        4 0.23190662E-01 0.12499990E+03</pdfrwt>
<pdfrwt beam="2">  1       -4 0.39867547E-02 0.12499990E+03</pdfrwt>
<totfact> 0.94223130E+03</totfact>
</mgrwt>
</event>
<event>
 5    1  0.3401591E-002  0.1249998E+03  0.7818608E-02  0.1235070E+00
         -4   -1    0    0    0  501 -0.00000000000E+00  0.00000000000E+00  0.33297706377E+02  0.33321916961E+02  0.12700000000E+01 0.  1.
          4   -1    0    0  501    0  0.00000000000E+00 -0.00000000000E+00 -0.11724214832E+03  0.11724902662E+03  0.12700000000E+01 0.  1.
         25    2    1    2    0    0  0.00000000000E+00  0.00000000000E+00 -0.83944441943E+02  0.15057094358E+03  0.12499975887E+03 0.  0.
    9000005    1    3    3    0    0 -0.15445577805E+02  0.37089911981E+02  0.15683877499E+02  0.43141760023E+02  0.10000000000E+01 0.  0.
    9000005    1    3    3    0    0  0.15445577805E+02 -0.37089911981E+02 -0.99628319442E+02  0.10742918356E+03  0.10000000000E+01 0.  0.
<mgrwt>
<rscale>  0 0.12499976E+03</rscale>
<asrwt>0</asrwt>
<pdfrwt beam="2">  1        4 0.18039645E-01 0.12499976E+03</pdfrwt>
<pdfrwt beam="1">  1       -4 0.51251156E-02 0.12499976E+03</pdfrwt>
<totfact> 0.99190549E+03</totfact>
</mgrwt>
</event>
<event>
 5    1  0.3401591E-002  0.1249972E+03  0.7818608E-02  0.1235074E+00
         -4   -1    0    0    0  501 -0.00000000000E+00  0.00000000000E+00  0.42073059900E+03  0.42073251578E+03  0.12700000000E+01 0.  1.
          4   -1    0    0  501    0  0.00000000000E+00 -0.00000000000E+00 -0.92386451295E+01  0.93255275362E+01  0.12700000000E+01 0.  1.
         25    2    1    2    0    0  0.00000000000E+00  0.00000000000E+00  0.41149195387E+03  0.43005804332E+03  0.12499717005E+03 0.  0.
    9000005    1    3    3    0    0 -0.58695413847E+02  0.91882553174E+01  0.13907598357E+03  0.15123724690E+03  0.10000000000E+01 0.  0.
    9000005    1    3    3    0    0  0.58695413847E+02 -0.91882553174E+01  0.27241597030E+03  0.27882079642E+03  0.10000000000E+01 0.  0.
<mgrwt>
<rscale>  0 0.12499717E+03</rscale>
<asrwt>0</asrwt>
<pdfrwt beam="2">  1        4 0.14281604E-02 0.12499717E+03</pdfrwt>
<pdfrwt beam="1">  1       -4 0.64734631E-01 0.12499717E+03</pdfrwt>
<totfact> 0.61734572E+03</totfact>
</mgrwt>
</event>
<event>
 5    1  0.3401591E-002  0.1249968E+03  0.7818608E-02  0.1235074E+00
          4   -1    0    0  501    0  0.00000000000E+00  0.00000000000E+00  0.57694558454E+03  0.57694698233E+03  0.12700000000E+01 0. -1.
         -4   -1    0    0    0  501 -0.00000000000E+00 -0.00000000000E+00 -0.67092499480E+01  0.68283918212E+01  0.12700000000E+01 0. -1.
         25    2    1    2    0    0  0.00000000000E+00  0.00000000000E+00  0.57023633459E+03  0.58377537415E+03  0.12499684067E+03 0.  0.
    9000005    1    3    3    0    0 -0.43780885139E+01  0.17847754511E+02  0.61728075877E+01  0.19411686007E+02  0.10000000000E+01 0.  0.
    9000005    1    3    3    0    0  0.43780885139E+01 -0.17847754511E+02  0.56406352701E+03  0.56436368815E+03  0.10000000000E+01 0.  0.
<mgrwt>
<rscale>  0 0.12499684E+03</rscale>
<asrwt>0</asrwt>
<pdfrwt beam="1">  1        4 0.88770154E-01 0.12499684E+03</pdfrwt>
<pdfrwt beam="2">  1       -4 0.10414643E-02 0.12499684E+03</pdfrwt>
<totfact> 0.49911486E+03</totfact>
</mgrwt>
</event>
<event>
 5    1  0.3401591E-002  0.1249978E+03  0.7818608E-02  0.1235073E+00
          4   -1    0    0  501    0  0.00000000000E+00  0.00000000000E+00  0.12795122507E+03  0.12795752770E+03  0.12700000000E+01 0.  1.
         -4   -1    0    0    0  501 -0.00000000000E+00 -0.00000000000E+00 -0.30507856514E+02  0.30534279247E+02  0.12700000000E+01 0.  1.
         25    2    1    2    0    0  0.00000000000E+00  0.00000000000E+00  0.97443368553E+02  0.15849180695E+03  0.12499777116E+03 0.  0.
    9000005    1    3    3    0    0 -0.31543886255E+01 -0.12150678009E+02 -0.28898848149E+02  0.31523524042E+02  0.10000000000E+01 0.  0.
    9000005    1    3    3    0    0  0.31543886255E+01  0.12150678009E+02  0.12634221670E+03  0.12696828291E+03  0.10000000000E+01 0.  0.
<mgrwt>
<rscale>  0 0.12499777E+03</rscale>
<asrwt>0</asrwt>
<pdfrwt beam="1">  1        4 0.19687321E-01 0.12499777E+03</pdfrwt>
<pdfrwt beam="2">  1       -4 0.46960338E-02 0.12499777E+03</pdfrwt>
<totfact> 0.97639235E+03</totfact>
</mgrwt>
</event>
<event>
 5    1  0.3401591E-002  0.1250023E+03  0.7818608E-02  0.1235066E+00
          4   -1    0    0  501    0  0.00000000000E+00  0.00000000000E+00  0.88056996992E+01  0.88968110687E+01  0.12700000000E+01 0. -1.
         -4   -1    0    0    0  501 -0.00000000000E+00 -0.00000000000E+00 -0.44124608491E+03  0.44124791257E+03  0.12700000000E+01 0. -1.
         25    2    1    2    0    0  0.00000000000E+00  0.00000000000E+00 -0.43244038521E+03  0.45014472364E+03  0.12500234182E+03 0.  0.
    9000005    1    3    3    0    0  0.14818275810E+02  0.55057768216E+02 -0.30834458750E+03  0.31357347429E+03  0.10000000000E+01 0.  0.
    9000005    1    3    3    0    0 -0.14818275810E+02 -0.55057768216E+02 -0.12409579771E+03  0.13657124934E+03  0.10000000000E+01 0.  0.
<mgrwt>
<rscale>  0 0.12500234E+03</rscale>
<asrwt>0</asrwt>
<pdfrwt beam="1">  1        4 0.13618725E-02 0.12500234E+03</pdfrwt>
<pdfrwt beam="2">  1       -4 0.67891145E-01 0.12500234E+03</pdfrwt>
<totfact> 0.59948174E+03</totfact>
</mgrwt>
</event>
<event>
 5    1  0.3401591E-002  0.1249996E+03  0.7818608E-02  0.1235070E+00
         -4   -1    0    0    0  501 -0.00000000000E+00  0.00000000000E+00  0.10808141831E+04  0.10808149293E+04  0.12700000000E+01 0. -1.
          4   -1    0    0  501    0  0.00000000000E+00 -0.00000000000E+00 -0.35018102636E+01  0.37249933050E+01  0.12700000000E+01 0. -1.
         25    2    1    2    0    0  0.00000000000E+00  0.00000000000E+00  0.10773123729E+04  0.10845399226E+04  0.12499957980E+03 0.  0.
    9000005    1    3    3    0    0 -0.36035757133E+02  0.43009831414E+02  0.77734288932E+03  0.77936601733E+03  0.10000000000E+01 0.  0.
    9000005    1    3    3    0    0  0.36035757133E+02 -0.43009831414E+02  0.29996948354E+03  0.30517390525E+03  0.10000000000E+01 0.  0.
<mgrwt>
<rscale>  0 0.12499958E+03</rscale>
<asrwt>0</asrwt>
<pdfrwt beam="2">  1        4 0.55596472E-03 0.12499958E+03</pdfrwt>
<pdfrwt beam="1">  1       -4 0.16629652E+00 0.12499958E+03</pdfrwt>
<totfact> 0.27940540E+03</totfact>
</mgrwt>
</event>
<event>
 5    1  0.3401591E-002  0.1249968E+03  0.7818608E-02  0.1235074E+00
         -4   -1    0    0    0  501 -0.00000000000E+00  0.00000000000E+00  0.17037140992E+02  0.17084410238E+02  0.12700000000E+01 0. -1.
          4   -1    0    0  501    0  0.00000000000E+00 -0.00000000000E+00 -0.22890015608E+03  0.22890367920E+03  0.12700000000E+01 0. -1.
         25    2    1    2    0    0  0.00000000000E+00  0.00000000000E+00 -0.21186301509E+03  0.24598808944E+03  0.12499681190E+03 0.  0.
    9000005    1    3    3    0    0 -0.18493484682E+02  0.56581530174E+02 -0.14335227303E+03  0.15522355722E+03  0.10000000000E+01 0.  0.
    9000005    1    3    3    0    0  0.18493484682E+02 -0.56581530174E+02 -0.68510742055E+02  0.90764532222E+02  0.10000000000E+01 0.  0.
<mgrwt>
<rscale>  0 0.12499681E+03</rscale>
<asrwt>0</asrwt>
<pdfrwt beam="2">  1        4 0.35219314E-01 0.12499681E+03</pdfrwt>
<pdfrwt beam="1">  1       -4 0.26250059E-02 0.12499681E+03</pdfrwt>
<totfact> 0.82919445E+03</totfact>
</mgrwt>
</event>
<event>
 5    1  0.3401591E-002  0.1250073E+03  0.7818608E-02  0.1235058E+00
          4   -1    0    0  501    0  0.00000000000E+00  0.00000000000E+00  0.14255854740E+03  0.14256420426E+03  0.12700000000E+01 0. -1.
         -4   -1    0    0    0  501 -0.00000000000E+00 -0.00000000000E+00 -0.27383319184E+02  0.27412753775E+02  0.12700000000E+01 0. -1.
         25    2    1    2    0    0  0.00000000000E+00  0.00000000000E+00  0.11517522822E+03  0.16997695804E+03  0.12500733206E+03 0.  0.
    9000005    1    3    3    0    0 -0.18896929133E+02  0.57508087469E+02  0.36459828954E+02  0.70672435803E+02  0.10000000000E+01 0.  0.
    9000005    1    3    3    0    0  0.18896929133E+02 -0.57508087469E+02  0.78715399262E+02  0.99304522233E+02  0.10000000000E+01 0.  0.
<mgrwt>
<rscale>  0 0.12500733E+03</rscale>
<asrwt>0</asrwt>
<pdfrwt beam="1">  1        4 0.21934783E-01 0.12500733E+03</pdfrwt>
<pdfrwt beam="2">  1       -4 0.42155177E-02 0.12500733E+03</pdfrwt>
<totfact> 0.95437224E+03</totfact>
</mgrwt>
</event>
<event>
 5    1  0.3401591E-002  0.1250043E+03  0.7818608E-02  0.1235062E+00
         -4   -1    0    0    0  501 -0.00000000000E+00  0.00000000000E+00  0.86289633655E+01  0.87219211624E+01  0.12700000000E+01 0. -1.
          4   -1    0    0  501    0  0.00000000000E+00 -0.00000000000E+00 -0.45020267732E+03  0.45020446862E+03  0.12700000000E+01 0. -1.
         25    2    1    2    0    0  0.00000000000E+00  0.00000000000E+00 -0.44157371395E+03  0.45892638978E+03  0.12500434546E+03 0.  0.
    9000005    1    3    3    0    0  0.30892756870E+02 -0.40721710372E+02 -0.35279497408E+03  0.35647989264E+03  0.10000000000E+01 0.  0.
    9000005    1    3    3    0    0 -0.30892756870E+02  0.40721710372E+02 -0.88778739876E+02  0.10244649714E+03  0.10000000000E+01 0.  0.
<mgrwt>
<rscale>  0 0.12500435E+03</rscale>
<asrwt>0</asrwt>
<pdfrwt beam="2">  1        4 0.69269221E-01 0.12500435E+03</pdfrwt>
<pdfrwt beam="1">  1       -4 0.13348216E-02 0.12500435E+03</pdfrwt>
<totfact> 0.59192572E+03</totfact>
</mgrwt>
</event>
<event>
 5    1  0.3401591E-002  0.1249950E+03  0.7818608E-02  0.1235077E+00
         -4   -1    0    0    0  501 -0.00000000000E+00  0.00000000000E+00  0.25232862876E+02  0.25264802966E+02  0.12700000000E+01 0. -1.
          4   -1    0    0  501    0  0.00000000000E+00 -0.00000000000E+00 -0.15466313574E+03  0.15466834989E+03  0.12700000000E+01 0. -1.
         25    2    1    2    0    0  0.00000000000E+00  0.00000000000E+00 -0.12943027286E+03  0.17993315285E+03  0.12499497575E+03 0.  0.
    9000005    1    3    3    0    0 -0.32363572392E+02  0.49251011175E+02 -0.34799606835E+02  0.68447611760E+02  0.10000000000E+01 0.  0.
    9000005    1    3    3    0    0  0.32363572392E+02 -0.49251011175E+02 -0.94630666030E+02  0.11148554109E+03  0.10000000000E+01 0.  0.
<mgrwt>
<rscale>  0 0.12499498E+03</rscale>
<asrwt>0</asrwt>
<pdfrwt beam="2">  1        4 0.23797186E-01 0.12499498E+03</pdfrwt>
<pdfrwt beam="1">  1       -4 0.38848370E-02 0.12499498E+03</pdfrwt>
<totfact> 0.93639586E+03</totfact>
</mgrwt>
</event>
<event>
 5    1  0.3401591E-002  0.1250018E+03  0.7818608E-02  0.1235066E+00
          4   -1    0    0  501    0  0.00000000000E+00  0.00000000000E+00  0.65829852498E+02  0.65842101879E+02  0.12700000000E+01 0. -1.
         -4   -1    0    0    0  501 -0.00000000000E+00 -0.00000000000E+00 -0.59315766450E+02  0.59329360772E+02  0.12700000000E+01 0. -1.
         25    2    1    2    0    0  0.00000000000E+00  0.00000000000E+00  0.65140860476E+01  0.12517146265E+03  0.12500184697E+03 0.  0.
    9000005    1    3    3    0    0 -0.34961878554E+02 -0.29309756265E+02  0.46022963354E+02  0.64811325555E+02  0.10000000000E+01 0.  0.
    9000005    1    3    3    0    0  0.34961878554E+02  0.29309756265E+02 -0.39508877306E+02  0.60360137096E+02  0.10000000000E+01 0.  0.
<mgrwt>
<rscale>  0 0.12500185E+03</rscale>
<asrwt>0</asrwt>
<pdfrwt beam="1">  1        4 0.10129658E-01 0.12500185E+03</pdfrwt>
<pdfrwt beam="2">  1       -4 0.91274906E-02 0.12500185E+03</pdfrwt>
<totfact> 0.10448703E+04</totfact>
</mgrwt>
</event>
<event>
 5    1  0.3401591E-002  0.1249903E+03  0.7818608E-02  0.1235084E+00
          4   -1    0    0  501    0  0.00000000000E+00  0.00000000000E+00  0.29775011261E+03  0.29775282108E+03  0.12700000000E+01 0.  1.
         -4   -1    0    0    0  501 -0.00000000000E+00 -0.00000000000E+00 -0.13083679269E+02  0.13145172620E+02  0.12700000000E+01 0.  1.
         25    2    1    2    0    0  0.00000000000E+00  0.00000000000E+00  0.28466643334E+03  0.31089799370E+03  0.12499033648E+03 0.  0.
    9000005    1    3    3    0    0  0.58865536845E+02  0.18543853653E+02  0.16665615944E+03  0.17771972714E+03  0.10000000000E+01 0.  0.
    9000005    1    3    3    0    0 -0.58865536845E+02 -0.18543853653E+02  0.11801027391E+03  0.13317826656E+03  0.10000000000E+01 0.  0.
<mgrwt>
<rscale>  0 0.12499034E+03</rscale>
<asrwt>0</asrwt>
<pdfrwt beam="1">  1        4 0.45812650E-01 0.12499034E+03</pdfrwt>
<pdfrwt beam="2">  1       -4 0.20178122E-02 0.12499034E+03</pdfrwt>
<totfact> 0.74267754E+03</totfact>
</mgrwt>
</event>
<event>
 5    1  0.3401591E-002  0.1250023E+03  0.7818608E-02  0.1235066E+00
         -4   -1    0    0    0  501 -0.00000000000E+00  0.00000000000E+00  0.20292028250E+02  0.20331731616E+02  0.12700000000E+01 0. -1.
          4   -1    0    0  501    0  0.00000000000E+00 -0.00000000000E+00 -0.19227868670E+03  0.19228288083E+03  0.12700000000E+01 0. -1.
         25    2    1    2    0    0  0.00000000000E+00  0.00000000000E+00 -0.17198665845E+03  0.21261461244E+03  0.12500225094E+03 0.  0.
    9000005    1    3    3    0    0 -0.21973309577E+02 -0.58502621283E+02 -0.86142135812E+02  0.10642767776E+03  0.10000000000E+01 0.  0.
    9000005    1    3    3    0    0  0.21973309577E+02  0.58502621283E+02 -0.85844522636E+02  0.10618693468E+03  0.10000000000E+01 0.  0.
<mgrwt>
<rscale>  0 0.12500225E+03</rscale>
<asrwt>0</asrwt>
<pdfrwt beam="2">  1        4 0.29584712E-01 0.12500225E+03</pdfrwt>
<pdfrwt beam="1">  1       -4 0.31252274E-02 0.12500225E+03</pdfrwt>
<totfact> 0.88046224E+03</totfact>
</mgrwt>
</event>
<event>
 5    1  0.3401591E-002  0.1250000E+03  0.7818608E-02  0.1235069E+00
         -4   -1    0    0    0  501 -0.00000000000E+00  0.00000000000E+00  0.36412177744E+03  0.36412399221E+03  0.12700000000E+01 0. -1.
          4   -1    0    0  501    0  0.00000000000E+00 -0.00000000000E+00 -0.10688030712E+02  0.10763219802E+02  0.12700000000E+01 0. -1.
         25    2    1    2    0    0  0.00000000000E+00  0.00000000000E+00  0.35343374673E+03  0.37488721202E+03  0.12500003363E+03 0.  0.
    9000005    1    3    3    0    0  0.28206315464E+02 -0.44343472760E+02  0.75308706305E+02  0.91838668620E+02  0.10000000000E+01 0.  0.
    9000005    1    3    3    0    0 -0.28206315464E+02  0.44343472760E+02  0.27812504042E+03  0.28304854340E+03  0.10000000000E+01 0.  0.
<mgrwt>
<rscale>  0 0.12500003E+03</rscale>
<asrwt>0</asrwt>
<pdfrwt beam="2">  1        4 0.16502667E-02 0.12500003E+03</pdfrwt>
<pdfrwt beam="1">  1       -4 0.56024683E-01 0.12500003E+03</pdfrwt>
<totfact> 0.67070676E+03</totfact>
</mgrwt>
</event>
<event>
 5    1  0.3401591E-002  0.1249986E+03  0.7818608E-02  0.1235071E+00
         -4   -1    0    0    0  501 -0.00000000000E+00  0.00000000000E+00  0.29734715218E+02  0.29761824358E+02  0.12700000000E+01 0. -1.
          4   -1    0    0  501    0  0.00000000000E+00 -0.00000000000E+00 -0.13127711644E+03  0.13128325941E+03  0.12700000000E+01 0. -1.
         25    2    1    2    0    0  0.00000000000E+00  0.00000000000E+00 -0.10154240122E+03  0.16104508377E+03  0.12499863903E+03 0.  0.
    9000005    1    3    3    0    0  0.58054161201E+02 -0.40049707348E+00 -0.20978837110E+02  0.61737813673E+02  0.10000000000E+01 0.  0.
    9000005    1    3    3    0    0 -0.58054161201E+02  0.40049707348E+00 -0.80563564112E+02  0.99307270092E+02  0.10000000000E+01 0.  0.
<mgrwt>
<rscale>  0 0.12499864E+03</rscale>
<asrwt>0</asrwt>
<pdfrwt beam="2">  1        4 0.20199037E-01 0.12499864E+03</pdfrwt>
<pdfrwt beam="1">  1       -4 0.45771295E-02 0.12499864E+03</pdfrwt>
<totfact> 0.97144650E+03</totfact>
</mgrwt>
</event>
<event>
 5    1  0.3401591E-002  0.1250004E+03  0.7818608E-02  0.1235069E+00
          4   -1    0    0  501    0  0.00000000000E+00  0.00000000000E+00  0.48419257888E+01  0.50057112725E+01  0.12700000000E+01 0.  1.
         -4   -1    0    0    0  501 -0.00000000000E+00 -0.00000000000E+00 -0.79317821280E+03  0.79317922953E+03  0.12700000000E+01 0.  1.
         25    2    1    2    0    0  0.00000000000E+00  0.00000000000E+00 -0.78833628701E+03  0.79818494080E+03  0.12500039323E+03 0.  0.
    9000005    1    3    3    0    0 -0.45916696782E+02 -0.38935944765E+02 -0.50119342296E+03  0.50479718508E+03  0.10000000000E+01 0.  0.
    9000005    1    3    3    0    0  0.45916696782E+02  0.38935944765E+02 -0.28714286404E+03  0.29338775573E+03  0.10000000000E+01 0.  0.
<mgrwt>
<rscale>  0 0.12500039E+03</rscale>
<asrwt>0</asrwt>
<pdfrwt beam="1">  1        4 0.75758938E-03 0.12500039E+03</pdfrwt>
<pdfrwt beam="2">  1       -4 0.12203999E+00 0.12500039E+03</pdfrwt>
<totfact> 0.38345581E+03</totfact>
</mgrwt>
</event>
<event>
 5    1  0.3401591E-002  0.1250168E+03  0.7818608E-02  0.1235043E+00
          4   -1    0    0  501    0  0.00000000000E+00  0.00000000000E+00  0.74661507232E+02  0.74672307867E+02  0.12700000000E+01 0. -1.
         -4   -1    0    0    0  501 -0.00000000000E+00 -0.00000000000E+00 -0.52311225626E+02  0.52326639740E+02  0.12700000000E+01 0. -1.
         25    2    1    2    0    0  0.00000000000E+00  0.00000000000E+00  0.22350281607E+02  0.12699894761E+03  0.12501678929E+03 0.  0.
    9000005    1    3    3    0    0 -0.18140907966E+02 -0.59669736247E+02  0.15330154193E+02  0.64230706000E+02  0.10000000000E+01 0.  0.
    9000005    1    3    3    0    0  0.18140907966E+02  0.59669736247E+02  0.70201274134E+01  0.62768241608E+02  0.10000000000E+01 0.  0.
<mgrwt>
<rscale>  0 0.12501679E+03</rscale>
<asrwt>0</asrwt>
<pdfrwt beam="1">  1        4 0.11488402E-01 0.12501679E+03</pdfrwt>
<pdfrwt beam="2">  1       -4 0.80498973E-02 0.12501679E+03</pdfrwt>
<totfact> 0.10405225E+04</totfact>
</mgrwt>
</event>
<event>
 5    1  0.3401591E-002  0.1249992E+03  0.7818608E-02  0.1235070E+00
         -4   -1    0    0    0  501 -0.00000000000E+00  0.00000000000E+00  0.44287001635E+02  0.44305207525E+02  0.12700000000E+01 0.  1.
          4   -1    0    0  501    0  0.00000000000E+00 -0.00000000000E+00 -0.88161107231E+02  0.88170254215E+02  0.12700000000E+01 0.  1.
         25    2    1    2    0    0  0.00000000000E+00  0.00000000000E+00 -0.43874105596E+02  0.13247546174E+03  0.12499924328E+03 0.  0.
    9000005    1    3    3    0    0 -0.94106117018E+01 -0.44213430704E+02  0.23792441097E+02  0.51092732561E+02  0.10000000000E+01 0.  0.
    9000005    1    3    3    0    0  0.94106117018E+01  0.44213430704E+02 -0.67666546693E+02  0.81382729179E+02  0.10000000000E+01 0.  0.
<mgrwt>
<rscale>  0 0.12499924E+03</rscale>
<asrwt>0</asrwt>
<pdfrwt beam="2">  1        4 0.13565351E-01 0.12499924E+03</pdfrwt>
<pdfrwt beam="1">  1       -4 0.68154889E-02 0.12499924E+03</pdfrwt>
<totfact> 0.10291736E+04</totfact>
</mgrwt>
</event>
<event>
 5    1  0.3401591E-002  0.1249973E+03  0.7818608E-02  0.1235073E+00
         -4   -1    0    0    0  501 -0.00000000000E+00  0.00000000000E+00  0.22154062697E+04  0.22154066337E+04  0.12700000000E+01 0.  1.
          4   -1    0    0  501    0  0.00000000000E+00 -0.00000000000E+00 -0.15340380815E+01  0.19915252536E+01  0.12700000000E+01 0.  1.
         25    2    1    2    0    0  0.00000000000E+00  0.00000000000E+00  0.22138722316E+04  0.22173981590E+04  0.12499734991E+03 0.  0.
    9000005    1    3    3    0    0  0.25404201979E+02  0.26919450587E+02  0.21376125553E+03  0.21694447369E+03  0.10000000000E+01 0.  0.
    9000005    1    3    3    0    0 -0.25404201979E+02 -0.26919450587E+02  0.20001109761E+04  0.20004536853E+04  0.10000000000E+01 0.  0.
<mgrwt>
<rscale>  0 0.12499735E+03</rscale>
<asrwt>0</asrwt>
<pdfrwt beam="2">  1        4 0.27122253E-03 0.12499735E+03</pdfrwt>
<pdfrwt beam="1">  1       -4 0.34087029E+00 0.12499735E+03</pdfrwt>
<totfact> 0.72841078E+02</totfact>
</mgrwt>
</event>
<event>
 5    1  0.3401591E-002  0.1250029E+03  0.7818608E-02  0.1235065E+00
          4   -1    0    0  501    0  0.00000000000E+00  0.00000000000E+00  0.76254735982E+02  0.76265310985E+02  0.12700000000E+01 0.  1.
         -4   -1    0    0    0  501 -0.00000000000E+00 -0.00000000000E+00 -0.51206685621E+02  0.51222432120E+02  0.12700000000E+01 0.  1.
         25    2    1    2    0    0  0.00000000000E+00  0.00000000000E+00  0.25048050361E+02  0.12748774310E+03  0.12500287923E+03 0.  0.
    9000005    1    3    3    0    0  0.31912393136E+02  0.53624749643E+02  0.90782025732E+01  0.63066856366E+02  0.10000000000E+01 0.  0.
    9000005    1    3    3    0    0 -0.31912393136E+02 -0.53624749643E+02  0.15969847788E+02  0.64420886739E+02  0.10000000000E+01 0.  0.
<mgrwt>
<rscale>  0 0.12500288E+03</rscale>
<asrwt>0</asrwt>
<pdfrwt beam="1">  1        4 0.11733523E-01 0.12500288E+03</pdfrwt>
<pdfrwt beam="2">  1       -4 0.78799764E-02 0.12500288E+03</pdfrwt>
<totfact> 0.10397890E+04</totfact>
</mgrwt>
</event>
<event>
 5    1  0.3401591E-002  0.1250027E+03  0.7818608E-02  0.1235065E+00
          4   -1    0    0  501    0  0.00000000000E+00  0.00000000000E+00  0.23528143617E+02  0.23562394659E+02  0.12700000000E+01 0.  1.
         -4   -1    0    0    0  501 -0.00000000000E+00 -0.00000000000E+00 -0.16587430857E+03  0.16587917032E+03  0.12700000000E+01 0.  1.
         25    2    1    2    0    0  0.00000000000E+00  0.00000000000E+00 -0.14234616496E+03  0.18944156497E+03  0.12500270342E+03 0.  0.
    9000005    1    3    3    0    0 -0.50699889336E+02 -0.35884782132E+02 -0.60758765147E+02  0.86895476922E+02  0.10000000000E+01 0.  0.
    9000005    1    3    3    0    0  0.50699889336E+02  0.35884782132E+02 -0.81587399808E+02  0.10254608805E+03  0.10000000000E+01 0.  0.
<mgrwt>
<rscale>  0 0.12500270E+03</rscale>
<asrwt>0</asrwt>
<pdfrwt beam="1">  1        4 0.36227232E-02 0.12500270E+03</pdfrwt>
<pdfrwt beam="2">  1       -4 0.25522132E-01 0.12500270E+03</pdfrwt>
<totfact> 0.91939004E+03</totfact>
</mgrwt>
</event>
<event>
 5    1  0.3401591E-002  0.1249909E+03  0.7818608E-02  0.1235083E+00
         -4   -1    0    0    0  501 -0.00000000000E+00  0.00000000000E+00  0.19859072921E+02  0.19899640130E+02  0.12700000000E+01 0. -1.
          4   -1    0    0  501    0  0.00000000000E+00 -0.00000000000E+00 -0.19642670616E+03  0.19643081172E+03  0.12700000000E+01 0. -1.
         25    2    1    2    0    0  0.00000000000E+00  0.00000000000E+00 -0.17656763324E+03  0.21633045185E+03  0.12499094083E+03 0.  0.
    9000005    1    3    3    0    0 -0.23098622692E+02 -0.58061486237E+02 -0.88222181333E+02  0.10811491957E+03  0.10000000000E+01 0.  0.
    9000005    1    3    3    0    0  0.23098622692E+02  0.58061486237E+02 -0.88345451906E+02  0.10821553228E+03  0.10000000000E+01 0.  0.
<mgrwt>
<rscale>  0 0.12499094E+03</rscale>
<asrwt>0</asrwt>
<pdfrwt beam="2">  1        4 0.30222928E-01 0.12499094E+03</pdfrwt>
<pdfrwt beam="1">  1       -4 0.30586785E-02 0.12499094E+03</pdfrwt>
<totfact> 0.87470064E+03</totfact>
</mgrwt>
</event>
<event>
 5    1  0.3401591E-002  0.1249966E+03  0.7818608E-02  0.1235075E+00
          4   -1    0    0  501    0  0.00000000000E+00  0.00000000000E+00  0.87085407993E+02  0.87094667950E+02  0.12700000000E+01 0.  1.
         -4   -1    0    0    0  501 -0.00000000000E+00 -0.00000000000E+00 -0.44832327271E+02  0.44850311800E+02  0.12700000000E+01 0.  1.
         25    2    1    2    0    0  0.00000000000E+00  0.00000000000E+00  0.42253080722E+02  0.13194497975E+03  0.12499661936E+03 0.  0.
    9000005    1    3    3    0    0  0.31701740425E+01  0.68392623535E+01  0.86608876670E+02  0.86942067097E+02  0.10000000000E+01 0.  0.
    9000005    1    3    3    0    0 -0.31701740425E+01 -0.68392623535E+01 -0.44355795949E+02  0.45002912653E+02  0.10000000000E+01 0.  0.
<mgrwt>
<rscale>  0 0.12499662E+03</rscale>
<asrwt>0</asrwt>
<pdfrwt beam="1">  1        4 0.13399851E-01 0.12499662E+03</pdfrwt>
<pdfrwt beam="2">  1       -4 0.68993769E-02 0.12499662E+03</pdfrwt>
<totfact> 0.10303659E+04</totfact>
</mgrwt>
</event>
<event>
 5    1  0.3401591E-002  0.1249931E+03  0.7818608E-02  0.1235080E+00
          4   -1    0    0  501    0  0.00000000000E+00  0.00000000000E+00  0.14025971582E+03  0.14026546540E+03  0.12700000000E+01 0. -1.
         -4   -1    0    0    0  501 -0.00000000000E+00 -0.00000000000E+00 -0.27826231207E+02  0.27855197777E+02  0.12700000000E+01 0. -1.
         25    2    1    2    0    0  0.00000000000E+00  0.00000000000E+00  0.11243348462E+03  0.16812066317E+03  0.12499307550E+03 0.  0.
    9000005    1    3    3    0    0  0.21045584841E+01  0.60539495173E+02  0.76851493802E+02  0.97860164223E+02  0.10000000000E+01 0.  0.
    9000005    1    3    3    0    0 -0.21045584841E+01 -0.60539495173E+02  0.35581990815E+02  0.70260498949E+02  0.10000000000E+01 0.  0.
<mgrwt>
<rscale>  0 0.12499308E+03</rscale>
<asrwt>0</asrwt>
<pdfrwt beam="1">  1        4 0.21581088E-01 0.12499308E+03</pdfrwt>
<pdfrwt beam="2">  1       -4 0.42836291E-02 0.12499308E+03</pdfrwt>
<totfact> 0.95814529E+03</totfact>
</mgrwt>
</event>
<event>
 5    1  0.3401591E-002  0.1249980E+03  0.7818608E-02  0.1235072E+00
          4   -1    0    0  501    0  0.00000000000E+00  0.00000000000E+00  0.33383376457E+02  0.33407524956E+02  0.12700000000E+01 0.  1.
         -4   -1    0    0    0  501 -0.00000000000E+00 -0.00000000000E+00 -0.11693826138E+03  0.11694515755E+03  0.12700000000E+01 0.  1.
         25    2    1    2    0    0  0.00000000000E+00  0.00000000000E+00 -0.83554884920E+02  0.15035268250E+03  0.12499804135E+03 0.  0.
    9000005    1    3    3    0    0 -0.10372024232E+02  0.56575824672E+02 -0.12394519071E+02  0.58847488706E+02  0.10000000000E+01 0.  0.
    9000005    1    3    3    0    0  0.10372024232E+02 -0.56575824672E+02 -0.71160365850E+02  0.91505193797E+02  0.10000000000E+01 0.  0.
<mgrwt>
<rscale>  0 0.12499804E+03</rscale>
<asrwt>0</asrwt>
<pdfrwt beam="1">  1        4 0.51382922E-02 0.12499804E+03</pdfrwt>
<pdfrwt beam="2">  1       -4 0.17992890E-01 0.12499804E+03</pdfrwt>
<totfact> 0.99237817E+03</totfact>
</mgrwt>
</event>
<event>
 5    1  0.3401591E-002  0.1250005E+03  0.7818608E-02  0.1235068E+00
          4   -1    0    0  501    0  0.00000000000E+00  0.00000000000E+00  0.53582797809E+02  0.53597846235E+02  0.12700000000E+01 0. -1.
         -4   -1    0    0    0  501 -0.00000000000E+00 -0.00000000000E+00 -0.72870977060E+02  0.72882043040E+02  0.12700000000E+01 0. -1.
         25    2    1    2    0    0  0.00000000000E+00  0.00000000000E+00 -0.19288179251E+02  0.12647988927E+03  0.12500051413E+03 0.  0.
    9000005    1    3    3    0    0  0.54604263490E+02  0.90696396445E+01 -0.38994248820E+02  0.67715843018E+02  0.10000000000E+01 0.  0.
    9000005    1    3    3    0    0 -0.54604263490E+02 -0.90696396445E+01  0.19706069569E+02  0.58764046257E+02  0.10000000000E+01 0.  0.
<mgrwt>
<rscale>  0 0.12500051E+03</rscale>
<asrwt>0</asrwt>
<pdfrwt beam="1">  1        4 0.82455162E-02 0.12500051E+03</pdfrwt>
<pdfrwt beam="2">  1       -4 0.11212928E-01 0.12500051E+03</pdfrwt>
<totfact> 0.10420346E+04</totfact>
</mgrwt>
</event>
<event>
 5    1  0.3401591E-002  0.1250022E+03  0.7818608E-02  0.1235066E+00
         -4   -1    0    0    0  501 -0.00000000000E+00  0.00000000000E+00  0.40574610442E+02  0.40594481306E+02  0.12700000000E+01 0.  1.
          4   -1    0    0  501    0  0.00000000000E+00 -0.00000000000E+00 -0.96228963583E+02  0.96237343751E+02  0.12700000000E+01 0.  1.
         25    2    1    2    0    0  0.00000000000E+00  0.00000000000E+00 -0.55654353141E+02  0.13683182506E+03  0.12500216528E+03 0.  0.
    9000005    1    3    3    0    0 -0.16466180181E+02  0.12838599022E+02  0.36648819649E+02  0.42191239568E+02  0.10000000000E+01 0.  0.
    9000005    1    3    3    0    0  0.16466180181E+02 -0.12838599022E+02 -0.92303172790E+02  0.94640585489E+02  0.10000000000E+01 0.  0.
<mgrwt>
<rscale>  0 0.12500217E+03</rscale>
<asrwt>0</asrwt>
<pdfrwt beam="2">  1        4 0.14806629E-01 0.12500217E+03</pdfrwt>
<pdfrwt beam="1">  1       -4 0.62444210E-02 0.12500217E+03</pdfrwt>
<totfact> 0.10199105E+04</totfact>
</mgrwt>
</event>
<event>
 5    1  0.3401591E-002  0.1249987E+03  0.7818608E-02  0.1235071E+00
         -4   -1    0    0    0  501 -0.00000000000E+00  0.00000000000E+00  0.34752204057E+02  0.34775402037E+02  0.12700000000E+01 0.  1.
          4   -1    0    0  501    0  0.00000000000E+00 -0.00000000000E+00 -0.11233638454E+03  0.11234356319E+03  0.12700000000E+01 0.  1.
         25    2    1    2    0    0  0.00000000000E+00  0.00000000000E+00 -0.77584180478E+02  0.14711896523E+03  0.12499873947E+03 0.  0.
    9000005    1    3    3    0    0 -0.11756755148E+02  0.37396048126E+02 -0.96071481551E+02  0.10376615669E+03  0.10000000000E+01 0.  0.
    9000005    1    3    3    0    0  0.11756755148E+02 -0.37396048126E+02  0.18487301072E+02  0.43352808537E+02  0.10000000000E+01 0.  0.
<mgrwt>
<rscale>  0 0.12499874E+03</rscale>
<asrwt>0</asrwt>
<pdfrwt beam="2">  1        4 0.17284857E-01 0.12499874E+03</pdfrwt>
<pdfrwt beam="1">  1       -4 0.53488297E-02 0.12499874E+03</pdfrwt>
<totfact> 0.99883955E+03</totfact>
</mgrwt>
</event>
<event>
 5    1  0.3401591E-002  0.1250024E+03  0.7818608E-02  0.1235066E+00
         -4   -1    0    0    0  501 -0.00000000000E+00  0.00000000000E+00  0.28639120607E+02  0.28667265812E+02  0.12700000000E+01 0.  1.
          4   -1    0    0  501    0  0.00000000000E+00 -0.00000000000E+00 -0.13630266800E+03  0.13630858448E+03  0.12700000000E+01 0.  1.
         25    2    1    2    0    0  0.00000000000E+00  0.00000000000E+00 -0.10766354739E+03  0.16497585029E+03  0.12500236695E+03 0.  0.
    9000005    1    3    3    0    0 -0.46511147905E+01 -0.56657862584E+02 -0.19577099935E+02  0.60133261206E+02  0.10000000000E+01 0.  0.
    9000005    1    3    3    0    0  0.46511147905E+01  0.56657862584E+02 -0.88086447454E+02  0.10484258909E+03  0.10000000000E+01 0.  0.
<mgrwt>
<rscale>  0 0.12500237E+03</rscale>
<asrwt>0</asrwt>
<pdfrwt beam="2">  1        4 0.20972261E-01 0.12500237E+03</pdfrwt>
<pdfrwt beam="1">  1       -4 0.44086388E-02 0.12500237E+03</pdfrwt>
<totfact> 0.96386841E+03</totfact>
</mgrwt>
</event>
<event>
 5    1  0.3401591E-002  0.1250006E+03  0.7818608E-02  0.1235068E+00
          4   -1    0    0  501    0  0.00000000000E+00  0.00000000000E+00  0.10434096853E+04  0.10434104582E+04  0.12700000000E+01 0.  1.
         -4   -1    0    0    0  501 -0.00000000000E+00 -0.00000000000E+00 -0.36352698026E+01  0.38507254560E+01  0.12700000000E+01 0.  1.
         25    2    1    2    0    0  0.00000000000E+00  0.00000000000E+00  0.10397744155E+04  0.10472611837E+04  0.12500060666E+03 0.  0.
    9000005    1    3    3    0    0  0.23555213420E+02 -0.51161318053E+01  0.10029356732E+04  0.10032257909E+04  0.10000000000E+01 0.  0.
    9000005    1    3    3    0    0 -0.23555213420E+02  0.51161318053E+01  0.36838742299E+02  0.44035392789E+02  0.10000000000E+01 0.  0.
<mgrwt>
<rscale>  0 0.12500061E+03</rscale>
<asrwt>0</asrwt>
<pdfrwt beam="1">  1        4 0.16054099E+00 0.12500061E+03</pdfrwt>
<pdfrwt beam="2">  1       -4 0.57590598E-03 0.12500061E+03</pdfrwt>
<totfact> 0.29080094E+03</totfact>
</mgrwt>
</event>
<event>
 5    1  0.3401591E-002  0.1250028E+03  0.7818608E-02  0.1235065E+00
          4   -1    0    0  501    0  0.00000000000E+00  0.00000000000E+00  0.18532265752E+02  0.18575730777E+02  0.12700000000E+01 0. -1.
         -4   -1    0    0    0  501 -0.00000000000E+00 -0.00000000000E+00 -0.21049832167E+03  0.21050215278E+03  0.12700000000E+01 0. -1.
         25    2    1    2    0    0  0.00000000000E+00  0.00000000000E+00 -0.19196605592E+03  0.22907788356E+03  0.12500284041E+03 0.  0.
    9000005    1    3    3    0    0 -0.24415182755E+02  0.53345582233E+02 -0.56526088620E+02  0.81474235114E+02  0.10000000000E+01 0.  0.
    9000005    1    3    3    0    0  0.24415182755E+02 -0.53345582233E+02 -0.13543996730E+03  0.14760364844E+03  0.10000000000E+01 0.  0.
<mgrwt>
<rscale>  0 0.12500284E+03</rscale>
<asrwt>0</asrwt>
<pdfrwt beam="1">  1        4 0.28547561E-02 0.12500284E+03</pdfrwt>
<pdfrwt beam="2">  1       -4 0.32387994E-01 0.12500284E+03</pdfrwt>
<totfact> 0.85445975E+03</totfact>
</mgrwt>
</event>
<event>
 5    1  0.3401591E-002  0.1250012E+03  0.7818608E-02  0.1235067E+00
          4   -1    0    0  501    0  0.00000000000E+00  0.00000000000E+00  0.47681048430E+01  0.49343412725E+01  0.12700000000E+01 0.  1.
         -4   -1    0    0    0  501 -0.00000000000E+00 -0.00000000000E+00 -0.80505833864E+03  0.80505934037E+03  0.12700000000E+01 0.  1.
         25    2    1    2    0    0  0.00000000000E+00  0.00000000000E+00 -0.80029023380E+03  0.80999368165E+03  0.12500122394E+03 0.  0.
    9000005    1    3    3    0    0 -0.60260302629E+02  0.10672811392E+02 -0.48213898397E+03  0.48600844935E+03  0.10000000000E+01 0.  0.
    9000005    1    3    3    0    0  0.60260302629E+02 -0.10672811392E+02 -0.31815124983E+03  0.32398523229E+03  0.10000000000E+01 0.  0.
<mgrwt>
<rscale>  0 0.12500122E+03</rscale>
<asrwt>0</asrwt>
<pdfrwt beam="1">  1        4 0.74641971E-03 0.12500122E+03</pdfrwt>
<pdfrwt beam="2">  1       -4 0.12386789E+00 0.12500122E+03</pdfrwt>
<totfact> 0.37821476E+03</totfact>
</mgrwt>
</event>
<event>
 5    1  0.3401591E-002  0.1250031E+03  0.7818608E-02  0.1235064E+00
          4   -1    0    0  501    0  0.00000000000E+00  0.00000000000E+00  0.19675812209E+04  0.19675816308E+04  0.12700000000E+01 0.  1.
         -4   -1    0    0    0  501 -0.00000000000E+00 -0.00000000000E+00 -0.17818576028E+01  0.21881308271E+01  0.12700000000E+01 0.  1.
         25    2    1    2    0    0  0.00000000000E+00  0.00000000000E+00  0.19657993633E+04  0.19697697616E+04  0.12500310779E+03 0.  0.
    9000005    1    3    3    0    0  0.41919220956E+02 -0.30746198017E+02  0.43637671346E+03  0.43946352048E+03  0.10000000000E+01 0.  0.
    9000005    1    3    3    0    0 -0.41919220956E+02  0.30746198017E+02  0.15294226498E+04  0.15303062411E+04  0.10000000000E+01 0.  0.
<mgrwt>
<rscale>  0 0.12500311E+03</rscale>
<asrwt>0</asrwt>
<pdfrwt beam="1">  1        4 0.30273653E+00 0.12500311E+03</pdfrwt>
<pdfrwt beam="2">  1       -4 0.30541481E-03 0.12500311E+03</pdfrwt>
<totfact> 0.10260320E+03</totfact>
</mgrwt>
</event>
<event>
 5    1  0.3401591E-002  0.1250020E+03  0.7818608E-02  0.1235066E+00
         -4   -1    0    0    0  501 -0.00000000000E+00  0.00000000000E+00  0.26041900012E+02  0.26072849025E+02  0.12700000000E+01 0.  1.
          4   -1    0    0  501    0  0.00000000000E+00 -0.00000000000E+00 -0.14988069910E+03  0.14988607962E+03  0.12700000000E+01 0.  1.
         25    2    1    2    0    0  0.00000000000E+00  0.00000000000E+00 -0.12383879909E+03  0.17595892864E+03  0.12500198562E+03 0.  0.
    9000005    1    3    3    0    0 -0.30727920598E+02  0.53169166090E+02 -0.78226804422E+02  0.99456514402E+02  0.10000000000E+01 0.  0.
    9000005    1    3    3    0    0  0.30727920598E+02 -0.53169166090E+02 -0.45611994666E+02  0.76502414239E+02  0.10000000000E+01 0.  0.
<mgrwt>
<rscale>  0 0.12500199E+03</rscale>
<asrwt>0</asrwt>
<pdfrwt beam="2">  1        4 0.23061363E-01 0.12500199E+03</pdfrwt>
<pdfrwt beam="1">  1       -4 0.40092408E-02 0.12500199E+03</pdfrwt>
<totfact> 0.94345306E+03</totfact>
</mgrwt>
</event>
<event>
 5    1  0.3401591E-002  0.1250001E+03  0.7818608E-02  0.1235069E+00
          4   -1    0    0  501    0  0.00000000000E+00  0.00000000000E+00  0.16549257004E+01  0.20860678498E+01  0.12700000000E+01 0.  1.
         -4   -1    0    0    0  501 -0.00000000000E+00 -0.00000000000E+00 -0.20879210186E+04  0.20879214049E+04  0.12700000000E+01 0.  1.
         25    2    1    2    0    0  0.00000000000E+00  0.00000000000E+00 -0.20862660929E+04  0.20900074727E+04  0.12500010216E+03 0.  0.
    9000005    1    3    3    0    0 -0.27543775254E+02  0.42072351313E+02 -0.42279588178E+03  0.42577705428E+03  0.10000000000E+01 0.  0.
    9000005    1    3    3    0    0  0.27543775254E+02 -0.42072351313E+02 -0.16634702111E+04  0.16642304184E+04  0.10000000000E+01 0.  0.
<mgrwt>
<rscale>  0 0.12500010E+03</rscale>
<asrwt>0</asrwt>
<pdfrwt beam="1">  1        4 0.28780012E-03 0.12500010E+03</pdfrwt>
<pdfrwt beam="2">  1       -4 0.32124995E+00 0.12500010E+03</pdfrwt>
<totfact> 0.87319457E+02</totfact>
</mgrwt>
</event>
<event>
 5    1  0.3401591E-002  0.1250016E+03  0.7818608E-02  0.1235067E+00
          4   -1    0    0  501    0  0.00000000000E+00  0.00000000000E+00  0.93102096056E+03  0.93102182676E+03  0.12700000000E+01 0. -1.
         -4   -1    0    0    0  501 -0.00000000000E+00 -0.00000000000E+00 -0.40987764312E+01  0.42910218169E+01  0.12700000000E+01 0. -1.
         25    2    1    2    0    0  0.00000000000E+00  0.00000000000E+00  0.92692218413E+03  0.93531284858E+03  0.12500155712E+03 0.  0.
    9000005    1    3    3    0    0  0.32441058526E+02 -0.35428523217E+02  0.76254647036E+03  0.76405871633E+03  0.10000000000E+01 0.  0.
    9000005    1    3    3    0    0 -0.32441058526E+02  0.35428523217E+02  0.16437571377E+03  0.17125413225E+03  0.10000000000E+01 0.  0.
<mgrwt>
<rscale>  0 0.12500156E+03</rscale>
<asrwt>0</asrwt>
<pdfrwt beam="1">  1        4 0.14324902E+00 0.12500156E+03</pdfrwt>
<pdfrwt beam="2">  1       -4 0.64543494E-03 0.12500156E+03</pdfrwt>
<totfact> 0.32842074E+03</totfact>
</mgrwt>
</event>
<event>
 5    1  0.3401591E-002  0.1249980E+03  0.7818608E-02  0.1235072E+00
          4   -1    0    0  501    0  0.00000000000E+00  0.00000000000E+00  0.25872627365E+02  0.25903778620E+02  0.12700000000E+01 0.  1.
         -4   -1    0    0    0  501 -0.00000000000E+00 -0.00000000000E+00 -0.15085052372E+03  0.15085586964E+03  0.12700000000E+01 0.  1.
         25    2    1    2    0    0  0.00000000000E+00  0.00000000000E+00 -0.12497789635E+03  0.17675964826E+03  0.12499799469E+03 0.  0.
    9000005    1    3    3    0    0  0.52878814649E+02 -0.86695124431E+01 -0.17021839738E+02  0.56232308442E+02  0.10000000000E+01 0.  0.
    9000005    1    3    3    0    0 -0.52878814649E+02  0.86695124431E+01 -0.10795605661E+03  0.12052733982E+03  0.10000000000E+01 0.  0.
<mgrwt>
<rscale>  0 0.12499799E+03</rscale>
<asrwt>0</asrwt>
<pdfrwt beam="1">  1        4 0.39832118E-02 0.12499799E+03</pdfrwt>
<pdfrwt beam="2">  1       -4 0.23210580E-01 0.12499799E+03</pdfrwt>
<totfact> 0.94207788E+03</totfact>
</mgrwt>
</event>
<event>
 5    1  0.3401591E-002  0.1250007E+03  0.7818608E-02  0.1235068E+00
         -4   -1    0    0    0  501 -0.00000000000E+00  0.00000000000E+00  0.14412542836E+02  0.14468389372E+02  0.12700000000E+01 0. -1.
          4   -1    0    0  501    0  0.00000000000E+00 -0.00000000000E+00 -0.27045282088E+03  0.27045580271E+03  0.12700000000E+01 0. -1.
         25    2    1    2    0    0  0.00000000000E+00  0.00000000000E+00 -0.25604027804E+03  0.28492419208E+03  0.12500068502E+03 0.  0.
    9000005    1    3    3    0    0 -0.46922445892E+02 -0.39175364490E+02 -0.15764049200E+03  0.16907971442E+03  0.10000000000E+01 0.  0.
    9000005    1    3    3    0    0  0.46922445892E+02  0.39175364490E+02 -0.98399786042E+02  0.11584447766E+03  0.10000000000E+01 0.  0.
<mgrwt>
<rscale>  0 0.12500069E+03</rscale>
<asrwt>0</asrwt>
<pdfrwt beam="2">  1        4 0.41612648E-01 0.12500069E+03</pdfrwt>
<pdfrwt beam="1">  1       -4 0.22218397E-02 0.12500069E+03</pdfrwt>
<totfact> 0.77528513E+03</totfact>
</mgrwt>
</event>
<event>
 4    1  0.3401591E-002  0.1217619E+03  0.7818608E-02  0.1240218E+00
          4   -1    0    0  501    0  0.00000000000E+00  0.00000000000E+00  0.46078415252E+02  0.46095913616E+02  0.12700000000E+01 0. -1.
         -4   -1    0    0    0  501 -0.00000000000E+00 -0.00000000000E+00 -0.80401022608E+02  0.80411052327E+02  0.12700000000E+01 0. -1.
    9000005    1    1    2    0    0  0.18486554590E+02 -0.56001272943E+02 -0.32835547652E+02  0.67506062405E+02  0.10000000000E+01 0.  0.
    9000005    1    1    2    0    0 -0.18486554590E+02  0.56001272943E+02 -0.14870597045E+01  0.59000903539E+02  0.10000000000E+01 0.  0.
<mgrwt>
<rscale>  0 0.12176194E+03</rscale>
<asrwt>0</asrwt>
<pdfrwt beam="1">  1        4 0.70911045E-02 0.12176194E+03</pdfrwt>
<pdfrwt beam="2">  1       -4 0.12371506E-01 0.12176194E+03</pdfrwt>
<totfact> 0.11219750E+04</totfact>
</mgrwt>
</event>
<event>
 5    1  0.3401591E-002  0.1250005E+03  0.7818608E-02  0.1235068E+00
          4   -1    0    0  501    0  0.00000000000E+00  0.00000000000E+00  0.77083211946E+02  0.77093673306E+02  0.12700000000E+01 0.  1.
         -4   -1    0    0    0  501 -0.00000000000E+00 -0.00000000000E+00 -0.50654321130E+02  0.50670239284E+02  0.12700000000E+01 0.  1.
         25    2    1    2    0    0  0.00000000000E+00  0.00000000000E+00  0.26428890816E+02  0.12776391259E+03  0.12500052436E+03 0.  0.
    9000005    1    3    3    0    0 -0.13072193377E+02 -0.49356492868E+02 -0.23614570065E+02  0.56263607663E+02  0.10000000000E+01 0.  0.
    9000005    1    3    3    0    0  0.13072193377E+02  0.49356492868E+02  0.50043460880E+02  0.71500304928E+02  0.10000000000E+01 0.  0.
<mgrwt>
<rscale>  0 0.12500052E+03</rscale>
<asrwt>0</asrwt>
<pdfrwt beam="1">  1        4 0.11860985E-01 0.12500052E+03</pdfrwt>
<pdfrwt beam="2">  1       -4 0.77950018E-02 0.12500052E+03</pdfrwt>
<totfact> 0.10392466E+04</totfact>
</mgrwt>
</event>
<event>
 5    1  0.3401591E-002  0.1250174E+03  0.7818608E-02  0.1235042E+00
         -4   -1    0    0    0  501 -0.00000000000E+00  0.00000000000E+00  0.25121976720E+02  0.25154057611E+02  0.12700000000E+01 0. -1.
          4   -1    0    0  501    0  0.00000000000E+00 -0.00000000000E+00 -0.15540068568E+03  0.15540587508E+03  0.12700000000E+01 0. -1.
         25    2    1    2    0    0  0.00000000000E+00  0.00000000000E+00 -0.13027870896E+03  0.18055993269E+03  0.12501738793E+03 0.  0.
    9000005    1    3    3    0    0  0.26830731429E+02  0.41378597994E+02 -0.96846942261E+01  0.50267980099E+02  0.10000000000E+01 0.  0.
    9000005    1    3    3    0    0 -0.26830731429E+02 -0.41378597994E+02 -0.12059401473E+03  0.13029195259E+03  0.10000000000E+01 0.  0.
<mgrwt>
<rscale>  0 0.12501739E+03</rscale>
<asrwt>0</asrwt>
<pdfrwt beam="2">  1        4 0.23910664E-01 0.12501739E+03</pdfrwt>
<pdfrwt beam="1">  1       -4 0.38677865E-02 0.12501739E+03</pdfrwt>
<totfact> 0.93479863E+03</totfact>
</mgrwt>
</event>
<event>
 5    1  0.3401591E-002  0.1249939E+03  0.7818608E-02  0.1235079E+00
          4   -1    0    0  501    0  0.00000000000E+00  0.00000000000E+00  0.64697121072E+03  0.64697245722E+03  0.12700000000E+01 0.  1.
         -4   -1    0    0    0  501 -0.00000000000E+00 -0.00000000000E+00 -0.59691021702E+01  0.61027109319E+01  0.12700000000E+01 0.  1.
         25    2    1    2    0    0  0.00000000000E+00  0.00000000000E+00  0.64100210855E+03  0.65307516815E+03  0.12499388821E+03 0.  0.
    9000005    1    3    3    0    0  0.17154239692E+02 -0.55295455488E+02  0.19763216288E+03  0.20594010571E+03  0.10000000000E+01 0.  0.
    9000005    1    3    3    0    0 -0.17154239692E+02  0.55295455488E+02  0.44336994567E+03  0.44713506244E+03  0.10000000000E+01 0.  0.
<mgrwt>
<rscale>  0 0.12499389E+03</rscale>
<asrwt>0</asrwt>
<pdfrwt beam="1">  1        4 0.99544382E-01 0.12499389E+03</pdfrwt>
<pdfrwt beam="2">  1       -4 0.92869711E-03 0.12499389E+03</pdfrwt>
<totfact> 0.45685954E+03</totfact>
</mgrwt>
</event>
<event>
 5    1  0.3401591E-002  0.1249990E+03  0.7818608E-02  0.1235071E+00
          4   -1    0    0  501    0  0.00000000000E+00  0.00000000000E+00  0.15430583059E+02  0.15482757943E+02  0.12700000000E+01 0. -1.
         -4   -1    0    0    0  501 -0.00000000000E+00 -0.00000000000E+00 -0.25266482596E+03  0.25266801771E+03  0.12700000000E+01 0. -1.
         25    2    1    2    0    0  0.00000000000E+00  0.00000000000E+00 -0.23723424290E+03  0.26815077566E+03  0.12499900993E+03 0.  0.
    9000005    1    3    3    0    0 -0.10253000286E+02 -0.61635628317E+02 -0.12088074130E+03  0.13607802288E+03  0.10000000000E+01 0.  0.
    9000005    1    3    3    0    0  0.10253000286E+02  0.61635628317E+02 -0.11635350160E+03  0.13207275278E+03  0.10000000000E+01 0.  0.
<mgrwt>
<rscale>  0 0.12499901E+03</rscale>
<asrwt>0</asrwt>
<pdfrwt beam="1">  1        4 0.23781950E-02 0.12499901E+03</pdfrwt>
<pdfrwt beam="2">  1       -4 0.38875767E-01 0.12499901E+03</pdfrwt>
<totfact> 0.79777409E+03</totfact>
</mgrwt>
</event>
<event>
 5    1  0.3401591E-002  0.1249987E+03  0.7818608E-02  0.1235071E+00
          4   -1    0    0  501    0  0.00000000000E+00  0.00000000000E+00  0.18440842684E+03  0.18441279997E+03  0.12700000000E+01 0.  1.
         -4   -1    0    0    0  501 -0.00000000000E+00 -0.00000000000E+00 -0.21158500482E+02  0.21196580919E+02  0.12700000000E+01 0.  1.
         25    2    1    2    0    0  0.00000000000E+00  0.00000000000E+00  0.16324992636E+03  0.20560938089E+03  0.12499871620E+03 0.  0.
    9000005    1    3    3    0    0  0.36636305245E+02  0.15162926381E+02  0.21741868023E+01  0.39722289545E+02  0.10000000000E+01 0.  0.
    9000005    1    3    3    0    0 -0.36636305245E+02 -0.15162926381E+02  0.16107573956E+03  0.16588709134E+03  0.10000000000E+01 0.  0.
<mgrwt>
<rscale>  0 0.12499872E+03</rscale>
<asrwt>0</asrwt>
<pdfrwt beam="1">  1        4 0.28373793E-01 0.12499872E+03</pdfrwt>
<pdfrwt beam="2">  1       -4 0.32584196E-02 0.12499872E+03</pdfrwt>
<totfact> 0.89200545E+03</totfact>
</mgrwt>
</event>
<event>
 5    1  0.3401591E-002  0.1249949E+03  0.7818608E-02  0.1235077E+00
          4   -1    0    0  501    0  0.00000000000E+00  0.00000000000E+00  0.48884220966E+02  0.48900715327E+02  0.12700000000E+01 0. -1.
         -4   -1    0    0    0  501 -0.00000000000E+00 -0.00000000000E+00 -0.79866594765E+02  0.79876691590E+02  0.12700000000E+01 0. -1.
         25    2    1    2    0    0  0.00000000000E+00  0.00000000000E+00 -0.30982373799E+02  0.12877740692E+03  0.12499485208E+03 0.  0.
    9000005    1    3    3    0    0  0.30867184253E+02  0.28361050366E+02  0.32255590576E+02  0.52901373942E+02  0.10000000000E+01 0.  0.
    9000005    1    3    3    0    0 -0.30867184253E+02 -0.28361050366E+02 -0.63237964376E+02  0.75876032974E+02  0.10000000000E+01 0.  0.
<mgrwt>
<rscale>  0 0.12499485E+03</rscale>
<asrwt>0</asrwt>
<pdfrwt beam="1">  1        4 0.75226949E-02 0.12499485E+03</pdfrwt>
<pdfrwt beam="2">  1       -4 0.12289214E-01 0.12499485E+03</pdfrwt>
<totfact> 0.10371938E+04</totfact>
</mgrwt>
</event>
<event>
 5    1  0.3401591E-002  0.1249998E+03  0.7818608E-02  0.1235070E+00
          4   -1    0    0  501    0  0.00000000000E+00  0.00000000000E+00  0.12839821083E+03  0.12840449153E+03  0.12700000000E+01 0. -1.
         -4   -1    0    0    0  501 -0.00000000000E+00 -0.00000000000E+00 -0.30402573112E+02  0.30429087266E+02  0.12700000000E+01 0. -1.
         25    2    1    2    0    0  0.00000000000E+00  0.00000000000E+00  0.97995637717E+02  0.15883357879E+03  0.12499984296E+03 0.  0.
    9000005    1    3    3    0    0  0.27436517191E+02 -0.37355085334E+02  0.10226111540E+03  0.11227867383E+03  0.10000000000E+01 0.  0.
    9000005    1    3    3    0    0 -0.27436517191E+02  0.37355085334E+02 -0.42654776791E+01  0.46554904959E+02  0.10000000000E+01 0.  0.
<mgrwt>
<rscale>  0 0.12499984E+03</rscale>
<asrwt>0</asrwt>
<pdfrwt beam="1">  1        4 0.19756093E-01 0.12499984E+03</pdfrwt>
<pdfrwt beam="2">  1       -4 0.46798417E-02 0.12499984E+03</pdfrwt>
<totfact> 0.97568478E+03</totfact>
</mgrwt>
</event>
<event>
 5    1  0.3401591E-002  0.1249941E+03  0.7818608E-02  0.1235079E+00
         -4   -1    0    0    0  501 -0.00000000000E+00  0.00000000000E+00  0.63924153483E+01  0.65173517616E+01  0.12700000000E+01 0.  1.
          4   -1    0    0  501    0  0.00000000000E+00 -0.00000000000E+00 -0.60497889100E+03  0.60498022402E+03  0.12700000000E+01 0.  1.
         25    2    1    2    0    0  0.00000000000E+00  0.00000000000E+00 -0.59858647565E+03  0.61149757578E+03  0.12499406527E+03 0.  0.
    9000005    1    3    3    0    0 -0.60115942106E+02  0.15993711697E+02 -0.27028700304E+03  0.27735498792E+03  0.10000000000E+01 0.  0.
    9000005    1    3    3    0    0  0.60115942106E+02 -0.15993711697E+02 -0.32829947261E+03  0.33414258786E+03  0.10000000000E+01 0.  0.
<mgrwt>
<rscale>  0 0.12499407E+03</rscale>
<asrwt>0</asrwt>
<pdfrwt beam="2">  1        4 0.93083344E-01 0.12499407E+03</pdfrwt>
<pdfrwt beam="1">  1       -4 0.99316203E-03 0.12499407E+03</pdfrwt>
<totfact> 0.48156083E+03</totfact>
</mgrwt>
</event>
<event>
 5    1  0.3401591E-002  0.1249979E+03  0.7818608E-02  0.1235073E+00
         -4   -1    0    0    0  501 -0.00000000000E+00  0.00000000000E+00  0.30241282190E+02  0.30267937632E+02  0.12700000000E+01 0. -1.
          4   -1    0    0  501    0  0.00000000000E+00 -0.00000000000E+00 -0.12907848256E+03  0.12908473016E+03  0.12700000000E+01 0. -1.
         25    2    1    2    0    0  0.00000000000E+00  0.00000000000E+00 -0.98837200374E+02  0.15935266779E+03  0.12499792220E+03 0.  0.
    9000005    1    3    3    0    0 -0.18452657065E+02 -0.44358009453E+02  0.15270581156E+01  0.48077702336E+02  0.10000000000E+01 0.  0.
    9000005    1    3    3    0    0  0.18452657065E+02  0.44358009453E+02 -0.10036425849E+03  0.11127496546E+03  0.10000000000E+01 0.  0.
<mgrwt>
<rscale>  0 0.12499792E+03</rscale>
<asrwt>0</asrwt>
<pdfrwt beam="2">  1        4 0.19860759E-01 0.12499792E+03</pdfrwt>
<pdfrwt beam="1">  1       -4 0.46550360E-02 0.12499792E+03</pdfrwt>
<totfact> 0.97472283E+03</totfact>
</mgrwt>
</event>
<event>
 5    1  0.3401591E-002  0.1250057E+03  0.7818608E-02  0.1235060E+00
          4   -1    0    0  501    0  0.00000000000E+00  0.00000000000E+00  0.23141166262E+03  0.23141514751E+03  0.12700000000E+01 0.  1.
         -4   -1    0    0    0  501 -0.00000000000E+00 -0.00000000000E+00 -0.16854124418E+02  0.16901905511E+02  0.12700000000E+01 0.  1.
         25    2    1    2    0    0  0.00000000000E+00  0.00000000000E+00  0.21455753820E+03  0.24831705302E+03  0.12500568636E+03 0.  0.
    9000005    1    3    3    0    0  0.45415105265E+02  0.42897697661E+02  0.11063883215E+03  0.12706177801E+03  0.10000000000E+01 0.  0.
    9000005    1    3    3    0    0 -0.45415105265E+02 -0.42897697661E+02  0.10391870605E+03  0.12125527501E+03  0.10000000000E+01 0.  0.
<mgrwt>
<rscale>  0 0.12500569E+03</rscale>
<asrwt>0</asrwt>
<pdfrwt beam="1">  1        4 0.35605736E-01 0.12500569E+03</pdfrwt>
<pdfrwt beam="2">  1       -4 0.25968859E-02 0.12500569E+03</pdfrwt>
<totfact> 0.82563616E+03</totfact>
</mgrwt>
</event>
<event>
 5    1  0.3401591E-002  0.1249962E+03  0.7818608E-02  0.1235075E+00
          4   -1    0    0  501    0  0.00000000000E+00  0.00000000000E+00  0.31731584382E+02  0.31756988954E+02  0.12700000000E+01 0.  1.
         -4   -1    0    0    0  501 -0.00000000000E+00 -0.00000000000E+00 -0.12301743966E+03  0.12302399506E+03  0.12700000000E+01 0.  1.
         25    2    1    2    0    0  0.00000000000E+00  0.00000000000E+00 -0.91285855274E+02  0.15478098401E+03  0.12499618249E+03 0.  0.
    9000005    1    3    3    0    0 -0.53884127324E+02 -0.30064244783E+02 -0.57879635094E+02  0.84607388274E+02  0.10000000000E+01 0.  0.
    9000005    1    3    3    0    0  0.53884127324E+02  0.30064244783E+02 -0.33406220180E+02  0.70173595736E+02  0.10000000000E+01 0.  0.
<mgrwt>
<rscale>  0 0.12499618E+03</rscale>
<asrwt>0</asrwt>
<pdfrwt beam="1">  1        4 0.48842407E-02 0.12499618E+03</pdfrwt>
<pdfrwt beam="2">  1       -4 0.18928218E-01 0.12499618E+03</pdfrwt>
<totfact> 0.98366957E+03</totfact>
</mgrwt>
</event>
<event>
 5    1  0.3401591E-002  0.1250006E+03  0.7818608E-02  0.1235068E+00
         -4   -1    0    0    0  501 -0.00000000000E+00  0.00000000000E+00  0.57818154378E+02  0.57832100737E+02  0.12700000000E+01 0.  1.
          4   -1    0    0  501    0  0.00000000000E+00 -0.00000000000E+00 -0.67533510555E+02  0.67545450978E+02  0.12700000000E+01 0.  1.
         25    2    1    2    0    0  0.00000000000E+00  0.00000000000E+00 -0.97153561767E+01  0.12537755172E+03  0.12500056931E+03 0.  0.
    9000005    1    3    3    0    0 -0.28311584728E+02  0.26111626353E+02 -0.54219131056E+02  0.66513735673E+02  0.10000000000E+01 0.  0.
    9000005    1    3    3    0    0  0.28311584728E+02 -0.26111626353E+02  0.44503774880E+02  0.58863816043E+02  0.10000000000E+01 0.  0.
<mgrwt>
<rscale>  0 0.12500057E+03</rscale>
<asrwt>0</asrwt>
<pdfrwt beam="2">  1        4 0.10391762E-01 0.12500057E+03</pdfrwt>
<pdfrwt beam="1">  1       -4 0.88970920E-02 0.12500057E+03</pdfrwt>
<totfact> 0.10444530E+04</totfact>
</mgrwt>
</event>
<event>
 4    1  0.3401591E-002  0.1249287E+03  0.7818608E-02  0.1235181E+00
         -4   -1    0    0    0  501 -0.00000000000E+00  0.00000000000E+00  0.36307334948E+03  0.36307557065E+03  0.12700000000E+01 0.  1.
          4   -1    0    0  501    0  0.00000000000E+00 -0.00000000000E+00 -0.10706796465E+02  0.10781854689E+02  0.12700000000E+01 0.  1.
    9000005    1    1    2    0    0 -0.49231374988E+02 -0.21179846135E+02  0.27215474871E+03  0.27738334740E+03  0.10000000000E+01 0.  0.
    9000005    1    1    2    0    0  0.49231374988E+02  0.21179846135E+02  0.80211804301E+02  0.96474077942E+02  0.10000000000E+01 0.  0.
<mgrwt>
<rscale>  0 0.12492873E+03</rscale>
<asrwt>0</asrwt>
<pdfrwt beam="2">  1        4 0.16531442E-02 0.12492873E+03</pdfrwt>
<pdfrwt beam="1">  1       -4 0.55863377E-01 0.12492873E+03</pdfrwt>
<totfact> 0.67283243E+03</totfact>
</mgrwt>
</event>
<event>
 5    1  0.3401591E-002  0.1249990E+03  0.7818608E-02  0.1235071E+00
         -4   -1    0    0    0  501 -0.00000000000E+00  0.00000000000E+00  0.30442442160E+03  0.30442707068E+03  0.12700000000E+01 0.  1.
          4   -1    0    0  501    0  0.00000000000E+00 -0.00000000000E+00 -0.12797257306E+02  0.12860120317E+02  0.12700000000E+01 0.  1.
         25    2    1    2    0    0  0.00000000000E+00  0.00000000000E+00  0.29162716429E+03  0.31728719100E+03  0.12499903448E+03 0.  0.
    9000005    1    3    3    0    0 -0.30361322834E+02 -0.52393856527E+02  0.10663265879E+03  0.12263135834E+03  0.10000000000E+01 0.  0.
    9000005    1    3    3    0    0  0.30361322834E+02  0.52393856527E+02  0.18499450550E+03  0.19465583266E+03  0.10000000000E+01 0.  0.
<mgrwt>
<rscale>  0 0.12499903E+03</rscale>
<asrwt>0</asrwt>
<pdfrwt beam="2">  1        4 0.19738482E-02 0.12499903E+03</pdfrwt>
<pdfrwt beam="1">  1       -4 0.46839566E-01 0.12499903E+03</pdfrwt>
<totfact> 0.73481514E+03</totfact>
</mgrwt>
</event>
<event>
 5    1  0.3401591E-002  0.1249985E+03  0.7818608E-02  0.1235072E+00
         -4   -1    0    0    0  501 -0.00000000000E+00  0.00000000000E+00  0.30423895325E+02  0.30450390913E+02  0.12700000000E+01 0.  1.
          4   -1    0    0  501    0  0.00000000000E+00 -0.00000000000E+00 -0.12830545957E+03  0.12831174480E+03  0.12700000000E+01 0.  1.
         25    2    1    2    0    0  0.00000000000E+00  0.00000000000E+00 -0.97881564242E+02  0.15876213572E+03  0.12499846047E+03 0.  0.
    9000005    1    3    3    0    0 -0.13264145145E+02  0.45842593091E+02 -0.10018275400E+03  0.11097326293E+03  0.10000000000E+01 0.  0.
    9000005    1    3    3    0    0  0.13264145145E+02 -0.45842593091E+02  0.23011897539E+01  0.47788872785E+02  0.10000000000E+01 0.  0.
<mgrwt>
<rscale>  0 0.12499846E+03</rscale>
<asrwt>0</asrwt>
<pdfrwt beam="2">  1        4 0.19741823E-01 0.12499846E+03</pdfrwt>
<pdfrwt beam="1">  1       -4 0.46831210E-02 0.12499846E+03</pdfrwt>
<totfact> 0.97585345E+03</totfact>
</mgrwt>
</event>
<event>
 5    1  0.3401591E-002  0.1249999E+03  0.7818608E-02  0.1235069E+00
          4   -1    0    0  501    0  0.00000000000E+00  0.00000000000E+00  0.10662685784E+04  0.10662693347E+04  0.12700000000E+01 0.  1.
         -4   -1    0    0    0  501 -0.00000000000E+00 -0.00000000000E+00 -0.35526265104E+01  0.37728046759E+01  0.12700000000E+01 0.  1.
         25    2    1    2    0    0  0.00000000000E+00  0.00000000000E+00  0.10627159519E+04  0.10700421394E+04  0.12499994281E+03 0.  0.
    9000005    1    3    3    0    0 -0.44929536695E+02 -0.26276823031E+02  0.82741607160E+03  0.82905216376E+03  0.10000000000E+01 0.  0.
    9000005    1    3    3    0    0  0.44929536695E+02  0.26276823031E+02  0.23529988030E+03  0.24098997565E+03  0.10000000000E+01 0.  0.
<mgrwt>
<rscale>  0 0.12499994E+03</rscale>
<asrwt>0</asrwt>
<pdfrwt beam="1">  1        4 0.16405855E+00 0.12499994E+03</pdfrwt>
<pdfrwt beam="2">  1       -4 0.56355207E-03 0.12499994E+03</pdfrwt>
<totfact> 0.28377126E+03</totfact>
</mgrwt>
</event>
<event>
 5    1  0.3401591E-002  0.1249970E+03  0.7818608E-02  0.1235074E+00
          4   -1    0    0  501    0  0.00000000000E+00  0.00000000000E+00  0.21950001090E+03  0.21950368490E+03  0.12700000000E+01 0.  1.
         -4   -1    0    0    0  501 -0.00000000000E+00 -0.00000000000E+00 -0.17768777298E+02  0.17814105272E+02  0.12700000000E+01 0.  1.
         25    2    1    2    0    0  0.00000000000E+00  0.00000000000E+00  0.20173123360E+03  0.23731779018E+03  0.12499697165E+03 0.  0.
    9000005    1    3    3    0    0 -0.27930409747E+02 -0.25345372966E+02  0.19546343489E+03  0.19907146983E+03  0.10000000000E+01 0.  0.
    9000005    1    3    3    0    0  0.27930409747E+02  0.25345372966E+02  0.62677987117E+01  0.38246320347E+02  0.10000000000E+01 0.  0.
<mgrwt>
<rscale>  0 0.12499697E+03</rscale>
<asrwt>0</asrwt>
<pdfrwt beam="1">  1        4 0.33773003E-01 0.12499697E+03</pdfrwt>
<pdfrwt beam="2">  1       -4 0.27374274E-02 0.12499697E+03</pdfrwt>
<totfact> 0.84204148E+03</totfact>
</mgrwt>
</event>
<event>
 5    1  0.3401591E-002  0.1249901E+03  0.7818608E-02  0.1235085E+00
         -4   -1    0    0    0  501 -0.00000000000E+00  0.00000000000E+00  0.10545987243E+03  0.10546751914E+03  0.12700000000E+01 0. -1.
          4   -1    0    0  501    0  0.00000000000E+00 -0.00000000000E+00 -0.37014430196E+02  0.37036211236E+02  0.12700000000E+01 0. -1.
         25    2    1    2    0    0  0.00000000000E+00  0.00000000000E+00  0.68445442239E+02  0.14250373038E+03  0.12499013804E+03 0.  0.
    9000005    1    3    3    0    0  0.13864866937E+02  0.18571150711E+02  0.10038417312E+03  0.10302962869E+03  0.10000000000E+01 0.  0.
    9000005    1    3    3    0    0 -0.13864866937E+02 -0.18571150711E+02 -0.31938730883E+02  0.39474101691E+02  0.10000000000E+01 0.  0.
<mgrwt>
<rscale>  0 0.12499014E+03</rscale>
<asrwt>0</asrwt>
<pdfrwt beam="2">  1        4 0.56967914E-02 0.12499014E+03</pdfrwt>
<pdfrwt beam="1">  1       -4 0.16226859E-01 0.12499014E+03</pdfrwt>
<totfact> 0.10084196E+04</totfact>
</mgrwt>
</event>
<event>
 5    1  0.3401591E-002  0.1250004E+03  0.7818608E-02  0.1235069E+00
          4   -1    0    0  501    0  0.00000000000E+00  0.00000000000E+00  0.27113977327E+03  0.27114274755E+03  0.12700000000E+01 0.  1.
         -4   -1    0    0    0  501 -0.00000000000E+00 -0.00000000000E+00 -0.14375825213E+02  0.14431813835E+02  0.12700000000E+01 0.  1.
         25    2    1    2    0    0  0.00000000000E+00  0.00000000000E+00  0.25676394805E+03  0.28557456138E+03  0.12500042035E+03 0.  0.
    9000005    1    3    3    0    0  0.26634165991E+02 -0.51903423354E+02  0.17956553980E+03  0.18880711649E+03  0.10000000000E+01 0.  0.
    9000005    1    3    3    0    0 -0.26634165991E+02  0.51903423354E+02  0.77198408254E+02  0.96767444892E+02  0.10000000000E+01 0.  0.
<mgrwt>
<rscale>  0 0.12500042E+03</rscale>
<asrwt>0</asrwt>
<pdfrwt beam="1">  1        4 0.41718346E-01 0.12500042E+03</pdfrwt>
<pdfrwt beam="2">  1       -4 0.22162010E-02 0.12500042E+03</pdfrwt>
<totfact> 0.77443994E+03</totfact>
</mgrwt>
</event>
<event>
 5    1  0.3401591E-002  0.1249991E+03  0.7818608E-02  0.1235071E+00
          4   -1    0    0  501    0  0.00000000000E+00  0.00000000000E+00  0.98809870691E+01  0.99622690919E+01  0.12700000000E+01 0.  1.
         -4   -1    0    0    0  501 -0.00000000000E+00 -0.00000000000E+00 -0.39362288212E+03  0.39362493090E+03  0.12700000000E+01 0.  1.
         25    2    1    2    0    0  0.00000000000E+00  0.00000000000E+00 -0.38374189505E+03  0.40358719999E+03  0.12499914393E+03 0.  0.
    9000005    1    3    3    0    0  0.12269322500E+02 -0.54236858489E+02 -0.28393325765E+03  0.28932899595E+03  0.10000000000E+01 0.  0.
    9000005    1    3    3    0    0 -0.12269322500E+02  0.54236858489E+02 -0.99808637396E+02  0.11425820405E+03  0.10000000000E+01 0.  0.
<mgrwt>
<rscale>  0 0.12499914E+03</rscale>
<asrwt>0</asrwt>
<pdfrwt beam="1">  1        4 0.15265622E-02 0.12499914E+03</pdfrwt>
<pdfrwt beam="2">  1       -4 0.60563764E-01 0.12499914E+03</pdfrwt>
<totfact> 0.64206610E+03</totfact>
</mgrwt>
</event>
<event>
 5    1  0.3401591E-002  0.1250242E+03  0.7818608E-02  0.1235031E+00
         -4   -1    0    0    0  501 -0.00000000000E+00  0.00000000000E+00  0.93486775246E+02  0.93495401202E+02  0.12700000000E+01 0.  1.
          4   -1    0    0  501    0  0.00000000000E+00 -0.00000000000E+00 -0.41779987531E+02  0.41799285378E+02  0.12700000000E+01 0.  1.
         25    2    1    2    0    0  0.00000000000E+00  0.00000000000E+00  0.51706787715E+02  0.13529468658E+03  0.12502423893E+03 0.  0.
    9000005    1    3    3    0    0 -0.57532782852E+02  0.18632061059E+02  0.87571637740E+01  0.61113523212E+02  0.10000000000E+01 0.  0.
    9000005    1    3    3    0    0  0.57532782852E+02 -0.18632061059E+02  0.42949623941E+02  0.74181163368E+02  0.10000000000E+01 0.  0.
<mgrwt>
<rscale>  0 0.12502424E+03</rscale>
<asrwt>0</asrwt>
<pdfrwt beam="2">  1        4 0.64298384E-02 0.12502424E+03</pdfrwt>
<pdfrwt beam="1">  1       -4 0.14384729E-01 0.12502424E+03</pdfrwt>
<totfact> 0.10226272E+04</totfact>
</mgrwt>
</event>
<event>
 5    1  0.3401591E-002  0.1249998E+03  0.7818608E-02  0.1235070E+00
         -4   -1    0    0    0  501 -0.00000000000E+00  0.00000000000E+00  0.77938968735E+02  0.77949315247E+02  0.12700000000E+01 0.  1.
          4   -1    0    0  501    0  0.00000000000E+00 -0.00000000000E+00 -0.50097460538E+02  0.50113555575E+02  0.12700000000E+01 0.  1.
         25    2    1    2    0    0  0.00000000000E+00  0.00000000000E+00  0.27841508197E+02  0.12806287082E+03  0.12499979722E+03 0.  0.
    9000005    1    3    3    0    0  0.59145099906E+02  0.19926574202E+02  0.17164751194E+02  0.64736696594E+02  0.10000000000E+01 0.  0.
    9000005    1    3    3    0    0 -0.59145099906E+02 -0.19926574202E+02  0.10676757002E+02  0.63326174228E+02  0.10000000000E+01 0.  0.
<mgrwt>
<rscale>  0 0.12499980E+03</rscale>
<asrwt>0</asrwt>
<pdfrwt beam="2">  1        4 0.77093356E-02 0.12499980E+03</pdfrwt>
<pdfrwt beam="1">  1       -4 0.11992644E-01 0.12499980E+03</pdfrwt>
<totfact> 0.10386178E+04</totfact>
</mgrwt>
</event>
<event>
 5    1  0.3401591E-002  0.1250007E+03  0.7818608E-02  0.1235068E+00
          4   -1    0    0  501    0  0.00000000000E+00  0.00000000000E+00  0.22299542524E+02  0.22335677666E+02  0.12700000000E+01 0. -1.
         -4   -1    0    0    0  501 -0.00000000000E+00 -0.00000000000E+00 -0.17499333712E+03  0.17499794552E+03  0.12700000000E+01 0. -1.
         25    2    1    2    0    0  0.00000000000E+00  0.00000000000E+00 -0.15269379459E+03  0.19733362318E+03  0.12500065572E+03 0.  0.
    9000005    1    3    3    0    0  0.59712131830E+02  0.17322451868E+02 -0.86291827803E+02  0.10636204949E+03  0.10000000000E+01 0.  0.
    9000005    1    3    3    0    0 -0.59712131830E+02 -0.17322451868E+02 -0.66401966789E+02  0.90971573691E+02  0.10000000000E+01 0.  0.
<mgrwt>
<rscale>  0 0.12500066E+03</rscale>
<asrwt>0</asrwt>
<pdfrwt beam="1">  1        4 0.34338331E-02 0.12500066E+03</pdfrwt>
<pdfrwt beam="2">  1       -4 0.26925185E-01 0.12500066E+03</pdfrwt>
<totfact> 0.90585384E+03</totfact>
</mgrwt>
</event>
<event>
 5    1  0.3401591E-002  0.1250039E+03  0.7818608E-02  0.1235063E+00
         -4   -1    0    0    0  501 -0.00000000000E+00  0.00000000000E+00  0.39649157433E+02  0.39669491869E+02  0.12700000000E+01 0.  1.
          4   -1    0    0  501    0  0.00000000000E+00 -0.00000000000E+00 -0.98476888019E+02  0.98485076910E+02  0.12700000000E+01 0.  1.
         25    2    1    2    0    0  0.00000000000E+00  0.00000000000E+00 -0.58827730586E+02  0.13815456878E+03  0.12500393189E+03 0.  0.
    9000005    1    3    3    0    0 -0.43140324044E+02  0.39805219865E+02 -0.53116583068E+02  0.79170161576E+02  0.10000000000E+01 0.  0.
    9000005    1    3    3    0    0  0.43140324044E+02 -0.39805219865E+02 -0.57111475180E+01  0.58984407203E+02  0.10000000000E+01 0.  0.
<mgrwt>
<rscale>  0 0.12500393E+03</rscale>
<asrwt>0</asrwt>
<pdfrwt beam="2">  1        4 0.15152484E-01 0.12500393E+03</pdfrwt>
<pdfrwt beam="1">  1       -4 0.61020645E-02 0.12500393E+03</pdfrwt>
<totfact> 0.10171076E+04</totfact>
</mgrwt>
</event>
<event>
 4    1  0.3401591E-002  0.1252308E+03  0.7818608E-02  0.1234709E+00
          4   -1    0    0  501    0  0.00000000000E+00  0.00000000000E+00  0.14147486653E+03  0.14148056672E+03  0.12700000000E+01 0.  1.
         -4   -1    0    0    0  501 -0.00000000000E+00 -0.00000000000E+00 -0.27692162562E+02  0.27721269223E+02  0.12700000000E+01 0.  1.
    9000005    1    1    2    0    0 -0.25827140028E+02  0.50676744390E+02  0.92241040998E+02  0.10837242836E+03  0.10000000000E+01 0.  0.
    9000005    1    1    2    0    0  0.25827140028E+02 -0.50676744390E+02  0.21541662974E+02  0.60829407589E+02  0.10000000000E+01 0.  0.
<mgrwt>
<rscale>  0 0.12523082E+03</rscale>
<asrwt>0</asrwt>
<pdfrwt beam="1">  1        4 0.21768042E-01 0.12523082E+03</pdfrwt>
<pdfrwt beam="2">  1       -4 0.42630101E-02 0.12523082E+03</pdfrwt>
<totfact> 0.95103712E+03</totfact>
</mgrwt>
</event>
<event>
 5    1  0.3401591E-002  0.1249999E+03  0.7818608E-02  0.1235069E+00
          4   -1    0    0  501    0  0.00000000000E+00  0.00000000000E+00  0.16660125347E+02  0.16708461227E+02  0.12700000000E+01 0.  1.
         -4   -1    0    0    0  501 -0.00000000000E+00 -0.00000000000E+00 -0.23407691744E+03  0.23408036265E+03  0.12700000000E+01 0.  1.
         25    2    1    2    0    0  0.00000000000E+00  0.00000000000E+00 -0.21741679209E+03  0.25078882388E+03  0.12499989079E+03 0.  0.
    9000005    1    3    3    0    0  0.25140514949E+02  0.41533726671E+02 -0.29767023098E+02  0.56957629929E+02  0.10000000000E+01 0.  0.
    9000005    1    3    3    0    0 -0.25140514949E+02 -0.41533726671E+02 -0.18764976900E+03  0.19383119395E+03  0.10000000000E+01 0.  0.
<mgrwt>
<rscale>  0 0.12499989E+03</rscale>
<asrwt>0</asrwt>
<pdfrwt beam="1">  1        4 0.25670795E-02 0.12499989E+03</pdfrwt>
<pdfrwt beam="2">  1       -4 0.36015814E-01 0.12499989E+03</pdfrwt>
<totfact> 0.82216553E+03</totfact>
</mgrwt>
</event>
<event>
 5    1  0.3401591E-002  0.1249996E+03  0.7818608E-02  0.1235070E+00
         -4   -1    0    0    0  501 -0.00000000000E+00  0.00000000000E+00  0.18596434561E+01  0.22519266826E+01  0.12700000000E+01 0. -1.
          4   -1    0    0  501    0  0.00000000000E+00 -0.00000000000E+00 -0.18997195514E+04  0.18997199759E+04  0.12700000000E+01 0. -1.
         25    2    1    2    0    0  0.00000000000E+00  0.00000000000E+00 -0.18978599079E+04  0.19019719025E+04  0.12499955228E+03 0.  0.
    9000005    1    3    3    0    0 -0.40390351787E+02 -0.27223502553E+02 -0.15446296698E+04  0.15453977858E+04  0.10000000000E+01 0.  0.
    9000005    1    3    3    0    0  0.40390351787E+02  0.27223502553E+02 -0.35323023814E+03  0.35657411676E+03  0.10000000000E+01 0.  0.
<mgrwt>
<rscale>  0 0.12499955E+03</rscale>
<asrwt>0</asrwt>
<pdfrwt beam="2">  1        4 0.29229335E+00 0.12499955E+03</pdfrwt>
<pdfrwt beam="1">  1       -4 0.31630880E-03 0.12499955E+03</pdfrwt>
<totfact> 0.11195727E+03</totfact>
</mgrwt>
</event>
<event>
 5    1  0.3401591E-002  0.1250006E+03  0.7818608E-02  0.1235068E+00
          4   -1    0    0  501    0  0.00000000000E+00  0.00000000000E+00  0.20820072278E+04  0.20820076152E+04  0.12700000000E+01 0. -1.
         -4   -1    0    0    0  501 -0.00000000000E+00 -0.00000000000E+00 -0.16608671071E+01  0.20907844335E+01  0.12700000000E+01 0. -1.
         25    2    1    2    0    0  0.00000000000E+00  0.00000000000E+00  0.20803463607E+04  0.20840983996E+04  0.12500063467E+03 0.  0.
    9000005    1    3    3    0    0 -0.21143543582E+02  0.56576223963E+02  0.77269651328E+03  0.77505407566E+03  0.10000000000E+01 0.  0.
    9000005    1    3    3    0    0  0.21143543582E+02 -0.56576223963E+02  0.13076498474E+04  0.13090443239E+04  0.10000000000E+01 0.  0.
<mgrwt>
<rscale>  0 0.12500063E+03</rscale>
<asrwt>0</asrwt>
<pdfrwt beam="1">  1        4 0.32034298E+00 0.12500063E+03</pdfrwt>
<pdfrwt beam="2">  1       -4 0.28861741E-03 0.12500063E+03</pdfrwt>
<totfact> 0.88030353E+02</totfact>
</mgrwt>
</event>
<event>
 5    1  0.3401591E-002  0.1250101E+03  0.7818608E-02  0.1235054E+00
         -4   -1    0    0    0  501 -0.00000000000E+00  0.00000000000E+00  0.32940987289E+02  0.32965459857E+02  0.12700000000E+01 0.  1.
          4   -1    0    0  501    0  0.00000000000E+00 -0.00000000000E+00 -0.11853048007E+03  0.11853728361E+03  0.12700000000E+01 0.  1.
         25    2    1    2    0    0  0.00000000000E+00  0.00000000000E+00 -0.85589492779E+02  0.15150274346E+03  0.12501007961E+03 0.  0.
    9000005    1    3    3    0    0  0.56951949983E+02 -0.17097620451E+02 -0.19482075258E+02  0.62581183181E+02  0.10000000000E+01 0.  0.
    9000005    1    3    3    0    0 -0.56951949983E+02  0.17097620451E+02 -0.66107417521E+02  0.88921560284E+02  0.10000000000E+01 0.  0.
<mgrwt>
<rscale>  0 0.12501008E+03</rscale>
<asrwt>0</asrwt>
<pdfrwt beam="2">  1        4 0.18237864E-01 0.12501008E+03</pdfrwt>
<pdfrwt beam="1">  1       -4 0.50702501E-02 0.12501008E+03</pdfrwt>
<totfact> 0.98982536E+03</totfact>
</mgrwt>
</event>
<event>
 5    1  0.3401591E-002  0.1249998E+03  0.7818608E-02  0.1235070E+00
         -4   -1    0    0    0  501 -0.00000000000E+00  0.00000000000E+00  0.47530327985E+03  0.47530497656E+03  0.12700000000E+01 0.  1.
          4   -1    0    0  501    0  0.00000000000E+00 -0.00000000000E+00 -0.81676191057E+01  0.82657668644E+01  0.12700000000E+01 0.  1.
         25    2    1    2    0    0  0.00000000000E+00  0.00000000000E+00  0.46713566075E+03  0.48357074342E+03  0.12499975340E+03 0.  0.
    9000005    1    3    3    0    0  0.47987585285E+02 -0.30888487053E+02  0.13506513347E+03  0.14663047859E+03  0.10000000000E+01 0.  0.
    9000005    1    3    3    0    0 -0.47987585285E+02  0.30888487053E+02  0.33207052728E+03  0.33694026483E+03  0.10000000000E+01 0.  0.
<mgrwt>
<rscale>  0 0.12499975E+03</rscale>
<asrwt>0</asrwt>
<pdfrwt beam="2">  1        4 0.12642369E-02 0.12499975E+03</pdfrwt>
<pdfrwt beam="1">  1       -4 0.73131275E-01 0.12499975E+03</pdfrwt>
<totfact> 0.57162294E+03</totfact>
</mgrwt>
</event>
<event>
 5    1  0.3401591E-002  0.1249691E+03  0.7818608E-02  0.1235118E+00
          4   -1    0    0  501    0  0.00000000000E+00  0.00000000000E+00  0.11835775892E+03  0.11836457239E+03  0.12700000000E+01 0. -1.
         -4   -1    0    0    0  501 -0.00000000000E+00 -0.00000000000E+00 -0.32967468419E+02  0.32991921344E+02  0.12700000000E+01 0. -1.
         25    2    1    2    0    0  0.00000000000E+00  0.00000000000E+00  0.85390290499E+02  0.15135649373E+03  0.12496914212E+03 0.  0.
    9000005    1    3    3    0    0 -0.18413888766E+02  0.13550311385E+02 -0.27725125933E+02  0.35949476298E+02  0.10000000000E+01 0.  0.
    9000005    1    3    3    0    0  0.18413888766E+02 -0.13550311385E+02  0.11311541643E+03  0.11540701743E+03  0.10000000000E+01 0.  0.
<mgrwt>
<rscale>  0 0.12496914E+03</rscale>
<asrwt>0</asrwt>
<pdfrwt beam="1">  1        4 0.18211291E-01 0.12496914E+03</pdfrwt>
<pdfrwt beam="2">  1       -4 0.50743233E-02 0.12496914E+03</pdfrwt>
<totfact> 0.99102783E+03</totfact>
</mgrwt>
</event>
<event>
 5    1  0.3401591E-002  0.1249978E+03  0.7818608E-02  0.1235073E+00
          4   -1    0    0  501    0  0.00000000000E+00  0.00000000000E+00  0.60721641525E+02  0.60734921170E+02  0.12700000000E+01 0.  1.
         -4   -1    0    0    0  501 -0.00000000000E+00 -0.00000000000E+00 -0.64301554578E+02  0.64314095043E+02  0.12700000000E+01 0.  1.
         25    2    1    2    0    0  0.00000000000E+00  0.00000000000E+00 -0.35799130532E+01  0.12504901621E+03  0.12499776269E+03 0.  0.
    9000005    1    3    3    0    0  0.36060857694E+02 -0.44786651439E+02  0.22692114261E+02  0.61823633462E+02  0.10000000000E+01 0.  0.
    9000005    1    3    3    0    0 -0.36060857694E+02  0.44786651439E+02 -0.26272027315E+02  0.63225382751E+02  0.10000000000E+01 0.  0.
<mgrwt>
<rscale>  0 0.12499776E+03</rscale>
<asrwt>0</asrwt>
<pdfrwt beam="1">  1        4 0.93437772E-02 0.12499776E+03</pdfrwt>
<pdfrwt beam="2">  1       -4 0.98945330E-02 0.12499776E+03</pdfrwt>
<totfact> 0.10452327E+04</totfact>
</mgrwt>
</event>
<event>
 5    1  0.3401591E-002  0.1249986E+03  0.7818608E-02  0.1235071E+00
         -4   -1    0    0    0  501 -0.00000000000E+00  0.00000000000E+00  0.36053106881E+02  0.36075468337E+02  0.12700000000E+01 0. -1.
          4   -1    0    0  501    0  0.00000000000E+00 -0.00000000000E+00 -0.10828509480E+03  0.10829254201E+03  0.12700000000E+01 0. -1.
         25    2    1    2    0    0  0.00000000000E+00  0.00000000000E+00 -0.72231987916E+02  0.14436801035E+03  0.12499864933E+03 0.  0.
    9000005    1    3    3    0    0 -0.55465196933E+02  0.32818989710E+01 -0.30832943119E+01  0.55656676468E+02  0.10000000000E+01 0.  0.
    9000005    1    3    3    0    0  0.55465196933E+02 -0.32818989710E+01 -0.69148693604E+02  0.88711333880E+02  0.10000000000E+01 0.  0.
<mgrwt>
<rscale>  0 0.12499865E+03</rscale>
<asrwt>0</asrwt>
<pdfrwt beam="2">  1        4 0.16661538E-01 0.12499865E+03</pdfrwt>
<pdfrwt beam="1">  1       -4 0.55489248E-02 0.12499865E+03</pdfrwt>
<totfact> 0.10044150E+04</totfact>
</mgrwt>
</event>
<event>
 5    1  0.3401591E-002  0.1249948E+03  0.7818608E-02  0.1235077E+00
         -4   -1    0    0    0  501 -0.00000000000E+00  0.00000000000E+00  0.79648634519E+02  0.79658758971E+02  0.12700000000E+01 0.  1.
          4   -1    0    0  501    0  0.00000000000E+00 -0.00000000000E+00 -0.49017979485E+02  0.49034428851E+02  0.12700000000E+01 0.  1.
         25    2    1    2    0    0  0.00000000000E+00  0.00000000000E+00  0.30630655035E+02  0.12869318782E+03  0.12499479815E+03 0.  0.
    9000005    1    3    3    0    0  0.55361860457E+02 -0.19728353224E+02  0.37175148553E+02  0.69549516059E+02  0.10000000000E+01 0.  0.
    9000005    1    3    3    0    0 -0.55361860457E+02  0.19728353224E+02 -0.65444935182E+01  0.59143671763E+02  0.10000000000E+01 0.  0.
<mgrwt>
<rscale>  0 0.12499480E+03</rscale>
<asrwt>0</asrwt>
<pdfrwt beam="2">  1        4 0.75432718E-02 0.12499480E+03</pdfrwt>
<pdfrwt beam="1">  1       -4 0.12255680E-01 0.12499480E+03</pdfrwt>
<totfact> 0.10373763E+04</totfact>
</mgrwt>
</event>
<event>
 5    1  0.3401591E-002  0.1250004E+03  0.7818608E-02  0.1235069E+00
         -4   -1    0    0    0  501 -0.00000000000E+00  0.00000000000E+00  0.14838723343E+02  0.14892971847E+02  0.12700000000E+01 0. -1.
          4   -1    0    0  501    0  0.00000000000E+00 -0.00000000000E+00 -0.26271260432E+03  0.26271567401E+03  0.12700000000E+01 0. -1.
         25    2    1    2    0    0  0.00000000000E+00  0.00000000000E+00 -0.24787388098E+03  0.27760864585E+03  0.12500039753E+03 0.  0.
    9000005    1    3    3    0    0  0.26410724717E+02 -0.48892696574E+02 -0.18742612841E+03  0.19549316041E+03  0.10000000000E+01 0.  0.
    9000005    1    3    3    0    0 -0.26410724717E+02  0.48892696574E+02 -0.60447752569E+02  0.82115485440E+02  0.10000000000E+01 0.  0.
<mgrwt>
<rscale>  0 0.12500040E+03</rscale>
<asrwt>0</asrwt>
<pdfrwt beam="2">  1        4 0.40421730E-01 0.12500040E+03</pdfrwt>
<pdfrwt beam="1">  1       -4 0.22872898E-02 0.12500040E+03</pdfrwt>
<totfact> 0.78495561E+03</totfact>
</mgrwt>
</event>
<event>
 5    1  0.3401591E-002  0.1249985E+03  0.7818608E-02  0.1235072E+00
          4   -1    0    0  501    0  0.00000000000E+00  0.00000000000E+00  0.17599953881E+02  0.17645715531E+02  0.12700000000E+01 0.  1.
         -4   -1    0    0    0  501 -0.00000000000E+00 -0.00000000000E+00 -0.22160556484E+03  0.22160920394E+03  0.12700000000E+01 0.  1.
         25    2    1    2    0    0  0.00000000000E+00  0.00000000000E+00 -0.20400561096E+03  0.23925491947E+03  0.12499850873E+03 0.  0.
    9000005    1    3    3    0    0 -0.61957884570E+01 -0.61000757244E+02 -0.78900731577E+02  0.99929002908E+02  0.10000000000E+01 0.  0.
    9000005    1    3    3    0    0  0.61957884570E+01  0.61000757244E+02 -0.12510487939E+03  0.13932591656E+03  0.10000000000E+01 0.  0.
<mgrwt>
<rscale>  0 0.12499851E+03</rscale>
<asrwt>0</asrwt>
<pdfrwt beam="1">  1        4 0.27114854E-02 0.12499851E+03</pdfrwt>
<pdfrwt beam="2">  1       -4 0.34096962E-01 0.12499851E+03</pdfrwt>
<totfact> 0.83911250E+03</totfact>
</mgrwt>
</event>
<event>
 5    1  0.3401591E-002  0.1249661E+03  0.7818608E-02  0.1235122E+00
         -4   -1    0    0    0  501 -0.00000000000E+00  0.00000000000E+00  0.13305046235E+03  0.13305652345E+03  0.12700000000E+01 0. -1.
          4   -1    0    0  501    0  0.00000000000E+00 -0.00000000000E+00 -0.29322787393E+02  0.29350277008E+02  0.12700000000E+01 0. -1.
         25    2    1    2    0    0  0.00000000000E+00  0.00000000000E+00  0.10372767496E+03  0.16240680046E+03  0.12496614854E+03 0.  0.
    9000005    1    3    3    0    0 -0.22545761268E+02 -0.44513867208E+02  0.10072175739E+03  0.11240848783E+03  0.10000000000E+01 0.  0.
    9000005    1    3    3    0    0  0.22545761268E+02  0.44513867208E+02  0.30059175719E+01  0.49998312626E+02  0.10000000000E+01 0.  0.
<mgrwt>
<rscale>  0 0.12496615E+03</rscale>
<asrwt>0</asrwt>
<pdfrwt beam="2">  1        4 0.45137790E-02 0.12496615E+03</pdfrwt>
<pdfrwt beam="1">  1       -4 0.20471882E-01 0.12496615E+03</pdfrwt>
<totfact> 0.96954503E+03</totfact>
</mgrwt>
</event>
<event>
 5    1  0.3401591E-002  0.1249984E+03  0.7818608E-02  0.1235072E+00
         -4   -1    0    0    0  501 -0.00000000000E+00  0.00000000000E+00  0.85783306984E+02  0.85792707482E+02  0.12700000000E+01 0. -1.
          4   -1    0    0  501    0  0.00000000000E+00 -0.00000000000E+00 -0.45514330163E+02  0.45532045311E+02  0.12700000000E+01 0. -1.
         25    2    1    2    0    0  0.00000000000E+00  0.00000000000E+00  0.40268976821E+02  0.13132475279E+03  0.12499840080E+03 0.  0.
    9000005    1    3    3    0    0  0.46198948605E+02  0.41895777175E+02  0.15991420624E+02  0.64391960141E+02  0.10000000000E+01 0.  0.
    9000005    1    3    3    0    0 -0.46198948605E+02 -0.41895777175E+02  0.24277556197E+02  0.66932792652E+02  0.10000000000E+01 0.  0.
<mgrwt>
<rscale>  0 0.12499840E+03</rscale>
<asrwt>0</asrwt>
<pdfrwt beam="2">  1        4 0.70042905E-02 0.12499840E+03</pdfrwt>
<pdfrwt beam="1">  1       -4 0.13199518E-01 0.12499840E+03</pdfrwt>
<totfact> 0.10316504E+04</totfact>
</mgrwt>
</event>
<event>
 5    1  0.3401591E-002  0.1250004E+03  0.7818608E-02  0.1235069E+00
         -4   -1    0    0    0  501 -0.00000000000E+00  0.00000000000E+00  0.12448804614E+02  0.12513418251E+02  0.12700000000E+01 0.  1.
          4   -1    0    0  501    0  0.00000000000E+00 -0.00000000000E+00 -0.31290916674E+03  0.31291174400E+03  0.12700000000E+01 0.  1.
         25    2    1    2    0    0  0.00000000000E+00  0.00000000000E+00 -0.30046036213E+03  0.32542516225E+03  0.12500042806E+03 0.  0.
    9000005    1    3    3    0    0 -0.61409409819E+02 -0.11165247224E+02 -0.14220666526E+03  0.15530458462E+03  0.10000000000E+01 0.  0.
    9000005    1    3    3    0    0  0.61409409819E+02  0.11165247224E+02 -0.15825369687E+03  0.17012057763E+03  0.10000000000E+01 0.  0.
<mgrwt>
<rscale>  0 0.12500043E+03</rscale>
<asrwt>0</asrwt>
<pdfrwt beam="2">  1        4 0.48145034E-01 0.12500043E+03</pdfrwt>
<pdfrwt beam="1">  1       -4 0.19203695E-02 0.12500043E+03</pdfrwt>
<totfact> 0.72514802E+03</totfact>
</mgrwt>
</event>
<event>
 5    1  0.3401591E-002  0.1250043E+03  0.7818608E-02  0.1235063E+00
         -4   -1    0    0    0  501 -0.00000000000E+00  0.00000000000E+00  0.32289175336E+02  0.32314141546E+02  0.12700000000E+01 0.  1.
          4   -1    0    0  501    0  0.00000000000E+00 -0.00000000000E+00 -0.12091032365E+03  0.12091699328E+03  0.12700000000E+01 0.  1.
         25    2    1    2    0    0  0.00000000000E+00  0.00000000000E+00 -0.88621148312E+02  0.15323113483E+03  0.12500429094E+03 0.  0.
    9000005    1    3    3    0    0  0.54277230093E+02 -0.10219192368E+01 -0.82260263408E+02  0.98563750748E+02  0.10000000000E+01 0.  0.
    9000005    1    3    3    0    0 -0.54277230093E+02  0.10219192368E+01 -0.63608849039E+01  0.54667384081E+02  0.10000000000E+01 0.  0.
<mgrwt>
<rscale>  0 0.12500429E+03</rscale>
<asrwt>0</asrwt>
<pdfrwt beam="2">  1        4 0.18604022E-01 0.12500429E+03</pdfrwt>
<pdfrwt beam="1">  1       -4 0.49699990E-02 0.12500429E+03</pdfrwt>
<totfact> 0.98653952E+03</totfact>
</mgrwt>
</event>
<event>
 5    1  0.3401591E-002  0.1249985E+03  0.7818608E-02  0.1235072E+00
          4   -1    0    0  501    0  0.00000000000E+00  0.00000000000E+00  0.73564585562E+02  0.73575547221E+02  0.12700000000E+01 0. -1.
         -4   -1    0    0    0  501 -0.00000000000E+00 -0.00000000000E+00 -0.53075771037E+02  0.53090963178E+02  0.12700000000E+01 0. -1.
         25    2    1    2    0    0  0.00000000000E+00  0.00000000000E+00  0.20488814525E+02  0.12666651040E+03  0.12499845334E+03 0.  0.
    9000005    1    3    3    0    0  0.39400676735E+01  0.21794910016E+02 -0.48970055116E+02  0.53755079145E+02  0.10000000000E+01 0.  0.
    9000005    1    3    3    0    0 -0.39400676735E+01 -0.21794910016E+02  0.69458869640E+02  0.72911431254E+02  0.10000000000E+01 0.  0.
<mgrwt>
<rscale>  0 0.12499845E+03</rscale>
<asrwt>0</asrwt>
<pdfrwt beam="1">  1        4 0.11319640E-01 0.12499845E+03</pdfrwt>
<pdfrwt beam="2">  1       -4 0.81675151E-02 0.12499845E+03</pdfrwt>
<totfact> 0.10416763E+04</totfact>
</mgrwt>
</event>
<event>
 5    1  0.3401591E-002  0.1249477E+03  0.7818608E-02  0.1235151E+00
         -4   -1    0    0    0  501 -0.00000000000E+00  0.00000000000E+00  0.44619169606E+02  0.44637240017E+02  0.12700000000E+01 0.  1.
          4   -1    0    0  501    0  0.00000000000E+00 -0.00000000000E+00 -0.87432790400E+02  0.87442013570E+02  0.12700000000E+01 0.  1.
         25    2    1    2    0    0  0.00000000000E+00  0.00000000000E+00 -0.42813620794E+02  0.13207925359E+03  0.12494768146E+03 0.  0.
    9000005    1    3    3    0    0  0.45132375745E+02  0.66612862426E+01  0.23697995841E+02  0.51418859203E+02  0.10000000000E+01 0.  0.
    9000005    1    3    3    0    0 -0.45132375745E+02 -0.66612862426E+01 -0.66511616635E+02  0.80660394384E+02  0.10000000000E+01 0.  0.
<mgrwt>
<rscale>  0 0.12494768E+03</rscale>
<asrwt>0</asrwt>
<pdfrwt beam="2">  1        4 0.13453298E-01 0.12494768E+03</pdfrwt>
<pdfrwt beam="1">  1       -4 0.68665872E-02 0.12494768E+03</pdfrwt>
<totfact> 0.10312173E+04</totfact>
</mgrwt>
</event>
<event>
 5    1  0.3401591E-002  0.1249916E+03  0.7818608E-02  0.1235082E+00
         -4   -1    0    0    0  501 -0.00000000000E+00  0.00000000000E+00  0.37029330298E+02  0.37051102579E+02  0.12700000000E+01 0. -1.
          4   -1    0    0  501    0  0.00000000000E+00 -0.00000000000E+00 -0.10541994367E+03  0.10542759327E+03  0.12700000000E+01 0. -1.
         25    2    1    2    0    0  0.00000000000E+00  0.00000000000E+00 -0.68390613370E+02  0.14247869585E+03  0.12499161081E+03 0.  0.
    9000005    1    3    3    0    0  0.39014351327E+02 -0.47983150836E+02 -0.44405157150E+02  0.76140136296E+02  0.10000000000E+01 0.  0.
    9000005    1    3    3    0    0 -0.39014351327E+02  0.47983150836E+02 -0.23985456220E+02  0.66338559554E+02  0.10000000000E+01 0.  0.
<mgrwt>
<rscale>  0 0.12499161E+03</rscale>
<asrwt>0</asrwt>
<pdfrwt beam="2">  1        4 0.16220716E-01 0.12499161E+03</pdfrwt>
<pdfrwt beam="1">  1       -4 0.56990833E-02 0.12499161E+03</pdfrwt>
<totfact> 0.10084375E+04</totfact>
</mgrwt>
</event>
<event>
 5    1  0.3401591E-002  0.1249965E+03  0.7818608E-02  0.1235075E+00
         -4   -1    0    0    0  501 -0.00000000000E+00  0.00000000000E+00  0.27880318807E+02  0.27909229241E+02  0.12700000000E+01 0.  1.
          4   -1    0    0  501    0  0.00000000000E+00 -0.00000000000E+00 -0.13999548558E+03  0.14000124601E+03  0.12700000000E+01 0.  1.
         25    2    1    2    0    0  0.00000000000E+00  0.00000000000E+00 -0.11211516678E+03  0.16791047525E+03  0.12499646826E+03 0.  0.
    9000005    1    3    3    0    0 -0.49225907386E+02  0.35200826812E+02 -0.76986739096E+02  0.97929802221E+02  0.10000000000E+01 0.  0.
    9000005    1    3    3    0    0  0.49225907386E+02 -0.35200826812E+02 -0.35128427680E+02  0.69980673029E+02  0.10000000000E+01 0.  0.
<mgrwt>
<rscale>  0 0.12499647E+03</rscale>
<asrwt>0</asrwt>
<pdfrwt beam="2">  1        4 0.21540434E-01 0.12499647E+03</pdfrwt>
<pdfrwt beam="1">  1       -4 0.42919469E-02 0.12499647E+03</pdfrwt>
<totfact> 0.95846618E+03</totfact>
</mgrwt>
</event>
<event>
 5    1  0.3401591E-002  0.1250028E+03  0.7818608E-02  0.1235065E+00
          4   -1    0    0  501    0  0.00000000000E+00  0.00000000000E+00  0.44884565527E+01  0.46646695730E+01  0.12700000000E+01 0. -1.
         -4   -1    0    0    0  501 -0.00000000000E+00 -0.00000000000E+00 -0.85339513468E+03  0.85339607967E+03  0.12700000000E+01 0. -1.
         25    2    1    2    0    0  0.00000000000E+00  0.00000000000E+00 -0.84890667813E+03  0.85806074925E+03  0.12500280486E+03 0.  0.
    9000005    1    3    3    0    0  0.52197109875E+02  0.29036312753E+02 -0.29829528947E+03  0.30421822013E+03  0.10000000000E+01 0.  0.
    9000005    1    3    3    0    0 -0.52197109875E+02 -0.29036312753E+02 -0.55061138866E+03  0.55384252912E+03  0.10000000000E+01 0.  0.
<mgrwt>
<rscale>  0 0.12500280E+03</rscale>
<asrwt>0</asrwt>
<pdfrwt beam="1">  1        4 0.70416000E-03 0.12500280E+03</pdfrwt>
<pdfrwt beam="2">  1       -4 0.13130506E+00 0.12500280E+03</pdfrwt>
<totfact> 0.35797561E+03</totfact>
</mgrwt>
</event>
<event>
 5    1  0.3401591E-002  0.1250150E+03  0.7818608E-02  0.1235046E+00
          4   -1    0    0  501    0  0.00000000000E+00  0.00000000000E+00  0.11991639817E+04  0.11991646542E+04  0.12700000000E+01 0.  1.
         -4   -1    0    0    0  501 -0.00000000000E+00 -0.00000000000E+00 -0.31338037835E+01  0.33813645402E+01  0.12700000000E+01 0.  1.
         25    2    1    2    0    0  0.00000000000E+00  0.00000000000E+00  0.11960301779E+04  0.12025460187E+04  0.12501496200E+03 0.  0.
    9000005    1    3    3    0    0 -0.22481467821E+02 -0.57740594884E+02  0.51940043216E+03  0.52308431597E+03  0.10000000000E+01 0.  0.
    9000005    1    3    3    0    0  0.22481467821E+02  0.57740594884E+02  0.67662974572E+03  0.67946170273E+03  0.10000000000E+01 0.  0.
<mgrwt>
<rscale>  0 0.12501496E+03</rscale>
<asrwt>0</asrwt>
<pdfrwt beam="1">  1        4 0.18450589E+00 0.12501496E+03</pdfrwt>
<pdfrwt beam="2">  1       -4 0.50121845E-03 0.12501496E+03</pdfrwt>
<totfact> 0.24638155E+03</totfact>
</mgrwt>
</event>
<event>
 5    1  0.3401591E-002  0.1249996E+03  0.7818608E-02  0.1235070E+00
          4   -1    0    0  501    0  0.00000000000E+00  0.00000000000E+00  0.32055951975E+02  0.32081099685E+02  0.12700000000E+01 0.  1.
         -4   -1    0    0    0  501 -0.00000000000E+00 -0.00000000000E+00 -0.12178028114E+03  0.12178690313E+03  0.12700000000E+01 0.  1.
         25    2    1    2    0    0  0.00000000000E+00  0.00000000000E+00 -0.89724329162E+02  0.15386800281E+03  0.12499962819E+03 0.  0.
    9000005    1    3    3    0    0 -0.44696912232E+02 -0.96842243349E+01 -0.97284187159E+02  0.10750261036E+03  0.10000000000E+01 0.  0.
    9000005    1    3    3    0    0  0.44696912232E+02  0.96842243349E+01  0.75598579973E+01  0.46365392449E+02  0.10000000000E+01 0.  0.
<mgrwt>
<rscale>  0 0.12499963E+03</rscale>
<asrwt>0</asrwt>
<pdfrwt beam="1">  1        4 0.49341288E-02 0.12499963E+03</pdfrwt>
<pdfrwt beam="2">  1       -4 0.18737872E-01 0.12499963E+03</pdfrwt>
<totfact> 0.98539006E+03</totfact>
</mgrwt>
</event>
<event>
 5    1  0.3401591E-002  0.1250008E+03  0.7818608E-02  0.1235068E+00
         -4   -1    0    0    0  501 -0.00000000000E+00  0.00000000000E+00  0.15082836345E+02  0.15136209969E+02  0.12700000000E+01 0. -1.
          4   -1    0    0  501    0  0.00000000000E+00 -0.00000000000E+00 -0.25847727753E+03  0.25848039751E+03  0.12700000000E+01 0. -1.
         25    2    1    2    0    0  0.00000000000E+00  0.00000000000E+00 -0.24339444118E+03  0.27361660748E+03  0.12500077556E+03 0.  0.
    9000005    1    3    3    0    0 -0.18733557444E+01 -0.61466004425E+02 -0.14604439084E+03  0.15846622119E+03  0.10000000000E+01 0.  0.
    9000005    1    3    3    0    0  0.18733557444E+01  0.61466004425E+02 -0.97350050341E+02  0.11515038629E+03  0.10000000000E+01 0.  0.
<mgrwt>
<rscale>  0 0.12500078E+03</rscale>
<asrwt>0</asrwt>
<pdfrwt beam="2">  1        4 0.39770077E-01 0.12500078E+03</pdfrwt>
<pdfrwt beam="1">  1       -4 0.23247822E-02 0.12500078E+03</pdfrwt>
<totfact> 0.79030820E+03</totfact>
</mgrwt>
</event>
<event>
 5    1  0.3401591E-002  0.1250022E+03  0.7818608E-02  0.1235066E+00
         -4   -1    0    0    0  501 -0.00000000000E+00  0.00000000000E+00  0.65539685197E+02  0.65551988801E+02  0.12700000000E+01 0.  1.
          4   -1    0    0  501    0  0.00000000000E+00 -0.00000000000E+00 -0.59578715818E+02  0.59592250155E+02  0.12700000000E+01 0.  1.
         25    2    1    2    0    0  0.00000000000E+00  0.00000000000E+00  0.59609693793E+01  0.12514423896E+03  0.12500218953E+03 0.  0.
    9000005    1    3    3    0    0  0.81876164101E+01 -0.60785155384E+02  0.14973859022E+02  0.63143397371E+02  0.10000000000E+01 0.  0.
    9000005    1    3    3    0    0 -0.81876164101E+01  0.60785155384E+02 -0.90128896431E+01  0.62000841585E+02  0.10000000000E+01 0.  0.
<mgrwt>
<rscale>  0 0.12500219E+03</rscale>
<asrwt>0</asrwt>
<pdfrwt beam="2">  1        4 0.91679438E-02 0.12500219E+03</pdfrwt>
<pdfrwt beam="1">  1       -4 0.10085016E-01 0.12500219E+03</pdfrwt>
<totfact> 0.10449214E+04</totfact>
</mgrwt>
</event>
<event>
 5    1  0.3401591E-002  0.1250007E+03  0.7818608E-02  0.1235068E+00
         -4   -1    0    0    0  501 -0.00000000000E+00  0.00000000000E+00  0.16713626665E+03  0.16714109168E+03  0.12700000000E+01 0. -1.
          4   -1    0    0  501    0  0.00000000000E+00 -0.00000000000E+00 -0.23349505436E+02  0.23384018134E+02  0.12700000000E+01 0. -1.
         25    2    1    2    0    0  0.00000000000E+00  0.00000000000E+00  0.14378676121E+03  0.19052510982E+03  0.12500073908E+03 0.  0.
    9000005    1    3    3    0    0 -0.18391477710E+02 -0.10711280578E+02 -0.17662693953E+02  0.27675778971E+02  0.10000000000E+01 0.  0.
    9000005    1    3    3    0    0  0.18391477710E+02  0.10711280578E+02  0.16144945516E+03  0.16284933085E+03  0.10000000000E+01 0.  0.
<mgrwt>
<rscale>  0 0.12500074E+03</rscale>
<asrwt>0</asrwt>
<pdfrwt beam="2">  1        4 0.35952575E-02 0.12500074E+03</pdfrwt>
<pdfrwt beam="1">  1       -4 0.25716298E-01 0.12500074E+03</pdfrwt>
<totfact> 0.91754508E+03</totfact>
</mgrwt>
</event>
<event>
 5    1  0.3401591E-002  0.1250017E+03  0.7818608E-02  0.1235067E+00
         -4   -1    0    0    0  501 -0.00000000000E+00  0.00000000000E+00  0.36930036793E+03  0.36930255165E+03  0.12700000000E+01 0.  1.
          4   -1    0    0  501    0  0.00000000000E+00 -0.00000000000E+00 -0.10537382857E+02  0.10613639219E+02  0.12700000000E+01 0.  1.
         25    2    1    2    0    0  0.00000000000E+00  0.00000000000E+00  0.35876298508E+03  0.37991619087E+03  0.12500173048E+03 0.  0.
    9000005    1    3    3    0    0  0.37717331005E+02  0.47795121982E+02  0.13657310855E+03  0.14953322280E+03  0.10000000000E+01 0.  0.
    9000005    1    3    3    0    0 -0.37717331005E+02 -0.47795121982E+02  0.22218987653E+03  0.23038296807E+03  0.10000000000E+01 0.  0.
<mgrwt>
<rscale>  0 0.12500173E+03</rscale>
<asrwt>0</asrwt>
<pdfrwt beam="2">  1        4 0.16271697E-02 0.12500173E+03</pdfrwt>
<pdfrwt beam="1">  1       -4 0.56821474E-01 0.12500173E+03</pdfrwt>
<totfact> 0.66551575E+03</totfact>
</mgrwt>
</event>
<event>
 5    1  0.3401591E-002  0.1249909E+03  0.7818608E-02  0.1235083E+00
          4   -1    0    0  501    0  0.00000000000E+00  0.00000000000E+00  0.36903270254E+03  0.36903488784E+03  0.12700000000E+01 0. -1.
         -4   -1    0    0    0  501 -0.00000000000E+00 -0.00000000000E+00 -0.10543248315E+02  0.10619462559E+02  0.12700000000E+01 0. -1.
         25    2    1    2    0    0  0.00000000000E+00  0.00000000000E+00  0.35848945422E+03  0.37965435040E+03  0.12499094762E+03 0.  0.
    9000005    1    3    3    0    0  0.30104493764E+02 -0.54642676351E+02  0.19001875654E+03  0.20000057615E+03  0.10000000000E+01 0.  0.
    9000005    1    3    3    0    0 -0.30104493764E+02  0.54642676351E+02  0.16847069768E+03  0.17965377425E+03  0.10000000000E+01 0.  0.
<mgrwt>
<rscale>  0 0.12499095E+03</rscale>
<asrwt>0</asrwt>
<pdfrwt beam="1">  1        4 0.56780300E-01 0.12499095E+03</pdfrwt>
<pdfrwt beam="2">  1       -4 0.16280687E-02 0.12499095E+03</pdfrwt>
<totfact> 0.66594175E+03</totfact>
</mgrwt>
</event>
<event>
 5    1  0.3401591E-002  0.1250045E+03  0.7818608E-02  0.1235062E+00
          4   -1    0    0  501    0  0.00000000000E+00  0.00000000000E+00  0.89621582915E+02  0.89630580853E+02  0.12700000000E+01 0.  1.
         -4   -1    0    0    0  501 -0.00000000000E+00 -0.00000000000E+00 -0.43568740564E+02  0.43587246464E+02  0.12700000000E+01 0.  1.
         25    2    1    2    0    0  0.00000000000E+00  0.00000000000E+00  0.46052842351E+02  0.13321782732E+03  0.12500450083E+03 0.  0.
    9000005    1    3    3    0    0 -0.13866611612E+02  0.58907268112E+02  0.39645331538E+02  0.72354001042E+02  0.10000000000E+01 0.  0.
    9000005    1    3    3    0    0  0.13866611612E+02 -0.58907268112E+02  0.64075108123E+01  0.60863826275E+02  0.10000000000E+01 0.  0.
<mgrwt>
<rscale>  0 0.12500450E+03</rscale>
<asrwt>0</asrwt>
<pdfrwt beam="1">  1        4 0.13790052E-01 0.12500450E+03</pdfrwt>
<pdfrwt beam="2">  1       -4 0.67049988E-02 0.12500450E+03</pdfrwt>
<totfact> 0.10274729E+04</totfact>
</mgrwt>
</event>
<event>
 5    1  0.3401591E-002  0.1249932E+03  0.7818608E-02  0.1235080E+00
         -4   -1    0    0    0  501 -0.00000000000E+00  0.00000000000E+00  0.88046955846E+01  0.88958172383E+01  0.12700000000E+01 0. -1.
          4   -1    0    0  501    0  0.00000000000E+00 -0.00000000000E+00 -0.44123134324E+03  0.44123317096E+03  0.12700000000E+01 0. -1.
         25    2    1    2    0    0  0.00000000000E+00  0.00000000000E+00 -0.43242664766E+03  0.45012898820E+03  0.12499320148E+03 0.  0.
    9000005    1    3    3    0    0  0.10332795168E+02 -0.61350408151E+02 -0.23726922796E+03  0.24529232718E+03  0.10000000000E+01 0.  0.
    9000005    1    3    3    0    0 -0.10332795168E+02  0.61350408151E+02 -0.19515741970E+03  0.20483666102E+03  0.10000000000E+01 0.  0.
<mgrwt>
<rscale>  0 0.12499320E+03</rscale>
<asrwt>0</asrwt>
<pdfrwt beam="2">  1        4 0.67888878E-01 0.12499320E+03</pdfrwt>
<pdfrwt beam="1">  1       -4 0.13617189E-02 0.12499320E+03</pdfrwt>
<totfact> 0.59961608E+03</totfact>
</mgrwt>
</event>
<event>
 5    1  0.3401591E-002  0.1250006E+03  0.7818608E-02  0.1235068E+00
          4   -1    0    0  501    0  0.00000000000E+00  0.00000000000E+00  0.37474525190E+02  0.37496038967E+02  0.12700000000E+01 0.  1.
         -4   -1    0    0    0  501 -0.00000000000E+00 -0.00000000000E+00 -0.10418317839E+03  0.10419091879E+03  0.12700000000E+01 0.  1.
         25    2    1    2    0    0  0.00000000000E+00  0.00000000000E+00 -0.66708653199E+02  0.14168695776E+03  0.12500059835E+03 0.  0.
    9000005    1    3    3    0    0 -0.18614572202E+02 -0.59392418730E+02 -0.27010253926E+02  0.67856580506E+02  0.10000000000E+01 0.  0.
    9000005    1    3    3    0    0  0.18614572202E+02  0.59392418730E+02 -0.39698399273E+02  0.73830377255E+02  0.10000000000E+01 0.  0.
<mgrwt>
<rscale>  0 0.12500060E+03</rscale>
<asrwt>0</asrwt>
<pdfrwt beam="1">  1        4 0.57675619E-02 0.12500060E+03</pdfrwt>
<pdfrwt beam="2">  1       -4 0.16030432E-01 0.12500060E+03</pdfrwt>
<totfact> 0.10098606E+04</totfact>
</mgrwt>
</event>
<event>
 5    1  0.3401591E-002  0.1249944E+03  0.7818608E-02  0.1235078E+00
         -4   -1    0    0    0  501 -0.00000000000E+00  0.00000000000E+00  0.94616530963E+01  0.95465061313E+01  0.12700000000E+01 0. -1.
          4   -1    0    0  501    0  0.00000000000E+00 -0.00000000000E+00 -0.41088500280E+03  0.41088696551E+03  0.12700000000E+01 0. -1.
         25    2    1    2    0    0  0.00000000000E+00  0.00000000000E+00 -0.40142334970E+03  0.42043347164E+03  0.12499439343E+03 0.  0.
    9000005    1    3    3    0    0  0.52477819738E+01 -0.39966165983E+02 -0.36132458671E+03  0.36356744987E+03  0.10000000000E+01 0.  0.
    9000005    1    3    3    0    0 -0.52477819738E+01  0.39966165983E+02 -0.40098762987E+02  0.56866021771E+02  0.10000000000E+01 0.  0.
<mgrwt>
<rscale>  0 0.12499439E+03</rscale>
<asrwt>0</asrwt>
<pdfrwt beam="2">  1        4 0.63219742E-01 0.12499439E+03</pdfrwt>
<pdfrwt beam="1">  1       -4 0.14623174E-02 0.12499439E+03</pdfrwt>
<totfact> 0.62620566E+03</totfact>
</mgrwt>
</event>
<event>
 5    1  0.3401591E-002  0.1249899E+03  0.7818608E-02  0.1235085E+00
          4   -1    0    0  501    0  0.00000000000E+00  0.00000000000E+00  0.13602371264E+03  0.13602964125E+03  0.12700000000E+01 0. -1.
         -4   -1    0    0    0  501 -0.00000000000E+00 -0.00000000000E+00 -0.28692157315E+02  0.28720250546E+02  0.12700000000E+01 0. -1.
         25    2    1    2    0    0  0.00000000000E+00  0.00000000000E+00  0.10733155532E+03  0.16474989180E+03  0.12498985591E+03 0.  0.
    9000005    1    3    3    0    0  0.41110730203E+02 -0.27292164489E+02  0.10419691228E+03  0.11529506021E+03  0.10000000000E+01 0.  0.
    9000005    1    3    3    0    0 -0.41110730203E+02  0.27292164489E+02  0.31346430405E+01  0.49454831587E+02  0.10000000000E+01 0.  0.
<mgrwt>
<rscale>  0 0.12498986E+03</rscale>
<asrwt>0</asrwt>
<pdfrwt beam="1">  1        4 0.20929342E-01 0.12498986E+03</pdfrwt>
<pdfrwt beam="2">  1       -4 0.44167951E-02 0.12498986E+03</pdfrwt>
<totfact> 0.96456760E+03</totfact>
</mgrwt>
</event>
<event>
 5    1  0.3401591E-002  0.1249998E+03  0.7818608E-02  0.1235070E+00
          4   -1    0    0  501    0  0.00000000000E+00  0.00000000000E+00  0.55101585705E+02  0.55116219457E+02  0.12700000000E+01 0.  1.
         -4   -1    0    0    0  501 -0.00000000000E+00 -0.00000000000E+00 -0.70861841939E+02  0.70873221622E+02  0.12700000000E+01 0.  1.
         25    2    1    2    0    0  0.00000000000E+00  0.00000000000E+00 -0.15760256234E+02  0.12598944108E+03  0.12499981435E+03 0.  0.
    9000005    1    3    3    0    0 -0.46721344644E+02 -0.18631961789E+02  0.29497212669E+02  0.58319118655E+02  0.10000000000E+01 0.  0.
    9000005    1    3    3    0    0  0.46721344644E+02  0.18631961789E+02 -0.45257468903E+02  0.67670322424E+02  0.10000000000E+01 0.  0.
<mgrwt>
<rscale>  0 0.12499981E+03</rscale>
<asrwt>0</asrwt>
<pdfrwt beam="1">  1        4 0.84791681E-02 0.12499981E+03</pdfrwt>
<pdfrwt beam="2">  1       -4 0.10903823E-01 0.12499981E+03</pdfrwt>
<totfact> 0.10431232E+04</totfact>
</mgrwt>
</event>
<event>
 5    1  0.3401591E-002  0.1249994E+03  0.7818608E-02  0.1235070E+00
          4   -1    0    0  501    0  0.00000000000E+00  0.00000000000E+00  0.37987768023E+01  0.40054469406E+01  0.12700000000E+01 0. -1.
         -4   -1    0    0    0  501 -0.00000000000E+00 -0.00000000000E+00 -0.10008435360E+04  0.10008443418E+04  0.12700000000E+01 0. -1.
         25    2    1    2    0    0  0.00000000000E+00  0.00000000000E+00 -0.99704475918E+03  0.10048497887E+04  0.12499938411E+03 0.  0.
    9000005    1    3    3    0    0 -0.50938776430E+02 -0.10976759557E+02 -0.77582888523E+03  0.77757746068E+03  0.10000000000E+01 0.  0.
    9000005    1    3    3    0    0  0.50938776430E+02  0.10976759557E+02 -0.22121587395E+03  0.22727232802E+03  0.10000000000E+01 0.  0.
<mgrwt>
<rscale>  0 0.12499938E+03</rscale>
<asrwt>0</asrwt>
<pdfrwt beam="1">  1        4 0.60038768E-03 0.12499938E+03</pdfrwt>
<pdfrwt beam="2">  1       -4 0.15399168E+00 0.12499938E+03</pdfrwt>
<totfact> 0.30445338E+03</totfact>
</mgrwt>
</event>
<event>
 5    1  0.3401591E-002  0.1249960E+03  0.7818608E-02  0.1235075E+00
          4   -1    0    0  501    0  0.00000000000E+00  0.00000000000E+00  0.15635978366E+02  0.15687470142E+02  0.12700000000E+01 0.  1.
         -4   -1    0    0    0  501 -0.00000000000E+00 -0.00000000000E+00 -0.24934481147E+03  0.24934804573E+03  0.12700000000E+01 0.  1.
         25    2    1    2    0    0  0.00000000000E+00  0.00000000000E+00 -0.23370883311E+03  0.26503551587E+03  0.12499602394E+03 0.  0.
    9000005    1    3    3    0    0  0.42863448396E+02  0.99182755220E+01 -0.21095011768E+03  0.21549153010E+03  0.10000000000E+01 0.  0.
    9000005    1    3    3    0    0 -0.42863448396E+02 -0.99182755220E+01 -0.22758715428E+02  0.49543985766E+02  0.10000000000E+01 0.  0.
<mgrwt>
<rscale>  0 0.12499602E+03</rscale>
<asrwt>0</asrwt>
<pdfrwt beam="1">  1        4 0.24097450E-02 0.12499602E+03</pdfrwt>
<pdfrwt beam="2">  1       -4 0.38364947E-01 0.12499602E+03</pdfrwt>
<totfact> 0.80211648E+03</totfact>
</mgrwt>
</event>
<event>
 5    1  0.3401591E-002  0.1249966E+03  0.7818608E-02  0.1235075E+00
         -4   -1    0    0    0  501 -0.00000000000E+00  0.00000000000E+00  0.42493474112E+02  0.42512448084E+02  0.12700000000E+01 0.  1.
          4   -1    0    0  501    0  0.00000000000E+00 -0.00000000000E+00 -0.91876955108E+02  0.91885732189E+02  0.12700000000E+01 0.  1.
         25    2    1    2    0    0  0.00000000000E+00  0.00000000000E+00 -0.49383480996E+02  0.13439818027E+03  0.12499657062E+03 0.  0.
    9000005    1    3    3    0    0 -0.27780467557E+02  0.55546761192E+02 -0.32128514189E+02  0.69931670083E+02  0.10000000000E+01 0.  0.
    9000005    1    3    3    0    0  0.27780467557E+02 -0.55546761192E+02 -0.17254966807E+02  0.64466510190E+02  0.10000000000E+01 0.  0.
<mgrwt>
<rscale>  0 0.12499657E+03</rscale>
<asrwt>0</asrwt>
<pdfrwt beam="2">  1        4 0.14137051E-01 0.12499657E+03</pdfrwt>
<pdfrwt beam="1">  1       -4 0.65395923E-02 0.12499657E+03</pdfrwt>
<totfact> 0.10251564E+04</totfact>
</mgrwt>
</event>
<event>
 5    1  0.3401591E-002  0.1249913E+03  0.7818608E-02  0.1235083E+00
          4   -1    0    0  501    0  0.00000000000E+00  0.00000000000E+00  0.98476841229E+03  0.98476923122E+03  0.12700000000E+01 0. -1.
         -4   -1    0    0    0  501 -0.00000000000E+00 -0.00000000000E+00 -0.38636057458E+01  0.40669828324E+01  0.12700000000E+01 0. -1.
         25    2    1    2    0    0  0.00000000000E+00  0.00000000000E+00  0.98090480655E+03  0.98883621405E+03  0.12499127452E+03 0.  0.
    9000005    1    3    3    0    0 -0.80458685418E+01 -0.59458148396E+02  0.35235708833E+03  0.35743044793E+03  0.10000000000E+01 0.  0.
    9000005    1    3    3    0    0  0.80458685418E+01  0.59458148396E+02  0.62854771821E+03  0.63140576611E+03  0.10000000000E+01 0.  0.
<mgrwt>
<rscale>  0 0.12499127E+03</rscale>
<asrwt>0</asrwt>
<pdfrwt beam="1">  1        4 0.15151877E+00 0.12499127E+03</pdfrwt>
<pdfrwt beam="2">  1       -4 0.61010734E-03 0.12499127E+03</pdfrwt>
<totfact> 0.30981825E+03</totfact>
</mgrwt>
</event>
<event>
 5    1  0.3401591E-002  0.1249994E+03  0.7818608E-02  0.1235070E+00
          4   -1    0    0  501    0  0.00000000000E+00  0.00000000000E+00  0.67000981798E+02  0.67013017108E+02  0.12700000000E+01 0.  1.
         -4   -1    0    0    0  501 -0.00000000000E+00 -0.00000000000E+00 -0.58276643602E+02  0.58290480265E+02  0.12700000000E+01 0.  1.
         25    2    1    2    0    0  0.00000000000E+00  0.00000000000E+00  0.87243381963E+01  0.12530349737E+03  0.12499940951E+03 0.  0.
    9000005    1    3    3    0    0 -0.54532907615E+02  0.21797539763E+02 -0.17049623359E+02  0.61160938592E+02  0.10000000000E+01 0.  0.
    9000005    1    3    3    0    0  0.54532907615E+02 -0.21797539763E+02  0.25773961556E+02  0.64142558781E+02  0.10000000000E+01 0.  0.
<mgrwt>
<rscale>  0 0.12499941E+03</rscale>
<asrwt>0</asrwt>
<pdfrwt beam="1">  1        4 0.10309833E-01 0.12499941E+03</pdfrwt>
<pdfrwt beam="2">  1       -4 0.89676277E-02 0.12499941E+03</pdfrwt>
<totfact> 0.10446414E+04</totfact>
</mgrwt>
</event>
<event>
 5    1  0.3401591E-002  0.1250009E+03  0.7818608E-02  0.1235068E+00
          4   -1    0    0  501    0  0.00000000000E+00  0.00000000000E+00  0.70226738877E+03  0.70226853712E+03  0.12700000000E+01 0.  1.
         -4   -1    0    0    0  501 -0.00000000000E+00 -0.00000000000E+00 -0.54887632731E+01  0.56337751347E+01  0.12700000000E+01 0.  1.
         25    2    1    2    0    0  0.00000000000E+00  0.00000000000E+00  0.69677862549E+03  0.70790231225E+03  0.12500092299E+03 0.  0.
    9000005    1    3    3    0    0  0.32900877354E+02  0.43933609923E+02  0.17918653181E+03  0.18740715833E+03  0.10000000000E+01 0.  0.
    9000005    1    3    3    0    0 -0.32900877354E+02 -0.43933609923E+02  0.51759209369E+03  0.52049515392E+03  0.10000000000E+01 0.  0.
<mgrwt>
<rscale>  0 0.12500092E+03</rscale>
<asrwt>0</asrwt>
<pdfrwt beam="1">  1        4 0.10805239E+00 0.12500092E+03</pdfrwt>
<pdfrwt beam="2">  1       -4 0.85566812E-03 0.12500092E+03</pdfrwt>
<totfact> 0.42671949E+03</totfact>
</mgrwt>
</event>
<event>
 5    1  0.3401591E-002  0.1249976E+03  0.7818608E-02  0.1235073E+00
          4   -1    0    0  501    0  0.00000000000E+00  0.00000000000E+00  0.17903784402E+03  0.17904234832E+03  0.12700000000E+01 0.  1.
         -4   -1    0    0    0  501 -0.00000000000E+00 -0.00000000000E+00 -0.21793924607E+02  0.21830896678E+02  0.12700000000E+01 0.  1.
         25    2    1    2    0    0  0.00000000000E+00  0.00000000000E+00  0.15724391941E+03  0.20087324500E+03  0.12499764143E+03 0.  0.
    9000005    1    3    3    0    0 -0.56634352423E+02 -0.72000835962E+01  0.11946077814E+03  0.13240531935E+03  0.10000000000E+01 0.  0.
    9000005    1    3    3    0    0  0.56634352423E+02  0.72000835962E+01  0.37783141274E+02  0.68467925649E+02  0.10000000000E+01 0.  0.
<mgrwt>
<rscale>  0 0.12499764E+03</rscale>
<asrwt>0</asrwt>
<pdfrwt beam="1">  1        4 0.27547474E-01 0.12499764E+03</pdfrwt>
<pdfrwt beam="2">  1       -4 0.33561020E-02 0.12499764E+03</pdfrwt>
<totfact> 0.89993184E+03</totfact>
</mgrwt>
</event>
<event>
 5    1  0.3401591E-002  0.1249984E+03  0.7818608E-02  0.1235072E+00
          4   -1    0    0  501    0  0.00000000000E+00  0.00000000000E+00  0.51236160773E+02  0.51251898216E+02  0.12700000000E+01 0.  1.
         -4   -1    0    0    0  501 -0.00000000000E+00 -0.00000000000E+00 -0.76205392632E+02  0.76215974482E+02  0.12700000000E+01 0.  1.
         25    2    1    2    0    0  0.00000000000E+00  0.00000000000E+00 -0.24969231859E+02  0.12746787270E+03  0.12499838411E+03 0.  0.
    9000005    1    3    3    0    0 -0.16227788489E+02  0.36794045300E+01  0.48940520587E+02  0.51701583073E+02  0.10000000000E+01 0.  0.
    9000005    1    3    3    0    0  0.16227788489E+02 -0.36794045300E+01 -0.73909752446E+02  0.75766289625E+02  0.10000000000E+01 0.  0.
<mgrwt>
<rscale>  0 0.12499838E+03</rscale>
<asrwt>0</asrwt>
<pdfrwt beam="1">  1        4 0.78845109E-02 0.12499838E+03</pdfrwt>
<pdfrwt beam="2">  1       -4 0.11725931E-01 0.12499838E+03</pdfrwt>
<totfact> 0.10399376E+04</totfact>
</mgrwt>
</event>
<event>
 5    1  0.3401591E-002  0.1249994E+03  0.7818608E-02  0.1235070E+00
         -4   -1    0    0    0  501 -0.00000000000E+00  0.00000000000E+00  0.14174656808E+03  0.14175225735E+03  0.12700000000E+01 0. -1.
          4   -1    0    0  501    0  0.00000000000E+00 -0.00000000000E+00 -0.27536864484E+02  0.27566135123E+02  0.12700000000E+01 0. -1.
         25    2    1    2    0    0  0.00000000000E+00  0.00000000000E+00  0.11420970360E+03  0.16931839247E+03  0.12499944653E+03 0.  0.
    9000005    1    3    3    0    0  0.41754303928E+02 -0.41792780169E+02  0.84704417530E+02  0.10327582834E+03  0.10000000000E+01 0.  0.
    9000005    1    3    3    0    0 -0.41754303928E+02  0.41792780169E+02  0.29505286068E+02  0.66042564129E+02  0.10000000000E+01 0.  0.
<mgrwt>
<rscale>  0 0.12499945E+03</rscale>
<asrwt>0</asrwt>
<pdfrwt beam="2">  1        4 0.42391299E-02 0.12499945E+03</pdfrwt>
<pdfrwt beam="1">  1       -4 0.21809854E-01 0.12499945E+03</pdfrwt>
<totfact> 0.95576937E+03</totfact>
</mgrwt>
</event>
<event>
 5    1  0.3401591E-002  0.1250052E+03  0.7818608E-02  0.1235061E+00
         -4   -1    0    0    0  501 -0.00000000000E+00  0.00000000000E+00  0.78269710438E+02  0.78280013235E+02  0.12700000000E+01 0. -1.
          4   -1    0    0  501    0  0.00000000000E+00 -0.00000000000E+00 -0.49890067395E+02  0.49906229317E+02  0.12700000000E+01 0. -1.
         25    2    1    2    0    0  0.00000000000E+00  0.00000000000E+00  0.28379643043E+02  0.12818624255E+03  0.12500523445E+03 0.  0.
    9000005    1    3    3    0    0  0.33742246299E+02  0.49119447251E+02 -0.51125091245E+01  0.59819704389E+02  0.10000000000E+01 0.  0.
    9000005    1    3    3    0    0 -0.33742246299E+02 -0.49119447251E+02  0.33492152168E+02  0.68366538163E+02  0.10000000000E+01 0.  0.
<mgrwt>
<rscale>  0 0.12500523E+03</rscale>
<asrwt>0</asrwt>
<pdfrwt beam="2">  1        4 0.76774308E-02 0.12500523E+03</pdfrwt>
<pdfrwt beam="1">  1       -4 0.12043530E-01 0.12500523E+03</pdfrwt>
<totfact> 0.10382241E+04</totfact>
</mgrwt>
</event>
<event>
 5    1  0.3401591E-002  0.1250011E+03  0.7818608E-02  0.1235068E+00
          4   -1    0    0  501    0  0.00000000000E+00  0.00000000000E+00  0.69822207404E+02  0.69833756499E+02  0.12700000000E+01 0.  1.
         -4   -1    0    0    0  501 -0.00000000000E+00 -0.00000000000E+00 -0.55923296328E+02  0.55937715114E+02  0.12700000000E+01 0.  1.
         25    2    1    2    0    0  0.00000000000E+00  0.00000000000E+00  0.13898911076E+02  0.12577147161E+03  0.12500113337E+03 0.  0.
    9000005    1    3    3    0    0 -0.14454446987E+02  0.35656948033E+02 -0.42598021262E+02  0.57410281276E+02  0.10000000000E+01 0.  0.
    9000005    1    3    3    0    0  0.14454446987E+02 -0.35656948033E+02  0.56496932338E+02  0.68361190337E+02  0.10000000000E+01 0.  0.
<mgrwt>
<rscale>  0 0.12500113E+03</rscale>
<asrwt>0</asrwt>
<pdfrwt beam="1">  1        4 0.10743876E-01 0.12500113E+03</pdfrwt>
<pdfrwt beam="2">  1       -4 0.86055816E-02 0.12500113E+03</pdfrwt>
<totfact> 0.10435705E+04</totfact>
</mgrwt>
</event>
<event>
 5    1  0.3401591E-002  0.1249957E+03  0.7818608E-02  0.1235076E+00
         -4   -1    0    0    0  501 -0.00000000000E+00  0.00000000000E+00  0.21392756840E+02  0.21430421023E+02  0.12700000000E+01 0. -1.
          4   -1    0    0  501    0  0.00000000000E+00 -0.00000000000E+00 -0.18238373386E+03  0.18238815553E+03  0.12700000000E+01 0. -1.
         25    2    1    2    0    0  0.00000000000E+00  0.00000000000E+00 -0.16099097702E+03  0.20381857655E+03  0.12499566979E+03 0.  0.
    9000005    1    3    3    0    0  0.37946352438E+01  0.21753190501E+02  0.14826996885E+02  0.26616543544E+02  0.10000000000E+01 0.  0.
    9000005    1    3    3    0    0 -0.37946352438E+01 -0.21753190501E+02 -0.17581797390E+03  0.17720203301E+03  0.10000000000E+01 0.  0.
<mgrwt>
<rscale>  0 0.12499567E+03</rscale>
<asrwt>0</asrwt>
<pdfrwt beam="2">  1        4 0.28062272E-01 0.12499567E+03</pdfrwt>
<pdfrwt beam="1">  1       -4 0.32944308E-02 0.12499567E+03</pdfrwt>
<totfact> 0.89504115E+03</totfact>
</mgrwt>
</event>
<event>
 5    1  0.3401591E-002  0.1249902E+03  0.7818608E-02  0.1235085E+00
         -4   -1    0    0    0  501 -0.00000000000E+00  0.00000000000E+00  0.33471127619E+03  0.33471368557E+03  0.12700000000E+01 0. -1.
          4   -1    0    0  501    0  0.00000000000E+00 -0.00000000000E+00 -0.11631657659E+02  0.11700784585E+02  0.12700000000E+01 0. -1.
         25    2    1    2    0    0  0.00000000000E+00  0.00000000000E+00  0.32307961853E+03  0.34641447015E+03  0.12499018051E+03 0.  0.
    9000005    1    3    3    0    0 -0.57628877075E+01 -0.13866742293E+02  0.32964968261E+03  0.32999304638E+03  0.10000000000E+01 0.  0.
    9000005    1    3    3    0    0  0.57628877075E+01  0.13866742293E+02 -0.65700640823E+01  0.16421423769E+02  0.10000000000E+01 0.  0.
<mgrwt>
<rscale>  0 0.12499018E+03</rscale>
<asrwt>0</asrwt>
<pdfrwt beam="2">  1        4 0.17949886E-02 0.12499018E+03</pdfrwt>
<pdfrwt beam="1">  1       -4 0.51499544E-01 0.12499018E+03</pdfrwt>
<totfact> 0.70136060E+03</totfact>
</mgrwt>
</event>
<event>
 5    1  0.3401591E-002  0.1250002E+03  0.7818608E-02  0.1235069E+00
          4   -1    0    0  501    0  0.00000000000E+00  0.00000000000E+00  0.27080359376E+03  0.27080657173E+03  0.12700000000E+01 0.  1.
         -4   -1    0    0    0  501 -0.00000000000E+00 -0.00000000000E+00 -0.14393689308E+02  0.14449608711E+02  0.12700000000E+01 0.  1.
         25    2    1    2    0    0  0.00000000000E+00  0.00000000000E+00  0.25640990445E+03  0.28525618045E+03  0.12500019752E+03 0.  0.
    9000005    1    3    3    0    0 -0.28248696223E+02 -0.34170335522E+02  0.27700024381E+02  0.52286633270E+02  0.10000000000E+01 0.  0.
    9000005    1    3    3    0    0  0.28248696223E+02  0.34170335522E+02  0.22870988007E+03  0.23296954717E+03  0.10000000000E+01 0.  0.
<mgrwt>
<rscale>  0 0.12500020E+03</rscale>
<asrwt>0</asrwt>
<pdfrwt beam="1">  1        4 0.41666622E-01 0.12500020E+03</pdfrwt>
<pdfrwt beam="2">  1       -4 0.22189443E-02 0.12500020E+03</pdfrwt>
<totfact> 0.77485955E+03</totfact>
</mgrwt>
</event>
<event>
 5    1  0.3401591E-002  0.1249987E+03  0.7818608E-02  0.1235071E+00
         -4   -1    0    0    0  501 -0.00000000000E+00  0.00000000000E+00  0.22374943308E+03  0.22375303730E+03  0.12700000000E+01 0.  1.
          4   -1    0    0  501    0  0.00000000000E+00 -0.00000000000E+00 -0.17430930301E+02  0.17477134524E+02  0.12700000000E+01 0.  1.
         25    2    1    2    0    0  0.00000000000E+00  0.00000000000E+00  0.20631850278E+03  0.24123017183E+03  0.12499868484E+03 0.  0.
    9000005    1    3    3    0    0  0.56916137133E+02  0.25800960656E+02  0.10350212734E+03  0.12090833966E+03  0.10000000000E+01 0.  0.
    9000005    1    3    3    0    0 -0.56916137133E+02 -0.25800960656E+02  0.10281637544E+03  0.12032183216E+03  0.10000000000E+01 0.  0.
<mgrwt>
<rscale>  0 0.12499868E+03</rscale>
<asrwt>0</asrwt>
<pdfrwt beam="2">  1        4 0.26855130E-02 0.12499868E+03</pdfrwt>
<pdfrwt beam="1">  1       -4 0.34426821E-01 0.12499868E+03</pdfrwt>
<totfact> 0.83616947E+03</totfact>
</mgrwt>
</event>
<event>
 5    1  0.3401591E-002  0.1250028E+03  0.7818608E-02  0.1235065E+00
         -4   -1    0    0    0  501 -0.00000000000E+00  0.00000000000E+00  0.70492310529E+02  0.70503749856E+02  0.12700000000E+01 0. -1.
          4   -1    0    0  501    0  0.00000000000E+00 -0.00000000000E+00 -0.55393079171E+02  0.55407635936E+02  0.12700000000E+01 0. -1.
         25    2    1    2    0    0  0.00000000000E+00  0.00000000000E+00  0.15099231358E+02  0.12591138579E+03  0.12500276111E+03 0.  0.
    9000005    1    3    3    0    0  0.21252550932E+02 -0.42087411563E+01  0.66593427346E+02  0.70036197705E+02  0.10000000000E+01 0.  0.
    9000005    1    3    3    0    0 -0.21252550932E+02  0.42087411563E+01 -0.51494195988E+02  0.55875188087E+02  0.10000000000E+01 0.  0.
<mgrwt>
<rscale>  0 0.12500276E+03</rscale>
<asrwt>0</asrwt>
<pdfrwt beam="2">  1        4 0.85240118E-02 0.12500276E+03</pdfrwt>
<pdfrwt beam="1">  1       -4 0.10846971E-01 0.12500276E+03</pdfrwt>
<totfact> 0.10432250E+04</totfact>
</mgrwt>
</event>
<event>
 5    1  0.3401591E-002  0.1250021E+03  0.7818608E-02  0.1235066E+00
         -4   -1    0    0    0  501 -0.00000000000E+00  0.00000000000E+00  0.59759883389E+02  0.59773376705E+02  0.12700000000E+01 0. -1.
          4   -1    0    0  501    0  0.00000000000E+00 -0.00000000000E+00 -0.65340858623E+02  0.65353199658E+02  0.12700000000E+01 0. -1.
         25    2    1    2    0    0  0.00000000000E+00  0.00000000000E+00 -0.55809752338E+01  0.12512657636E+03  0.12500205129E+03 0.  0.
    9000005    1    3    3    0    0  0.54713733230E+02 -0.12365379038E+02  0.24784786305E+02  0.61333358255E+02  0.10000000000E+01 0.  0.
    9000005    1    3    3    0    0 -0.54713733230E+02  0.12365379038E+02 -0.30365761538E+02  0.63793218108E+02  0.10000000000E+01 0.  0.
<mgrwt>
<rscale>  0 0.12500205E+03</rscale>
<asrwt>0</asrwt>
<pdfrwt beam="2">  1        4 0.10054427E-01 0.12500205E+03</pdfrwt>
<pdfrwt beam="1">  1       -4 0.91958154E-02 0.12500205E+03</pdfrwt>
<totfact> 0.10449630E+04</totfact>
</mgrwt>
</event>
<event>
 5    1  0.3401591E-002  0.1250030E+03  0.7818608E-02  0.1235065E+00
         -4   -1    0    0    0  501 -0.00000000000E+00  0.00000000000E+00  0.26113692254E+02  0.26144556281E+02  0.12700000000E+01 0. -1.
          4   -1    0    0  501    0  0.00000000000E+00 -0.00000000000E+00 -0.14947156321E+03  0.14947695846E+03  0.12700000000E+01 0. -1.
         25    2    1    2    0    0  0.00000000000E+00  0.00000000000E+00 -0.12335787096E+03  0.17562151474E+03  0.12500300841E+03 0.  0.
    9000005    1    3    3    0    0 -0.51067728825E+02 -0.35682498337E+02 -0.68602361530E+02  0.92673823826E+02  0.10000000000E+01 0.  0.
    9000005    1    3    3    0    0  0.51067728825E+02  0.35682498337E+02 -0.54755509430E+02  0.82947690913E+02  0.10000000000E+01 0.  0.
<mgrwt>
<rscale>  0 0.12500301E+03</rscale>
<asrwt>0</asrwt>
<pdfrwt beam="2">  1        4 0.22998414E-01 0.12500301E+03</pdfrwt>
<pdfrwt beam="1">  1       -4 0.40202804E-02 0.12500301E+03</pdfrwt>
<totfact> 0.94404764E+03</totfact>
</mgrwt>
</event>
<event>
 5    1  0.3401591E-002  0.1249999E+03  0.7818608E-02  0.1235069E+00
          4   -1    0    0  501    0  0.00000000000E+00  0.00000000000E+00  0.88329373779E+01  0.89237706560E+01  0.12700000000E+01 0.  1.
         -4   -1    0    0    0  501 -0.00000000000E+00 -0.00000000000E+00 -0.43988212154E+03  0.43988395487E+03  0.12700000000E+01 0.  1.
         25    2    1    2    0    0  0.00000000000E+00  0.00000000000E+00 -0.43104918417E+03  0.44880772553E+03  0.12499990129E+03 0.  0.
    9000005    1    3    3    0    0  0.92815499368E+01  0.39870584149E+02 -0.38505510822E+03  0.38722635114E+03  0.10000000000E+01 0.  0.
    9000005    1    3    3    0    0 -0.92815499368E+01 -0.39870584149E+02 -0.45994075945E+02  0.61581374389E+02  0.10000000000E+01 0.  0.
<mgrwt>
<rscale>  0 0.12499990E+03</rscale>
<asrwt>0</asrwt>
<pdfrwt beam="1">  1        4 0.13660420E-02 0.12499990E+03</pdfrwt>
<pdfrwt beam="2">  1       -4 0.67681284E-01 0.12499990E+03</pdfrwt>
<totfact> 0.60067359E+03</totfact>
</mgrwt>
</event>
<event>
 5    1  0.3401591E-002  0.1249948E+03  0.7818608E-02  0.1235077E+00
         -4   -1    0    0    0  501 -0.00000000000E+00  0.00000000000E+00  0.10646181760E+03  0.10646939235E+03  0.12700000000E+01 0. -1.
          4   -1    0    0  501    0  0.00000000000E+00 -0.00000000000E+00 -0.36668621198E+02  0.36690607526E+02  0.12700000000E+01 0. -1.
         25    2    1    2    0    0  0.00000000000E+00  0.00000000000E+00  0.69793196404E+02  0.14315999987E+03  0.12499478109E+03 0.  0.
    9000005    1    3    3    0    0  0.13198610020E+02 -0.60090185414E+02  0.22355905259E+02  0.65466175919E+02  0.10000000000E+01 0.  0.
    9000005    1    3    3    0    0 -0.13198610020E+02  0.60090185414E+02  0.47437291145E+02  0.77693823955E+02  0.10000000000E+01 0.  0.
<mgrwt>
<rscale>  0 0.12499478E+03</rscale>
<asrwt>0</asrwt>
<pdfrwt beam="2">  1        4 0.56436002E-02 0.12499478E+03</pdfrwt>
<pdfrwt beam="1">  1       -4 0.16381015E-01 0.12499478E+03</pdfrwt>
<totfact> 0.10069691E+04</totfact>
</mgrwt>
</event>
<event>
 5    1  0.3401591E-002  0.1249977E+03  0.7818608E-02  0.1235073E+00
          4   -1    0    0  501    0  0.00000000000E+00  0.00000000000E+00  0.29284635065E+03  0.29284910447E+03  0.12700000000E+01 0.  1.
         -4   -1    0    0    0  501 -0.00000000000E+00 -0.00000000000E+00 -0.13305359311E+02  0.13365832799E+02  0.12700000000E+01 0.  1.
         25    2    1    2    0    0  0.00000000000E+00  0.00000000000E+00  0.27954099134E+03  0.30621493727E+03  0.12499768785E+03 0.  0.
    9000005    1    3    3    0    0  0.34050310429E+01  0.43781506844E+02  0.30853971029E+02  0.53678506930E+02  0.10000000000E+01 0.  0.
    9000005    1    3    3    0    0 -0.34050310429E+01 -0.43781506844E+02  0.24868702031E+03  0.25253643034E+03  0.10000000000E+01 0.  0.
<mgrwt>
<rscale>  0 0.12499769E+03</rscale>
<asrwt>0</asrwt>
<pdfrwt beam="1">  1        4 0.45058152E-01 0.12499769E+03</pdfrwt>
<pdfrwt beam="2">  1       -4 0.20518418E-02 0.12499769E+03</pdfrwt>
<totfact> 0.74829639E+03</totfact>
</mgrwt>
</event>
<event>
 5    1  0.3401591E-002  0.1250262E+03  0.7818608E-02  0.1235028E+00
          4   -1    0    0  501    0  0.00000000000E+00  0.00000000000E+00  0.15402192736E+03  0.15402716321E+03  0.12700000000E+01 0.  1.
         -4   -1    0    0    0  501 -0.00000000000E+00 -0.00000000000E+00 -0.25350705165E+02  0.25382496968E+02  0.12700000000E+01 0.  1.
         25    2    1    2    0    0  0.00000000000E+00  0.00000000000E+00  0.12867122219E+03  0.17940966018E+03  0.12502616824E+03 0.  0.
    9000005    1    3    3    0    0 -0.35028294996E+01  0.17337998224E+02 -0.21691338595E+02  0.28006966400E+02  0.10000000000E+01 0.  0.
    9000005    1    3    3    0    0  0.35028294996E+01 -0.17337998224E+02  0.15036256079E+03  0.15140269378E+03  0.10000000000E+01 0.  0.
<mgrwt>
<rscale>  0 0.12502617E+03</rscale>
<asrwt>0</asrwt>
<pdfrwt beam="1">  1        4 0.23698530E-01 0.12502617E+03</pdfrwt>
<pdfrwt beam="2">  1       -4 0.39029567E-02 0.12502617E+03</pdfrwt>
<totfact> 0.93668400E+03</totfact>
</mgrwt>
</event>
<event>
 5    1  0.3401591E-002  0.1250005E+03  0.7818608E-02  0.1235068E+00
          4   -1    0    0  501    0  0.00000000000E+00  0.00000000000E+00  0.20893746566E+01  0.24450739162E+01  0.12700000000E+01 0.  1.
         -4   -1    0    0    0  501 -0.00000000000E+00 -0.00000000000E+00 -0.17225799768E+04  0.17225804450E+04  0.12700000000E+01 0.  1.
         25    2    1    2    0    0  0.00000000000E+00  0.00000000000E+00 -0.17204906022E+04  0.17250255189E+04  0.12500051490E+03 0.  0.
    9000005    1    3    3    0    0  0.47565201951E+02 -0.34865512200E+02 -0.11454879710E+04  0.11470055554E+04  0.10000000000E+01 0.  0.
    9000005    1    3    3    0    0 -0.47565201951E+02  0.34865512200E+02 -0.57500263114E+03  0.57801996349E+03  0.10000000000E+01 0.  0.
<mgrwt>
<rscale>  0 0.12500051E+03</rscale>
<asrwt>0</asrwt>
<pdfrwt beam="1">  1        4 0.34884113E-03 0.12500051E+03</pdfrwt>
<pdfrwt beam="2">  1       -4 0.26503865E+00 0.12500051E+03</pdfrwt>
<totfact> 0.13894562E+03</totfact>
</mgrwt>
</event>
<event>
 5    1  0.3401591E-002  0.1249982E+03  0.7818608E-02  0.1235072E+00
         -4   -1    0    0    0  501 -0.00000000000E+00  0.00000000000E+00  0.53966243716E+02  0.53981185249E+02  0.12700000000E+01 0.  1.
          4   -1    0    0  501    0  0.00000000000E+00 -0.00000000000E+00 -0.72350537176E+02  0.72361682744E+02  0.12700000000E+01 0.  1.
         25    2    1    2    0    0  0.00000000000E+00  0.00000000000E+00 -0.18384293459E+02  0.12634286799E+03  0.12499815217E+03 0.  0.
    9000005    1    3    3    0    0  0.54731557440E+02  0.98709830846E+01 -0.37997058716E+02  0.67362869282E+02  0.10000000000E+01 0.  0.
    9000005    1    3    3    0    0 -0.54731557440E+02 -0.98709830846E+01  0.19612765257E+02  0.58979998711E+02  0.10000000000E+01 0.  0.
<mgrwt>
<rscale>  0 0.12499815E+03</rscale>
<asrwt>0</asrwt>
<pdfrwt beam="2">  1        4 0.11132859E-01 0.12499815E+03</pdfrwt>
<pdfrwt beam="1">  1       -4 0.83045057E-02 0.12499815E+03</pdfrwt>
<totfact> 0.10423892E+04</totfact>
</mgrwt>
</event>
<event>
 5    1  0.3401591E-002  0.1250021E+03  0.7818608E-02  0.1235066E+00
         -4   -1    0    0    0  501 -0.00000000000E+00  0.00000000000E+00  0.42145264086E+03  0.42145455436E+03  0.12700000000E+01 0.  1.
          4   -1    0    0  501    0  0.00000000000E+00 -0.00000000000E+00 -0.92234088698E+01  0.93104334582E+01  0.12700000000E+01 0.  1.
         25    2    1    2    0    0  0.00000000000E+00  0.00000000000E+00  0.41222923199E+03  0.43076498782E+03  0.12500214006E+03 0.  0.
    9000005    1    3    3    0    0 -0.18539050878E+02 -0.30231488263E+02  0.28793284743E+02  0.45691274181E+02  0.10000000000E+01 0.  0.
    9000005    1    3    3    0    0  0.18539050878E+02  0.30231488263E+02  0.38343594725E+03  0.38507371364E+03  0.10000000000E+01 0.  0.
<mgrwt>
<rscale>  0 0.12500214E+03</rscale>
<asrwt>0</asrwt>
<pdfrwt beam="2">  1        4 0.14258275E-02 0.12500214E+03</pdfrwt>
<pdfrwt beam="1">  1       -4 0.64845702E-01 0.12500214E+03</pdfrwt>
<totfact> 0.61663804E+03</totfact>
</mgrwt>
</event>
<event>
 5    1  0.3401591E-002  0.1249972E+03  0.7818608E-02  0.1235074E+00
         -4   -1    0    0    0  501 -0.00000000000E+00  0.00000000000E+00  0.14357940039E+02  0.14413998132E+02  0.12700000000E+01 0. -1.
          4   -1    0    0  501    0  0.00000000000E+00 -0.00000000000E+00 -0.27146229089E+03  0.27146526163E+03  0.12700000000E+01 0. -1.
         25    2    1    2    0    0  0.00000000000E+00  0.00000000000E+00 -0.25710435085E+03  0.28587925976E+03  0.12499721573E+03 0.  0.
    9000005    1    3    3    0    0 -0.56246642456E+02  0.29562226892E+01 -0.66646400713E+02  0.87264922897E+02  0.10000000000E+01 0.  0.
    9000005    1    3    3    0    0  0.56246642456E+02 -0.29562226892E+01 -0.19045795013E+03  0.19861433687E+03  0.10000000000E+01 0.  0.
<mgrwt>
<rscale>  0 0.12499722E+03</rscale>
<asrwt>0</asrwt>
<pdfrwt beam="2">  1        4 0.41767966E-01 0.12499722E+03</pdfrwt>
<pdfrwt beam="1">  1       -4 0.22134547E-02 0.12499722E+03</pdfrwt>
<totfact> 0.77409752E+03</totfact>
</mgrwt>
</event>
<event>
 5    1  0.3401591E-002  0.1250022E+03  0.7818608E-02  0.1235066E+00
         -4   -1    0    0    0  501 -0.00000000000E+00  0.00000000000E+00  0.12040841321E+02  0.12107632292E+02  0.12700000000E+01 0. -1.
          4   -1    0    0  501    0  0.00000000000E+00 -0.00000000000E+00 -0.32346263557E+03  0.32346512874E+03  0.12700000000E+01 0. -1.
         25    2    1    2    0    0  0.00000000000E+00  0.00000000000E+00 -0.31142179425E+03  0.33557276103E+03  0.12500217603E+03 0.  0.
    9000005    1    3    3    0    0 -0.79646520774E+01 -0.56169432340E+02 -0.22607160041E+03  0.23308326693E+03  0.10000000000E+01 0.  0.
    9000005    1    3    3    0    0  0.79646520774E+01  0.56169432340E+02 -0.85350193837E+02  0.10248949410E+03  0.10000000000E+01 0.  0.
<mgrwt>
<rscale>  0 0.12500218E+03</rscale>
<asrwt>0</asrwt>
<pdfrwt beam="2">  1        4 0.49768805E-01 0.12500218E+03</pdfrwt>
<pdfrwt beam="1">  1       -4 0.18577669E-02 0.12500218E+03</pdfrwt>
<totfact> 0.71338010E+03</totfact>
</mgrwt>
</event>
<event>
 5    1  0.3401591E-002  0.1249427E+03  0.7818608E-02  0.1235159E+00
          4   -1    0    0  501    0  0.00000000000E+00  0.00000000000E+00  0.67985927878E+02  0.67997788857E+02  0.12700000000E+01 0. -1.
         -4   -1    0    0    0  501 -0.00000000000E+00 -0.00000000000E+00 -0.57380221387E+02  0.57394274161E+02  0.12700000000E+01 0. -1.
         25    2    1    2    0    0  0.00000000000E+00  0.00000000000E+00  0.10605706491E+02  0.12539206302E+03  0.12494274072E+03 0.  0.
    9000005    1    3    3    0    0 -0.29858782589E+02  0.18981740310E+01  0.60331802896E+02  0.67350400170E+02  0.10000000000E+01 0.  0.
    9000005    1    3    3    0    0  0.29858782589E+02 -0.18981740310E+01 -0.49726096405E+02  0.58041662847E+02  0.10000000000E+01 0.  0.
<mgrwt>
<rscale>  0 0.12494274E+03</rscale>
<asrwt>0</asrwt>
<pdfrwt beam="1">  1        4 0.10461367E-01 0.12494274E+03</pdfrwt>
<pdfrwt beam="2">  1       -4 0.88297198E-02 0.12494274E+03</pdfrwt>
<totfact> 0.10457841E+04</totfact>
</mgrwt>
</event>
<event>
 5    1  0.3401591E-002  0.1250025E+03  0.7818608E-02  0.1235065E+00
          4   -1    0    0  501    0  0.00000000000E+00  0.00000000000E+00  0.93012947733E+02  0.93021617627E+02  0.12700000000E+01 0.  1.
         -4   -1    0    0    0  501 -0.00000000000E+00 -0.00000000000E+00 -0.41978261124E+02  0.41997467865E+02  0.12700000000E+01 0.  1.
         25    2    1    2    0    0  0.00000000000E+00  0.00000000000E+00  0.51034686609E+02  0.13501908549E+03  0.12500245682E+03 0.  0.
    9000005    1    3    3    0    0 -0.31097710322E+01  0.51868674752E+02 -0.11983188367E+02  0.53335043826E+02  0.10000000000E+01 0.  0.
    9000005    1    3    3    0    0  0.31097710322E+01 -0.51868674752E+02  0.63017874976E+02  0.81684041666E+02  0.10000000000E+01 0.  0.
<mgrwt>
<rscale>  0 0.12500246E+03</rscale>
<asrwt>0</asrwt>
<pdfrwt beam="1">  1        4 0.14311828E-01 0.12500246E+03</pdfrwt>
<pdfrwt beam="2">  1       -4 0.64603385E-02 0.12500246E+03</pdfrwt>
<totfact> 0.10237101E+04</totfact>
</mgrwt>
</event>
<event>
 5    1  0.3401591E-002  0.1250059E+03  0.7818608E-02  0.1235060E+00
          4   -1    0    0  501    0  0.00000000000E+00  0.00000000000E+00  0.27405766415E+03  0.27406060677E+03  0.12700000000E+01 0. -1.
         -4   -1    0    0    0  501 -0.00000000000E+00 -0.00000000000E+00 -0.14223413980E+02  0.14280000184E+02  0.12700000000E+01 0. -1.
         25    2    1    2    0    0  0.00000000000E+00  0.00000000000E+00  0.25983425017E+03  0.28834060695E+03  0.12500587208E+03 0.  0.
    9000005    1    3    3    0    0 -0.49463553084E+02 -0.18311695763E+02  0.20723715780E+03  0.21384620842E+03  0.10000000000E+01 0.  0.
    9000005    1    3    3    0    0  0.49463553084E+02  0.18311695763E+02  0.52597092376E+02  0.74494398526E+02  0.10000000000E+01 0.  0.
<mgrwt>
<rscale>  0 0.12500587E+03</rscale>
<asrwt>0</asrwt>
<pdfrwt beam="1">  1        4 0.42167291E-01 0.12500587E+03</pdfrwt>
<pdfrwt beam="2">  1       -4 0.21927970E-02 0.12500587E+03</pdfrwt>
<totfact> 0.77074989E+03</totfact>
</mgrwt>
</event>
<event>
 5    1  0.3401591E-002  0.1250043E+03  0.7818608E-02  0.1235063E+00
         -4   -1    0    0    0  501 -0.00000000000E+00  0.00000000000E+00  0.81875652324E+02  0.81885501424E+02  0.12700000000E+01 0.  1.
          4   -1    0    0  501    0  0.00000000000E+00 -0.00000000000E+00 -0.47691625208E+02  0.47708531889E+02  0.12700000000E+01 0.  1.
         25    2    1    2    0    0  0.00000000000E+00  0.00000000000E+00  0.34184027116E+02  0.12959403331E+03  0.12500426297E+03 0.  0.
    9000005    1    3    3    0    0 -0.30190954393E+02  0.14163584932E+02  0.71885376714E+02  0.79250288647E+02  0.10000000000E+01 0.  0.
    9000005    1    3    3    0    0  0.30190954393E+02 -0.14163584932E+02 -0.37701349599E+02  0.50343744665E+02  0.10000000000E+01 0.  0.
<mgrwt>
<rscale>  0 0.12500426E+03</rscale>
<asrwt>0</asrwt>
<pdfrwt beam="2">  1        4 0.73392313E-02 0.12500426E+03</pdfrwt>
<pdfrwt beam="1">  1       -4 0.12598312E-01 0.12500426E+03</pdfrwt>
<totfact> 0.10352203E+04</totfact>
</mgrwt>
</event>
<event>
 5    1  0.3401591E-002  0.1250079E+03  0.7818608E-02  0.1235057E+00
         -4   -1    0    0    0  501 -0.00000000000E+00  0.00000000000E+00  0.28493743641E+03  0.28494026666E+03  0.12700000000E+01 0.  1.
          4   -1    0    0  501    0  0.00000000000E+00 -0.00000000000E+00 -0.13678566536E+02  0.13737397224E+02  0.12700000000E+01 0.  1.
         25    2    1    2    0    0  0.00000000000E+00  0.00000000000E+00  0.27125886987E+03  0.29867766389E+03  0.12500788944E+03 0.  0.
    9000005    1    3    3    0    0  0.44692337770E+02 -0.33898470911E+02  0.69795093568E+02  0.89548123775E+02  0.10000000000E+01 0.  0.
    9000005    1    3    3    0    0 -0.44692337770E+02  0.33898470911E+02  0.20146377630E+03  0.20912954011E+03  0.10000000000E+01 0.  0.
<mgrwt>
<rscale>  0 0.12500789E+03</rscale>
<asrwt>0</asrwt>
<pdfrwt beam="2">  1        4 0.21091382E-02 0.12500789E+03</pdfrwt>
<pdfrwt beam="1">  1       -4 0.43841269E-01 0.12500789E+03</pdfrwt>
<totfact> 0.75751742E+03</totfact>
</mgrwt>
</event>
<event>
 5    1  0.3401591E-002  0.1250016E+03  0.7818608E-02  0.1235067E+00
         -4   -1    0    0    0  501 -0.00000000000E+00  0.00000000000E+00  0.68564376388E+01  0.69730651148E+01  0.12700000000E+01 0.  1.
          4   -1    0    0  501    0  0.00000000000E+00 -0.00000000000E+00 -0.56481257146E+03  0.56481399928E+03  0.12700000000E+01 0.  1.
         25    2    1    2    0    0  0.00000000000E+00  0.00000000000E+00 -0.55795613383E+03  0.57178706440E+03  0.12500159894E+03 0.  0.
    9000005    1    3    3    0    0  0.56868627761E+02 -0.81974017412E+01 -0.16654931570E+03  0.17618431479E+03  0.10000000000E+01 0.  0.
    9000005    1    3    3    0    0 -0.56868627761E+02  0.81974017412E+01 -0.39140681813E+03  0.39560274960E+03  0.10000000000E+01 0.  0.
<mgrwt>
<rscale>  0 0.12500160E+03</rscale>
<asrwt>0</asrwt>
<pdfrwt beam="2">  1        4 0.86903287E-01 0.12500160E+03</pdfrwt>
<pdfrwt beam="1">  1       -4 0.10639182E-02 0.12500160E+03</pdfrwt>
<totfact> 0.50696571E+03</totfact>
</mgrwt>
</event>
<event>
 5    1  0.3401591E-002  0.1249993E+03  0.7818608E-02  0.1235070E+00
          4   -1    0    0  501    0  0.00000000000E+00  0.00000000000E+00  0.20070509697E+01  0.23751112805E+01  0.12700000000E+01 0.  1.
         -4   -1    0    0    0  501 -0.00000000000E+00 -0.00000000000E+00 -0.17824064480E+04  0.17824069005E+04  0.12700000000E+01 0.  1.
         25    2    1    2    0    0  0.00000000000E+00  0.00000000000E+00 -0.17803993970E+04  0.17847820117E+04  0.12499926580E+03 0.  0.
    9000005    1    3    3    0    0 -0.13476836099E+02  0.49180642355E+02 -0.14059706964E+04  0.14068955042E+04  0.10000000000E+01 0.  0.
    9000005    1    3    3    0    0  0.13476836099E+02 -0.49180642355E+02 -0.37442870066E+03  0.37788650752E+03  0.10000000000E+01 0.  0.
<mgrwt>
<rscale>  0 0.12499927E+03</rscale>
<asrwt>0</asrwt>
<pdfrwt beam="1">  1        4 0.33712563E-03 0.12499927E+03</pdfrwt>
<pdfrwt beam="2">  1       -4 0.27424356E+00 0.12499927E+03</pdfrwt>
<totfact> 0.12939733E+03</totfact>
</mgrwt>
</event>
<event>
 5    1  0.3401591E-002  0.1249978E+03  0.7818608E-02  0.1235073E+00
          4   -1    0    0  501    0  0.00000000000E+00  0.00000000000E+00  0.97105319172E+02  0.97113623718E+02  0.12700000000E+01 0. -1.
         -4   -1    0    0    0  501 -0.00000000000E+00 -0.00000000000E+00 -0.40205460133E+02  0.40225513353E+02  0.12700000000E+01 0. -1.
         25    2    1    2    0    0  0.00000000000E+00  0.00000000000E+00  0.56899859039E+02  0.13733913707E+03  0.12499777843E+03 0.  0.
    9000005    1    3    3    0    0 -0.59627433232E+01 -0.66395492391E+00  0.96793536463E+02  0.96984451563E+02  0.10000000000E+01 0.  0.
    9000005    1    3    3    0    0  0.59627433232E+01  0.66395492391E+00 -0.39893677423E+02  0.40354685508E+02  0.10000000000E+01 0.  0.
<mgrwt>
<rscale>  0 0.12499778E+03</rscale>
<asrwt>0</asrwt>
<pdfrwt beam="1">  1        4 0.14941461E-01 0.12499778E+03</pdfrwt>
<pdfrwt beam="2">  1       -4 0.61876368E-02 0.12499778E+03</pdfrwt>
<totfact> 0.10189510E+04</totfact>
</mgrwt>
</event>
<event>
 5    1  0.3401591E-002  0.1250140E+03  0.7818608E-02  0.1235047E+00
          4   -1    0    0  501    0  0.00000000000E+00  0.00000000000E+00  0.45912567413E+02  0.45930128962E+02  0.12700000000E+01 0.  1.
         -4   -1    0    0    0  501 -0.00000000000E+00 -0.00000000000E+00 -0.85060687848E+02  0.85070168198E+02  0.12700000000E+01 0.  1.
         25    2    1    2    0    0  0.00000000000E+00  0.00000000000E+00 -0.39148120435E+02  0.13100029716E+03  0.12501400930E+03 0.  0.
    9000005    1    3    3    0    0  0.16706728392E+02 -0.22047536818E+02  0.39153481997E+02  0.47950013616E+02  0.10000000000E+01 0.  0.
    9000005    1    3    3    0    0 -0.16706728392E+02  0.22047536818E+02 -0.78301602432E+02  0.83050283544E+02  0.10000000000E+01 0.  0.
<mgrwt>
<rscale>  0 0.12501401E+03</rscale>
<asrwt>0</asrwt>
<pdfrwt beam="1">  1        4 0.70655521E-02 0.12501401E+03</pdfrwt>
<pdfrwt beam="2">  1       -4 0.13088340E-01 0.12501401E+03</pdfrwt>
<totfact> 0.10319821E+04</totfact>
</mgrwt>
</event>
<event>
 5    1  0.3401591E-002  0.1250006E+03  0.7818608E-02  0.1235068E+00
          4   -1    0    0  501    0  0.00000000000E+00  0.00000000000E+00  0.12588606788E+03  0.12589247390E+03  0.12700000000E+01 0.  1.
         -4   -1    0    0    0  501 -0.00000000000E+00 -0.00000000000E+00 -0.31010147818E+02  0.31036142926E+02  0.12700000000E+01 0.  1.
         25    2    1    2    0    0  0.00000000000E+00  0.00000000000E+00  0.94875920060E+02  0.15692861683E+03  0.12500060229E+03 0.  0.
    9000005    1    3    3    0    0 -0.47711539396E+01 -0.29241747184E+02  0.11651410581E+03  0.12022637207E+03  0.10000000000E+01 0.  0.
    9000005    1    3    3    0    0  0.47711539396E+01  0.29241747184E+02 -0.21638185747E+02  0.36702244764E+02  0.10000000000E+01 0.  0.
<mgrwt>
<rscale>  0 0.12500060E+03</rscale>
<asrwt>0</asrwt>
<pdfrwt beam="1">  1        4 0.19369580E-01 0.12500060E+03</pdfrwt>
<pdfrwt beam="2">  1       -4 0.47732844E-02 0.12500060E+03</pdfrwt>
<totfact> 0.97936886E+03</totfact>
</mgrwt>
</event>
<event>
 5    1  0.3401591E-002  0.1250023E+03  0.7818608E-02  0.1235066E+00
         -4   -1    0    0    0  501 -0.00000000000E+00  0.00000000000E+00  0.23326770773E+03  0.23327116489E+03  0.12700000000E+01 0.  1.
          4   -1    0    0  501    0  0.00000000000E+00 -0.00000000000E+00 -0.16718724451E+02  0.16766891402E+02  0.12700000000E+01 0.  1.
         25    2    1    2    0    0  0.00000000000E+00  0.00000000000E+00  0.21654898328E+03  0.25003805629E+03  0.12500226972E+03 0.  0.
    9000005    1    3    3    0    0  0.79533113160E+01 -0.59817402158E+02  0.14077593112E+03  0.15316735796E+03  0.10000000000E+01 0.  0.
    9000005    1    3    3    0    0 -0.79533113160E+01  0.59817402158E+02  0.75773052151E+02  0.96870698325E+02  0.10000000000E+01 0.  0.
<mgrwt>
<rscale>  0 0.12500227E+03</rscale>
<asrwt>0</asrwt>
<pdfrwt beam="2">  1        4 0.25760826E-02 0.12500227E+03</pdfrwt>
<pdfrwt beam="1">  1       -4 0.35891310E-01 0.12500227E+03</pdfrwt>
<totfact> 0.82320565E+03</totfact>
</mgrwt>
</event>
<event>
 5    1  0.3401591E-002  0.1249987E+03  0.7818608E-02  0.1235071E+00
          4   -1    0    0  501    0  0.00000000000E+00  0.00000000000E+00  0.18169192268E+02  0.18213523758E+02  0.12700000000E+01 0. -1.
         -4   -1    0    0    0  501 -0.00000000000E+00 -0.00000000000E+00 -0.21468025724E+03  0.21468401373E+03  0.12700000000E+01 0. -1.
         25    2    1    2    0    0  0.00000000000E+00  0.00000000000E+00 -0.19651106497E+03  0.23289753748E+03  0.12499865723E+03 0.  0.
    9000005    1    3    3    0    0 -0.94572780524E+01  0.76303135703E+01  0.15955824368E+02  0.20081088731E+02  0.10000000000E+01 0.  0.
    9000005    1    3    3    0    0  0.94572780524E+01 -0.76303135703E+01 -0.21246688934E+03  0.21281644875E+03  0.10000000000E+01 0.  0.
<mgrwt>
<rscale>  0 0.12499866E+03</rscale>
<asrwt>0</asrwt>
<pdfrwt beam="1">  1        4 0.27989596E-02 0.12499866E+03</pdfrwt>
<pdfrwt beam="2">  1       -4 0.33031429E-01 0.12499866E+03</pdfrwt>
<totfact> 0.84869197E+03</totfact>
</mgrwt>
</event>
<event>
 5    1  0.3401591E-002  0.1250022E+03  0.7818608E-02  0.1235066E+00
          4   -1    0    0  501    0  0.00000000000E+00  0.00000000000E+00  0.57359903796E+02  0.57373961546E+02  0.12700000000E+01 0. -1.
         -4   -1    0    0    0  501 -0.00000000000E+00 -0.00000000000E+00 -0.68074770255E+02  0.68086615758E+02  0.12700000000E+01 0. -1.
         25    2    1    2    0    0  0.00000000000E+00  0.00000000000E+00 -0.10714866459E+02  0.12546057730E+03  0.12500219236E+03 0.  0.
    9000005    1    3    3    0    0  0.10040436903E+01  0.31584531240E+02  0.48754986109E+02  0.58108858084E+02  0.10000000000E+01 0.  0.
    9000005    1    3    3    0    0 -0.10040436903E+01 -0.31584531240E+02 -0.59469852568E+02  0.67351719220E+02  0.10000000000E+01 0.  0.
<mgrwt>
<rscale>  0 0.12500219E+03</rscale>
<asrwt>0</asrwt>
<pdfrwt beam="1">  1        4 0.88265932E-02 0.12500219E+03</pdfrwt>
<pdfrwt beam="2">  1       -4 0.10475034E-01 0.12500219E+03</pdfrwt>
<totfact> 0.10442309E+04</totfact>
</mgrwt>
</event>
<event>
 5    1  0.3401591E-002  0.1249996E+03  0.7818608E-02  0.1235070E+00
          4   -1    0    0  501    0  0.00000000000E+00  0.00000000000E+00  0.30936041194E+03  0.30936301876E+03  0.12700000000E+01 0.  1.
         -4   -1    0    0    0  501 -0.00000000000E+00 -0.00000000000E+00 -0.12592184199E+02  0.12656065854E+02  0.12700000000E+01 0.  1.
         25    2    1    2    0    0  0.00000000000E+00  0.00000000000E+00  0.29676822774E+03  0.32201908461E+03  0.12499963943E+03 0.  0.
    9000005    1    3    3    0    0  0.12297155911E+02 -0.58208584341E+02  0.99114883081E+02  0.11560371699E+03  0.10000000000E+01 0.  0.
    9000005    1    3    3    0    0 -0.12297155911E+02  0.58208584341E+02  0.19765334466E+03  0.20641536762E+03  0.10000000000E+01 0.  0.
<mgrwt>
<rscale>  0 0.12499964E+03</rscale>
<asrwt>0</asrwt>
<pdfrwt beam="1">  1        4 0.47599023E-01 0.12499964E+03</pdfrwt>
<pdfrwt beam="2">  1       -4 0.19423736E-02 0.12499964E+03</pdfrwt>
<totfact> 0.72917205E+03</totfact>
</mgrwt>
</event>
<event>
 5    1  0.3401591E-002  0.1249976E+03  0.7818608E-02  0.1235073E+00
         -4   -1    0    0    0  501 -0.00000000000E+00  0.00000000000E+00  0.31598831086E+01  0.34055485990E+01  0.12700000000E+01 0.  1.
          4   -1    0    0  501    0  0.00000000000E+00 -0.00000000000E+00 -0.11896525473E+04  0.11896532251E+04  0.12700000000E+01 0.  1.
         25    2    1    2    0    0  0.00000000000E+00  0.00000000000E+00 -0.11864926641E+04  0.11930587737E+04  0.12499758208E+03 0.  0.
    9000005    1    3    3    0    0 -0.29892584656E+02 -0.43025002232E+02 -0.91837900536E+03  0.91987266234E+03  0.10000000000E+01 0.  0.
    9000005    1    3    3    0    0  0.29892584656E+02  0.43025002232E+02 -0.26811365879E+03  0.27318611140E+03  0.10000000000E+01 0.  0.
<mgrwt>
<rscale>  0 0.12499758E+03</rscale>
<asrwt>0</asrwt>
<pdfrwt beam="2">  1        4 0.18304207E+00 0.12499758E+03</pdfrwt>
<pdfrwt beam="1">  1       -4 0.50508630E-03 0.12499758E+03</pdfrwt>
<totfact> 0.24896531E+03</totfact>
</mgrwt>
</event>
<event>
 5    1  0.3401591E-002  0.1250009E+03  0.7818608E-02  0.1235068E+00
         -4   -1    0    0    0  501 -0.00000000000E+00  0.00000000000E+00  0.82374650587E+03  0.82374748487E+03  0.12700000000E+01 0. -1.
          4   -1    0    0  501    0  0.00000000000E+00 -0.00000000000E+00 -0.46560905718E+01  0.48261868398E+01  0.12700000000E+01 0. -1.
         25    2    1    2    0    0  0.00000000000E+00  0.00000000000E+00  0.81909041529E+03  0.82857367171E+03  0.12500088408E+03 0.  0.
    9000005    1    3    3    0    0  0.56752969251E+02  0.94520035412E+01  0.57124161906E+03  0.57413258681E+03  0.10000000000E+01 0.  0.
    9000005    1    3    3    0    0 -0.56752969251E+02 -0.94520035412E+01  0.24784879624E+03  0.25444108490E+03  0.10000000000E+01 0.  0.
<mgrwt>
<rscale>  0 0.12500088E+03</rscale>
<asrwt>0</asrwt>
<pdfrwt beam="2">  1        4 0.72948135E-03 0.12500088E+03</pdfrwt>
<pdfrwt beam="1">  1       -4 0.12674338E+00 0.12500088E+03</pdfrwt>
<totfact> 0.37019785E+03</totfact>
</mgrwt>
</event>
<event>
 5    1  0.3401591E-002  0.1250030E+03  0.7818608E-02  0.1235065E+00
          4   -1    0    0  501    0  0.00000000000E+00  0.00000000000E+00  0.29278335766E+02  0.29305867078E+02  0.12700000000E+01 0.  1.
         -4   -1    0    0    0  501 -0.00000000000E+00 -0.00000000000E+00 -0.13333101250E+03  0.13333706085E+03  0.12700000000E+01 0.  1.
         25    2    1    2    0    0  0.00000000000E+00  0.00000000000E+00 -0.10405267674E+03  0.16264292792E+03  0.12500304983E+03 0.  0.
    9000005    1    3    3    0    0  0.92734043830E+01  0.31470691408E+02  0.17178129237E+02  0.37047112852E+02  0.10000000000E+01 0.  0.
    9000005    1    3    3    0    0 -0.92734043830E+01 -0.31470691408E+02 -0.12123080597E+03  0.12559581507E+03  0.10000000000E+01 0.  0.
<mgrwt>
<rscale>  0 0.12500305E+03</rscale>
<asrwt>0</asrwt>
<pdfrwt beam="1">  1        4 0.45069425E-02 0.12500305E+03</pdfrwt>
<pdfrwt beam="2">  1       -4 0.20515046E-01 0.12500305E+03</pdfrwt>
<totfact> 0.96829020E+03</totfact>
</mgrwt>
</event>
<event>
 5    1  0.3401591E-002  0.1250025E+03  0.7818608E-02  0.1235065E+00
          4   -1    0    0  501    0  0.00000000000E+00  0.00000000000E+00  0.34114078341E+01  0.36401378285E+01  0.12700000000E+01 0.  1.
         -4   -1    0    0    0  501 -0.00000000000E+00 -0.00000000000E+00 -0.11077286395E+04  0.11077293675E+04  0.12700000000E+01 0.  1.
         25    2    1    2    0    0  0.00000000000E+00  0.00000000000E+00 -0.11043172317E+04  0.11113695054E+04  0.12500251704E+03 0.  0.
    9000005    1    3    3    0    0  0.30793870832E+02 -0.24399717209E+02 -0.12008161294E+03  0.12634952492E+03  0.10000000000E+01 0.  0.
    9000005    1    3    3    0    0 -0.30793870832E+02  0.24399717209E+02 -0.98423561874E+03  0.98501998044E+03  0.10000000000E+01 0.  0.
<mgrwt>
<rscale>  0 0.12500252E+03</rscale>
<asrwt>0</asrwt>
<pdfrwt beam="1">  1        4 0.54248347E-03 0.12500252E+03</pdfrwt>
<pdfrwt beam="2">  1       -4 0.17043716E+00 0.12500252E+03</pdfrwt>
<totfact> 0.27151565E+03</totfact>
</mgrwt>
</event>
<event>
 5    1  0.3401591E-002  0.1250032E+03  0.7818608E-02  0.1235064E+00
         -4   -1    0    0    0  501 -0.00000000000E+00  0.00000000000E+00  0.19654887885E+02  0.19695875654E+02  0.12700000000E+01 0. -1.
          4   -1    0    0  501    0  0.00000000000E+00 -0.00000000000E+00 -0.19850191637E+03  0.19850597901E+03  0.12700000000E+01 0. -1.
         25    2    1    2    0    0  0.00000000000E+00  0.00000000000E+00 -0.17884702849E+03  0.21820185467E+03  0.12500315908E+03 0.  0.
    9000005    1    3    3    0    0 -0.53532668449E+02  0.96431428076E+01 -0.35714636161E+02  0.65078967652E+02  0.10000000000E+01 0.  0.
    9000005    1    3    3    0    0  0.53532668449E+02 -0.96431428076E+01 -0.14313239233E+03  0.15312288701E+03  0.10000000000E+01 0.  0.
<mgrwt>
<rscale>  0 0.12500316E+03</rscale>
<asrwt>0</asrwt>
<pdfrwt beam="2">  1        4 0.30542220E-01 0.12500316E+03</pdfrwt>
<pdfrwt beam="1">  1       -4 0.30272945E-02 0.12500316E+03</pdfrwt>
<totfact> 0.87147535E+03</totfact>
</mgrwt>
</event>
<event>
 5    1  0.3401591E-002  0.1250002E+03  0.7818608E-02  0.1235069E+00
         -4   -1    0    0    0  501 -0.00000000000E+00  0.00000000000E+00  0.22063848478E+03  0.22064213982E+03  0.12700000000E+01 0.  1.
          4   -1    0    0  501    0  0.00000000000E+00 -0.00000000000E+00 -0.17677765671E+02  0.17723326412E+02  0.12700000000E+01 0.  1.
         25    2    1    2    0    0  0.00000000000E+00  0.00000000000E+00  0.20296071911E+03  0.23836546624E+03  0.12500016797E+03 0.  0.
    9000005    1    3    3    0    0 -0.26248195907E+02 -0.35168108937E+02  0.16638506757E+02  0.46942556191E+02  0.10000000000E+01 0.  0.
    9000005    1    3    3    0    0  0.26248195907E+02  0.35168108937E+02  0.18632221235E+03  0.19142291004E+03  0.10000000000E+01 0.  0.
<mgrwt>
<rscale>  0 0.12500017E+03</rscale>
<asrwt>0</asrwt>
<pdfrwt beam="2">  1        4 0.27234421E-02 0.12500017E+03</pdfrwt>
<pdfrwt beam="1">  1       -4 0.33948168E-01 0.12500017E+03</pdfrwt>
<totfact> 0.84041090E+03</totfact>
</mgrwt>
</event>
<event>
 5    1  0.3401591E-002  0.1249561E+03  0.7818608E-02  0.1235138E+00
          4   -1    0    0  501    0  0.00000000000E+00  0.00000000000E+00  0.12267640202E+02  0.12333202996E+02  0.12700000000E+01 0. -1.
         -4   -1    0    0    0  501 -0.00000000000E+00 -0.00000000000E+00 -0.31728078895E+03  0.31728333070E+03  0.12700000000E+01 0. -1.
         25    2    1    2    0    0  0.00000000000E+00  0.00000000000E+00 -0.30501314875E+03  0.32961653369E+03  0.12495614580E+03 0.  0.
    9000005    1    3    3    0    0 -0.16679239946E+02  0.47644932119E+02 -0.24958092084E+03  0.25463674647E+03  0.10000000000E+01 0.  0.
    9000005    1    3    3    0    0  0.16679239946E+02 -0.47644932119E+02 -0.55432227906E+02  0.74979787225E+02  0.10000000000E+01 0.  0.
<mgrwt>
<rscale>  0 0.12495615E+03</rscale>
<asrwt>0</asrwt>
<pdfrwt beam="1">  1        4 0.18925683E-02 0.12495615E+03</pdfrwt>
<pdfrwt beam="2">  1       -4 0.48817662E-01 0.12495615E+03</pdfrwt>
<totfact> 0.72096805E+03</totfact>
</mgrwt>
</event>
<event>
 5    1  0.3401591E-002  0.1249997E+03  0.7818608E-02  0.1235070E+00
         -4   -1    0    0    0  501 -0.00000000000E+00  0.00000000000E+00  0.40944278246E+03  0.40944475208E+03  0.12700000000E+01 0.  1.
          4   -1    0    0  501    0  0.00000000000E+00 -0.00000000000E+00 -0.94960899349E+01  0.95806379773E+01  0.12700000000E+01 0.  1.
         25    2    1    2    0    0  0.00000000000E+00  0.00000000000E+00  0.39994669252E+03  0.41902539006E+03  0.12499968261E+03 0.  0.
    9000005    1    3    3    0    0 -0.20648025607E+02  0.43273935840E+01  0.27857017108E+01  0.21303225829E+02  0.10000000000E+01 0.  0.
    9000005    1    3    3    0    0  0.20648025607E+02 -0.43273935840E+01  0.39716099081E+03  0.39772216423E+03  0.10000000000E+01 0.  0.
<mgrwt>
<rscale>  0 0.12499968E+03</rscale>
<asrwt>0</asrwt>
<pdfrwt beam="2">  1        4 0.14675920E-02 0.12499968E+03</pdfrwt>
<pdfrwt beam="1">  1       -4 0.62997859E-01 0.12499968E+03</pdfrwt>
<totfact> 0.62743962E+03</totfact>
</mgrwt>
</event>
<event>
 5    1  0.3401591E-002  0.1250037E+03  0.7818608E-02  0.1235063E+00
          4   -1    0    0  501    0  0.00000000000E+00  0.00000000000E+00  0.46415601097E+03  0.46415774842E+03  0.12700000000E+01 0.  1.
         -4   -1    0    0    0  501 -0.00000000000E+00 -0.00000000000E+00 -0.83666431910E+01  0.84624829858E+01  0.12700000000E+01 0.  1.
         25    2    1    2    0    0  0.00000000000E+00  0.00000000000E+00  0.45578936778E+03  0.47262023140E+03  0.12500374136E+03 0.  0.
    9000005    1    3    3    0    0  0.49944711083E+02  0.12278082716E+02  0.93674110405E+02  0.10686938028E+03  0.10000000000E+01 0.  0.
    9000005    1    3    3    0    0 -0.49944711083E+02 -0.12278082716E+02  0.36211525737E+03  0.36575085113E+03  0.10000000000E+01 0.  0.
<mgrwt>
<rscale>  0 0.12500374E+03</rscale>
<asrwt>0</asrwt>
<pdfrwt beam="1">  1        4 0.71416109E-01 0.12500374E+03</pdfrwt>
<pdfrwt beam="2">  1       -4 0.12946821E-02 0.12500374E+03</pdfrwt>
<totfact> 0.58048318E+03</totfact>
</mgrwt>
</event>
<event>
 5    1  0.3401591E-002  0.1249984E+03  0.7818608E-02  0.1235072E+00
         -4   -1    0    0    0  501 -0.00000000000E+00  0.00000000000E+00  0.97883906397E+01  0.98704352141E+01  0.12700000000E+01 0. -1.
          4   -1    0    0  501    0  0.00000000000E+00 -0.00000000000E+00 -0.39731065765E+03  0.39731268742E+03  0.12700000000E+01 0. -1.
         25    2    1    2    0    0  0.00000000000E+00  0.00000000000E+00 -0.38752226701E+03  0.40718312263E+03  0.12499835170E+03 0.  0.
    9000005    1    3    3    0    0 -0.25523274643E+02  0.39850960046E+02 -0.32670619111E+03  0.33011736076E+03  0.10000000000E+01 0.  0.
    9000005    1    3    3    0    0  0.25523274643E+02 -0.39850960046E+02 -0.60816075905E+02  0.77065761876E+02  0.10000000000E+01 0.  0.
<mgrwt>
<rscale>  0 0.12499835E+03</rscale>
<asrwt>0</asrwt>
<pdfrwt beam="2">  1        4 0.61131171E-01 0.12499835E+03</pdfrwt>
<pdfrwt beam="1">  1       -4 0.15123738E-02 0.12499835E+03</pdfrwt>
<totfact> 0.63862441E+03</totfact>
</mgrwt>
</event>
<event>
 5    1  0.3401591E-002  0.1250019E+03  0.7818608E-02  0.1235066E+00
          4   -1    0    0  501    0  0.00000000000E+00  0.00000000000E+00  0.40127107747E+03  0.40127308721E+03  0.12700000000E+01 0. -1.
         -4   -1    0    0    0  501 -0.00000000000E+00 -0.00000000000E+00 -0.96915226169E+01  0.97743803197E+01  0.12700000000E+01 0. -1.
         25    2    1    2    0    0  0.00000000000E+00  0.00000000000E+00  0.39157955486E+03  0.41104746753E+03  0.12500189110E+03 0.  0.
    9000005    1    3    3    0    0 -0.26251853376E+02  0.46902041272E+02  0.30062547728E+03  0.30539423516E+03  0.10000000000E+01 0.  0.
    9000005    1    3    3    0    0  0.26251853376E+02 -0.46902041272E+02  0.90954077580E+02  0.10565323237E+03  0.10000000000E+01 0.  0.
<mgrwt>
<rscale>  0 0.12500189E+03</rscale>
<asrwt>0</asrwt>
<pdfrwt beam="1">  1        4 0.61740541E-01 0.12500189E+03</pdfrwt>
<pdfrwt beam="2">  1       -4 0.14975317E-02 0.12500189E+03</pdfrwt>
<totfact> 0.63489671E+03</totfact>
</mgrwt>
</event>
<event>
 5    1  0.3401591E-002  0.1249954E+03  0.7818608E-02  0.1235076E+00
          4   -1    0    0  501    0  0.00000000000E+00  0.00000000000E+00  0.45402226012E+02  0.45419984884E+02  0.12700000000E+01 0. -1.
         -4   -1    0    0    0  501 -0.00000000000E+00 -0.00000000000E+00 -0.85990947667E+02  0.86000325468E+02  0.12700000000E+01 0. -1.
         25    2    1    2    0    0  0.00000000000E+00  0.00000000000E+00 -0.40588721655E+02  0.13142031035E+03  0.12499541451E+03 0.  0.
    9000005    1    3    3    0    0  0.54995665356E+02  0.23064979288E+02 -0.39920583927E+02  0.71771648292E+02  0.10000000000E+01 0.  0.
    9000005    1    3    3    0    0 -0.54995665356E+02 -0.23064979288E+02 -0.66813772713E+00  0.59648662060E+02  0.10000000000E+01 0.  0.
<mgrwt>
<rscale>  0 0.12499541E+03</rscale>
<asrwt>0</asrwt>
<pdfrwt beam="1">  1        4 0.69870453E-02 0.12499541E+03</pdfrwt>
<pdfrwt beam="2">  1       -4 0.13231464E-01 0.12499541E+03</pdfrwt>
<totfact> 0.10315154E+04</totfact>
</mgrwt>
</event>
<event>
 5    1  0.3401591E-002  0.1250069E+03  0.7818608E-02  0.1235059E+00
          4   -1    0    0  501    0  0.00000000000E+00  0.00000000000E+00  0.83171538467E+01  0.84135573992E+01  0.12700000000E+01 0.  1.
         -4   -1    0    0    0  501 -0.00000000000E+00 -0.00000000000E+00 -0.46690958087E+03  0.46691130808E+03  0.12700000000E+01 0.  1.
         25    2    1    2    0    0  0.00000000000E+00  0.00000000000E+00 -0.45859242702E+03  0.47532486548E+03  0.12500685427E+03 0.  0.
    9000005    1    3    3    0    0  0.38335351737E+02 -0.21295486417E+02 -0.39860216652E+03  0.40100845888E+03  0.10000000000E+01 0.  0.
    9000005    1    3    3    0    0 -0.38335351737E+02  0.21295486417E+02 -0.59990260500E+02  0.74316406596E+02  0.10000000000E+01 0.  0.
<mgrwt>
<rscale>  0 0.12500685E+03</rscale>
<asrwt>0</asrwt>
<pdfrwt beam="1">  1        4 0.12871110E-02 0.12500685E+03</pdfrwt>
<pdfrwt beam="2">  1       -4 0.71839771E-01 0.12500685E+03</pdfrwt>
<totfact> 0.57822289E+03</totfact>
</mgrwt>
</event>
<event>
 5    1  0.3401591E-002  0.1250074E+03  0.7818608E-02  0.1235058E+00
         -4   -1    0    0    0  501 -0.00000000000E+00  0.00000000000E+00  0.26011621142E+03  0.26011931175E+03  0.12700000000E+01 0. -1.
          4   -1    0    0  501    0  0.00000000000E+00 -0.00000000000E+00 -0.14989054147E+02  0.15042760525E+02  0.12700000000E+01 0. -1.
         25    2    1    2    0    0  0.00000000000E+00  0.00000000000E+00  0.24512715727E+03  0.27516207227E+03  0.12500737092E+03 0.  0.
    9000005    1    3    3    0    0 -0.83429974663E+01  0.27327294903E+02  0.24490814394E+03  0.24657125871E+03  0.10000000000E+01 0.  0.
    9000005    1    3    3    0    0  0.83429974663E+01 -0.27327294903E+02  0.21901333548E+00  0.28590813565E+02  0.10000000000E+01 0.  0.
<mgrwt>
<rscale>  0 0.12500737E+03</rscale>
<asrwt>0</asrwt>
<pdfrwt beam="2">  1        4 0.23103784E-02 0.12500737E+03</pdfrwt>
<pdfrwt beam="1">  1       -4 0.40022244E-01 0.12500737E+03</pdfrwt>
<totfact> 0.78811068E+03</totfact>
</mgrwt>
</event>
<event>
 5    1  0.3401591E-002  0.1250007E+03  0.7818608E-02  0.1235068E+00
          4   -1    0    0  501    0  0.00000000000E+00  0.00000000000E+00  0.20386119388E+03  0.20386514972E+03  0.12700000000E+01 0. -1.
         -4   -1    0    0    0  501 -0.00000000000E+00 -0.00000000000E+00 -0.19136340471E+02  0.19178436501E+02  0.12700000000E+01 0. -1.
         25    2    1    2    0    0  0.00000000000E+00  0.00000000000E+00  0.18472485341E+03  0.22304358622E+03  0.12500067955E+03 0.  0.
    9000005    1    3    3    0    0  0.90941264128E+01 -0.61791766694E+02  0.96091185200E+02  0.11460995349E+03  0.10000000000E+01 0.  0.
    9000005    1    3    3    0    0 -0.90941264128E+01  0.61791766694E+02  0.88633668212E+02  0.10843363273E+03  0.10000000000E+01 0.  0.
<mgrwt>
<rscale>  0 0.12500068E+03</rscale>
<asrwt>0</asrwt>
<pdfrwt beam="1">  1        4 0.31366803E-01 0.12500068E+03</pdfrwt>
<pdfrwt beam="2">  1       -4 0.29475949E-02 0.12500068E+03</pdfrwt>
<totfact> 0.86387710E+03</totfact>
</mgrwt>
</event>
<event>
 5    1  0.3401591E-002  0.1250019E+03  0.7818608E-02  0.1235066E+00
          4   -1    0    0  501    0  0.00000000000E+00  0.00000000000E+00  0.11203680596E+03  0.11204400381E+03  0.12700000000E+01 0.  1.
         -4   -1    0    0    0  501 -0.00000000000E+00 -0.00000000000E+00 -0.34846962187E+02  0.34870097127E+02  0.12700000000E+01 0.  1.
         25    2    1    2    0    0  0.00000000000E+00  0.00000000000E+00  0.77189843770E+02  0.14691410093E+03  0.12500192427E+03 0.  0.
    9000005    1    3    3    0    0  0.86399544912E+01 -0.23026719996E+02  0.10611549196E+03  0.10893289807E+03  0.10000000000E+01 0.  0.
    9000005    1    3    3    0    0 -0.86399544912E+01  0.23026719996E+02 -0.28925648194E+02  0.37981202862E+02  0.10000000000E+01 0.  0.
<mgrwt>
<rscale>  0 0.12500192E+03</rscale>
<asrwt>0</asrwt>
<pdfrwt beam="1">  1        4 0.17238765E-01 0.12500192E+03</pdfrwt>
<pdfrwt beam="2">  1       -4 0.53634044E-02 0.12500192E+03</pdfrwt>
<totfact> 0.99918093E+03</totfact>
</mgrwt>
</event>
<event>
 5    1  0.3401591E-002  0.1250012E+03  0.7818608E-02  0.1235067E+00
         -4   -1    0    0    0  501 -0.00000000000E+00  0.00000000000E+00  0.22378669778E+03  0.22379030140E+03  0.12700000000E+01 0. -1.
          4   -1    0    0  501    0  0.00000000000E+00 -0.00000000000E+00 -0.17428721975E+02  0.17474932036E+02  0.12700000000E+01 0. -1.
         25    2    1    2    0    0  0.00000000000E+00  0.00000000000E+00  0.20635797580E+03  0.24126523344E+03  0.12500119475E+03 0.  0.
    9000005    1    3    3    0    0  0.53671955253E+02 -0.27248874562E+02  0.70758723754E+02  0.92903051257E+02  0.10000000000E+01 0.  0.
    9000005    1    3    3    0    0 -0.53671955253E+02  0.27248874562E+02  0.13559925205E+03  0.14836218218E+03  0.10000000000E+01 0.  0.
<mgrwt>
<rscale>  0 0.12500119E+03</rscale>
<asrwt>0</asrwt>
<pdfrwt beam="2">  1        4 0.26851739E-02 0.12500119E+03</pdfrwt>
<pdfrwt beam="1">  1       -4 0.34432552E-01 0.12500119E+03</pdfrwt>
<totfact> 0.83607068E+03</totfact>
</mgrwt>
</event>
<event>
 5    1  0.3401591E-002  0.1250003E+03  0.7818608E-02  0.1235069E+00
          4   -1    0    0  501    0  0.00000000000E+00  0.00000000000E+00  0.21331448516E+03  0.21331826569E+03  0.12700000000E+01 0. -1.
         -4   -1    0    0    0  501 -0.00000000000E+00 -0.00000000000E+00 -0.18286300091E+02  0.18330348361E+02  0.12700000000E+01 0. -1.
         25    2    1    2    0    0  0.00000000000E+00  0.00000000000E+00  0.19502818506E+03  0.23164861405E+03  0.12500034969E+03 0.  0.
    9000005    1    3    3    0    0 -0.49987645905E+01  0.17813954288E+02 -0.13103238075E+02  0.22694040250E+02  0.10000000000E+01 0.  0.
    9000005    1    3    3    0    0  0.49987645905E+01 -0.17813954288E+02  0.20813142314E+03  0.20895457380E+03  0.10000000000E+01 0.  0.
<mgrwt>
<rscale>  0 0.12500035E+03</rscale>
<asrwt>0</asrwt>
<pdfrwt beam="1">  1        4 0.32821291E-01 0.12500035E+03</pdfrwt>
<pdfrwt beam="2">  1       -4 0.28169562E-02 0.12500035E+03</pdfrwt>
<totfact> 0.85056429E+03</totfact>
</mgrwt>
</event>
<event>
 5    1  0.3401591E-002  0.1249967E+03  0.7818608E-02  0.1235074E+00
         -4   -1    0    0    0  501 -0.00000000000E+00  0.00000000000E+00  0.56846457075E+01  0.58247829848E+01  0.12700000000E+01 0.  1.
          4   -1    0    0  501    0  0.00000000000E+00 -0.00000000000E+00 -0.67861488253E+03  0.67861607090E+03  0.12700000000E+01 0.  1.
         25    2    1    2    0    0  0.00000000000E+00  0.00000000000E+00 -0.67293023682E+03  0.68444085389E+03  0.12499671533E+03 0.  0.
    9000005    1    3    3    0    0 -0.24075712465E+02  0.57350653668E+02 -0.36945906940E+03  0.37465950058E+03  0.10000000000E+01 0.  0.
    9000005    1    3    3    0    0  0.24075712465E+02 -0.57350653668E+02 -0.30347116741E+03  0.30978135331E+03  0.10000000000E+01 0.  0.
<mgrwt>
<rscale>  0 0.12499672E+03</rscale>
<asrwt>0</asrwt>
<pdfrwt beam="2">  1        4 0.10441310E+00 0.12499672E+03</pdfrwt>
<pdfrwt beam="1">  1       -4 0.88543262E-03 0.12499672E+03</pdfrwt>
<totfact> 0.43924046E+03</totfact>
</mgrwt>
</event>
<event>
 5    1  0.3401591E-002  0.1249941E+03  0.7818608E-02  0.1235079E+00
          4   -1    0    0  501    0  0.00000000000E+00  0.00000000000E+00  0.48769942562E+02  0.48786475559E+02  0.12700000000E+01 0. -1.
         -4   -1    0    0    0  501 -0.00000000000E+00 -0.00000000000E+00 -0.80052711136E+02  0.80062784490E+02  0.12700000000E+01 0. -1.
         25    2    1    2    0    0  0.00000000000E+00  0.00000000000E+00 -0.31282768574E+02  0.12884926005E+03  0.12499408068E+03 0.  0.
    9000005    1    3    3    0    0  0.49194780307E+02  0.15314257405E+02 -0.52090495864E+02  0.73273956142E+02  0.10000000000E+01 0.  0.
    9000005    1    3    3    0    0 -0.49194780307E+02 -0.15314257405E+02  0.20807727290E+02  0.55575303907E+02  0.10000000000E+01 0.  0.
<mgrwt>
<rscale>  0 0.12499408E+03</rscale>
<asrwt>0</asrwt>
<pdfrwt beam="1">  1        4 0.75051147E-02 0.12499408E+03</pdfrwt>
<pdfrwt beam="2">  1       -4 0.12317848E-01 0.12499408E+03</pdfrwt>
<totfact> 0.10370573E+04</totfact>
</mgrwt>
</event>
<event>
 5    1  0.3401591E-002  0.1250021E+03  0.7818608E-02  0.1235066E+00
          4   -1    0    0  501    0  0.00000000000E+00  0.00000000000E+00  0.14261835727E+03  0.14262401176E+03  0.12700000000E+01 0.  1.
         -4   -1    0    0    0  501 -0.00000000000E+00 -0.00000000000E+00 -0.27369507515E+02  0.27398956944E+02  0.12700000000E+01 0.  1.
         25    2    1    2    0    0  0.00000000000E+00  0.00000000000E+00  0.11524884976E+03  0.17002296871E+03  0.12500205005E+03 0.  0.
    9000005    1    3    3    0    0  0.49791855475E+02 -0.37678906174E+02  0.54170234111E+02  0.82670085919E+02  0.10000000000E+01 0.  0.
    9000005    1    3    3    0    0 -0.49791855475E+02  0.37678906174E+02  0.61078615648E+02  0.87352882790E+02  0.10000000000E+01 0.  0.
<mgrwt>
<rscale>  0 0.12500205E+03</rscale>
<asrwt>0</asrwt>
<pdfrwt beam="1">  1        4 0.21943986E-01 0.12500205E+03</pdfrwt>
<pdfrwt beam="2">  1       -4 0.42133937E-02 0.12500205E+03</pdfrwt>
<totfact> 0.95439963E+03</totfact>
</mgrwt>
</event>
<event>
 5    1  0.3401591E-002  0.1250012E+03  0.7818608E-02  0.1235067E+00
         -4   -1    0    0    0  501 -0.00000000000E+00  0.00000000000E+00  0.14920014315E+02  0.14973968317E+02  0.12700000000E+01 0. -1.
          4   -1    0    0  501    0  0.00000000000E+00 -0.00000000000E+00 -0.26128993595E+03  0.26129302235E+03  0.12700000000E+01 0. -1.
         25    2    1    2    0    0  0.00000000000E+00  0.00000000000E+00 -0.24636992164E+03  0.27626699067E+03  0.12500124738E+03 0.  0.
    9000005    1    3    3    0    0 -0.54630450172E+02 -0.20662244550E+02 -0.17230289693E+03  0.18193598524E+03  0.10000000000E+01 0.  0.
    9000005    1    3    3    0    0  0.54630450172E+02  0.20662244550E+02 -0.74067024709E+02  0.94331005428E+02  0.10000000000E+01 0.  0.
<mgrwt>
<rscale>  0 0.12500125E+03</rscale>
<asrwt>0</asrwt>
<pdfrwt beam="2">  1        4 0.40202836E-01 0.12500125E+03</pdfrwt>
<pdfrwt beam="1">  1       -4 0.22997747E-02 0.12500125E+03</pdfrwt>
<totfact> 0.78673512E+03</totfact>
</mgrwt>
</event>
<event>
 5    1  0.3401591E-002  0.1250031E+03  0.7818608E-02  0.1235064E+00
          4   -1    0    0  501    0  0.00000000000E+00  0.00000000000E+00  0.57581722199E+03  0.57581862252E+03  0.12700000000E+01 0.  1.
         -4   -1    0    0    0  501 -0.00000000000E+00 -0.00000000000E+00 -0.67233164522E+01  0.68422133930E+01  0.12700000000E+01 0.  1.
         25    2    1    2    0    0  0.00000000000E+00  0.00000000000E+00  0.56909390554E+03  0.58266083592E+03  0.12500310551E+03 0.  0.
    9000005    1    3    3    0    0 -0.75038133558E+00  0.45721680968E+02  0.86000281424E+02  0.97406794361E+02  0.10000000000E+01 0.  0.
    9000005    1    3    3    0    0  0.75038133558E+00 -0.45721680968E+02  0.48309362412E+03  0.48525404156E+03  0.10000000000E+01 0.  0.
<mgrwt>
<rscale>  0 0.12500311E+03</rscale>
<asrwt>0</asrwt>
<pdfrwt beam="1">  1        4 0.88596518E-01 0.12500311E+03</pdfrwt>
<pdfrwt beam="2">  1       -4 0.10436100E-02 0.12500311E+03</pdfrwt>
<totfact> 0.49977320E+03</totfact>
</mgrwt>
</event>
<event>
 5    1  0.3401591E-002  0.1249993E+03  0.7818608E-02  0.1235070E+00
          4   -1    0    0  501    0  0.00000000000E+00  0.00000000000E+00  0.20189086715E+03  0.20189486160E+03  0.12700000000E+01 0.  1.
         -4   -1    0    0    0  501 -0.00000000000E+00 -0.00000000000E+00 -0.19323086789E+02  0.19364776865E+02  0.12700000000E+01 0.  1.
         25    2    1    2    0    0  0.00000000000E+00  0.00000000000E+00  0.18256778036E+03  0.22125963846E+03  0.12499933274E+03 0.  0.
    9000005    1    3    3    0    0 -0.77667662641E+01 -0.78022405680E+01  0.20016954832E+03  0.20047455123E+03  0.10000000000E+01 0.  0.
    9000005    1    3    3    0    0  0.77667662641E+01  0.78022405680E+01 -0.17601767957E+02  0.20785087233E+02  0.10000000000E+01 0.  0.
<mgrwt>
<rscale>  0 0.12499933E+03</rscale>
<asrwt>0</asrwt>
<pdfrwt beam="1">  1        4 0.31063647E-01 0.12499933E+03</pdfrwt>
<pdfrwt beam="2">  1       -4 0.29762968E-02 0.12499933E+03</pdfrwt>
<totfact> 0.86670712E+03</totfact>
</mgrwt>
</event>
<event>
 5    1  0.3401591E-002  0.1249996E+03  0.7818608E-02  0.1235070E+00
         -4   -1    0    0    0  501 -0.00000000000E+00  0.00000000000E+00  0.18126015109E+02  0.18170451941E+02  0.12700000000E+01 0. -1.
          4   -1    0    0  501    0  0.00000000000E+00 -0.00000000000E+00 -0.21519367075E+03  0.21519741827E+03  0.12700000000E+01 0. -1.
         25    2    1    2    0    0  0.00000000000E+00  0.00000000000E+00 -0.19706765564E+03  0.23336787021E+03  0.12499960779E+03 0.  0.
    9000005    1    3    3    0    0  0.52511468523E+02 -0.58232302260E-01 -0.35283988731E+02  0.63272565763E+02  0.10000000000E+01 0.  0.
    9000005    1    3    3    0    0 -0.52511468523E+02  0.58232302260E-01 -0.16178366691E+03  0.17009530445E+03  0.10000000000E+01 0.  0.
<mgrwt>
<rscale>  0 0.12499961E+03</rscale>
<asrwt>0</asrwt>
<pdfrwt beam="2">  1        4 0.33110423E-01 0.12499961E+03</pdfrwt>
<pdfrwt beam="1">  1       -4 0.27923244E-02 0.12499961E+03</pdfrwt>
<totfact> 0.84795869E+03</totfact>
</mgrwt>
</event>
<event>
 5    1  0.3401591E-002  0.1250027E+03  0.7818608E-02  0.1235065E+00
         -4   -1    0    0    0  501 -0.00000000000E+00  0.00000000000E+00  0.13812984757E+02  0.13871245362E+02  0.12700000000E+01 0.  1.
          4   -1    0    0  501    0  0.00000000000E+00 -0.00000000000E+00 -0.28215301063E+03  0.28215586881E+03  0.12700000000E+01 0.  1.
         25    2    1    2    0    0  0.00000000000E+00  0.00000000000E+00 -0.26834002587E+03  0.29602711418E+03  0.12500273134E+03 0.  0.
    9000005    1    3    3    0    0 -0.58096503810E+00 -0.54261455891E+02 -0.20757463760E+03  0.21455272846E+03  0.10000000000E+01 0.  0.
    9000005    1    3    3    0    0  0.58096503810E+00  0.54261455891E+02 -0.60765388273E+02  0.81474385716E+02  0.10000000000E+01 0.  0.
<mgrwt>
<rscale>  0 0.12500273E+03</rscale>
<asrwt>0</asrwt>
<pdfrwt beam="2">  1        4 0.43412852E-01 0.12500273E+03</pdfrwt>
<pdfrwt beam="1">  1       -4 0.21297762E-02 0.12500273E+03</pdfrwt>
<totfact> 0.76095295E+03</totfact>
</mgrwt>
</event>
<event>
 5    1  0.3401591E-002  0.1250037E+03  0.7818608E-02  0.1235064E+00
          4   -1    0    0  501    0  0.00000000000E+00  0.00000000000E+00  0.17348040046E+02  0.17394464449E+02  0.12700000000E+01 0. -1.
         -4   -1    0    0    0  501 -0.00000000000E+00 -0.00000000000E+00 -0.22483360777E+03  0.22483719462E+03  0.12700000000E+01 0. -1.
         25    2    1    2    0    0  0.00000000000E+00  0.00000000000E+00 -0.20748556773E+03  0.24223165907E+03  0.12500366331E+03 0.  0.
    9000005    1    3    3    0    0  0.55459347893E+01  0.62148724410E+02 -0.11052718105E+03  0.12692706208E+03  0.10000000000E+01 0.  0.
    9000005    1    3    3    0    0 -0.55459347893E+01 -0.62148724410E+02 -0.96958386676E+02  0.11530459698E+03  0.10000000000E+01 0.  0.
<mgrwt>
<rscale>  0 0.12500366E+03</rscale>
<asrwt>0</asrwt>
<pdfrwt beam="1">  1        4 0.26727764E-02 0.12500366E+03</pdfrwt>
<pdfrwt beam="2">  1       -4 0.34593631E-01 0.12500366E+03</pdfrwt>
<totfact> 0.83459306E+03</totfact>
</mgrwt>
</event>
<event>
 5    1  0.3401591E-002  0.1250008E+03  0.7818608E-02  0.1235068E+00
          4   -1    0    0  501    0  0.00000000000E+00  0.00000000000E+00  0.51918960796E+03  0.51919116124E+03  0.12700000000E+01 0. -1.
         -4   -1    0    0    0  501 -0.00000000000E+00 -0.00000000000E+00 -0.74686777906E+01  0.75758859508E+01  0.12700000000E+01 0. -1.
         25    2    1    2    0    0  0.00000000000E+00  0.00000000000E+00  0.51172093017E+03  0.52676704719E+03  0.12500084654E+03 0.  0.
    9000005    1    3    3    0    0 -0.43754132900E+01 -0.59104551901E+02  0.17233916400E+03  0.18224785252E+03  0.10000000000E+01 0.  0.
    9000005    1    3    3    0    0  0.43754132900E+01  0.59104551901E+02  0.33938176616E+03  0.34451919468E+03  0.10000000000E+01 0.  0.
<mgrwt>
<rscale>  0 0.12500085E+03</rscale>
<asrwt>0</asrwt>
<pdfrwt beam="1">  1        4 0.79883694E-01 0.12500085E+03</pdfrwt>
<pdfrwt beam="2">  1       -4 0.11573936E-02 0.12500085E+03</pdfrwt>
<totfact> 0.53844775E+03</totfact>
</mgrwt>
</event>
<event>
 5    1  0.3401591E-002  0.1249986E+03  0.7818608E-02  0.1235071E+00
         -4   -1    0    0    0  501 -0.00000000000E+00  0.00000000000E+00  0.11819841214E+03  0.11820523479E+03  0.12700000000E+01 0.  1.
          4   -1    0    0  501    0  0.00000000000E+00 -0.00000000000E+00 -0.33027530767E+02  0.33051939256E+02  0.12700000000E+01 0.  1.
         25    2    1    2    0    0  0.00000000000E+00  0.00000000000E+00  0.85170881369E+02  0.15125717404E+03  0.12499861466E+03 0.  0.
    9000005    1    3    3    0    0 -0.24533326927E+02  0.46942100767E+02  0.82713812641E+02  0.98224333829E+02  0.10000000000E+01 0.  0.
    9000005    1    3    3    0    0  0.24533326927E+02 -0.46942100767E+02  0.24570687280E+01  0.53032840215E+02  0.10000000000E+01 0.  0.
<mgrwt>
<rscale>  0 0.12499861E+03</rscale>
<asrwt>0</asrwt>
<pdfrwt beam="2">  1        4 0.50835609E-02 0.12499861E+03</pdfrwt>
<pdfrwt beam="1">  1       -4 0.18186774E-01 0.12499861E+03</pdfrwt>
<totfact> 0.99056775E+03</totfact>
</mgrwt>
</event>
<event>
 5    1  0.3401591E-002  0.1250007E+03  0.7818608E-02  0.1235068E+00
         -4   -1    0    0    0  501 -0.00000000000E+00  0.00000000000E+00  0.73023396641E+02  0.73034439527E+02  0.12700000000E+01 0. -1.
          4   -1    0    0  501    0  0.00000000000E+00 -0.00000000000E+00 -0.53471132357E+02  0.53486212200E+02  0.12700000000E+01 0. -1.
         25    2    1    2    0    0  0.00000000000E+00  0.00000000000E+00  0.19552264285E+02  0.12652065173E+03  0.12500073710E+03 0.  0.
    9000005    1    3    3    0    0  0.16231653851E+02 -0.20660140935E+02  0.67166436574E+02  0.72129315901E+02  0.10000000000E+01 0.  0.
    9000005    1    3    3    0    0 -0.16231653851E+02  0.20660140935E+02 -0.47614172289E+02  0.54391335827E+02  0.10000000000E+01 0.  0.
<mgrwt>
<rscale>  0 0.12500074E+03</rscale>
<asrwt>0</asrwt>
<pdfrwt beam="2">  1        4 0.82283375E-02 0.12500074E+03</pdfrwt>
<pdfrwt beam="1">  1       -4 0.11236378E-01 0.12500074E+03</pdfrwt>
<totfact> 0.10419404E+04</totfact>
</mgrwt>
</event>
<event>
 5    1  0.3401591E-002  0.1249993E+03  0.7818608E-02  0.1235070E+00
          4   -1    0    0  501    0  0.00000000000E+00  0.00000000000E+00  0.11087791499E+03  0.11088518807E+03  0.12700000000E+01 0. -1.
         -4   -1    0    0    0  501 -0.00000000000E+00 -0.00000000000E+00 -0.35209907004E+02  0.35232803625E+02  0.12700000000E+01 0. -1.
         25    2    1    2    0    0  0.00000000000E+00  0.00000000000E+00  0.75668007990E+02  0.14611799170E+03  0.12499928025E+03 0.  0.
    9000005    1    3    3    0    0  0.52966159975E+02 -0.74432633896E+01  0.57020770077E-01  0.53495976706E+02  0.10000000000E+01 0.  0.
    9000005    1    3    3    0    0 -0.52966159975E+02  0.74432633896E+01  0.75610987220E+02  0.92622014990E+02  0.10000000000E+01 0.  0.
<mgrwt>
<rscale>  0 0.12499928E+03</rscale>
<asrwt>0</asrwt>
<pdfrwt beam="1">  1        4 0.17060462E-01 0.12499928E+03</pdfrwt>
<pdfrwt beam="2">  1       -4 0.54192295E-02 0.12499928E+03</pdfrwt>
<totfact> 0.10008485E+04</totfact>
</mgrwt>
</event>
<event>
 5    1  0.3401591E-002  0.1249993E+03  0.7818608E-02  0.1235070E+00
         -4   -1    0    0    0  501 -0.00000000000E+00  0.00000000000E+00  0.64914491081E+02  0.64926913159E+02  0.12700000000E+01 0.  1.
          4   -1    0    0  501    0  0.00000000000E+00 -0.00000000000E+00 -0.60149791774E+02  0.60163197642E+02  0.12700000000E+01 0.  1.
         25    2    1    2    0    0  0.00000000000E+00  0.00000000000E+00  0.47646993072E+01  0.12509011080E+03  0.12499933384E+03 0.  0.
    9000005    1    3    3    0    0 -0.11044844561E+02 -0.41042736772E+02  0.48227337302E+02  0.64291297205E+02  0.10000000000E+01 0.  0.
    9000005    1    3    3    0    0  0.11044844561E+02  0.41042736772E+02 -0.43462637995E+02  0.60798813595E+02  0.10000000000E+01 0.  0.
<mgrwt>
<rscale>  0 0.12499933E+03</rscale>
<asrwt>0</asrwt>
<pdfrwt beam="2">  1        4 0.92558008E-02 0.12499933E+03</pdfrwt>
<pdfrwt beam="1">  1       -4 0.99888316E-02 0.12499933E+03</pdfrwt>
<totfact> 0.10451063E+04</totfact>
</mgrwt>
</event>
<event>
 5    1  0.3401591E-002  0.1249501E+03  0.7818608E-02  0.1235147E+00
          4   -1    0    0  501    0  0.00000000000E+00  0.00000000000E+00  0.63193739186E+02  0.63206499447E+02  0.12700000000E+01 0. -1.
         -4   -1    0    0    0  501 -0.00000000000E+00 -0.00000000000E+00 -0.61739045855E+02  0.61752106710E+02  0.12700000000E+01 0. -1.
         25    2    1    2    0    0  0.00000000000E+00  0.00000000000E+00  0.14546933307E+01  0.12495860616E+03  0.12495013854E+03 0.  0.
    9000005    1    3    3    0    0 -0.52510354134E+02 -0.33756816362E+02 -0.15694016412E+01  0.62452565709E+02  0.10000000000E+01 0.  0.
    9000005    1    3    3    0    0  0.52510354134E+02  0.33756816362E+02  0.30240949718E+01  0.62506040448E+02  0.10000000000E+01 0.  0.
<mgrwt>
<rscale>  0 0.12495014E+03</rscale>
<asrwt>0</asrwt>
<pdfrwt beam="1">  1        4 0.97240999E-02 0.12495014E+03</pdfrwt>
<pdfrwt beam="2">  1       -4 0.95003010E-02 0.12495014E+03</pdfrwt>
<totfact> 0.10465551E+04</totfact>
</mgrwt>
</event>
<event>
 5    1  0.3401591E-002  0.1250095E+03  0.7818608E-02  0.1235054E+00
         -4   -1    0    0    0  501 -0.00000000000E+00  0.00000000000E+00  0.20182647624E+02  0.20222565740E+02  0.12700000000E+01 0. -1.
          4   -1    0    0  501    0  0.00000000000E+00 -0.00000000000E+00 -0.19334104244E+03  0.19334521352E+03  0.12700000000E+01 0. -1.
         25    2    1    2    0    0  0.00000000000E+00  0.00000000000E+00 -0.17315839482E+03  0.21356777926E+03  0.12500946622E+03 0.  0.
    9000005    1    3    3    0    0 -0.56203921130E+02 -0.56737935540E+01 -0.13225389477E+03  0.14381642940E+03  0.10000000000E+01 0.  0.
    9000005    1    3    3    0    0  0.56203921130E+02  0.56737935540E+01 -0.40904500051E+02  0.69751349865E+02  0.10000000000E+01 0.  0.
<mgrwt>
<rscale>  0 0.12500947E+03</rscale>
<asrwt>0</asrwt>
<pdfrwt beam="2">  1        4 0.29748166E-01 0.12500947E+03</pdfrwt>
<pdfrwt beam="1">  1       -4 0.31084143E-02 0.12500947E+03</pdfrwt>
<totfact> 0.87877918E+03</totfact>
</mgrwt>
</event>
<event>
 5    1  0.3401591E-002  0.1249997E+03  0.7818608E-02  0.1235070E+00
         -4   -1    0    0    0  501 -0.00000000000E+00  0.00000000000E+00  0.12809923965E+03  0.12810553501E+03  0.12700000000E+01 0.  1.
          4   -1    0    0  501    0  0.00000000000E+00 -0.00000000000E+00 -0.30473538765E+02  0.30499991228E+02  0.12700000000E+01 0.  1.
         25    2    1    2    0    0  0.00000000000E+00  0.00000000000E+00  0.97625700888E+02  0.15860552624E+03  0.12499974191E+03 0.  0.
    9000005    1    3    3    0    0  0.39578948609E+02  0.41727508344E+02  0.79829751999E+02  0.98394448166E+02  0.10000000000E+01 0.  0.
    9000005    1    3    3    0    0 -0.39578948609E+02 -0.41727508344E+02  0.17795948889E+02  0.60211078071E+02  0.10000000000E+01 0.  0.
<mgrwt>
<rscale>  0 0.12499974E+03</rscale>
<asrwt>0</asrwt>
<pdfrwt beam="2">  1        4 0.46907558E-02 0.12499974E+03</pdfrwt>
<pdfrwt beam="1">  1       -4 0.19710095E-01 0.12499974E+03</pdfrwt>
<totfact> 0.97612870E+03</totfact>
</mgrwt>
</event>
<event>
 5    1  0.3401591E-002  0.1250054E+03  0.7818608E-02  0.1235061E+00
          4   -1    0    0  501    0  0.00000000000E+00  0.00000000000E+00  0.17356170750E+03  0.17356635391E+03  0.12700000000E+01 0. -1.
         -4   -1    0    0    0  501 -0.00000000000E+00 -0.00000000000E+00 -0.22485499751E+02  0.22521336529E+02  0.12700000000E+01 0. -1.
         25    2    1    2    0    0  0.00000000000E+00  0.00000000000E+00  0.15107620774E+03  0.19608769044E+03  0.12500544706E+03 0.  0.
    9000005    1    3    3    0    0  0.61270023433E+02  0.12238984936E+02  0.77632052794E+02  0.99657132935E+02  0.10000000000E+01 0.  0.
    9000005    1    3    3    0    0 -0.61270023433E+02 -0.12238984936E+02  0.73444154951E+02  0.96430557502E+02  0.10000000000E+01 0.  0.
<mgrwt>
<rscale>  0 0.12500545E+03</rscale>
<asrwt>0</asrwt>
<pdfrwt beam="1">  1        4 0.26704915E-01 0.12500545E+03</pdfrwt>
<pdfrwt beam="2">  1       -4 0.34624218E-02 0.12500545E+03</pdfrwt>
<totfact> 0.90787661E+03</totfact>
</mgrwt>
</event>
<event>
 5    1  0.3401591E-002  0.1250040E+03  0.7818608E-02  0.1235063E+00
          4   -1    0    0  501    0  0.00000000000E+00  0.00000000000E+00  0.18580578109E+03  0.18581012133E+03  0.12700000000E+01 0. -1.
         -4   -1    0    0    0  501 -0.00000000000E+00 -0.00000000000E+00 -0.21000869470E+02  0.21039235217E+02  0.12700000000E+01 0. -1.
         25    2    1    2    0    0  0.00000000000E+00  0.00000000000E+00  0.16480491162E+03  0.20684935654E+03  0.12500398957E+03 0.  0.
    9000005    1    3    3    0    0  0.53268151276E+02  0.32259689397E+02  0.91050893724E+02  0.11031522446E+03  0.10000000000E+01 0.  0.
    9000005    1    3    3    0    0 -0.53268151276E+02 -0.32259689397E+02  0.73754017899E+02  0.96534132081E+02  0.10000000000E+01 0.  0.
<mgrwt>
<rscale>  0 0.12500399E+03</rscale>
<asrwt>0</asrwt>
<pdfrwt beam="1">  1        4 0.28588789E-01 0.12500399E+03</pdfrwt>
<pdfrwt beam="2">  1       -4 0.32341882E-02 0.12500399E+03</pdfrwt>
<totfact> 0.88985082E+03</totfact>
</mgrwt>
</event>
<event>
 5    1  0.3401591E-002  0.1249969E+03  0.7818608E-02  0.1235074E+00
          4   -1    0    0  501    0  0.00000000000E+00  0.00000000000E+00  0.63763172841E+02  0.63775819170E+02  0.12700000000E+01 0. -1.
         -4   -1    0    0    0  501 -0.00000000000E+00 -0.00000000000E+00 -0.61233539771E+02  0.61246708424E+02  0.12700000000E+01 0. -1.
         25    2    1    2    0    0  0.00000000000E+00  0.00000000000E+00  0.25296330704E+01  0.12502252759E+03  0.12499693341E+03 0.  0.
    9000005    1    3    3    0    0  0.26054698746E+02  0.56123192884E+02  0.10007214602E+02  0.62688152392E+02  0.10000000000E+01 0.  0.
    9000005    1    3    3    0    0 -0.26054698746E+02 -0.56123192884E+02 -0.74775815313E+01  0.62334375202E+02  0.10000000000E+01 0.  0.
<mgrwt>
<rscale>  0 0.12499693E+03</rscale>
<asrwt>0</asrwt>
<pdfrwt beam="1">  1        4 0.98117046E-02 0.12499693E+03</pdfrwt>
<pdfrwt beam="2">  1       -4 0.94225304E-02 0.12499693E+03</pdfrwt>
<totfact> 0.10453098E+04</totfact>
</mgrwt>
</event>
<event>
 5    1  0.3401591E-002  0.1250007E+03  0.7818608E-02  0.1235068E+00
         -4   -1    0    0    0  501 -0.00000000000E+00  0.00000000000E+00  0.80417921377E+02  0.80427948989E+02  0.12700000000E+01 0.  1.
          4   -1    0    0  501    0  0.00000000000E+00 -0.00000000000E+00 -0.48553569166E+02  0.48570175816E+02  0.12700000000E+01 0.  1.
         25    2    1    2    0    0  0.00000000000E+00  0.00000000000E+00  0.31864352210E+02  0.12899812481E+03  0.12500071704E+03 0.  0.
    9000005    1    3    3    0    0 -0.25803800908E+02 -0.51797540967E+02 -0.84118893435E+01  0.58485735644E+02  0.10000000000E+01 0.  0.
    9000005    1    3    3    0    0  0.25803800908E+02  0.51797540967E+02  0.40276241554E+02  0.70512389161E+02  0.10000000000E+01 0.  0.
<mgrwt>
<rscale>  0 0.12500072E+03</rscale>
<asrwt>0</asrwt>
<pdfrwt beam="2">  1        4 0.74718287E-02 0.12500072E+03</pdfrwt>
<pdfrwt beam="1">  1       -4 0.12374037E-01 0.12500072E+03</pdfrwt>
<totfact> 0.10365819E+04</totfact>
</mgrwt>
</event>
<event>
 5    1  0.3401591E-002  0.1249988E+03  0.7818608E-02  0.1235071E+00
          4   -1    0    0  501    0  0.00000000000E+00  0.00000000000E+00  0.25183173782E+02  0.25215176813E+02  0.12700000000E+01 0. -1.
         -4   -1    0    0    0  501 -0.00000000000E+00 -0.00000000000E+00 -0.15497735372E+03  0.15498255729E+03  0.12700000000E+01 0. -1.
         25    2    1    2    0    0  0.00000000000E+00  0.00000000000E+00 -0.12979417994E+03  0.18019773411E+03  0.12499877692E+03 0.  0.
    9000005    1    3    3    0    0  0.46578042532E+02 -0.40508654207E+02 -0.78926451856E+02  0.10020404141E+03  0.10000000000E+01 0.  0.
    9000005    1    3    3    0    0 -0.46578042532E+02  0.40508654207E+02 -0.50867728081E+02  0.79993692700E+02  0.10000000000E+01 0.  0.
<mgrwt>
<rscale>  0 0.12499878E+03</rscale>
<asrwt>0</asrwt>
<pdfrwt beam="1">  1        4 0.38771966E-02 0.12499878E+03</pdfrwt>
<pdfrwt beam="2">  1       -4 0.23845531E-01 0.12499878E+03</pdfrwt>
<totfact> 0.93583989E+03</totfact>
</mgrwt>
</event>
<event>
 5    1  0.3401591E-002  0.1250073E+03  0.7818608E-02  0.1235058E+00
         -4   -1    0    0    0  501 -0.00000000000E+00  0.00000000000E+00  0.83560247492E+01  0.84519849508E+01  0.12700000000E+01 0. -1.
          4   -1    0    0  501    0  0.00000000000E+00 -0.00000000000E+00 -0.46476568320E+03  0.46476741837E+03  0.12700000000E+01 0. -1.
         25    2    1    2    0    0  0.00000000000E+00  0.00000000000E+00 -0.45640965845E+03  0.47321940333E+03  0.12500730920E+03 0.  0.
    9000005    1    3    3    0    0 -0.41322469118E+02 -0.23297613003E+02 -0.38222450331E+03  0.38515827417E+03  0.10000000000E+01 0.  0.
    9000005    1    3    3    0    0  0.41322469118E+02  0.23297613003E+02 -0.74185155140E+02  0.88061129159E+02  0.10000000000E+01 0.  0.
<mgrwt>
<rscale>  0 0.12500731E+03</rscale>
<asrwt>0</asrwt>
<pdfrwt beam="2">  1        4 0.71509908E-01 0.12500731E+03</pdfrwt>
<pdfrwt beam="1">  1       -4 0.12930577E-02 0.12500731E+03</pdfrwt>
<totfact> 0.57994456E+03</totfact>
</mgrwt>
</event>
<event>
 5    1  0.3401591E-002  0.1249966E+03  0.7818608E-02  0.1235075E+00
          4   -1    0    0  501    0  0.00000000000E+00  0.00000000000E+00  0.14777345695E+04  0.14777351152E+04  0.12700000000E+01 0.  1.
         -4   -1    0    0    0  501 -0.00000000000E+00 -0.00000000000E+00 -0.24901328487E+01  0.27952927582E+01  0.12700000000E+01 0.  1.
         25    2    1    2    0    0  0.00000000000E+00  0.00000000000E+00  0.14752444366E+04  0.14805304079E+04  0.12499656443E+03 0.  0.
    9000005    1    3    3    0    0  0.42891640378E+02 -0.42840019381E+02  0.55796107309E+03  0.56124550703E+03  0.10000000000E+01 0.  0.
    9000005    1    3    3    0    0 -0.42891640378E+02  0.42840019381E+02  0.91728336351E+03  0.91928490092E+03  0.10000000000E+01 0.  0.
<mgrwt>
<rscale>  0 0.12499656E+03</rscale>
<asrwt>0</asrwt>
<pdfrwt beam="1">  1        4 0.22736692E+00 0.12499656E+03</pdfrwt>
<pdfrwt beam="2">  1       -4 0.40661385E-03 0.12499656E+03</pdfrwt>
<totfact> 0.18317378E+03</totfact>
</mgrwt>
</event>
<event>
 5    1  0.3401591E-002  0.1249998E+03  0.7818608E-02  0.1235070E+00
          4   -1    0    0  501    0  0.00000000000E+00  0.00000000000E+00  0.23199460387E+02  0.23234195967E+02  0.12700000000E+01 0.  1.
         -4   -1    0    0    0  501 -0.00000000000E+00 -0.00000000000E+00 -0.16821320652E+03  0.16821800067E+03  0.12700000000E+01 0.  1.
         25    2    1    2    0    0  0.00000000000E+00  0.00000000000E+00 -0.14501374614E+03  0.19145219664E+03  0.12499982811E+03 0.  0.
    9000005    1    3    3    0    0  0.34323153829E+02  0.25512609326E+02 -0.14229676928E+03  0.14858782814E+03  0.10000000000E+01 0.  0.
    9000005    1    3    3    0    0 -0.34323153829E+02 -0.25512609326E+02 -0.27169768569E+01  0.42864368497E+02  0.10000000000E+01 0.  0.
<mgrwt>
<rscale>  0 0.12499983E+03</rscale>
<asrwt>0</asrwt>
<pdfrwt beam="1">  1        4 0.35721886E-02 0.12499983E+03</pdfrwt>
<pdfrwt beam="2">  1       -4 0.25881995E-01 0.12499983E+03</pdfrwt>
<totfact> 0.91595603E+03</totfact>
</mgrwt>
</event>
<event>
 5    1  0.3401591E-002  0.1250019E+03  0.7818608E-02  0.1235066E+00
          4   -1    0    0  501    0  0.00000000000E+00  0.00000000000E+00  0.40579297678E+03  0.40579496412E+03  0.12700000000E+01 0. -1.
         -4   -1    0    0    0  501 -0.00000000000E+00 -0.00000000000E+00 -0.95825975728E+01  0.96663889971E+01  0.12700000000E+01 0. -1.
         25    2    1    2    0    0  0.00000000000E+00  0.00000000000E+00  0.39621037921E+03  0.41546135311E+03  0.12500188535E+03 0.  0.
    9000005    1    3    3    0    0  0.13558536757E+01  0.62065456382E+02  0.22193562855E+03  0.23045689930E+03  0.10000000000E+01 0.  0.
    9000005    1    3    3    0    0 -0.13558536757E+01 -0.62065456382E+02  0.17427475066E+03  0.18500445382E+03  0.10000000000E+01 0.  0.
<mgrwt>
<rscale>  0 0.12500189E+03</rscale>
<asrwt>0</asrwt>
<pdfrwt beam="1">  1        4 0.62436287E-01 0.12500189E+03</pdfrwt>
<pdfrwt beam="2">  1       -4 0.14808441E-02 0.12500189E+03</pdfrwt>
<totfact> 0.63073686E+03</totfact>
</mgrwt>
</event>
<event>
 5    1  0.3401591E-002  0.1250017E+03  0.7818608E-02  0.1235067E+00
          4   -1    0    0  501    0  0.00000000000E+00  0.00000000000E+00  0.80154447376E+02  0.80164507945E+02  0.12700000000E+01 0.  1.
         -4   -1    0    0    0  501 -0.00000000000E+00 -0.00000000000E+00 -0.48714003908E+02  0.48730555884E+02  0.12700000000E+01 0.  1.
         25    2    1    2    0    0  0.00000000000E+00  0.00000000000E+00  0.31440443467E+02  0.12889506383E+03  0.12500174396E+03 0.  0.
    9000005    1    3    3    0    0  0.63913232409E+01 -0.46023970176E+02  0.58810585208E+02  0.74958253556E+02  0.10000000000E+01 0.  0.
    9000005    1    3    3    0    0 -0.63913232409E+01  0.46023970176E+02 -0.27370141741E+02  0.53936810274E+02  0.10000000000E+01 0.  0.
<mgrwt>
<rscale>  0 0.12500174E+03</rscale>
<asrwt>0</asrwt>
<pdfrwt beam="1">  1        4 0.12333500E-01 0.12500174E+03</pdfrwt>
<pdfrwt beam="2">  1       -4 0.74965093E-02 0.12500174E+03</pdfrwt>
<totfact> 0.10367794E+04</totfact>
</mgrwt>
</event>
<event>
 5    1  0.3401591E-002  0.1249985E+03  0.7818608E-02  0.1235072E+00
         -4   -1    0    0    0  501 -0.00000000000E+00  0.00000000000E+00  0.25061345529E+02  0.25093503935E+02  0.12700000000E+01 0. -1.
          4   -1    0    0  501    0  0.00000000000E+00 -0.00000000000E+00 -0.15572916971E+03  0.15573434816E+03  0.12700000000E+01 0. -1.
         25    2    1    2    0    0  0.00000000000E+00  0.00000000000E+00 -0.13066782418E+03  0.18082785210E+03  0.12499852727E+03 0.  0.
    9000005    1    3    3    0    0  0.37638465721E+01  0.41169310214E+02  0.24590231021E+01  0.41426144391E+02  0.10000000000E+01 0.  0.
    9000005    1    3    3    0    0 -0.37638465721E+01 -0.41169310214E+02 -0.13312684728E+03  0.13940170771E+03  0.10000000000E+01 0.  0.
<mgrwt>
<rscale>  0 0.12499853E+03</rscale>
<asrwt>0</asrwt>
<pdfrwt beam="2">  1        4 0.23961205E-01 0.12499853E+03</pdfrwt>
<pdfrwt beam="1">  1       -4 0.38584638E-02 0.12499853E+03</pdfrwt>
<totfact> 0.93471286E+03</totfact>
</mgrwt>
</event>
<event>
 5    1  0.3401591E-002  0.1250011E+03  0.7818608E-02  0.1235068E+00
         -4   -1    0    0    0  501 -0.00000000000E+00  0.00000000000E+00  0.44864680677E+02  0.44882652242E+02  0.12700000000E+01 0.  1.
          4   -1    0    0  501    0  0.00000000000E+00 -0.00000000000E+00 -0.87028892036E+02  0.87038158006E+02  0.12700000000E+01 0.  1.
         25    2    1    2    0    0  0.00000000000E+00  0.00000000000E+00 -0.42164211359E+02  0.13192081025E+03  0.12500111782E+03 0.  0.
    9000005    1    3    3    0    0 -0.14332086624E+02  0.57468214206E+02 -0.42118300029E+02  0.72683942851E+02  0.10000000000E+01 0.  0.
    9000005    1    3    3    0    0  0.14332086624E+02 -0.57468214206E+02 -0.45911330487E-01  0.59236867396E+02  0.10000000000E+01 0.  0.
<mgrwt>
<rscale>  0 0.12500112E+03</rscale>
<asrwt>0</asrwt>
<pdfrwt beam="2">  1        4 0.13391155E-01 0.12500112E+03</pdfrwt>
<pdfrwt beam="1">  1       -4 0.69043538E-02 0.12500112E+03</pdfrwt>
<totfact> 0.10303129E+04</totfact>
</mgrwt>
</event>
<event>
 5    1  0.3401591E-002  0.1249993E+03  0.7818608E-02  0.1235070E+00
          4   -1    0    0  501    0  0.00000000000E+00  0.00000000000E+00  0.29559143758E+03  0.29559416582E+03  0.12700000000E+01 0. -1.
         -4   -1    0    0    0  501 -0.00000000000E+00 -0.00000000000E+00 -0.13181575494E+02  0.13242614262E+02  0.12700000000E+01 0. -1.
         25    2    1    2    0    0  0.00000000000E+00  0.00000000000E+00  0.28240986208E+03  0.30883678008E+03  0.12499930613E+03 0.  0.
    9000005    1    3    3    0    0  0.60382408071E+01 -0.57962262192E+02  0.85456514749E+02  0.10344032146E+03  0.10000000000E+01 0.  0.
    9000005    1    3    3    0    0 -0.60382408071E+01  0.57962262192E+02  0.19695334733E+03  0.20539645863E+03  0.10000000000E+01 0.  0.
<mgrwt>
<rscale>  0 0.12499931E+03</rscale>
<asrwt>0</asrwt>
<pdfrwt beam="1">  1        4 0.45480509E-01 0.12499931E+03</pdfrwt>
<pdfrwt beam="2">  1       -4 0.20328399E-02 0.12499931E+03</pdfrwt>
<totfact> 0.74504719E+03</totfact>
</mgrwt>
</event>
<event>
 5    1  0.3401591E-002  0.1250179E+03  0.7818608E-02  0.1235041E+00
          4   -1    0    0  501    0  0.00000000000E+00  0.00000000000E+00  0.94784814024E+02  0.94793321862E+02  0.12700000000E+01 0. -1.
         -4   -1    0    0    0  501 -0.00000000000E+00 -0.00000000000E+00 -0.41203445035E+02  0.41223012781E+02  0.12700000000E+01 0. -1.
         25    2    1    2    0    0  0.00000000000E+00  0.00000000000E+00  0.53581368990E+02  0.13601633464E+03  0.12501791946E+03 0.  0.
    9000005    1    3    3    0    0 -0.48778368726E+01 -0.59701078663E+02  0.46202969426E+02  0.75655313560E+02  0.10000000000E+01 0.  0.
    9000005    1    3    3    0    0  0.48778368726E+01  0.59701078663E+02  0.73783995634E+01  0.60361021083E+02  0.10000000000E+01 0.  0.
<mgrwt>
<rscale>  0 0.12501792E+03</rscale>
<asrwt>0</asrwt>
<pdfrwt beam="1">  1        4 0.14584439E-01 0.12501792E+03</pdfrwt>
<pdfrwt beam="2">  1       -4 0.63411512E-02 0.12501792E+03</pdfrwt>
<totfact> 0.10212566E+04</totfact>
</mgrwt>
</event>
<event>
 5    1  0.3401591E-002  0.1249776E+03  0.7818608E-02  0.1235104E+00
         -4   -1    0    0    0  501 -0.00000000000E+00  0.00000000000E+00  0.22989824740E+03  0.22990175523E+03  0.12700000000E+01 0. -1.
          4   -1    0    0  501    0  0.00000000000E+00 -0.00000000000E+00 -0.16957729781E+02  0.17005219767E+02  0.12700000000E+01 0. -1.
         25    2    1    2    0    0  0.00000000000E+00  0.00000000000E+00  0.21294051762E+03  0.24690697500E+03  0.12497755902E+03 0.  0.
    9000005    1    3    3    0    0 -0.48433067718E+01  0.61768417723E+02  0.12240457277E+03  0.13719575243E+03  0.10000000000E+01 0.  0.
    9000005    1    3    3    0    0  0.48433067718E+01 -0.61768417723E+02  0.90535944848E+02  0.10971122257E+03  0.10000000000E+01 0.  0.
<mgrwt>
<rscale>  0 0.12497756E+03</rscale>
<asrwt>0</asrwt>
<pdfrwt beam="2">  1        4 0.26128043E-02 0.12497756E+03</pdfrwt>
<pdfrwt beam="1">  1       -4 0.35372886E-01 0.12497756E+03</pdfrwt>
<totfact> 0.82820733E+03</totfact>
</mgrwt>
</event>
<event>
 5    1  0.3401591E-002  0.1249986E+03  0.7818608E-02  0.1235071E+00
         -4   -1    0    0    0  501 -0.00000000000E+00  0.00000000000E+00  0.10260225291E+03  0.10261011257E+03  0.12700000000E+01 0. -1.
          4   -1    0    0  501    0  0.00000000000E+00 -0.00000000000E+00 -0.38051024845E+02  0.38072212856E+02  0.12700000000E+01 0. -1.
         25    2    1    2    0    0  0.00000000000E+00  0.00000000000E+00  0.64551228060E+02  0.14068232542E+03  0.12499862256E+03 0.  0.
    9000005    1    3    3    0    0  0.24628149990E+02 -0.30669197756E+02  0.86927846924E+02  0.95418006864E+02  0.10000000000E+01 0.  0.
    9000005    1    3    3    0    0 -0.24628149990E+02  0.30669197756E+02 -0.22376618864E+02  0.45264318561E+02  0.10000000000E+01 0.  0.
<mgrwt>
<rscale>  0 0.12499862E+03</rscale>
<asrwt>0</asrwt>
<pdfrwt beam="2">  1        4 0.58562383E-02 0.12499862E+03</pdfrwt>
<pdfrwt beam="1">  1       -4 0.15787196E-01 0.12499862E+03</pdfrwt>
<totfact> 0.10119778E+04</totfact>
</mgrwt>
</event>
<event>
 5    1  0.3401591E-002  0.1250025E+03  0.7818608E-02  0.1235065E+00
          4   -1    0    0  501    0  0.00000000000E+00  0.00000000000E+00  0.76369059741E+01  0.77417848625E+01  0.12700000000E+01 0.  1.
         -4   -1    0    0    0  501 -0.00000000000E+00 -0.00000000000E+00 -0.50792300155E+03  0.50792458928E+03  0.12700000000E+01 0.  1.
         25    2    1    2    0    0  0.00000000000E+00  0.00000000000E+00 -0.50028609557E+03  0.51566637415E+03  0.12500252799E+03 0.  0.
    9000005    1    3    3    0    0  0.16181458545E+02 -0.35537779159E+02 -0.48865009036E+02  0.62558472298E+02  0.10000000000E+01 0.  0.
    9000005    1    3    3    0    0 -0.16181458545E+02  0.35537779159E+02 -0.45142108654E+03  0.45310790185E+03  0.10000000000E+01 0.  0.
<mgrwt>
<rscale>  0 0.12500253E+03</rscale>
<asrwt>0</asrwt>
<pdfrwt beam="1">  1        4 0.11830987E-02 0.12500253E+03</pdfrwt>
<pdfrwt beam="2">  1       -4 0.78150164E-01 0.12500253E+03</pdfrwt>
<totfact> 0.54665986E+03</totfact>
</mgrwt>
</event>
<event>
 5    1  0.3401591E-002  0.1250008E+03  0.7818608E-02  0.1235068E+00
         -4   -1    0    0    0  501 -0.00000000000E+00  0.00000000000E+00  0.63571278807E+01  0.64827443950E+01  0.12700000000E+01 0.  1.
          4   -1    0    0  501    0  0.00000000000E+00 -0.00000000000E+00 -0.60833808284E+03  0.60833940850E+03  0.12700000000E+01 0.  1.
         25    2    1    2    0    0  0.00000000000E+00  0.00000000000E+00 -0.60198095496E+03  0.61482215289E+03  0.12500083822E+03 0.  0.
    9000005    1    3    3    0    0  0.49382828597E+02 -0.37956691928E+02 -0.32603556113E+03  0.33193306757E+03  0.10000000000E+01 0.  0.
    9000005    1    3    3    0    0 -0.49382828597E+02  0.37956691928E+02 -0.27594539382E+03  0.28288908532E+03  0.10000000000E+01 0.  0.
<mgrwt>
<rscale>  0 0.12500084E+03</rscale>
<asrwt>0</asrwt>
<pdfrwt beam="2">  1        4 0.93600193E-01 0.12500084E+03</pdfrwt>
<pdfrwt beam="1">  1       -4 0.98778494E-03 0.12500084E+03</pdfrwt>
<totfact> 0.47944300E+03</totfact>
</mgrwt>
</event>
<event>
 5    1  0.3401591E-002  0.1249973E+03  0.7818608E-02  0.1235073E+00
         -4   -1    0    0    0  501 -0.00000000000E+00  0.00000000000E+00  0.21979877155E+02  0.22016536961E+02  0.12700000000E+01 0.  1.
          4   -1    0    0  501    0  0.00000000000E+00 -0.00000000000E+00 -0.17752478766E+03  0.17752933035E+03  0.12700000000E+01 0.  1.
         25    2    1    2    0    0  0.00000000000E+00  0.00000000000E+00 -0.15554491050E+03  0.19954586731E+03  0.12499733588E+03 0.  0.
    9000005    1    3    3    0    0  0.25508749900E+02  0.49707000873E+02 -0.33084597353E+02  0.64938993211E+02  0.10000000000E+01 0.  0.
    9000005    1    3    3    0    0 -0.25508749900E+02 -0.49707000873E+02 -0.12246031315E+03  0.13460687410E+03  0.10000000000E+01 0.  0.
<mgrwt>
<rscale>  0 0.12499734E+03</rscale>
<asrwt>0</asrwt>
<pdfrwt beam="2">  1        4 0.27314674E-01 0.12499734E+03</pdfrwt>
<pdfrwt beam="1">  1       -4 0.33846891E-02 0.12499734E+03</pdfrwt>
<totfact> 0.90217535E+03</totfact>
</mgrwt>
</event>
<event>
 5    1  0.3401591E-002  0.1249996E+03  0.7818608E-02  0.1235070E+00
          4   -1    0    0  501    0  0.00000000000E+00  0.00000000000E+00  0.38474491742E+01  0.40516373416E+01  0.12700000000E+01 0.  1.
         -4   -1    0    0    0  501 -0.00000000000E+00 -0.00000000000E+00 -0.98882704382E+03  0.98882785938E+03  0.12700000000E+01 0.  1.
         25    2    1    2    0    0  0.00000000000E+00  0.00000000000E+00 -0.98497959464E+03  0.99287949672E+03  0.12499957258E+03 0.  0.
    9000005    1    3    3    0    0 -0.26034715338E+02 -0.29975508806E+02 -0.10916924368E+03  0.11616910646E+03  0.10000000000E+01 0.  0.
    9000005    1    3    3    0    0  0.26034715338E+02  0.29975508806E+02 -0.87581035097E+03  0.87671039026E+03  0.10000000000E+01 0.  0.
<mgrwt>
<rscale>  0 0.12499957E+03</rscale>
<asrwt>0</asrwt>
<pdfrwt beam="1">  1        4 0.60768556E-03 0.12499957E+03</pdfrwt>
<pdfrwt beam="2">  1       -4 0.15214281E+00 0.12499957E+03</pdfrwt>
<totfact> 0.30841087E+03</totfact>
</mgrwt>
</event>
<event>
 5    1  0.3401591E-002  0.1249952E+03  0.7818608E-02  0.1235077E+00
         -4   -1    0    0    0  501 -0.00000000000E+00  0.00000000000E+00  0.36045756311E+02  0.36068122325E+02  0.12700000000E+01 0.  1.
          4   -1    0    0  501    0  0.00000000000E+00 -0.00000000000E+00 -0.10830110530E+03  0.10830855141E+03  0.12700000000E+01 0.  1.
         25    2    1    2    0    0  0.00000000000E+00  0.00000000000E+00 -0.72255348989E+02  0.14437667374E+03  0.12499515375E+03 0.  0.
    9000005    1    3    3    0    0 -0.42426459869E+02  0.27368506979E+02 -0.78659975565E+02  0.93474228679E+02  0.10000000000E+01 0.  0.
    9000005    1    3    3    0    0  0.42426459869E+02 -0.27368506979E+02  0.64046265763E+01  0.50902445058E+02  0.10000000000E+01 0.  0.
<mgrwt>
<rscale>  0 0.12499515E+03</rscale>
<asrwt>0</asrwt>
<pdfrwt beam="2">  1        4 0.16664002E-01 0.12499515E+03</pdfrwt>
<pdfrwt beam="1">  1       -4 0.55477943E-02 0.12499515E+03</pdfrwt>
<totfact> 0.10044765E+04</totfact>
</mgrwt>
</event>
<event>
 5    1  0.3401591E-002  0.1249900E+03  0.7818608E-02  0.1235085E+00
         -4   -1    0    0    0  501 -0.00000000000E+00  0.00000000000E+00  0.76196352055E+01  0.77247485826E+01  0.12700000000E+01 0. -1.
          4   -1    0    0  501    0  0.00000000000E+00 -0.00000000000E+00 -0.50895658420E+03  0.50895816872E+03  0.12700000000E+01 0. -1.
         25    2    1    2    0    0  0.00000000000E+00  0.00000000000E+00 -0.50133694900E+03  0.51668291730E+03  0.12499000200E+03 0.  0.
    9000005    1    3    3    0    0  0.46739567216E+02 -0.94486921287E+01 -0.41760212204E+03  0.42031701995E+03  0.10000000000E+01 0.  0.
    9000005    1    3    3    0    0 -0.46739567216E+02  0.94486921287E+01 -0.83734826956E+02  0.96365897349E+02  0.10000000000E+01 0.  0.
<mgrwt>
<rscale>  0 0.12499000E+03</rscale>
<asrwt>0</asrwt>
<pdfrwt beam="2">  1        4 0.78309194E-01 0.12499000E+03</pdfrwt>
<pdfrwt beam="1">  1       -4 0.11804595E-02 0.12499000E+03</pdfrwt>
<totfact> 0.54604827E+03</totfact>
</mgrwt>
</event>
<event>
 5    1  0.3401591E-002  0.1250007E+03  0.7818608E-02  0.1235068E+00
         -4   -1    0    0    0  501 -0.00000000000E+00  0.00000000000E+00  0.87426094232E+01  0.88343714846E+01  0.12700000000E+01 0.  1.
          4   -1    0    0  501    0  0.00000000000E+00 -0.00000000000E+00 -0.44438576072E+03  0.44438757547E+03  0.12700000000E+01 0.  1.
         25    2    1    2    0    0  0.00000000000E+00  0.00000000000E+00 -0.43564315130E+03  0.45322194695E+03  0.12500071171E+03 0.  0.
    9000005    1    3    3    0    0 -0.28338950530E+02 -0.49614909761E+02 -0.12605636897E+03  0.13840499827E+03  0.10000000000E+01 0.  0.
    9000005    1    3    3    0    0  0.28338950530E+02  0.49614909761E+02 -0.30958678233E+03  0.31481694869E+03  0.10000000000E+01 0.  0.
<mgrwt>
<rscale>  0 0.12500071E+03</rscale>
<asrwt>0</asrwt>
<pdfrwt beam="2">  1        4 0.68374221E-01 0.12500071E+03</pdfrwt>
<pdfrwt beam="1">  1       -4 0.13522154E-02 0.12500071E+03</pdfrwt>
<totfact> 0.59684763E+03</totfact>
</mgrwt>
</event>
<event>
 5    1  0.3401591E-002  0.1250175E+03  0.7818608E-02  0.1235042E+00
          4   -1    0    0  501    0  0.00000000000E+00  0.00000000000E+00  0.14973665974E+02  0.15027427348E+02  0.12700000000E+01 0. -1.
         -4   -1    0    0    0  501 -0.00000000000E+00 -0.00000000000E+00 -0.26042476617E+03  0.26042786282E+03  0.12700000000E+01 0. -1.
         25    2    1    2    0    0  0.00000000000E+00  0.00000000000E+00 -0.24545110019E+03  0.27545529017E+03  0.12501749596E+03 0.  0.
    9000005    1    3    3    0    0  0.58815107639E+02 -0.10893303690E+02 -0.16265775577E+03  0.17331020300E+03  0.10000000000E+01 0.  0.
    9000005    1    3    3    0    0 -0.58815107639E+02  0.10893303690E+02 -0.82793344426E+02  0.10214508717E+03  0.10000000000E+01 0.  0.
<mgrwt>
<rscale>  0 0.12501750E+03</rscale>
<asrwt>0</asrwt>
<pdfrwt beam="1">  1        4 0.23080148E-02 0.12501750E+03</pdfrwt>
<pdfrwt beam="2">  1       -4 0.40069719E-01 0.12501750E+03</pdfrwt>
<totfact> 0.78753945E+03</totfact>
</mgrwt>
</event>
<event>
 5    1  0.3401591E-002  0.1249973E+03  0.7818608E-02  0.1235074E+00
          4   -1    0    0  501    0  0.00000000000E+00  0.00000000000E+00  0.45187090463E+01  0.46937864720E+01  0.12700000000E+01 0.  1.
         -4   -1    0    0    0  501 -0.00000000000E+00 -0.00000000000E+00 -0.84782031146E+03  0.84782126266E+03  0.12700000000E+01 0.  1.
         25    2    1    2    0    0  0.00000000000E+00  0.00000000000E+00 -0.84330160241E+03  0.85251504913E+03  0.12499726545E+03 0.  0.
    9000005    1    3    3    0    0 -0.20294367140E+02  0.45667488484E+02 -0.67754257659E+03  0.67938378251E+03  0.10000000000E+01 0.  0.
    9000005    1    3    3    0    0  0.20294367140E+02 -0.45667488484E+02 -0.16575902582E+03  0.17313126662E+03  0.10000000000E+01 0.  0.
<mgrwt>
<rscale>  0 0.12499727E+03</rscale>
<asrwt>0</asrwt>
<pdfrwt beam="1">  1        4 0.70872734E-03 0.12499727E+03</pdfrwt>
<pdfrwt beam="2">  1       -4 0.13044731E+00 0.12499727E+03</pdfrwt>
<totfact> 0.36026807E+03</totfact>
</mgrwt>
</event>
<event>
 5    1  0.3401591E-002  0.1249977E+03  0.7818608E-02  0.1235073E+00
          4   -1    0    0  501    0  0.00000000000E+00  0.00000000000E+00  0.22485727496E+02  0.22521563911E+02  0.12700000000E+01 0. -1.
         -4   -1    0    0    0  501 -0.00000000000E+00 -0.00000000000E+00 -0.17353853032E+03  0.17354317735E+03  0.12700000000E+01 0. -1.
         25    2    1    2    0    0  0.00000000000E+00  0.00000000000E+00 -0.15105280282E+03  0.19606474126E+03  0.12499773408E+03 0.  0.
    9000005    1    3    3    0    0  0.65814799411E+01  0.61027797701E+02 -0.93912575849E+02  0.11219750386E+03  0.10000000000E+01 0.  0.
    9000005    1    3    3    0    0 -0.65814799411E+01 -0.61027797701E+02 -0.57140226975E+02  0.83867237401E+02  0.10000000000E+01 0.  0.
<mgrwt>
<rscale>  0 0.12499773E+03</rscale>
<asrwt>0</asrwt>
<pdfrwt beam="1">  1        4 0.34624569E-02 0.12499773E+03</pdfrwt>
<pdfrwt beam="2">  1       -4 0.26701349E-01 0.12499773E+03</pdfrwt>
<totfact> 0.90807253E+03</totfact>
</mgrwt>
</event>
<event>
 5    1  0.3401591E-002  0.1249978E+03  0.7818608E-02  0.1235073E+00
          4   -1    0    0  501    0  0.00000000000E+00  0.00000000000E+00  0.46595074149E+03  0.46595247225E+03  0.12700000000E+01 0. -1.
         -4   -1    0    0    0  501 -0.00000000000E+00 -0.00000000000E+00 -0.83332423267E+01  0.84294618852E+01  0.12700000000E+01 0. -1.
         25    2    1    2    0    0  0.00000000000E+00  0.00000000000E+00  0.45761749917E+03  0.47438193414E+03  0.12499777555E+03 0.  0.
    9000005    1    3    3    0    0 -0.36300297522E+02  0.17138236790E+02  0.41056622887E+03  0.41252522232E+03  0.10000000000E+01 0.  0.
    9000005    1    3    3    0    0  0.36300297522E+02 -0.17138236790E+02  0.47051270293E+02  0.61856711816E+02  0.10000000000E+01 0.  0.
<mgrwt>
<rscale>  0 0.12499778E+03</rscale>
<asrwt>0</asrwt>
<pdfrwt beam="1">  1        4 0.71692282E-01 0.12499778E+03</pdfrwt>
<pdfrwt beam="2">  1       -4 0.12895716E-02 0.12499778E+03</pdfrwt>
<totfact> 0.57911104E+03</totfact>
</mgrwt>
</event>
<event>
 5    1  0.3401591E-002  0.1250002E+03  0.7818608E-02  0.1235069E+00
         -4   -1    0    0    0  501 -0.00000000000E+00  0.00000000000E+00  0.12272376330E+02  0.12337913956E+02  0.12700000000E+01 0.  1.
          4   -1    0    0  501    0  0.00000000000E+00 -0.00000000000E+00 -0.31738279732E+03  0.31738533825E+03  0.12700000000E+01 0.  1.
         25    2    1    2    0    0  0.00000000000E+00  0.00000000000E+00 -0.30511042099E+03  0.32972325220E+03  0.12500021619E+03 0.  0.
    9000005    1    3    3    0    0  0.49793799357E+02 -0.25671759611E+02 -0.22559850902E+03  0.23245246604E+03  0.10000000000E+01 0.  0.
    9000005    1    3    3    0    0 -0.49793799357E+02  0.25671759611E+02 -0.79511911972E+02  0.97270786166E+02  0.10000000000E+01 0.  0.
<mgrwt>
<rscale>  0 0.12500022E+03</rscale>
<asrwt>0</asrwt>
<pdfrwt beam="2">  1        4 0.48833353E-01 0.12500022E+03</pdfrwt>
<pdfrwt beam="1">  1       -4 0.18932949E-02 0.12500022E+03</pdfrwt>
<totfact> 0.72014062E+03</totfact>
</mgrwt>
</event>
<event>
 5    1  0.3401591E-002  0.1249982E+03  0.7818608E-02  0.1235072E+00
          4   -1    0    0  501    0  0.00000000000E+00  0.00000000000E+00  0.29357134526E+01  0.31986424426E+01  0.12700000000E+01 0.  1.
         -4   -1    0    0    0  501 -0.00000000000E+00 -0.00000000000E+00 -0.12732649716E+04  0.12732656049E+04  0.12700000000E+01 0.  1.
         25    2    1    2    0    0  0.00000000000E+00  0.00000000000E+00 -0.12703292581E+04  0.12764642474E+04  0.12499820327E+03 0.  0.
    9000005    1    3    3    0    0 -0.24536784733E+02 -0.50958559360E+01 -0.50575409952E+02  0.56452578724E+02  0.10000000000E+01 0.  0.
    9000005    1    3    3    0    0  0.24536784733E+02  0.50958559360E+01 -0.12197538482E+04  0.12200116687E+04  0.10000000000E+01 0.  0.
<mgrwt>
<rscale>  0 0.12499820E+03</rscale>
<asrwt>0</asrwt>
<pdfrwt beam="1">  1        4 0.47192327E-03 0.12499820E+03</pdfrwt>
<pdfrwt beam="2">  1       -4 0.19590677E+00 0.12499820E+03</pdfrwt>
<totfact> 0.22791867E+03</totfact>
</mgrwt>
</event>
<event>
 5    1  0.3401591E-002  0.1250060E+03  0.7818608E-02  0.1235060E+00
         -4   -1    0    0    0  501 -0.00000000000E+00  0.00000000000E+00  0.36704380108E+02  0.36726345028E+02  0.12700000000E+01 0.  1.
          4   -1    0    0  501    0  0.00000000000E+00 -0.00000000000E+00 -0.10637732329E+03  0.10638490406E+03  0.12700000000E+01 0.  1.
         25    2    1    2    0    0  0.00000000000E+00  0.00000000000E+00 -0.69672943185E+02  0.14311124908E+03  0.12500604226E+03 0.  0.
    9000005    1    3    3    0    0  0.80887096993E+00  0.61100243823E+02 -0.49839204669E+02  0.78859624584E+02  0.10000000000E+01 0.  0.
    9000005    1    3    3    0    0 -0.80887096993E+00 -0.61100243823E+02 -0.19833738516E+02  0.64251624501E+02  0.10000000000E+01 0.  0.
<mgrwt>
<rscale>  0 0.12500604E+03</rscale>
<asrwt>0</asrwt>
<pdfrwt beam="2">  1        4 0.16368015E-01 0.12500604E+03</pdfrwt>
<pdfrwt beam="1">  1       -4 0.56491005E-02 0.12500604E+03</pdfrwt>
<totfact> 0.10068135E+04</totfact>
</mgrwt>
</event>
<event>
 5    1  0.3401591E-002  0.1249967E+03  0.7818608E-02  0.1235074E+00
         -4   -1    0    0    0  501 -0.00000000000E+00  0.00000000000E+00  0.10096388077E+03  0.10097186796E+03  0.12700000000E+01 0.  1.
          4   -1    0    0  501    0  0.00000000000E+00 -0.00000000000E+00 -0.38667606238E+02  0.38688456575E+02  0.12700000000E+01 0.  1.
         25    2    1    2    0    0  0.00000000000E+00  0.00000000000E+00  0.62296274533E+02  0.13966032454E+03  0.12499672168E+03 0.  0.
    9000005    1    3    3    0    0  0.48271365608E+02  0.34325922555E+02  0.53400643204E+02  0.79756017902E+02  0.10000000000E+01 0.  0.
    9000005    1    3    3    0    0 -0.48271365608E+02 -0.34325922555E+02  0.88956313285E+01  0.59904306637E+02  0.10000000000E+01 0.  0.
<mgrwt>
<rscale>  0 0.12499672E+03</rscale>
<asrwt>0</asrwt>
<pdfrwt beam="2">  1        4 0.59510808E-02 0.12499672E+03</pdfrwt>
<pdfrwt beam="1">  1       -4 0.15535123E-01 0.12499672E+03</pdfrwt>
<totfact> 0.10141380E+04</totfact>
</mgrwt>
</event>
<event>
 5    1  0.3401591E-002  0.1249999E+03  0.7818608E-02  0.1235069E+00
         -4   -1    0    0    0  501 -0.00000000000E+00  0.00000000000E+00  0.47939231532E+01  0.49592942239E+01  0.12700000000E+01 0.  1.
          4   -1    0    0  501    0  0.00000000000E+00 -0.00000000000E+00 -0.80085015104E+03  0.80085115803E+03  0.12700000000E+01 0.  1.
         25    2    1    2    0    0  0.00000000000E+00  0.00000000000E+00 -0.79605622788E+03  0.80581045225E+03  0.12499986803E+03 0.  0.
    9000005    1    3    3    0    0  0.17963219206E+02 -0.25593081621E+02 -0.74682784897E+03  0.74748278848E+03  0.10000000000E+01 0.  0.
    9000005    1    3    3    0    0 -0.17963219206E+02  0.25593081621E+02 -0.49228378911E+02  0.58327663773E+02  0.10000000000E+01 0.  0.
<mgrwt>
<rscale>  0 0.12499987E+03</rscale>
<asrwt>0</asrwt>
<pdfrwt beam="2">  1        4 0.12322041E+00 0.12499987E+03</pdfrwt>
<pdfrwt beam="1">  1       -4 0.75032559E-03 0.12499987E+03</pdfrwt>
<totfact> 0.38006782E+03</totfact>
</mgrwt>
</event>
<event>
 5    1  0.3401591E-002  0.1250007E+03  0.7818608E-02  0.1235068E+00
          4   -1    0    0  501    0  0.00000000000E+00  0.00000000000E+00  0.15653734558E+03  0.15654249731E+03  0.12700000000E+01 0. -1.
         -4   -1    0    0    0  501 -0.00000000000E+00 -0.00000000000E+00 -0.24932678624E+02  0.24965002772E+02  0.12700000000E+01 0. -1.
         25    2    1    2    0    0  0.00000000000E+00  0.00000000000E+00  0.13160466696E+03  0.18150750008E+03  0.12500073687E+03 0.  0.
    9000005    1    3    3    0    0 -0.13829476772E+02  0.58712751431E+02  0.42082085570E+02  0.73555037450E+02  0.10000000000E+01 0.  0.
    9000005    1    3    3    0    0  0.13829476772E+02 -0.58712751431E+02  0.89522581391E+02  0.10795246263E+03  0.10000000000E+01 0.  0.
<mgrwt>
<rscale>  0 0.12500074E+03</rscale>
<asrwt>0</asrwt>
<pdfrwt beam="1">  1        4 0.24085551E-01 0.12500074E+03</pdfrwt>
<pdfrwt beam="2">  1       -4 0.38386794E-02 0.12500074E+03</pdfrwt>
<totfact> 0.93344807E+03</totfact>
</mgrwt>
</event>
<event>
 5    1  0.3401591E-002  0.1250044E+03  0.7818608E-02  0.1235062E+00
         -4   -1    0    0    0  501 -0.00000000000E+00  0.00000000000E+00  0.27703202278E+02  0.27732297353E+02  0.12700000000E+01 0. -1.
          4   -1    0    0  501    0  0.00000000000E+00 -0.00000000000E+00 -0.14090747022E+03  0.14091319337E+03  0.12700000000E+01 0. -1.
         25    2    1    2    0    0  0.00000000000E+00  0.00000000000E+00 -0.11320426795E+03  0.16864549072E+03  0.12500438096E+03 0.  0.
    9000005    1    3    3    0    0  0.61064402808E+02 -0.82050499669E+01 -0.70709255181E+02  0.93792232640E+02  0.10000000000E+01 0.  0.
    9000005    1    3    3    0    0 -0.61064402808E+02  0.82050499669E+01 -0.42495012764E+02  0.74853258080E+02  0.10000000000E+01 0.  0.
<mgrwt>
<rscale>  0 0.12500438E+03</rscale>
<asrwt>0</asrwt>
<pdfrwt beam="2">  1        4 0.21680750E-01 0.12500438E+03</pdfrwt>
<pdfrwt beam="1">  1       -4 0.42647095E-02 0.12500438E+03</pdfrwt>
<totfact> 0.95692000E+03</totfact>
</mgrwt>
</event>
<event>
 5    1  0.3401591E-002  0.1249981E+03  0.7818608E-02  0.1235072E+00
         -4   -1    0    0    0  501 -0.00000000000E+00  0.00000000000E+00  0.30990843392E+01  0.33492124062E+01  0.12700000000E+01 0. -1.
          4   -1    0    0  501    0  0.00000000000E+00 -0.00000000000E+00 -0.12112737735E+04  0.12112744393E+04  0.12700000000E+01 0. -1.
         25    2    1    2    0    0  0.00000000000E+00  0.00000000000E+00 -0.12081746892E+04  0.12146236517E+04  0.12499814288E+03 0.  0.
    9000005    1    3    3    0    0  0.27674723828E+02  0.28889706785E+02 -0.10705733623E+04  0.10713210674E+04  0.10000000000E+01 0.  0.
    9000005    1    3    3    0    0 -0.27674723828E+02 -0.28889706785E+02 -0.13760132690E+03  0.14330258428E+03  0.10000000000E+01 0.  0.
<mgrwt>
<rscale>  0 0.12499814E+03</rscale>
<asrwt>0</asrwt>
<pdfrwt beam="2">  1        4 0.18636874E+00 0.12499814E+03</pdfrwt>
<pdfrwt beam="1">  1       -4 0.49607501E-03 0.12499814E+03</pdfrwt>
<totfact> 0.24334203E+03</totfact>
</mgrwt>
</event>
<event>
 5    1  0.3401591E-002  0.1250037E+03  0.7818608E-02  0.1235063E+00
          4   -1    0    0  501    0  0.00000000000E+00  0.00000000000E+00  0.21768957550E+03  0.21769328006E+03  0.12700000000E+01 0.  1.
         -4   -1    0    0    0  501 -0.00000000000E+00 -0.00000000000E+00 -0.17918864125E+02  0.17963813391E+02  0.12700000000E+01 0.  1.
         25    2    1    2    0    0  0.00000000000E+00  0.00000000000E+00  0.19977071138E+03  0.23565709345E+03  0.12500371422E+03 0.  0.
    9000005    1    3    3    0    0 -0.69004643910E+01 -0.61964480933E+02  0.91827619619E+02  0.11099786048E+03  0.10000000000E+01 0.  0.
    9000005    1    3    3    0    0  0.69004643910E+01  0.61964480933E+02  0.10794309176E+03  0.12465923297E+03  0.10000000000E+01 0.  0.
<mgrwt>
<rscale>  0 0.12500371E+03</rscale>
<asrwt>0</asrwt>
<pdfrwt beam="1">  1        4 0.33494445E-01 0.12500371E+03</pdfrwt>
<pdfrwt beam="2">  1       -4 0.27604911E-02 0.12500371E+03</pdfrwt>
<totfact> 0.84441453E+03</totfact>
</mgrwt>
</event>
<event>
 5    1  0.3401591E-002  0.1249982E+03  0.7818608E-02  0.1235072E+00
         -4   -1    0    0    0  501 -0.00000000000E+00  0.00000000000E+00  0.22633760569E+03  0.22634116870E+03  0.12700000000E+01 0.  1.
          4   -1    0    0  501    0  0.00000000000E+00 -0.00000000000E+00 -0.17230935781E+02  0.17277674840E+02  0.12700000000E+01 0.  1.
         25    2    1    2    0    0  0.00000000000E+00  0.00000000000E+00  0.20910666991E+03  0.24361884354E+03  0.12499816610E+03 0.  0.
    9000005    1    3    3    0    0 -0.54467123829E+02  0.10466520481E+02  0.48440335976E+02  0.73645650100E+02  0.10000000000E+01 0.  0.
    9000005    1    3    3    0    0  0.54467123829E+02 -0.10466520481E+02  0.16066633393E+03  0.16997319344E+03  0.10000000000E+01 0.  0.
<mgrwt>
<rscale>  0 0.12499817E+03</rscale>
<asrwt>0</asrwt>
<pdfrwt beam="2">  1        4 0.26547828E-02 0.12499817E+03</pdfrwt>
<pdfrwt beam="1">  1       -4 0.34825037E-01 0.12499817E+03</pdfrwt>
<totfact> 0.83264744E+03</totfact>
</mgrwt>
</event>
<event>
 5    1  0.3401591E-002  0.1249985E+03  0.7818608E-02  0.1235072E+00
          4   -1    0    0  501    0  0.00000000000E+00  0.00000000000E+00  0.60264889485E+02  0.60278269754E+02  0.12700000000E+01 0. -1.
         -4   -1    0    0    0  501 -0.00000000000E+00 -0.00000000000E+00 -0.64789609295E+02  0.64802055311E+02  0.12700000000E+01 0. -1.
         25    2    1    2    0    0  0.00000000000E+00  0.00000000000E+00 -0.45247198101E+01  0.12508032507E+03  0.12499845851E+03 0.  0.
    9000005    1    3    3    0    0  0.37221341259E+02 -0.25563654425E+01  0.47902203948E+02  0.60725483880E+02  0.10000000000E+01 0.  0.
    9000005    1    3    3    0    0 -0.37221341259E+02  0.25563654425E+01 -0.52426923758E+02  0.64354841186E+02  0.10000000000E+01 0.  0.
<mgrwt>
<rscale>  0 0.12499846E+03</rscale>
<asrwt>0</asrwt>
<pdfrwt beam="1">  1        4 0.92735081E-02 0.12499846E+03</pdfrwt>
<pdfrwt beam="2">  1       -4 0.99696188E-02 0.12499846E+03</pdfrwt>
<totfact> 0.10451482E+04</totfact>
</mgrwt>
</event>
<event>
 5    1  0.3401591E-002  0.1249999E+03  0.7818608E-02  0.1235069E+00
          4   -1    0    0  501    0  0.00000000000E+00  0.00000000000E+00  0.13833347359E+03  0.13833930322E+03  0.12700000000E+01 0.  1.
         -4   -1    0    0    0  501 -0.00000000000E+00 -0.00000000000E+00 -0.28217179404E+02  0.28245745052E+02  0.12700000000E+01 0.  1.
         25    2    1    2    0    0  0.00000000000E+00  0.00000000000E+00  0.11011629418E+03  0.16658504827E+03  0.12499992025E+03 0.  0.
    9000005    1    3    3    0    0 -0.17953388160E+02 -0.15091424814E+02  0.13225214484E+03  0.13431941432E+03  0.10000000000E+01 0.  0.
    9000005    1    3    3    0    0  0.17953388160E+02  0.15091424814E+02 -0.22135850660E+02  0.32265633943E+02  0.10000000000E+01 0.  0.
<mgrwt>
<rscale>  0 0.12499992E+03</rscale>
<asrwt>0</asrwt>
<pdfrwt beam="1">  1        4 0.21284719E-01 0.12499992E+03</pdfrwt>
<pdfrwt beam="2">  1       -4 0.43437502E-02 0.12499992E+03</pdfrwt>
<totfact> 0.96088220E+03</totfact>
</mgrwt>
</event>
<event>
 5    1  0.3401591E-002  0.1249995E+03  0.7818608E-02  0.1235070E+00
         -4   -1    0    0    0  501 -0.00000000000E+00  0.00000000000E+00  0.14992027906E+03  0.14992565816E+03  0.12700000000E+01 0. -1.
          4   -1    0    0  501    0  0.00000000000E+00 -0.00000000000E+00 -0.26033960502E+02  0.26064918941E+02  0.12700000000E+01 0. -1.
         25    2    1    2    0    0  0.00000000000E+00  0.00000000000E+00  0.12388631856E+03  0.17599057710E+03  0.12499945320E+03 0.  0.
    9000005    1    3    3    0    0  0.15019087382E+02 -0.39359389695E+02 -0.30428942074E+01  0.42249186360E+02  0.10000000000E+01 0.  0.
    9000005    1    3    3    0    0 -0.15019087382E+02  0.39359389695E+02  0.12692921277E+03  0.13374139074E+03  0.10000000000E+01 0.  0.
<mgrwt>
<rscale>  0 0.12499945E+03</rscale>
<asrwt>0</asrwt>
<pdfrwt beam="2">  1        4 0.40080200E-02 0.12499945E+03</pdfrwt>
<pdfrwt beam="1">  1       -4 0.23067453E-01 0.12499945E+03</pdfrwt>
<totfact> 0.94344889E+03</totfact>
</mgrwt>
</event>
<event>
 5    1  0.3401591E-002  0.1250001E+03  0.7818608E-02  0.1235069E+00
         -4   -1    0    0    0  501 -0.00000000000E+00  0.00000000000E+00  0.10431694709E+03  0.10432467757E+03  0.12700000000E+01 0.  1.
          4   -1    0    0  501    0  0.00000000000E+00 -0.00000000000E+00 -0.37426134264E+02  0.37447675842E+02  0.12700000000E+01 0.  1.
         25    2    1    2    0    0  0.00000000000E+00  0.00000000000E+00  0.66890812823E+02  0.14177235341E+03  0.12500007740E+03 0.  0.
    9000005    1    3    3    0    0  0.57443678521E+00  0.23290364702E+02  0.99212911226E+02  0.10191649925E+03  0.10000000000E+01 0.  0.
    9000005    1    3    3    0    0 -0.57443678521E+00 -0.23290364702E+02 -0.32322098403E+02  0.39855854159E+02  0.10000000000E+01 0.  0.
<mgrwt>
<rscale>  0 0.12500008E+03</rscale>
<asrwt>0</asrwt>
<pdfrwt beam="2">  1        4 0.57601185E-02 0.12500008E+03</pdfrwt>
<pdfrwt beam="1">  1       -4 0.16051013E-01 0.12500008E+03</pdfrwt>
<totfact> 0.10096967E+04</totfact>
</mgrwt>
</event>
<event>
 5    1  0.3401591E-002  0.1249987E+03  0.7818608E-02  0.1235071E+00
         -4   -1    0    0    0  501 -0.00000000000E+00  0.00000000000E+00  0.32545200474E+01  0.34935369955E+01  0.12700000000E+01 0.  1.
          4   -1    0    0  501    0  0.00000000000E+00 -0.00000000000E+00 -0.11574774296E+04  0.11574781264E+04  0.12700000000E+01 0.  1.
         25    2    1    2    0    0  0.00000000000E+00  0.00000000000E+00 -0.11542229096E+04  0.11609716634E+04  0.12499871243E+03 0.  0.
    9000005    1    3    3    0    0 -0.38776856176E+02 -0.48962991554E+02 -0.59603321886E+03  0.59929760312E+03  0.10000000000E+01 0.  0.
    9000005    1    3    3    0    0  0.38776856176E+02  0.48962991554E+02 -0.55818969072E+03  0.56167406024E+03  0.10000000000E+01 0.  0.
<mgrwt>
<rscale>  0 0.12499871E+03</rscale>
<asrwt>0</asrwt>
<pdfrwt beam="2">  1        4 0.17809157E+00 0.12499871E+03</pdfrwt>
<pdfrwt beam="1">  1       -4 0.51913583E-03 0.12499871E+03</pdfrwt>
<totfact> 0.25758544E+03</totfact>
</mgrwt>
</event>
<event>
 5    1  0.3401591E-002  0.1249999E+03  0.7818608E-02  0.1235069E+00
          4   -1    0    0  501    0  0.00000000000E+00  0.00000000000E+00  0.38418469776E+03  0.38418679687E+03  0.12700000000E+01 0. -1.
         -4   -1    0    0    0  501 -0.00000000000E+00 -0.00000000000E+00 -0.10125833020E+02  0.10205165082E+02  0.12700000000E+01 0. -1.
         25    2    1    2    0    0  0.00000000000E+00  0.00000000000E+00  0.37405886474E+03  0.39439196195E+03  0.12499994146E+03 0.  0.
    9000005    1    3    3    0    0  0.33434571244E+01 -0.36690402455E+02  0.27768996101E+02  0.46146305186E+02  0.10000000000E+01 0.  0.
    9000005    1    3    3    0    0 -0.33434571244E+01  0.36690402455E+02  0.34628986864E+03  0.34824565677E+03  0.10000000000E+01 0.  0.
<mgrwt>
<rscale>  0 0.12499994E+03</rscale>
<asrwt>0</asrwt>
<pdfrwt beam="1">  1        4 0.59111600E-01 0.12499994E+03</pdfrwt>
<pdfrwt beam="2">  1       -4 0.15640845E-02 0.12499994E+03</pdfrwt>
<totfact> 0.65101983E+03</totfact>
</mgrwt>
</event>
<event>
 5    1  0.3401591E-002  0.1250007E+03  0.7818608E-02  0.1235068E+00
          4   -1    0    0  501    0  0.00000000000E+00  0.00000000000E+00  0.99040246261E+01  0.99851191177E+01  0.12700000000E+01 0. -1.
         -4   -1    0    0    0  501 -0.00000000000E+00 -0.00000000000E+00 -0.39272421987E+03  0.39272627334E+03  0.12700000000E+01 0. -1.
         25    2    1    2    0    0  0.00000000000E+00  0.00000000000E+00 -0.38282019524E+03  0.40271139245E+03  0.12500065492E+03 0.  0.
    9000005    1    3    3    0    0 -0.42809410693E+01 -0.43641778845E+02 -0.47969248279E+02  0.64999846905E+02  0.10000000000E+01 0.  0.
    9000005    1    3    3    0    0  0.42809410693E+01  0.43641778845E+02 -0.33485094696E+03  0.33771154555E+03  0.10000000000E+01 0.  0.
<mgrwt>
<rscale>  0 0.12500065E+03</rscale>
<asrwt>0</asrwt>
<pdfrwt beam="1">  1        4 0.15300924E-02 0.12500065E+03</pdfrwt>
<pdfrwt beam="2">  1       -4 0.60425495E-01 0.12500065E+03</pdfrwt>
<totfact> 0.64289010E+03</totfact>
</mgrwt>
</event>
<event>
 5    1  0.3401591E-002  0.1249994E+03  0.7818608E-02  0.1235070E+00
         -4   -1    0    0    0  501 -0.00000000000E+00  0.00000000000E+00  0.80118787342E+02  0.80128852389E+02  0.12700000000E+01 0. -1.
          4   -1    0    0  501    0  0.00000000000E+00 -0.00000000000E+00 -0.48733878782E+02  0.48750424010E+02  0.12700000000E+01 0. -1.
         25    2    1    2    0    0  0.00000000000E+00  0.00000000000E+00  0.31384908561E+02  0.12887927640E+03  0.12499942160E+03 0.  0.
    9000005    1    3    3    0    0 -0.45167259524E+02 -0.24767999183E+02  0.52169656630E+02  0.73322630813E+02  0.10000000000E+01 0.  0.
    9000005    1    3    3    0    0  0.45167259524E+02  0.24767999183E+02 -0.20784748070E+02  0.55556645586E+02  0.10000000000E+01 0.  0.
<mgrwt>
<rscale>  0 0.12499942E+03</rscale>
<asrwt>0</asrwt>
<pdfrwt beam="2">  1        4 0.74995669E-02 0.12499942E+03</pdfrwt>
<pdfrwt beam="1">  1       -4 0.12328014E-01 0.12499942E+03</pdfrwt>
<totfact> 0.10368677E+04</totfact>
</mgrwt>
</event>
<event>
 5    1  0.3401591E-002  0.1250118E+03  0.7818608E-02  0.1235051E+00
         -4   -1    0    0    0  501 -0.00000000000E+00  0.00000000000E+00  0.88896121139E+01  0.89798721336E+01  0.12700000000E+01 0. -1.
          4   -1    0    0  501    0  0.00000000000E+00 -0.00000000000E+00 -0.43718886787E+03  0.43719071250E+03  0.12700000000E+01 0. -1.
         25    2    1    2    0    0  0.00000000000E+00  0.00000000000E+00 -0.42829925576E+03  0.44617058463E+03  0.12501175186E+03 0.  0.
    9000005    1    3    3    0    0  0.24104757092E+02 -0.28899092316E+02 -0.39223623079E+03  0.39403864988E+03  0.10000000000E+01 0.  0.
    9000005    1    3    3    0    0 -0.24104757092E+02  0.28899092316E+02 -0.36063024966E+02  0.52131934750E+02  0.10000000000E+01 0.  0.
<mgrwt>
<rscale>  0 0.12501175E+03</rscale>
<asrwt>0</asrwt>
<pdfrwt beam="2">  1        4 0.67266894E-01 0.12501175E+03</pdfrwt>
<pdfrwt beam="1">  1       -4 0.13747179E-02 0.12501175E+03</pdfrwt>
<totfact> 0.60281377E+03</totfact>
</mgrwt>
</event>
<event>
 5    1  0.3401591E-002  0.1250012E+03  0.7818608E-02  0.1235067E+00
          4   -1    0    0  501    0  0.00000000000E+00  0.00000000000E+00  0.62233759207E+03  0.62233888791E+03  0.12700000000E+01 0. -1.
         -4   -1    0    0    0  501 -0.00000000000E+00 -0.00000000000E+00 -0.62113053835E+01  0.63398118716E+01  0.12700000000E+01 0. -1.
         25    2    1    2    0    0  0.00000000000E+00  0.00000000000E+00  0.61612628668E+03  0.62867869978E+03  0.12500122564E+03 0.  0.
    9000005    1    3    3    0    0 -0.33096189465E+02  0.50380418644E+02  0.22514968496E+03  0.23308136986E+03  0.10000000000E+01 0.  0.
    9000005    1    3    3    0    0  0.33096189465E+02 -0.50380418644E+02  0.39097660173E+03  0.39559732992E+03  0.10000000000E+01 0.  0.
<mgrwt>
<rscale>  0 0.12500123E+03</rscale>
<asrwt>0</asrwt>
<pdfrwt beam="1">  1        4 0.95754213E-01 0.12500123E+03</pdfrwt>
<pdfrwt beam="2">  1       -4 0.96557041E-03 0.12500123E+03</pdfrwt>
<totfact> 0.47104705E+03</totfact>
</mgrwt>
</event>
<event>
 5    1  0.3401591E-002  0.1250026E+03  0.7818608E-02  0.1235065E+00
          4   -1    0    0  501    0  0.00000000000E+00  0.00000000000E+00  0.17266155383E+02  0.17312799361E+02  0.12700000000E+01 0.  1.
         -4   -1    0    0    0  501 -0.00000000000E+00 -0.00000000000E+00 -0.22589324558E+03  0.22589681560E+03  0.12700000000E+01 0.  1.
         25    2    1    2    0    0  0.00000000000E+00  0.00000000000E+00 -0.20862709020E+03  0.24320961496E+03  0.12500261616E+03 0.  0.
    9000005    1    3    3    0    0  0.56860122007E+01 -0.52542171864E+02 -0.39421314284E+02  0.65939749612E+02  0.10000000000E+01 0.  0.
    9000005    1    3    3    0    0 -0.56860122007E+01  0.52542171864E+02 -0.16920577591E+03  0.17726986535E+03  0.10000000000E+01 0.  0.
<mgrwt>
<rscale>  0 0.12500262E+03</rscale>
<asrwt>0</asrwt>
<pdfrwt beam="1">  1        4 0.26601944E-02 0.12500262E+03</pdfrwt>
<pdfrwt beam="2">  1       -4 0.34756668E-01 0.12500262E+03</pdfrwt>
<totfact> 0.83316805E+03</totfact>
</mgrwt>
</event>
<event>
 5    1  0.3401591E-002  0.1250014E+03  0.7818608E-02  0.1235067E+00
         -4   -1    0    0    0  501 -0.00000000000E+00  0.00000000000E+00  0.56949746226E+03  0.56949887834E+03  0.12700000000E+01 0.  1.
          4   -1    0    0  501    0  0.00000000000E+00 -0.00000000000E+00 -0.67990485415E+01  0.69166437721E+01  0.12700000000E+01 0.  1.
         25    2    1    2    0    0  0.00000000000E+00  0.00000000000E+00  0.56269841372E+03  0.57641552211E+03  0.12500139727E+03 0.  0.
    9000005    1    3    3    0    0  0.22908881283E+02  0.45917147098E+02  0.44581954549E+03  0.44876415675E+03  0.10000000000E+01 0.  0.
    9000005    1    3    3    0    0 -0.22908881283E+02 -0.45917147098E+02  0.11687886823E+03  0.12765136536E+03  0.10000000000E+01 0.  0.
<mgrwt>
<rscale>  0 0.12500140E+03</rscale>
<asrwt>0</asrwt>
<pdfrwt beam="2">  1        4 0.10551617E-02 0.12500140E+03</pdfrwt>
<pdfrwt beam="1">  1       -4 0.87624185E-01 0.12500140E+03</pdfrwt>
<totfact> 0.50389434E+03</totfact>
</mgrwt>
</event>
<event>
 5    1  0.3401591E-002  0.1249976E+03  0.7818608E-02  0.1235073E+00
         -4   -1    0    0    0  501 -0.00000000000E+00  0.00000000000E+00  0.23459419959E+03  0.23459763720E+03  0.12700000000E+01 0.  1.
          4   -1    0    0  501    0  0.00000000000E+00 -0.00000000000E+00 -0.16622659589E+02  0.16671104097E+02  0.12700000000E+01 0.  1.
         25    2    1    2    0    0  0.00000000000E+00  0.00000000000E+00  0.21797154000E+03  0.25126874130E+03  0.12499755239E+03 0.  0.
    9000005    1    3    3    0    0  0.37313712528E+02 -0.19761762059E+02  0.16380456554E+02  0.45300769742E+02  0.10000000000E+01 0.  0.
    9000005    1    3    3    0    0 -0.37313712528E+02  0.19761762059E+02  0.20159108344E+03  0.20596797155E+03  0.10000000000E+01 0.  0.
<mgrwt>
<rscale>  0 0.12499755E+03</rscale>
<asrwt>0</asrwt>
<pdfrwt beam="2">  1        4 0.25613229E-02 0.12499755E+03</pdfrwt>
<pdfrwt beam="1">  1       -4 0.36095410E-01 0.12499755E+03</pdfrwt>
<totfact> 0.82151675E+03</totfact>
</mgrwt>
</event>
<event>
 5    1  0.3401591E-002  0.1250040E+03  0.7818608E-02  0.1235063E+00
         -4   -1    0    0    0  501 -0.00000000000E+00  0.00000000000E+00  0.13178948089E+03  0.13179559997E+03  0.12700000000E+01 0. -1.
          4   -1    0    0  501    0  0.00000000000E+00 -0.00000000000E+00 -0.29621579836E+02  0.29648792421E+02  0.12700000000E+01 0. -1.
         25    2    1    2    0    0  0.00000000000E+00  0.00000000000E+00  0.10216790105E+03  0.16144439239E+03  0.12500404726E+03 0.  0.
    9000005    1    3    3    0    0  0.29576384034E+02  0.54016284435E+02  0.37356100623E+02  0.72034711983E+02  0.10000000000E+01 0.  0.
    9000005    1    3    3    0    0 -0.29576384034E+02 -0.54016284435E+02  0.64811800428E+02  0.89409680412E+02  0.10000000000E+01 0.  0.
<mgrwt>
<rscale>  0 0.12500405E+03</rscale>
<asrwt>0</asrwt>
<pdfrwt beam="2">  1        4 0.45597302E-02 0.12500405E+03</pdfrwt>
<pdfrwt beam="1">  1       -4 0.20277868E-01 0.12500405E+03</pdfrwt>
<totfact> 0.97056210E+03</totfact>
</mgrwt>
</event>
<event>
 5    1  0.3401591E-002  0.1250004E+03  0.7818608E-02  0.1235069E+00
         -4   -1    0    0    0  501 -0.00000000000E+00  0.00000000000E+00  0.15315717958E+02  0.15368282811E+02  0.12700000000E+01 0. -1.
          4   -1    0    0  501    0  0.00000000000E+00 -0.00000000000E+00 -0.25455887792E+03  0.25456204593E+03  0.12700000000E+01 0. -1.
         25    2    1    2    0    0  0.00000000000E+00  0.00000000000E+00 -0.23924315996E+03  0.26993032874E+03  0.12500037114E+03 0.  0.
    9000005    1    3    3    0    0 -0.57680896532E+02 -0.17518441696E+02 -0.15518950521E+03  0.16648953166E+03  0.10000000000E+01 0.  0.
    9000005    1    3    3    0    0  0.57680896532E+02  0.17518441696E+02 -0.84053654757E+02  0.10344079709E+03  0.10000000000E+01 0.  0.
<mgrwt>
<rscale>  0 0.12500037E+03</rscale>
<asrwt>0</asrwt>
<pdfrwt beam="2">  1        4 0.39167188E-01 0.12500037E+03</pdfrwt>
<pdfrwt beam="1">  1       -4 0.23605516E-02 0.12500037E+03</pdfrwt>
<totfact> 0.79531711E+03</totfact>
</mgrwt>
</event>
<event>
 5    1  0.3401591E-002  0.1250019E+03  0.7818608E-02  0.1235066E+00
          4   -1    0    0  501    0  0.00000000000E+00  0.00000000000E+00  0.30748262264E+01  0.33267786705E+01  0.12700000000E+01 0. -1.
         -4   -1    0    0    0  501 -0.00000000000E+00 -0.00000000000E+00 -0.12201824383E+04  0.12201830992E+04  0.12700000000E+01 0. -1.
         25    2    1    2    0    0  0.00000000000E+00  0.00000000000E+00 -0.12171076121E+04  0.12235098779E+04  0.12500192775E+03 0.  0.
    9000005    1    3    3    0    0 -0.10092986444E+02  0.27805886912E+02 -0.11473643344E+04  0.11477460310E+04  0.10000000000E+01 0.  0.
    9000005    1    3    3    0    0  0.10092986444E+02 -0.27805886912E+02 -0.69743277660E+02  0.75763846927E+02  0.10000000000E+01 0.  0.
<mgrwt>
<rscale>  0 0.12500193E+03</rscale>
<asrwt>0</asrwt>
<pdfrwt beam="1">  1        4 0.49248296E-03 0.12500193E+03</pdfrwt>
<pdfrwt beam="2">  1       -4 0.18773944E+00 0.12500193E+03</pdfrwt>
<totfact> 0.24104595E+03</totfact>
</mgrwt>
</event>
<event>
 5    1  0.3401591E-002  0.1250008E+03  0.7818608E-02  0.1235068E+00
          4   -1    0    0  501    0  0.00000000000E+00  0.00000000000E+00  0.34036643245E+03  0.34036880180E+03  0.12700000000E+01 0. -1.
         -4   -1    0    0    0  501 -0.00000000000E+00 -0.00000000000E+00 -0.11439189117E+02  0.11509472084E+02  0.12700000000E+01 0. -1.
         25    2    1    2    0    0  0.00000000000E+00  0.00000000000E+00  0.32892724333E+03  0.35187827388E+03  0.12500075290E+03 0.  0.
    9000005    1    3    3    0    0 -0.20083975194E+02 -0.56043907379E+02  0.21794964477E+03  0.22593656913E+03  0.10000000000E+01 0.  0.
    9000005    1    3    3    0    0  0.20083975194E+02  0.56043907379E+02  0.11097759856E+03  0.12594170475E+03  0.10000000000E+01 0.  0.
<mgrwt>
<rscale>  0 0.12500075E+03</rscale>
<asrwt>0</asrwt>
<pdfrwt beam="1">  1        4 0.52369653E-01 0.12500075E+03</pdfrwt>
<pdfrwt beam="2">  1       -4 0.17654640E-02 0.12500075E+03</pdfrwt>
<totfact> 0.69517257E+03</totfact>
</mgrwt>
</event>
<event>
 5    1  0.3401591E-002  0.1250002E+03  0.7818608E-02  0.1235069E+00
          4   -1    0    0  501    0  0.00000000000E+00  0.00000000000E+00  0.22084507147E+02  0.22120993556E+02  0.12700000000E+01 0.  1.
         -4   -1    0    0    0  501 -0.00000000000E+00 -0.00000000000E+00 -0.17669314197E+03  0.17669770604E+03  0.12700000000E+01 0.  1.
         25    2    1    2    0    0  0.00000000000E+00  0.00000000000E+00 -0.15460863482E+03  0.19881869959E+03  0.12500018139E+03 0.  0.
    9000005    1    3    3    0    0  0.35490127215E+02 -0.17919987450E+02 -0.15399090601E+03  0.15904362362E+03  0.10000000000E+01 0.  0.
    9000005    1    3    3    0    0 -0.35490127215E+02  0.17919987450E+02 -0.61772881271E+00  0.39775075975E+02  0.10000000000E+01 0.  0.
<mgrwt>
<rscale>  0 0.12500018E+03</rscale>
<asrwt>0</asrwt>
<pdfrwt beam="1">  1        4 0.34007743E-02 0.12500018E+03</pdfrwt>
<pdfrwt beam="2">  1       -4 0.27186717E-01 0.12500018E+03</pdfrwt>
<totfact> 0.90334759E+03</totfact>
</mgrwt>
</event>
<event>
 5    1  0.3401591E-002  0.1250004E+03  0.7818608E-02  0.1235069E+00
         -4   -1    0    0    0  501 -0.00000000000E+00  0.00000000000E+00  0.16506893091E+03  0.16507381637E+03  0.12700000000E+01 0. -1.
          4   -1    0    0  501    0  0.00000000000E+00 -0.00000000000E+00 -0.23642230779E+02  0.23676316778E+02  0.12700000000E+01 0. -1.
         25    2    1    2    0    0  0.00000000000E+00  0.00000000000E+00  0.14142670013E+03  0.18875013315E+03  0.12500040502E+03 0.  0.
    9000005    1    3    3    0    0  0.17248842541E+02 -0.58775477013E+02  0.89402933662E+02  0.10837879781E+03  0.10000000000E+01 0.  0.
    9000005    1    3    3    0    0 -0.17248842541E+02  0.58775477013E+02  0.52023766470E+02  0.80371335343E+02  0.10000000000E+01 0.  0.
<mgrwt>
<rscale>  0 0.12500041E+03</rscale>
<asrwt>0</asrwt>
<pdfrwt beam="2">  1        4 0.36402641E-02 0.12500041E+03</pdfrwt>
<pdfrwt beam="1">  1       -4 0.25398218E-01 0.12500041E+03</pdfrwt>
<totfact> 0.92064407E+03</totfact>
</mgrwt>
</event>
<event>
 5    1  0.3401591E-002  0.1249670E+03  0.7818608E-02  0.1235121E+00
         -4   -1    0    0    0  501 -0.00000000000E+00  0.00000000000E+00  0.10187741150E+02  0.10266594847E+02  0.12700000000E+01 0. -1.
          4   -1    0    0  501    0  0.00000000000E+00 -0.00000000000E+00 -0.38166696365E+03  0.38166907661E+03  0.12700000000E+01 0. -1.
         25    2    1    2    0    0  0.00000000000E+00  0.00000000000E+00 -0.37147922250E+03  0.39193567146E+03  0.12496702690E+03 0.  0.
    9000005    1    3    3    0    0 -0.44572865827E+02 -0.32394410938E+02 -0.93388583606E+02  0.10843692072E+03  0.10000000000E+01 0.  0.
    9000005    1    3    3    0    0  0.44572865827E+02  0.32394410938E+02 -0.27809063889E+03  0.28349875073E+03  0.10000000000E+01 0.  0.
<mgrwt>
<rscale>  0 0.12496703E+03</rscale>
<asrwt>0</asrwt>
<pdfrwt beam="2">  1        4 0.58724212E-01 0.12496703E+03</pdfrwt>
<pdfrwt beam="1">  1       -4 0.15735733E-02 0.12496703E+03</pdfrwt>
<totfact> 0.65392359E+03</totfact>
</mgrwt>
</event>
<event>
 5    1  0.3401591E-002  0.1249985E+03  0.7818608E-02  0.1235072E+00
          4   -1    0    0  501    0  0.00000000000E+00  0.00000000000E+00  0.60267952175E+01  0.61591525873E+01  0.12700000000E+01 0.  1.
         -4   -1    0    0    0  501 -0.00000000000E+00 -0.00000000000E+00 -0.64095891044E+03  0.64096016863E+03  0.12700000000E+01 0.  1.
         25    2    1    2    0    0  0.00000000000E+00  0.00000000000E+00 -0.63493211522E+03  0.64711932122E+03  0.12499849981E+03 0.  0.
    9000005    1    3    3    0    0 -0.54593082154E+02  0.50917785839E+01 -0.47267517774E+03  0.47584572550E+03  0.10000000000E+01 0.  0.
    9000005    1    3    3    0    0  0.54593082154E+02 -0.50917785839E+01 -0.16225693749E+03  0.17127359572E+03  0.10000000000E+01 0.  0.
<mgrwt>
<rscale>  0 0.12499850E+03</rscale>
<asrwt>0</asrwt>
<pdfrwt beam="1">  1        4 0.93747789E-03 0.12499850E+03</pdfrwt>
<pdfrwt beam="2">  1       -4 0.98619288E-01 0.12499850E+03</pdfrwt>
<totfact> 0.46023653E+03</totfact>
</mgrwt>
</event>
<event>
 5    1  0.3401591E-002  0.1249981E+03  0.7818608E-02  0.1235072E+00
         -4   -1    0    0    0  501 -0.00000000000E+00  0.00000000000E+00  0.55684305075E+01  0.57114199913E+01  0.12700000000E+01 0. -1.
          4   -1    0    0  501    0  0.00000000000E+00 -0.00000000000E+00 -0.69244251857E+03  0.69244368321E+03  0.12700000000E+01 0. -1.
         25    2    1    2    0    0  0.00000000000E+00  0.00000000000E+00 -0.68687408806E+03  0.69815510320E+03  0.12499814111E+03 0.  0.
    9000005    1    3    3    0    0  0.14693164201E+02 -0.58330627895E+02 -0.43802258621E+03  0.44213475011E+03  0.10000000000E+01 0.  0.
    9000005    1    3    3    0    0 -0.14693164201E+02  0.58330627895E+02 -0.24885150185E+03  0.25602035309E+03  0.10000000000E+01 0.  0.
<mgrwt>
<rscale>  0 0.12499814E+03</rscale>
<asrwt>0</asrwt>
<pdfrwt beam="2">  1        4 0.10654064E+00 0.12499814E+03</pdfrwt>
<pdfrwt beam="1">  1       -4 0.86777094E-03 0.12499814E+03</pdfrwt>
<totfact> 0.43186036E+03</totfact>
</mgrwt>
</event>
<event>
 5    1  0.3401591E-002  0.1250032E+03  0.7818608E-02  0.1235064E+00
          4   -1    0    0  501    0  0.00000000000E+00  0.00000000000E+00  0.58102900498E+02  0.58116778526E+02  0.12700000000E+01 0.  1.
         -4   -1    0    0    0  501 -0.00000000000E+00 -0.00000000000E+00 -0.67205405381E+02  0.67217404089E+02  0.12700000000E+01 0.  1.
         25    2    1    2    0    0  0.00000000000E+00  0.00000000000E+00 -0.91025048838E+01  0.12533418261E+03  0.12500320691E+03 0.  0.
    9000005    1    3    3    0    0  0.54309628452E+02  0.29598413395E+02  0.44082125090E+01  0.62016402311E+02  0.10000000000E+01 0.  0.
    9000005    1    3    3    0    0 -0.54309628452E+02 -0.29598413395E+02 -0.13510717393E+02  0.63317780304E+02  0.10000000000E+01 0.  0.
<mgrwt>
<rscale>  0 0.12500321E+03</rscale>
<asrwt>0</asrwt>
<pdfrwt beam="1">  1        4 0.89408982E-02 0.12500321E+03</pdfrwt>
<pdfrwt beam="2">  1       -4 0.10341284E-01 0.12500321E+03</pdfrwt>
<totfact> 0.10444851E+04</totfact>
</mgrwt>
</event>
<event>
 5    1  0.3401591E-002  0.1250023E+03  0.7818608E-02  0.1235066E+00
          4   -1    0    0  501    0  0.00000000000E+00  0.00000000000E+00  0.55661716911E+03  0.55661861794E+03  0.12700000000E+01 0. -1.
         -4   -1    0    0    0  501 -0.00000000000E+00 -0.00000000000E+00 -0.69591713430E+01  0.70741052990E+01  0.12700000000E+01 0. -1.
         25    2    1    2    0    0  0.00000000000E+00  0.00000000000E+00  0.54965799776E+03  0.56369272324E+03  0.12500228692E+03 0.  0.
    9000005    1    3    3    0    0 -0.40464983755E+01  0.60593836566E+02  0.20833843933E+03  0.21701127271E+03  0.10000000000E+01 0.  0.
    9000005    1    3    3    0    0  0.40464983755E+01 -0.60593836566E+02  0.34131955843E+03  0.34668145053E+03  0.10000000000E+01 0.  0.
<mgrwt>
<rscale>  0 0.12500229E+03</rscale>
<asrwt>0</asrwt>
<pdfrwt beam="1">  1        4 0.85642377E-01 0.12500229E+03</pdfrwt>
<pdfrwt beam="2">  1       -4 0.10795941E-02 0.12500229E+03</pdfrwt>
<totfact> 0.51240097E+03</totfact>
</mgrwt>
</event>
<event>
 5    1  0.3401591E-002  0.1250003E+03  0.7818608E-02  0.1235069E+00
          4   -1    0    0  501    0  0.00000000000E+00  0.00000000000E+00  0.23465454176E+02  0.23499796588E+02  0.12700000000E+01 0.  1.
         -4   -1    0    0    0  501 -0.00000000000E+00 -0.00000000000E+00 -0.16631032438E+03  0.16631517338E+03  0.12700000000E+01 0.  1.
         25    2    1    2    0    0  0.00000000000E+00  0.00000000000E+00 -0.14284487021E+03  0.18981496997E+03  0.12500026352E+03 0.  0.
    9000005    1    3    3    0    0 -0.41255663345E+02 -0.96068291824E+01 -0.16541501802E+01  0.42403503838E+02  0.10000000000E+01 0.  0.
    9000005    1    3    3    0    0  0.41255663345E+02  0.96068291824E+01 -0.14119072003E+03  0.14741146613E+03  0.10000000000E+01 0.  0.
<mgrwt>
<rscale>  0 0.12500026E+03</rscale>
<asrwt>0</asrwt>
<pdfrwt beam="1">  1        4 0.36130847E-02 0.12500026E+03</pdfrwt>
<pdfrwt beam="2">  1       -4 0.25589218E-01 0.12500026E+03</pdfrwt>
<totfact> 0.91878977E+03</totfact>
</mgrwt>
</event>
<event>
 5    1  0.3401591E-002  0.1249996E+03  0.7818608E-02  0.1235070E+00
         -4   -1    0    0    0  501 -0.00000000000E+00  0.00000000000E+00  0.37620435612E+02  0.37641865996E+02  0.12700000000E+01 0.  1.
          4   -1    0    0  501    0  0.00000000000E+00 -0.00000000000E+00 -0.10377759559E+03  0.10378536625E+03  0.12700000000E+01 0.  1.
         25    2    1    2    0    0  0.00000000000E+00  0.00000000000E+00 -0.66157159980E+02  0.14142723224E+03  0.12499956881E+03 0.  0.
    9000005    1    3    3    0    0  0.62245911832E+01  0.49696044976E+01 -0.10320647512E+03  0.10351820618E+03  0.10000000000E+01 0.  0.
    9000005    1    3    3    0    0 -0.62245911832E+01 -0.49696044976E+01  0.37049315142E+02  0.37909026059E+02  0.10000000000E+01 0.  0.
<mgrwt>
<rscale>  0 0.12499957E+03</rscale>
<asrwt>0</asrwt>
<pdfrwt beam="2">  1        4 0.15968030E-01 0.12499957E+03</pdfrwt>
<pdfrwt beam="1">  1       -4 0.57900056E-02 0.12499957E+03</pdfrwt>
<totfact> 0.10104189E+04</totfact>
</mgrwt>
</event>
<event>
 5    1  0.3401591E-002  0.1249995E+03  0.7818608E-02  0.1235070E+00
         -4   -1    0    0    0  501 -0.00000000000E+00  0.00000000000E+00  0.41180723834E+01  0.43094570603E+01  0.12700000000E+01 0. -1.
          4   -1    0    0  501    0  0.00000000000E+00 -0.00000000000E+00 -0.92682199130E+03  0.92682286143E+03  0.12700000000E+01 0. -1.
         25    2    1    2    0    0  0.00000000000E+00  0.00000000000E+00 -0.92270391892E+03  0.93113231849E+03  0.12499949016E+03 0.  0.
    9000005    1    3    3    0    0  0.33509421729E+02 -0.51428620985E+02 -0.37402469973E+03  0.37902936616E+03  0.10000000000E+01 0.  0.
    9000005    1    3    3    0    0 -0.33509421729E+02  0.51428620985E+02 -0.54867921919E+03  0.55210295233E+03  0.10000000000E+01 0.  0.
<mgrwt>
<rscale>  0 0.12499949E+03</rscale>
<asrwt>0</asrwt>
<pdfrwt beam="2">  1        4 0.14260263E+00 0.12499949E+03</pdfrwt>
<pdfrwt beam="1">  1       -4 0.64833917E-03 0.12499949E+03</pdfrwt>
<totfact> 0.32995867E+03</totfact>
</mgrwt>
</event>
<event>
 5    1  0.3401591E-002  0.1249988E+03  0.7818608E-02  0.1235071E+00
         -4   -1    0    0    0  501 -0.00000000000E+00  0.00000000000E+00  0.10288908143E+03  0.10289691918E+03  0.12700000000E+01 0. -1.
          4   -1    0    0  501    0  0.00000000000E+00 -0.00000000000E+00 -0.37944999311E+02  0.37966246493E+02  0.12700000000E+01 0. -1.
         25    2    1    2    0    0  0.00000000000E+00  0.00000000000E+00  0.64944082117E+02  0.14086316568E+03  0.12499879056E+03 0.  0.
    9000005    1    3    3    0    0  0.37753805290E+02 -0.70346643632E+01  0.88027274955E+02  0.96044976196E+02  0.10000000000E+01 0.  0.
    9000005    1    3    3    0    0 -0.37753805290E+02  0.70346643632E+01 -0.23083192837E+02  0.44818189479E+02  0.10000000000E+01 0.  0.
<mgrwt>
<rscale>  0 0.12499879E+03</rscale>
<asrwt>0</asrwt>
<pdfrwt beam="2">  1        4 0.58399294E-02 0.12499879E+03</pdfrwt>
<pdfrwt beam="1">  1       -4 0.15831327E-01 0.12499879E+03</pdfrwt>
<totfact> 0.10116003E+04</totfact>
</mgrwt>
</event>
<event>
 4    1  0.3401591E-002  0.1249068E+03  0.7818608E-02  0.1235215E+00
          4   -1    0    0  501    0  0.00000000000E+00  0.00000000000E+00  0.45167505964E+01  0.46919011019E+01  0.12700000000E+01 0. -1.
         -4   -1    0    0    0  501 -0.00000000000E+00 -0.00000000000E+00 -0.84694696767E+03  0.84694791985E+03  0.12700000000E+01 0. -1.
    9000005    1    1    2    0    0  0.17446929845E+02 -0.26475243301E+02 -0.78801244010E+03  0.78865070825E+03  0.10000000000E+01 0.  0.
    9000005    1    1    2    0    0 -0.17446929845E+02  0.26475243301E+02 -0.54417776970E+02  0.62989112704E+02  0.10000000000E+01 0.  0.
<mgrwt>
<rscale>  0 0.12490682E+03</rscale>
<asrwt>0</asrwt>
<pdfrwt beam="1">  1        4 0.70843174E-03 0.12490682E+03</pdfrwt>
<pdfrwt beam="2">  1       -4 0.13031296E+00 0.12490682E+03</pdfrwt>
<totfact> 0.36133814E+03</totfact>
</mgrwt>
</event>
<event>
 5    1  0.3401591E-002  0.1249890E+03  0.7818608E-02  0.1235086E+00
         -4   -1    0    0    0  501 -0.00000000000E+00  0.00000000000E+00  0.39550948185E+02  0.39571333087E+02  0.12700000000E+01 0. -1.
          4   -1    0    0  501    0  0.00000000000E+00 -0.00000000000E+00 -0.98697793731E+02  0.98705964295E+02  0.12700000000E+01 0. -1.
         25    2    1    2    0    0  0.00000000000E+00  0.00000000000E+00 -0.59146845547E+02  0.13827729738E+03  0.12498904605E+03 0.  0.
    9000005    1    3    3    0    0  0.43618802706E+02 -0.30533250047E+02 -0.65756633841E+02  0.84615685319E+02  0.10000000000E+01 0.  0.
    9000005    1    3    3    0    0 -0.43618802706E+02  0.30533250047E+02  0.66097882942E+01  0.53661612063E+02  0.10000000000E+01 0.  0.
<mgrwt>
<rscale>  0 0.12498905E+03</rscale>
<asrwt>0</asrwt>
<pdfrwt beam="2">  1        4 0.15186472E-01 0.12498905E+03</pdfrwt>
<pdfrwt beam="1">  1       -4 0.60869579E-02 0.12498905E+03</pdfrwt>
<totfact> 0.10171926E+04</totfact>
</mgrwt>
</event>
<event>
 5    1  0.3401591E-002  0.1250007E+03  0.7818608E-02  0.1235068E+00
          4   -1    0    0  501    0  0.00000000000E+00  0.00000000000E+00  0.79180572681E+02  0.79190756974E+02  0.12700000000E+01 0.  1.
         -4   -1    0    0    0  501 -0.00000000000E+00 -0.00000000000E+00 -0.49312436099E+02  0.49328787275E+02  0.12700000000E+01 0.  1.
         25    2    1    2    0    0  0.00000000000E+00  0.00000000000E+00  0.29868136582E+02  0.12851954425E+03  0.12500067068E+03 0.  0.
    9000005    1    3    3    0    0  0.19312287276E+02  0.46705225882E+02  0.52724022657E+02  0.73042214710E+02  0.10000000000E+01 0.  0.
    9000005    1    3    3    0    0 -0.19312287276E+02 -0.46705225882E+02 -0.22855886075E+02  0.55477329539E+02  0.10000000000E+01 0.  0.
<mgrwt>
<rscale>  0 0.12500067E+03</rscale>
<asrwt>0</asrwt>
<pdfrwt beam="1">  1        4 0.12183668E-01 0.12500067E+03</pdfrwt>
<pdfrwt beam="2">  1       -4 0.75885699E-02 0.12500067E+03</pdfrwt>
<totfact> 0.10376126E+04</totfact>
</mgrwt>
</event>
<event>
 5    1  0.3401591E-002  0.1249896E+03  0.7818608E-02  0.1235085E+00
          4   -1    0    0  501    0  0.00000000000E+00  0.00000000000E+00  0.13215416427E+02  0.13276299610E+02  0.12700000000E+01 0. -1.
         -4   -1    0    0    0  501 -0.00000000000E+00 -0.00000000000E+00 -0.29479230423E+03  0.29479503987E+03  0.12700000000E+01 0. -1.
         25    2    1    2    0    0  0.00000000000E+00  0.00000000000E+00 -0.28157688780E+03  0.30807133948E+03  0.12498962543E+03 0.  0.
    9000005    1    3    3    0    0 -0.54337098081E+02  0.67998038737E+00 -0.21682262731E+03  0.22353083526E+03  0.10000000000E+01 0.  0.
    9000005    1    3    3    0    0  0.54337098081E+02 -0.67998038737E+00 -0.64754260495E+02  0.84540504217E+02  0.10000000000E+01 0.  0.
<mgrwt>
<rscale>  0 0.12498963E+03</rscale>
<asrwt>0</asrwt>
<pdfrwt beam="1">  1        4 0.20380350E-02 0.12498963E+03</pdfrwt>
<pdfrwt beam="2">  1       -4 0.45357551E-01 0.12498963E+03</pdfrwt>
<totfact> 0.74614588E+03</totfact>
</mgrwt>
</event>
<event>
 5    1  0.3401591E-002  0.1249993E+03  0.7818608E-02  0.1235070E+00
          4   -1    0    0  501    0  0.00000000000E+00  0.00000000000E+00  0.28485853533E+03  0.28486136637E+03  0.12700000000E+01 0.  1.
         -4   -1    0    0    0  501 -0.00000000000E+00 -0.00000000000E+00 -0.13680483312E+02  0.13739305792E+02  0.12700000000E+01 0.  1.
         25    2    1    2    0    0  0.00000000000E+00  0.00000000000E+00  0.27117805202E+03  0.29860067216E+03  0.12499930208E+03 0.  0.
    9000005    1    3    3    0    0 -0.49145066213E+02 -0.14156918199E+02  0.49805800441E+02  0.71395193280E+02  0.10000000000E+01 0.  0.
    9000005    1    3    3    0    0  0.49145066213E+02  0.14156918199E+02  0.22137225157E+03  0.22720547888E+03  0.10000000000E+01 0.  0.
<mgrwt>
<rscale>  0 0.12499930E+03</rscale>
<asrwt>0</asrwt>
<pdfrwt beam="1">  1        4 0.43829133E-01 0.12499930E+03</pdfrwt>
<pdfrwt beam="2">  1       -4 0.21094323E-02 0.12499930E+03</pdfrwt>
<totfact> 0.75775876E+03</totfact>
</mgrwt>
</event>
<event>
 5    1  0.3401591E-002  0.1249994E+03  0.7818608E-02  0.1235070E+00
         -4   -1    0    0    0  501 -0.00000000000E+00  0.00000000000E+00  0.15008988572E+03  0.15009525873E+03  0.12700000000E+01 0. -1.
          4   -1    0    0  501    0  0.00000000000E+00 -0.00000000000E+00 -0.26004468035E+02  0.26035461543E+02  0.12700000000E+01 0. -1.
         25    2    1    2    0    0  0.00000000000E+00  0.00000000000E+00  0.12408541768E+03  0.17613072028E+03  0.12499935898E+03 0.  0.
    9000005    1    3    3    0    0  0.12291423143E+02 -0.53272518712E+02  0.10469233852E+03  0.11811234515E+03  0.10000000000E+01 0.  0.
    9000005    1    3    3    0    0 -0.12291423143E+02  0.53272518712E+02  0.19393079164E+02  0.58018375126E+02  0.10000000000E+01 0.  0.
<mgrwt>
<rscale>  0 0.12499936E+03</rscale>
<asrwt>0</asrwt>
<pdfrwt beam="2">  1        4 0.40034849E-02 0.12499936E+03</pdfrwt>
<pdfrwt beam="1">  1       -4 0.23093549E-01 0.12499936E+03</pdfrwt>
<totfact> 0.94319515E+03</totfact>
</mgrwt>
</event>
<event>
 5    1  0.3401591E-002  0.1250006E+03  0.7818608E-02  0.1235068E+00
         -4   -1    0    0    0  501 -0.00000000000E+00  0.00000000000E+00  0.13903397277E+04  0.13903403077E+04  0.12700000000E+01 0.  1.
          4   -1    0    0  501    0  0.00000000000E+00 -0.00000000000E+00 -0.26654643112E+01  0.29525582119E+01  0.12700000000E+01 0.  1.
         25    2    1    2    0    0  0.00000000000E+00  0.00000000000E+00  0.13876742634E+04  0.13932928659E+04  0.12500059614E+03 0.  0.
    9000005    1    3    3    0    0  0.57664402608E+02  0.20684325165E+02  0.55629777686E+03  0.55966172031E+03  0.10000000000E+01 0.  0.
    9000005    1    3    3    0    0 -0.57664402608E+02 -0.20684325165E+02  0.83137648652E+03  0.83363114563E+03  0.10000000000E+01 0.  0.
<mgrwt>
<rscale>  0 0.12500060E+03</rscale>
<asrwt>0</asrwt>
<pdfrwt beam="2">  1        4 0.43220107E-03 0.12500060E+03</pdfrwt>
<pdfrwt beam="1">  1       -4 0.21392012E+00 0.12500060E+03</pdfrwt>
<totfact> 0.20125113E+03</totfact>
</mgrwt>
</event>
<event>
 5    1  0.3401591E-002  0.1250026E+03  0.7818608E-02  0.1235065E+00
          4   -1    0    0  501    0  0.00000000000E+00  0.00000000000E+00  0.26491939962E+01  0.29378782871E+01  0.12700000000E+01 0. -1.
         -4   -1    0    0    0  501 -0.00000000000E+00 -0.00000000000E+00 -0.13980871249E+04  0.13980877017E+04  0.12700000000E+01 0. -1.
         25    2    1    2    0    0  0.00000000000E+00  0.00000000000E+00 -0.13954379309E+04  0.14010255800E+04  0.12500262733E+03 0.  0.
    9000005    1    3    3    0    0 -0.14343913975E+02  0.49869629898E+02 -0.10880213181E+04  0.10892585168E+04  0.10000000000E+01 0.  0.
    9000005    1    3    3    0    0  0.14343913975E+02 -0.49869629898E+02 -0.30741661278E+03  0.31176706316E+03  0.10000000000E+01 0.  0.
<mgrwt>
<rscale>  0 0.12500263E+03</rscale>
<asrwt>0</asrwt>
<pdfrwt beam="1">  1        4 0.42982028E-03 0.12500263E+03</pdfrwt>
<pdfrwt beam="2">  1       -4 0.21511202E+00 0.12500263E+03</pdfrwt>
<totfact> 0.19957860E+03</totfact>
</mgrwt>
</event>
<event>
 5    1  0.3401591E-002  0.1250010E+03  0.7818608E-02  0.1235068E+00
         -4   -1    0    0    0  501 -0.00000000000E+00  0.00000000000E+00  0.56960050165E+02  0.56974206575E+02  0.12700000000E+01 0.  1.
          4   -1    0    0  501    0  0.00000000000E+00 -0.00000000000E+00 -0.68551280587E+02  0.68563043763E+02  0.12700000000E+01 0.  1.
         25    2    1    2    0    0  0.00000000000E+00  0.00000000000E+00 -0.11591230422E+02  0.12553725034E+03  0.12500097840E+03 0.  0.
    9000005    1    3    3    0    0  0.57423754216E+02  0.74500213907E+01 -0.29397945980E+02  0.64947899079E+02  0.10000000000E+01 0.  0.
    9000005    1    3    3    0    0 -0.57423754216E+02 -0.74500213907E+01  0.17806715558E+02  0.60589351259E+02  0.10000000000E+01 0.  0.
<mgrwt>
<rscale>  0 0.12500098E+03</rscale>
<asrwt>0</asrwt>
<pdfrwt beam="2">  1        4 0.10548345E-01 0.12500098E+03</pdfrwt>
<pdfrwt beam="1">  1       -4 0.87650784E-02 0.12500098E+03</pdfrwt>
<totfact> 0.10440901E+04</totfact>
</mgrwt>
</event>
<event>
 5    1  0.3401591E-002  0.1250010E+03  0.7818608E-02  0.1235068E+00
          4   -1    0    0  501    0  0.00000000000E+00  0.00000000000E+00  0.51305966997E+02  0.51321683035E+02  0.12700000000E+01 0. -1.
         -4   -1    0    0    0  501 -0.00000000000E+00 -0.00000000000E+00 -0.76104921365E+02  0.76115517183E+02  0.12700000000E+01 0. -1.
         25    2    1    2    0    0  0.00000000000E+00  0.00000000000E+00 -0.24798954368E+02  0.12743720022E+03  0.12500100744E+03 0.  0.
    9000005    1    3    3    0    0 -0.50964983629E+02 -0.46037889625E+01  0.24170056637E+02  0.56602262030E+02  0.10000000000E+01 0.  0.
    9000005    1    3    3    0    0  0.50964983629E+02  0.46037889625E+01 -0.48969011005E+02  0.70834938187E+02  0.10000000000E+01 0.  0.
<mgrwt>
<rscale>  0 0.12500101E+03</rscale>
<asrwt>0</asrwt>
<pdfrwt beam="1">  1        4 0.78952496E-02 0.12500101E+03</pdfrwt>
<pdfrwt beam="2">  1       -4 0.11710474E-01 0.12500101E+03</pdfrwt>
<totfact> 0.10399424E+04</totfact>
</mgrwt>
</event>
<event>
 5    1  0.3401591E-002  0.1249997E+03  0.7818608E-02  0.1235070E+00
         -4   -1    0    0    0  501 -0.00000000000E+00  0.00000000000E+00  0.89105113667E+02  0.89114163754E+02  0.12700000000E+01 0. -1.
          4   -1    0    0  501    0  0.00000000000E+00 -0.00000000000E+00 -0.43818014297E+02  0.43836414964E+02  0.12700000000E+01 0. -1.
         25    2    1    2    0    0  0.00000000000E+00  0.00000000000E+00  0.45287099370E+02  0.13295057872E+03  0.12499974005E+03 0.  0.
    9000005    1    3    3    0    0  0.27503671048E+02 -0.34257514160E+02 -0.24626620028E+02  0.50373600343E+02  0.10000000000E+01 0.  0.
    9000005    1    3    3    0    0 -0.27503671048E+02  0.34257514160E+02  0.69913719398E+02  0.82576978375E+02  0.10000000000E+01 0.  0.
<mgrwt>
<rscale>  0 0.12499974E+03</rscale>
<asrwt>0</asrwt>
<pdfrwt beam="2">  1        4 0.67433446E-02 0.12499974E+03</pdfrwt>
<pdfrwt beam="1">  1       -4 0.13710591E-01 0.12499974E+03</pdfrwt>
<totfact> 0.10281511E+04</totfact>
</mgrwt>
</event>
<event>
 5    1  0.3401591E-002  0.1250022E+03  0.7818608E-02  0.1235066E+00
          4   -1    0    0  501    0  0.00000000000E+00  0.00000000000E+00  0.50299438126E+02  0.50315468554E+02  0.12700000000E+01 0. -1.
         -4   -1    0    0    0  501 -0.00000000000E+00 -0.00000000000E+00 -0.77629011368E+02  0.77639399186E+02  0.12700000000E+01 0. -1.
         25    2    1    2    0    0  0.00000000000E+00  0.00000000000E+00 -0.27329573242E+02  0.12795486774E+03  0.12500217040E+03 0.  0.
    9000005    1    3    3    0    0 -0.14796685322E+02  0.92570535596E+01  0.47758886883E+02  0.50858098799E+02  0.10000000000E+01 0.  0.
    9000005    1    3    3    0    0  0.14796685322E+02 -0.92570535596E+01 -0.75088460126E+02  0.77096768941E+02  0.10000000000E+01 0.  0.
<mgrwt>
<rscale>  0 0.12500217E+03</rscale>
<asrwt>0</asrwt>
<pdfrwt beam="1">  1        4 0.77404073E-02 0.12500217E+03</pdfrwt>
<pdfrwt beam="2">  1       -4 0.11944957E-01 0.12500217E+03</pdfrwt>
<totfact> 0.10387953E+04</totfact>
</mgrwt>
</event>
<event>
 5    1  0.3401591E-002  0.1249864E+03  0.7818608E-02  0.1235091E+00
          4   -1    0    0  501    0  0.00000000000E+00  0.00000000000E+00  0.35684753281E+02  0.35707345417E+02  0.12700000000E+01 0.  1.
         -4   -1    0    0    0  501 -0.00000000000E+00 -0.00000000000E+00 -0.10938073226E+03  0.10938810488E+03  0.12700000000E+01 0.  1.
         25    2    1    2    0    0  0.00000000000E+00  0.00000000000E+00 -0.73695978976E+02  0.14509545030E+03  0.12498636878E+03 0.  0.
    9000005    1    3    3    0    0  0.25998136441E+02  0.56809582252E+02 -0.38101729857E+02  0.73184517162E+02  0.10000000000E+01 0.  0.
    9000005    1    3    3    0    0 -0.25998136441E+02 -0.56809582252E+02 -0.35594249118E+02  0.71910933135E+02  0.10000000000E+01 0.  0.
<mgrwt>
<rscale>  0 0.12498637E+03</rscale>
<asrwt>0</asrwt>
<pdfrwt beam="1">  1        4 0.54922671E-02 0.12498637E+03</pdfrwt>
<pdfrwt beam="2">  1       -4 0.16830110E-01 0.12498637E+03</pdfrwt>
<totfact> 0.10032128E+04</totfact>
</mgrwt>
</event>
<event>
 5    1  0.3401591E-002  0.1250018E+03  0.7818608E-02  0.1235066E+00
         -4   -1    0    0    0  501 -0.00000000000E+00  0.00000000000E+00  0.23137678384E+03  0.23138026926E+03  0.12700000000E+01 0. -1.
          4   -1    0    0  501    0  0.00000000000E+00 -0.00000000000E+00 -0.16855616814E+02  0.16903393688E+02  0.12700000000E+01 0. -1.
         25    2    1    2    0    0  0.00000000000E+00  0.00000000000E+00  0.21452116703E+03  0.24828366294E+03  0.12500178472E+03 0.  0.
    9000005    1    3    3    0    0  0.32797721131E+02 -0.41356881528E+02  0.40809635276E+02  0.66727119618E+02  0.10000000000E+01 0.  0.
    9000005    1    3    3    0    0 -0.32797721131E+02  0.41356881528E+02  0.17371153175E+03  0.18155654333E+03  0.10000000000E+01 0.  0.
<mgrwt>
<rscale>  0 0.12500178E+03</rscale>
<asrwt>0</asrwt>
<pdfrwt beam="2">  1        4 0.25971152E-02 0.12500178E+03</pdfrwt>
<pdfrwt beam="1">  1       -4 0.35600370E-01 0.12500178E+03</pdfrwt>
<totfact> 0.82575643E+03</totfact>
</mgrwt>
</event>
<event>
 5    1  0.3401591E-002  0.1250008E+03  0.7818608E-02  0.1235068E+00
          4   -1    0    0  501    0  0.00000000000E+00  0.00000000000E+00  0.91391181625E+02  0.91400005355E+02  0.12700000000E+01 0. -1.
         -4   -1    0    0    0  501 -0.00000000000E+00 -0.00000000000E+00 -0.42722286176E+02  0.42741158572E+02  0.12700000000E+01 0. -1.
         25    2    1    2    0    0  0.00000000000E+00  0.00000000000E+00  0.48668895449E+02  0.13414116393E+03  0.12500076190E+03 0.  0.
    9000005    1    3    3    0    0 -0.45419340157E+02 -0.33588421050E+02  0.53013121816E+02  0.77475735386E+02  0.10000000000E+01 0.  0.
    9000005    1    3    3    0    0  0.45419340157E+02  0.33588421050E+02 -0.43442263670E+01  0.56665428540E+02  0.10000000000E+01 0.  0.
<mgrwt>
<rscale>  0 0.12500076E+03</rscale>
<asrwt>0</asrwt>
<pdfrwt beam="1">  1        4 0.14062312E-01 0.12500076E+03</pdfrwt>
<pdfrwt beam="2">  1       -4 0.65747899E-02 0.12500076E+03</pdfrwt>
<totfact> 0.10256029E+04</totfact>
</mgrwt>
</event>
<event>
 5    1  0.3401591E-002  0.1249996E+03  0.7818608E-02  0.1235070E+00
         -4   -1    0    0    0  501 -0.00000000000E+00  0.00000000000E+00  0.11851357537E+03  0.11852037988E+03  0.12700000000E+01 0. -1.
          4   -1    0    0  501    0  0.00000000000E+00 -0.00000000000E+00 -0.32940157555E+02  0.32964630738E+02  0.12700000000E+01 0. -1.
         25    2    1    2    0    0  0.00000000000E+00  0.00000000000E+00  0.85573417811E+02  0.15148501061E+03  0.12499959442E+03 0.  0.
    9000005    1    3    3    0    0  0.52059227755E+01  0.52480498774E+02  0.21583940630E+01  0.52791694881E+02  0.10000000000E+01 0.  0.
    9000005    1    3    3    0    0 -0.52059227755E+01 -0.52480498774E+02  0.83415023748E+02  0.98693315733E+02  0.10000000000E+01 0.  0.
<mgrwt>
<rscale>  0 0.12499959E+03</rscale>
<asrwt>0</asrwt>
<pdfrwt beam="2">  1        4 0.50701225E-02 0.12499959E+03</pdfrwt>
<pdfrwt beam="1">  1       -4 0.18235264E-01 0.12499959E+03</pdfrwt>
<totfact> 0.99009407E+03</totfact>
</mgrwt>
</event>
<event>
 5    1  0.3401591E-002  0.1250044E+03  0.7818608E-02  0.1235062E+00
         -4   -1    0    0    0  501 -0.00000000000E+00  0.00000000000E+00  0.22197972340E+02  0.22234272554E+02  0.12700000000E+01 0.  1.
          4   -1    0    0  501    0  0.00000000000E+00 -0.00000000000E+00 -0.17580328174E+03  0.17580786891E+03  0.12700000000E+01 0.  1.
         25    2    1    2    0    0  0.00000000000E+00  0.00000000000E+00 -0.15360530940E+03  0.19804214146E+03  0.12500439480E+03 0.  0.
    9000005    1    3    3    0    0 -0.62238259867E+02 -0.36103300245E+01 -0.83688213322E+02  0.10436164297E+03  0.10000000000E+01 0.  0.
    9000005    1    3    3    0    0  0.62238259867E+02  0.36103300245E+01 -0.69917096075E+02  0.93680498492E+02  0.10000000000E+01 0.  0.
<mgrwt>
<rscale>  0 0.12500439E+03</rscale>
<asrwt>0</asrwt>
<pdfrwt beam="2">  1        4 0.27049803E-01 0.12500439E+03</pdfrwt>
<pdfrwt beam="1">  1       -4 0.34182180E-02 0.12500439E+03</pdfrwt>
<totfact> 0.90457633E+03</totfact>
</mgrwt>
</event>
<event>
 5    1  0.3401591E-002  0.1250001E+03  0.7818608E-02  0.1235069E+00
          4   -1    0    0  501    0  0.00000000000E+00  0.00000000000E+00  0.38757440318E+02  0.38778242353E+02  0.12700000000E+01 0. -1.
         -4   -1    0    0    0  501 -0.00000000000E+00 -0.00000000000E+00 -0.10073536383E+03  0.10074336914E+03  0.12700000000E+01 0. -1.
         25    2    1    2    0    0  0.00000000000E+00  0.00000000000E+00 -0.61977923513E+02  0.13952161149E+03  0.12500006828E+03 0.  0.
    9000005    1    3    3    0    0  0.47232344031E+02  0.34845591220E+02 -0.70459679090E+01  0.59124911957E+02  0.10000000000E+01 0.  0.
    9000005    1    3    3    0    0 -0.47232344031E+02 -0.34845591220E+02 -0.54931955604E+02  0.80396699538E+02  0.10000000000E+01 0.  0.
<mgrwt>
<rscale>  0 0.12500007E+03</rscale>
<asrwt>0</asrwt>
<pdfrwt beam="1">  1        4 0.59648991E-02 0.12500007E+03</pdfrwt>
<pdfrwt beam="2">  1       -4 0.15499964E-01 0.12500007E+03</pdfrwt>
<totfact> 0.10143495E+04</totfact>
</mgrwt>
</event>
<event>
 5    1  0.3401591E-002  0.1249965E+03  0.7818608E-02  0.1235075E+00
         -4   -1    0    0    0  501 -0.00000000000E+00  0.00000000000E+00  0.39659016584E+03  0.39659219930E+03  0.12700000000E+01 0.  1.
          4   -1    0    0  501    0  0.00000000000E+00 -0.00000000000E+00 -0.98060288594E+01  0.98879270827E+01  0.12700000000E+01 0.  1.
         25    2    1    2    0    0  0.00000000000E+00  0.00000000000E+00  0.38678413698E+03  0.40648012638E+03  0.12499649803E+03 0.  0.
    9000005    1    3    3    0    0  0.57573582375E+02 -0.30459846079E+01  0.27177885979E+03  0.27782862350E+03  0.10000000000E+01 0.  0.
    9000005    1    3    3    0    0 -0.57573582375E+02  0.30459846079E+01  0.11500527720E+03  0.12865150288E+03  0.10000000000E+01 0.  0.
<mgrwt>
<rscale>  0 0.12499650E+03</rscale>
<asrwt>0</asrwt>
<pdfrwt beam="2">  1        4 0.15150759E-02 0.12499650E+03</pdfrwt>
<pdfrwt beam="1">  1       -4 0.61020338E-01 0.12499650E+03</pdfrwt>
<totfact> 0.63932316E+03</totfact>
</mgrwt>
</event>
<event>
 5    1  0.3401591E-002  0.1249998E+03  0.7818608E-02  0.1235070E+00
         -4   -1    0    0    0  501 -0.00000000000E+00  0.00000000000E+00  0.85611652598E+01  0.86548512758E+01  0.12700000000E+01 0. -1.
          4   -1    0    0  501    0  0.00000000000E+00 -0.00000000000E+00 -0.45369682366E+03  0.45369860117E+03  0.12700000000E+01 0. -1.
         25    2    1    2    0    0  0.00000000000E+00  0.00000000000E+00 -0.44513565840E+03  0.46235345244E+03  0.12499984242E+03 0.  0.
    9000005    1    3    3    0    0 -0.17895377106E+02 -0.48323922448E+02 -0.35333053027E+03  0.35706989459E+03  0.10000000000E+01 0.  0.
    9000005    1    3    3    0    0  0.17895377106E+02  0.48323922448E+02 -0.91805128134E+02  0.10528355785E+03  0.10000000000E+01 0.  0.
<mgrwt>
<rscale>  0 0.12499984E+03</rscale>
<asrwt>0</asrwt>
<pdfrwt beam="2">  1        4 0.69806836E-01 0.12499984E+03</pdfrwt>
<pdfrwt beam="1">  1       -4 0.13244460E-02 0.12499984E+03</pdfrwt>
<totfact> 0.58908571E+03</totfact>
</mgrwt>
</event>
<event>
 5    1  0.3401591E-002  0.1250104E+03  0.7818608E-02  0.1235053E+00
         -4   -1    0    0    0  501 -0.00000000000E+00  0.00000000000E+00  0.41607099453E+02  0.41626477450E+02  0.12700000000E+01 0.  1.
          4   -1    0    0  501    0  0.00000000000E+00 -0.00000000000E+00 -0.93854247531E+02  0.93862839716E+02  0.12700000000E+01 0.  1.
         25    2    1    2    0    0  0.00000000000E+00  0.00000000000E+00 -0.52247148078E+02  0.13548931717E+03  0.12501036191E+03 0.  0.
    9000005    1    3    3    0    0  0.32677575942E+02  0.20338171148E+02 -0.79489504695E+02  0.88323533284E+02  0.10000000000E+01 0.  0.
    9000005    1    3    3    0    0 -0.32677575942E+02 -0.20338171148E+02  0.27242356617E+02  0.47165783882E+02  0.10000000000E+01 0.  0.
<mgrwt>
<rscale>  0 0.12501036E+03</rscale>
<asrwt>0</asrwt>
<pdfrwt beam="2">  1        4 0.14441267E-01 0.12501036E+03</pdfrwt>
<pdfrwt beam="1">  1       -4 0.64032438E-02 0.12501036E+03</pdfrwt>
<totfact> 0.10225378E+04</totfact>
</mgrwt>
</event>
<event>
 5    1  0.3401591E-002  0.1249953E+03  0.7818608E-02  0.1235077E+00
         -4   -1    0    0    0  501 -0.00000000000E+00  0.00000000000E+00  0.43166998451E+03  0.43167185272E+03  0.12700000000E+01 0. -1.
          4   -1    0    0  501    0  0.00000000000E+00 -0.00000000000E+00 -0.90020245859E+01  0.90911686073E+01  0.12700000000E+01 0. -1.
         25    2    1    2    0    0  0.00000000000E+00  0.00000000000E+00  0.42266795993E+03  0.44076302133E+03  0.12499534639E+03 0.  0.
    9000005    1    3    3    0    0 -0.46891587120E+02 -0.28143182117E+02  0.31794645989E+03  0.32261712757E+03  0.10000000000E+01 0.  0.
    9000005    1    3    3    0    0  0.46891587120E+02  0.28143182117E+02  0.10472150004E+03  0.11814589376E+03  0.10000000000E+01 0.  0.
<mgrwt>
<rscale>  0 0.12499535E+03</rscale>
<asrwt>0</asrwt>
<pdfrwt beam="2">  1        4 0.13919274E-02 0.12499535E+03</pdfrwt>
<pdfrwt beam="1">  1       -4 0.66417787E-01 0.12499535E+03</pdfrwt>
<totfact> 0.60778580E+03</totfact>
</mgrwt>
</event>
<event>
 5    1  0.3401591E-002  0.1250047E+03  0.7818608E-02  0.1235062E+00
         -4   -1    0    0    0  501 -0.00000000000E+00  0.00000000000E+00  0.51685996697E+02  0.51701597214E+02  0.12700000000E+01 0.  1.
          4   -1    0    0  501    0  0.00000000000E+00 -0.00000000000E+00 -0.75549902247E+02  0.75560575895E+02  0.12700000000E+01 0.  1.
         25    2    1    2    0    0  0.00000000000E+00  0.00000000000E+00 -0.23863905550E+02  0.12726217311E+03  0.12500469878E+03 0.  0.
    9000005    1    3    3    0    0 -0.11300961173E+01  0.60665668002E+02  0.33030319060E+01  0.60774257800E+02  0.10000000000E+01 0.  0.
    9000005    1    3    3    0    0  0.11300961173E+01 -0.60665668002E+02 -0.27166937456E+02  0.66487915309E+02  0.10000000000E+01 0.  0.
<mgrwt>
<rscale>  0 0.12500470E+03</rscale>
<asrwt>0</asrwt>
<pdfrwt beam="2">  1        4 0.11625083E-01 0.12500470E+03</pdfrwt>
<pdfrwt beam="1">  1       -4 0.79537129E-02 0.12500470E+03</pdfrwt>
<totfact> 0.10402351E+04</totfact>
</mgrwt>
</event>
<event>
 5    1  0.3401591E-002  0.1250015E+03  0.7818608E-02  0.1235067E+00
         -4   -1    0    0    0  501 -0.00000000000E+00  0.00000000000E+00  0.40128425188E+03  0.40128626155E+03  0.12700000000E+01 0. -1.
          4   -1    0    0  501    0  0.00000000000E+00 -0.00000000000E+00 -0.96911347513E+01  0.97739957421E+01  0.12700000000E+01 0. -1.
         25    2    1    2    0    0  0.00000000000E+00  0.00000000000E+00  0.39159311713E+03  0.41106025729E+03  0.12500146295E+03 0.  0.
    9000005    1    3    3    0    0 -0.22709655101E+02 -0.37659913621E+02  0.49790259966E+02  0.66438449080E+02  0.10000000000E+01 0.  0.
    9000005    1    3    3    0    0  0.22709655101E+02  0.37659913621E+02  0.34180285717E+03  0.34462180821E+03  0.10000000000E+01 0.  0.
<mgrwt>
<rscale>  0 0.12500146E+03</rscale>
<asrwt>0</asrwt>
<pdfrwt beam="2">  1        4 0.14974721E-02 0.12500146E+03</pdfrwt>
<pdfrwt beam="1">  1       -4 0.61742578E-01 0.12500146E+03</pdfrwt>
<totfact> 0.63489053E+03</totfact>
</mgrwt>
</event>
<event>
 5    1  0.3401591E-002  0.1250001E+03  0.7818608E-02  0.1235069E+00
          4   -1    0    0  501    0  0.00000000000E+00  0.00000000000E+00  0.51817671351E+02  0.51833232238E+02  0.12700000000E+01 0. -1.
         -4   -1    0    0    0  501 -0.00000000000E+00 -0.00000000000E+00 -0.75352365325E+02  0.75363066950E+02  0.12700000000E+01 0. -1.
         25    2    1    2    0    0  0.00000000000E+00  0.00000000000E+00 -0.23534693974E+02  0.12719629919E+03  0.12500006683E+03 0.  0.
    9000005    1    3    3    0    0  0.34763438662E+02 -0.90375070386E+01  0.40269000006E+02  0.53970043196E+02  0.10000000000E+01 0.  0.
    9000005    1    3    3    0    0 -0.34763438662E+02  0.90375070386E+01 -0.63803693980E+02  0.73226255992E+02  0.10000000000E+01 0.  0.
<mgrwt>
<rscale>  0 0.12500007E+03</rscale>
<asrwt>0</asrwt>
<pdfrwt beam="1">  1        4 0.79739696E-02 0.12500007E+03</pdfrwt>
<pdfrwt beam="2">  1       -4 0.11594692E-01 0.12500007E+03</pdfrwt>
<totfact> 0.10404868E+04</totfact>
</mgrwt>
</event>
<event>
 5    1  0.3401591E-002  0.1249979E+03  0.7818608E-02  0.1235073E+00
          4   -1    0    0  501    0  0.00000000000E+00  0.00000000000E+00  0.55755881204E+02  0.55770343273E+02  0.12700000000E+01 0. -1.
         -4   -1    0    0    0  501 -0.00000000000E+00 -0.00000000000E+00 -0.70028193379E+02  0.70039708509E+02  0.12700000000E+01 0. -1.
         25    2    1    2    0    0  0.00000000000E+00  0.00000000000E+00 -0.14272312176E+02  0.12581005178E+03  0.12499788092E+03 0.  0.
    9000005    1    3    3    0    0 -0.32834655748E+02 -0.52872882994E+02 -0.12781627659E+02  0.63545467028E+02  0.10000000000E+01 0.  0.
    9000005    1    3    3    0    0  0.32834655748E+02  0.52872882994E+02 -0.14906845166E+01  0.62264584754E+02  0.10000000000E+01 0.  0.
<mgrwt>
<rscale>  0 0.12499788E+03</rscale>
<asrwt>0</asrwt>
<pdfrwt beam="1">  1        4 0.85798261E-02 0.12499788E+03</pdfrwt>
<pdfrwt beam="2">  1       -4 0.10775566E-01 0.12499788E+03</pdfrwt>
<totfact> 0.10435623E+04</totfact>
</mgrwt>
</event>
<event>
 5    1  0.3401591E-002  0.1249934E+03  0.7818608E-02  0.1235080E+00
          4   -1    0    0  501    0  0.00000000000E+00  0.00000000000E+00  0.81732414026E+02  0.81742280385E+02  0.12700000000E+01 0. -1.
         -4   -1    0    0    0  501 -0.00000000000E+00 -0.00000000000E+00 -0.47766944822E+02  0.47783824854E+02  0.12700000000E+01 0. -1.
         25    2    1    2    0    0  0.00000000000E+00  0.00000000000E+00  0.33965469204E+02  0.12952610524E+03  0.12499343519E+03 0.  0.
    9000005    1    3    3    0    0  0.35447844878E+02  0.47751980769E+02 -0.28972769390E+01  0.59549941961E+02  0.10000000000E+01 0.  0.
    9000005    1    3    3    0    0 -0.35447844878E+02 -0.47751980769E+02  0.36862746143E+02  0.69976163277E+02  0.10000000000E+01 0.  0.
<mgrwt>
<rscale>  0 0.12499344E+03</rscale>
<asrwt>0</asrwt>
<pdfrwt beam="1">  1        4 0.12576275E-01 0.12499344E+03</pdfrwt>
<pdfrwt beam="2">  1       -4 0.73508183E-02 0.12499344E+03</pdfrwt>
<totfact> 0.10356190E+04</totfact>
</mgrwt>
</event>
<event>
 5    1  0.3401591E-002  0.1250150E+03  0.7818608E-02  0.1235046E+00
         -4   -1    0    0    0  501 -0.00000000000E+00  0.00000000000E+00  0.19473673390E+03  0.19474087509E+03  0.12700000000E+01 0.  1.
          4   -1    0    0  501    0  0.00000000000E+00 -0.00000000000E+00 -0.20039492868E+02  0.20079695576E+02  0.12700000000E+01 0.  1.
         25    2    1    2    0    0  0.00000000000E+00  0.00000000000E+00  0.17469724103E+03  0.21482057066E+03  0.12501500532E+03 0.  0.
    9000005    1    3    3    0    0 -0.49735043731E+01 -0.61859678904E+02  0.10007285993E+03  0.11775794204E+03  0.10000000000E+01 0.  0.
    9000005    1    3    3    0    0  0.49735043731E+01  0.61859678904E+02  0.74624381104E+02  0.97062628622E+02  0.10000000000E+01 0.  0.
<mgrwt>
<rscale>  0 0.12501501E+03</rscale>
<asrwt>0</asrwt>
<pdfrwt beam="2">  1        4 0.30864101E-02 0.12501501E+03</pdfrwt>
<pdfrwt beam="1">  1       -4 0.29962908E-01 0.12501501E+03</pdfrwt>
<totfact> 0.87665221E+03</totfact>
</mgrwt>
</event>
<event>
 5    1  0.3401591E-002  0.1249998E+03  0.7818608E-02  0.1235070E+00
         -4   -1    0    0    0  501 -0.00000000000E+00  0.00000000000E+00  0.32831930050E+03  0.32832175679E+03  0.12700000000E+01 0.  1.
          4   -1    0    0  501    0  0.00000000000E+00 -0.00000000000E+00 -0.11861271095E+02  0.11929067524E+02  0.12700000000E+01 0.  1.
         25    2    1    2    0    0  0.00000000000E+00  0.00000000000E+00  0.31645802940E+03  0.34025082431E+03  0.12499975628E+03 0.  0.
    9000005    1    3    3    0    0 -0.60776633418E+02 -0.30535589209E+01  0.19692673659E+03  0.20611710986E+03  0.10000000000E+01 0.  0.
    9000005    1    3    3    0    0  0.60776633418E+02  0.30535589209E+01  0.11953129281E+03  0.13413371445E+03  0.10000000000E+01 0.  0.
<mgrwt>
<rscale>  0 0.12499976E+03</rscale>
<asrwt>0</asrwt>
<pdfrwt beam="2">  1        4 0.18302153E-02 0.12499976E+03</pdfrwt>
<pdfrwt beam="1">  1       -4 0.50516058E-01 0.12499976E+03</pdfrwt>
<totfact> 0.70810956E+03</totfact>
</mgrwt>
</event>
<event>
 5    1  0.3401591E-002  0.1249988E+03  0.7818608E-02  0.1235071E+00
          4   -1    0    0  501    0  0.00000000000E+00  0.00000000000E+00  0.29656961922E+01  0.32261825590E+01  0.12700000000E+01 0.  1.
         -4   -1    0    0    0  501 -0.00000000000E+00 -0.00000000000E+00 -0.12614478281E+04  0.12614484674E+04  0.12700000000E+01 0.  1.
         25    2    1    2    0    0  0.00000000000E+00  0.00000000000E+00 -0.12584821319E+04  0.12646746500E+04  0.12499877571E+03 0.  0.
    9000005    1    3    3    0    0  0.43371897221E+02  0.96194630816E+01 -0.10738952953E+04  0.10748142914E+04  0.10000000000E+01 0.  0.
    9000005    1    3    3    0    0 -0.43371897221E+02 -0.96194630816E+01 -0.18458683656E+03  0.18986035860E+03  0.10000000000E+01 0.  0.
<mgrwt>
<rscale>  0 0.12499878E+03</rscale>
<asrwt>0</asrwt>
<pdfrwt beam="1">  1        4 0.47634855E-03 0.12499878E+03</pdfrwt>
<pdfrwt beam="2">  1       -4 0.19408857E+00 0.12499878E+03</pdfrwt>
<totfact> 0.23078595E+03</totfact>
</mgrwt>
</event>
<event>
 5    1  0.3401591E-002  0.1249989E+03  0.7818608E-02  0.1235071E+00
          4   -1    0    0  501    0  0.00000000000E+00  0.00000000000E+00  0.48054131736E+02  0.48070910922E+02  0.12700000000E+01 0.  1.
         -4   -1    0    0    0  501 -0.00000000000E+00 -0.00000000000E+00 -0.81251217559E+02  0.81261142343E+02  0.12700000000E+01 0.  1.
         25    2    1    2    0    0  0.00000000000E+00  0.00000000000E+00 -0.33197085824E+02  0.12933205326E+03  0.12499893397E+03 0.  0.
    9000005    1    3    3    0    0 -0.25543612484E+02 -0.41837243784E+02 -0.56702363767E+02  0.74959917042E+02  0.10000000000E+01 0.  0.
    9000005    1    3    3    0    0  0.25543612484E+02  0.41837243784E+02  0.23505277943E+02  0.54372136222E+02  0.10000000000E+01 0.  0.
<mgrwt>
<rscale>  0 0.12499893E+03</rscale>
<asrwt>0</asrwt>
<pdfrwt beam="1">  1        4 0.73949975E-02 0.12499893E+03</pdfrwt>
<pdfrwt beam="2">  1       -4 0.12502241E-01 0.12499893E+03</pdfrwt>
<totfact> 0.10359066E+04</totfact>
</mgrwt>
</event>
<event>
 5    1  0.3401591E-002  0.1249993E+03  0.7818608E-02  0.1235070E+00
          4   -1    0    0  501    0  0.00000000000E+00  0.00000000000E+00  0.33692406220E+03  0.33692645576E+03  0.12700000000E+01 0. -1.
         -4   -1    0    0    0  501 -0.00000000000E+00 -0.00000000000E+00 -0.11556507119E+02  0.11626080887E+02  0.12700000000E+01 0. -1.
         25    2    1    2    0    0  0.00000000000E+00  0.00000000000E+00  0.32536755508E+03  0.34855253665E+03  0.12499929961E+03 0.  0.
    9000005    1    3    3    0    0 -0.35460366510E+02  0.38442351290E+02  0.25806109636E+03  0.26330928852E+03  0.10000000000E+01 0.  0.
    9000005    1    3    3    0    0  0.35460366510E+02 -0.38442351290E+02  0.67306458725E+02  0.85243248131E+02  0.10000000000E+01 0.  0.
<mgrwt>
<rscale>  0 0.12499930E+03</rscale>
<asrwt>0</asrwt>
<pdfrwt beam="1">  1        4 0.51840013E-01 0.12499930E+03</pdfrwt>
<pdfrwt beam="2">  1       -4 0.17834599E-02 0.12499930E+03</pdfrwt>
<totfact> 0.69885166E+03</totfact>
</mgrwt>
</event>
<event>
 5    1  0.3401591E-002  0.1249958E+03  0.7818608E-02  0.1235076E+00
         -4   -1    0    0    0  501 -0.00000000000E+00  0.00000000000E+00  0.10093094229E+04  0.10093102219E+04  0.12700000000E+01 0. -1.
          4   -1    0    0  501    0  0.00000000000E+00 -0.00000000000E+00 -0.37649456602E+01  0.39733758725E+01  0.12700000000E+01 0. -1.
         25    2    1    2    0    0  0.00000000000E+00  0.00000000000E+00  0.10055444773E+04  0.10132835978E+04  0.12499581525E+03 0.  0.
    9000005    1    3    3    0    0 -0.48050023913E+02 -0.30467715913E+02  0.71227603343E+03  0.71454547393E+03  0.10000000000E+01 0.  0.
    9000005    1    3    3    0    0  0.48050023913E+02  0.30467715913E+02  0.29326844384E+03  0.29873812388E+03  0.10000000000E+01 0.  0.
<mgrwt>
<rscale>  0 0.12499582E+03</rscale>
<asrwt>0</asrwt>
<pdfrwt beam="2">  1        4 0.59531727E-03 0.12499582E+03</pdfrwt>
<pdfrwt beam="1">  1       -4 0.15529439E+00 0.12499582E+03</pdfrwt>
<totfact> 0.30172187E+03</totfact>
</mgrwt>
</event>
<event>
 5    1  0.3401591E-002  0.1250087E+03  0.7818608E-02  0.1235056E+00
         -4   -1    0    0    0  501 -0.00000000000E+00  0.00000000000E+00  0.44318994118E+01  0.46102746552E+01  0.12700000000E+01 0.  1.
          4   -1    0    0  501    0  0.00000000000E+00 -0.00000000000E+00 -0.86394763922E+03  0.86394857267E+03  0.12700000000E+01 0.  1.
         25    2    1    2    0    0  0.00000000000E+00  0.00000000000E+00 -0.85951573981E+03  0.86855884732E+03  0.12500865684E+03 0.  0.
    9000005    1    3    3    0    0 -0.49254342215E+02  0.37802386071E+02 -0.47926952424E+03  0.48327558130E+03  0.10000000000E+01 0.  0.
    9000005    1    3    3    0    0  0.49254342215E+02 -0.37802386071E+02 -0.38024621557E+03  0.38528326602E+03  0.10000000000E+01 0.  0.
<mgrwt>
<rscale>  0 0.12500866E+03</rscale>
<asrwt>0</asrwt>
<pdfrwt beam="2">  1        4 0.13292868E+00 0.12500866E+03</pdfrwt>
<pdfrwt beam="1">  1       -4 0.69562434E-03 0.12500866E+03</pdfrwt>
<totfact> 0.35373031E+03</totfact>
</mgrwt>
</event>
<event>
 5    1  0.3401591E-002  0.1250023E+03  0.7818608E-02  0.1235066E+00
         -4   -1    0    0    0  501 -0.00000000000E+00  0.00000000000E+00  0.11022778015E+02  0.11095698949E+02  0.12700000000E+01 0.  1.
          4   -1    0    0  501    0  0.00000000000E+00 -0.00000000000E+00 -0.35315018136E+03  0.35315246495E+03  0.12700000000E+01 0.  1.
         25    2    1    2    0    0  0.00000000000E+00  0.00000000000E+00 -0.34212740335E+03  0.36424816390E+03  0.12500225910E+03 0.  0.
    9000005    1    3    3    0    0  0.98562686839E+01  0.59492464738E+02 -0.12328126532E+03  0.13724346896E+03  0.10000000000E+01 0.  0.
    9000005    1    3    3    0    0 -0.98562686839E+01 -0.59492464738E+02 -0.21884613803E+03  0.22700469494E+03  0.10000000000E+01 0.  0.
<mgrwt>
<rscale>  0 0.12500226E+03</rscale>
<asrwt>0</asrwt>
<pdfrwt beam="2">  1        4 0.54336573E-01 0.12500226E+03</pdfrwt>
<pdfrwt beam="1">  1       -4 0.17015972E-02 0.12500226E+03</pdfrwt>
<totfact> 0.68181608E+03</totfact>
</mgrwt>
</event>
<event>
 5    1  0.3401591E-002  0.1250039E+03  0.7818608E-02  0.1235063E+00
          4   -1    0    0  501    0  0.00000000000E+00  0.00000000000E+00  0.19081684900E+02  0.19123901240E+02  0.12700000000E+01 0.  1.
         -4   -1    0    0    0  501 -0.00000000000E+00 -0.00000000000E+00 -0.20445448807E+03  0.20445843243E+03  0.12700000000E+01 0.  1.
         25    2    1    2    0    0  0.00000000000E+00  0.00000000000E+00 -0.18537280317E+03  0.22358233367E+03  0.12500393503E+03 0.  0.
    9000005    1    3    3    0    0 -0.28965099545E+02 -0.51692707993E+02 -0.57166411641E+02  0.82341433502E+02  0.10000000000E+01 0.  0.
    9000005    1    3    3    0    0  0.28965099545E+02  0.51692707993E+02 -0.12820639152E+03  0.14124090016E+03  0.10000000000E+01 0.  0.
<mgrwt>
<rscale>  0 0.12500394E+03</rscale>
<asrwt>0</asrwt>
<pdfrwt beam="1">  1        4 0.29391948E-02 0.12500394E+03</pdfrwt>
<pdfrwt beam="2">  1       -4 0.31458086E-01 0.12500394E+03</pdfrwt>
<totfact> 0.86297065E+03</totfact>
</mgrwt>
</event>
<event>
 5    1  0.3401591E-002  0.1250074E+03  0.7818608E-02  0.1235058E+00
          4   -1    0    0  501    0  0.00000000000E+00  0.00000000000E+00  0.15133466797E+02  0.15186662481E+02  0.12700000000E+01 0. -1.
         -4   -1    0    0    0  501 -0.00000000000E+00 -0.00000000000E+00 -0.25764281781E+03  0.25764594790E+03  0.12700000000E+01 0. -1.
         25    2    1    2    0    0  0.00000000000E+00  0.00000000000E+00 -0.24250935101E+03  0.27283261038E+03  0.12500739161E+03 0.  0.
    9000005    1    3    3    0    0 -0.84443618142E+01 -0.36722483594E+02 -0.12437045665E+02  0.39692923206E+02  0.10000000000E+01 0.  0.
    9000005    1    3    3    0    0  0.84443618142E+01  0.36722483594E+02 -0.23007230535E+03  0.23313968717E+03  0.10000000000E+01 0.  0.
<mgrwt>
<rscale>  0 0.12500739E+03</rscale>
<asrwt>0</asrwt>
<pdfrwt beam="1">  1        4 0.23325586E-02 0.12500739E+03</pdfrwt>
<pdfrwt beam="2">  1       -4 0.39641686E-01 0.12500739E+03</pdfrwt>
<totfact> 0.79125143E+03</totfact>
</mgrwt>
</event>
<event>
 5    1  0.3401591E-002  0.1250075E+03  0.7818608E-02  0.1235058E+00
          4   -1    0    0  501    0  0.00000000000E+00  0.00000000000E+00  0.12786480165E+02  0.12849395901E+02  0.12700000000E+01 0. -1.
         -4   -1    0    0    0  501 -0.00000000000E+00 -0.00000000000E+00 -0.30472084651E+03  0.30472349301E+03  0.12700000000E+01 0. -1.
         25    2    1    2    0    0  0.00000000000E+00  0.00000000000E+00 -0.29193436634E+03  0.31757288892E+03  0.12500746187E+03 0.  0.
    9000005    1    3    3    0    0  0.19612326313E+02  0.35918810688E+02 -0.25976173005E+02  0.48482634713E+02  0.10000000000E+01 0.  0.
    9000005    1    3    3    0    0 -0.19612326313E+02 -0.35918810688E+02 -0.26595819334E+03  0.26909025420E+03  0.10000000000E+01 0.  0.
<mgrwt>
<rscale>  0 0.12500746E+03</rscale>
<asrwt>0</asrwt>
<pdfrwt beam="1">  1        4 0.19721943E-02 0.12500746E+03</pdfrwt>
<pdfrwt beam="2">  1       -4 0.46885168E-01 0.12500746E+03</pdfrwt>
<totfact> 0.73433584E+03</totfact>
</mgrwt>
</event>
<event>
 5    1  0.3401591E-002  0.1249947E+03  0.7818608E-02  0.1235078E+00
         -4   -1    0    0    0  501 -0.00000000000E+00  0.00000000000E+00  0.22650681113E+02  0.22686256961E+02  0.12700000000E+01 0. -1.
          4   -1    0    0  501    0  0.00000000000E+00 -0.00000000000E+00 -0.17226841348E+03  0.17227309478E+03  0.12700000000E+01 0. -1.
         25    2    1    2    0    0  0.00000000000E+00  0.00000000000E+00 -0.14961773237E+03  0.19495935174E+03  0.12499473185E+03 0.  0.
    9000005    1    3    3    0    0  0.46156556001E+02  0.25709832760E+02 -0.22761710279E+02  0.57537106438E+02  0.10000000000E+01 0.  0.
    9000005    1    3    3    0    0 -0.46156556001E+02 -0.25709832760E+02 -0.12685602209E+03  0.13742224530E+03  0.10000000000E+01 0.  0.
<mgrwt>
<rscale>  0 0.12499473E+03</rscale>
<asrwt>0</asrwt>
<pdfrwt beam="2">  1        4 0.26505929E-01 0.12499473E+03</pdfrwt>
<pdfrwt beam="1">  1       -4 0.34878170E-02 0.12499473E+03</pdfrwt>
<totfact> 0.91002226E+03</totfact>
</mgrwt>
</event>
<event>
 5    1  0.3401591E-002  0.1249959E+03  0.7818608E-02  0.1235076E+00
         -4   -1    0    0    0  501 -0.00000000000E+00  0.00000000000E+00  0.40593882225E+02  0.40613743660E+02  0.12700000000E+01 0. -1.
          4   -1    0    0  501    0  0.00000000000E+00 -0.00000000000E+00 -0.96173674190E+02  0.96182059175E+02  0.12700000000E+01 0. -1.
         25    2    1    2    0    0  0.00000000000E+00  0.00000000000E+00 -0.55579791965E+02  0.13679580283E+03  0.12499591353E+03 0.  0.
    9000005    1    3    3    0    0  0.35136497464E+02  0.27675390028E+01 -0.84263190296E+02  0.91342859409E+02  0.10000000000E+01 0.  0.
    9000005    1    3    3    0    0 -0.35136497464E+02 -0.27675390028E+01  0.28683398331E+02  0.45452943425E+02  0.10000000000E+01 0.  0.
<mgrwt>
<rscale>  0 0.12499591E+03</rscale>
<asrwt>0</asrwt>
<pdfrwt beam="2">  1        4 0.14798123E-01 0.12499591E+03</pdfrwt>
<pdfrwt beam="1">  1       -4 0.62473855E-02 0.12499591E+03</pdfrwt>
<totfact> 0.10201297E+04</totfact>
</mgrwt>
</event>
<event>
 5    1  0.3401591E-002  0.1249999E+03  0.7818608E-02  0.1235069E+00
          4   -1    0    0  501    0  0.00000000000E+00  0.00000000000E+00  0.32441249643E+03  0.32441498230E+03  0.12700000000E+01 0. -1.
         -4   -1    0    0    0  501 -0.00000000000E+00 -0.00000000000E+00 -0.12004945251E+02  0.12071934828E+02  0.12700000000E+01 0. -1.
         25    2    1    2    0    0  0.00000000000E+00  0.00000000000E+00  0.31240755118E+03  0.33648691713E+03  0.12499986946E+03 0.  0.
    9000005    1    3    3    0    0  0.53829781930E+02 -0.13087794503E+02  0.78356889748E+02  0.95967379658E+02  0.10000000000E+01 0.  0.
    9000005    1    3    3    0    0 -0.53829781930E+02  0.13087794503E+02  0.23405066143E+03  0.24051953747E+03  0.10000000000E+01 0.  0.
<mgrwt>
<rscale>  0 0.12499987E+03</rscale>
<asrwt>0</asrwt>
<pdfrwt beam="1">  1        4 0.49914963E-01 0.12499987E+03</pdfrwt>
<pdfrwt beam="2">  1       -4 0.18522588E-02 0.12499987E+03</pdfrwt>
<totfact> 0.71237400E+03</totfact>
</mgrwt>
</event>
<event>
 5    1  0.3401591E-002  0.1250011E+03  0.7818608E-02  0.1235068E+00
         -4   -1    0    0    0  501 -0.00000000000E+00  0.00000000000E+00  0.85154091870E+01  0.86095931160E+01  0.12700000000E+01 0. -1.
          4   -1    0    0  501    0  0.00000000000E+00 -0.00000000000E+00 -0.45611733576E+03  0.45611910383E+03  0.12700000000E+01 0. -1.
         25    2    1    2    0    0  0.00000000000E+00  0.00000000000E+00 -0.44760192657E+03  0.46472869695E+03  0.12500110838E+03 0.  0.
    9000005    1    3    3    0    0 -0.28739619953E+02 -0.48227147150E+02 -0.32585402627E+03  0.33065642276E+03  0.10000000000E+01 0.  0.
    9000005    1    3    3    0    0  0.28739619953E+02  0.48227147150E+02 -0.12174790030E+03  0.13407227418E+03  0.10000000000E+01 0.  0.
<mgrwt>
<rscale>  0 0.12500111E+03</rscale>
<asrwt>0</asrwt>
<pdfrwt beam="2">  1        4 0.70179260E-01 0.12500111E+03</pdfrwt>
<pdfrwt beam="1">  1       -4 0.13174442E-02 0.12500111E+03</pdfrwt>
<totfact> 0.58707328E+03</totfact>
</mgrwt>
</event>
<event>
 5    1  0.3401591E-002  0.1249960E+03  0.7818608E-02  0.1235076E+00
          4   -1    0    0  501    0  0.00000000000E+00  0.00000000000E+00  0.50487440366E+02  0.50503411119E+02  0.12700000000E+01 0.  1.
         -4   -1    0    0    0  501 -0.00000000000E+00 -0.00000000000E+00 -0.77332298777E+02  0.77342726447E+02  0.12700000000E+01 0.  1.
         25    2    1    2    0    0  0.00000000000E+00  0.00000000000E+00 -0.26844858412E+02  0.12784613757E+03  0.12499595380E+03 0.  0.
    9000005    1    3    3    0    0  0.13018217999E+02 -0.41242676804E+01  0.48947656405E+02  0.50826731661E+02  0.10000000000E+01 0.  0.
    9000005    1    3    3    0    0 -0.13018217999E+02  0.41242676804E+01 -0.75792514817E+02  0.77019405905E+02  0.10000000000E+01 0.  0.
<mgrwt>
<rscale>  0 0.12499595E+03</rscale>
<asrwt>0</asrwt>
<pdfrwt beam="1">  1        4 0.77693292E-02 0.12499595E+03</pdfrwt>
<pdfrwt beam="2">  1       -4 0.11899307E-01 0.12499595E+03</pdfrwt>
<totfact> 0.10391761E+04</totfact>
</mgrwt>
</event>
<event>
 5    1  0.3401591E-002  0.1249953E+03  0.7818608E-02  0.1235077E+00
          4   -1    0    0  501    0  0.00000000000E+00  0.00000000000E+00  0.71206038311E+02  0.71217362995E+02  0.12700000000E+01 0. -1.
         -4   -1    0    0    0  501 -0.00000000000E+00 -0.00000000000E+00 -0.54831276415E+02  0.54845982289E+02  0.12700000000E+01 0. -1.
         25    2    1    2    0    0  0.00000000000E+00  0.00000000000E+00  0.16374761896E+02  0.12606334528E+03  0.12499533670E+03 0.  0.
    9000005    1    3    3    0    0 -0.39958246351E+02 -0.80340206949E+01  0.55960368963E+02  0.69237055357E+02  0.10000000000E+01 0.  0.
    9000005    1    3    3    0    0  0.39958246351E+02  0.80340206949E+01 -0.39585607067E+02  0.56826289927E+02  0.10000000000E+01 0.  0.
<mgrwt>
<rscale>  0 0.12499534E+03</rscale>
<asrwt>0</asrwt>
<pdfrwt beam="1">  1        4 0.10956777E-01 0.12499534E+03</pdfrwt>
<pdfrwt beam="2">  1       -4 0.84375833E-02 0.12499534E+03</pdfrwt>
<totfact> 0.10430667E+04</totfact>
</mgrwt>
</event>
<event>
 5    1  0.3401591E-002  0.1250008E+03  0.7818608E-02  0.1235068E+00
         -4   -1    0    0    0  501 -0.00000000000E+00  0.00000000000E+00  0.19737854614E+02  0.19778670449E+02  0.12700000000E+01 0. -1.
          4   -1    0    0  501    0  0.00000000000E+00 -0.00000000000E+00 -0.19766189136E+03  0.19766597127E+03  0.12700000000E+01 0. -1.
         25    2    1    2    0    0  0.00000000000E+00  0.00000000000E+00 -0.17792403675E+03  0.21744464171E+03  0.12500083743E+03 0.  0.
    9000005    1    3    3    0    0  0.17792431636E+02  0.57148192402E+02 -0.12021656427E+03  0.13429634710E+03  0.10000000000E+01 0.  0.
    9000005    1    3    3    0    0 -0.17792431636E+02 -0.57148192402E+02 -0.57707472477E+02  0.83148294619E+02  0.10000000000E+01 0.  0.
<mgrwt>
<rscale>  0 0.12500084E+03</rscale>
<asrwt>0</asrwt>
<pdfrwt beam="2">  1        4 0.30412974E-01 0.12500084E+03</pdfrwt>
<pdfrwt beam="1">  1       -4 0.30400467E-02 0.12500084E+03</pdfrwt>
<totfact> 0.87272691E+03</totfact>
</mgrwt>
</event>
<event>
 5    1  0.3401591E-002  0.1250026E+03  0.7818608E-02  0.1235065E+00
         -4   -1    0    0    0  501 -0.00000000000E+00  0.00000000000E+00  0.81792293756E+03  0.81792392354E+03  0.12700000000E+01 0. -1.
          4   -1    0    0  501    0  0.00000000000E+00 -0.00000000000E+00 -0.46905791191E+01  0.48594683323E+01  0.12700000000E+01 0. -1.
         25    2    1    2    0    0  0.00000000000E+00  0.00000000000E+00  0.81323235844E+03  0.82278339187E+03  0.12500256443E+03 0.  0.
    9000005    1    3    3    0    0  0.57016279697E+02 -0.25492014039E+02  0.39232924016E+03  0.39727060251E+03  0.10000000000E+01 0.  0.
    9000005    1    3    3    0    0 -0.57016279697E+02  0.25492014039E+02  0.42090311828E+03  0.42551278936E+03  0.10000000000E+01 0.  0.
<mgrwt>
<rscale>  0 0.12500256E+03</rscale>
<asrwt>0</asrwt>
<pdfrwt beam="2">  1        4 0.73469535E-03 0.12500256E+03</pdfrwt>
<pdfrwt beam="1">  1       -4 0.12584728E+00 0.12500256E+03</pdfrwt>
<totfact> 0.37265564E+03</totfact>
</mgrwt>
</event>
<event>
 5    1  0.3401591E-002  0.1250063E+03  0.7818608E-02  0.1235059E+00
         -4   -1    0    0    0  501 -0.00000000000E+00  0.00000000000E+00  0.69237571173E+01  0.70392693243E+01  0.12700000000E+01 0. -1.
          4   -1    0    0  501    0  0.00000000000E+00 -0.00000000000E+00 -0.55945378251E+03  0.55945522400E+03  0.12700000000E+01 0. -1.
         25    2    1    2    0    0  0.00000000000E+00  0.00000000000E+00 -0.55253002539E+03  0.56649449332E+03  0.12500632788E+03 0.  0.
    9000005    1    3    3    0    0 -0.41070775811E+02 -0.23624686798E+02 -0.46094112889E+03  0.46337097314E+03  0.10000000000E+01 0.  0.
    9000005    1    3    3    0    0  0.41070775811E+02  0.23624686798E+02 -0.91588896502E+02  0.10312352018E+03  0.10000000000E+01 0.  0.
<mgrwt>
<rscale>  0 0.12500633E+03</rscale>
<asrwt>0</asrwt>
<pdfrwt beam="2">  1        4 0.86078774E-01 0.12500633E+03</pdfrwt>
<pdfrwt beam="1">  1       -4 0.10741903E-02 0.12500633E+03</pdfrwt>
<totfact> 0.51046186E+03</totfact>
</mgrwt>
</event>
<event>
 5    1  0.3401591E-002  0.1249999E+03  0.7818608E-02  0.1235069E+00
         -4   -1    0    0    0  501 -0.00000000000E+00  0.00000000000E+00  0.16110622516E+03  0.16111123078E+03  0.12700000000E+01 0. -1.
          4   -1    0    0  501    0  0.00000000000E+00 -0.00000000000E+00 -0.24224385467E+02  0.24257653457E+02  0.12700000000E+01 0. -1.
         25    2    1    2    0    0  0.00000000000E+00  0.00000000000E+00  0.13688183969E+03  0.18536888424E+03  0.12499994083E+03 0.  0.
    9000005    1    3    3    0    0  0.57907769737E+02  0.28621697705E+01  0.10302087797E+03  0.11821930092E+03  0.10000000000E+01 0.  0.
    9000005    1    3    3    0    0 -0.57907769737E+02 -0.28621697705E+01  0.33860961722E+02  0.67149583323E+02  0.10000000000E+01 0.  0.
<mgrwt>
<rscale>  0 0.12499994E+03</rscale>
<asrwt>0</asrwt>
<pdfrwt beam="2">  1        4 0.37297727E-02 0.12499994E+03</pdfrwt>
<pdfrwt beam="1">  1       -4 0.24788517E-01 0.12499994E+03</pdfrwt>
<totfact> 0.92659539E+03</totfact>
</mgrwt>
</event>
<event>
 5    1  0.3401591E-002  0.1249997E+03  0.7818608E-02  0.1235070E+00
          4   -1    0    0  501    0  0.00000000000E+00  0.00000000000E+00  0.28064505536E+03  0.28064792891E+03  0.12700000000E+01 0. -1.
         -4   -1    0    0    0  501 -0.00000000000E+00 -0.00000000000E+00 -0.13886849956E+02  0.13944801960E+02  0.12700000000E+01 0. -1.
         25    2    1    2    0    0  0.00000000000E+00  0.00000000000E+00  0.26675820541E+03  0.29459273087E+03  0.12499974771E+03 0.  0.
    9000005    1    3    3    0    0 -0.44530213200E+02 -0.26846536702E+02  0.51686031118E+02  0.73322044661E+02  0.10000000000E+01 0.  0.
    9000005    1    3    3    0    0  0.44530213200E+02  0.26846536702E+02  0.21507217429E+03  0.22127068621E+03  0.10000000000E+01 0.  0.
<mgrwt>
<rscale>  0 0.12499975E+03</rscale>
<asrwt>0</asrwt>
<pdfrwt beam="1">  1        4 0.43180838E-01 0.12499975E+03</pdfrwt>
<pdfrwt beam="2">  1       -4 0.21411175E-02 0.12499975E+03</pdfrwt>
<totfact> 0.76282590E+03</totfact>
</mgrwt>
</event>
<event>
 5    1  0.3401591E-002  0.1249966E+03  0.7818608E-02  0.1235075E+00
         -4   -1    0    0    0  501 -0.00000000000E+00  0.00000000000E+00  0.11292610537E+02  0.11363800101E+02  0.12700000000E+01 0. -1.
          4   -1    0    0  501    0  0.00000000000E+00 -0.00000000000E+00 -0.34473386479E+03  0.34473620412E+03  0.12700000000E+01 0. -1.
         25    2    1    2    0    0  0.00000000000E+00  0.00000000000E+00 -0.33344125425E+03  0.35610000422E+03  0.12499657183E+03 0.  0.
    9000005    1    3    3    0    0  0.57051682486E+02 -0.12236045658E+02 -0.10299099622E+03  0.11837550671E+03  0.10000000000E+01 0.  0.
    9000005    1    3    3    0    0 -0.57051682486E+02  0.12236045658E+02 -0.23045025803E+03  0.23772449751E+03  0.10000000000E+01 0.  0.
<mgrwt>
<rscale>  0 0.12499657E+03</rscale>
<asrwt>0</asrwt>
<pdfrwt beam="2">  1        4 0.53041627E-01 0.12499657E+03</pdfrwt>
<pdfrwt beam="1">  1       -4 0.17429810E-02 0.12499657E+03</pdfrwt>
<totfact> 0.69063895E+03</totfact>
</mgrwt>
</event>
<event>
 5    1  0.3401591E-002  0.1250009E+03  0.7818608E-02  0.1235068E+00
         -4   -1    0    0    0  501 -0.00000000000E+00  0.00000000000E+00  0.37073498744E+02  0.37095245101E+02  0.12700000000E+01 0.  1.
          4   -1    0    0  501    0  0.00000000000E+00 -0.00000000000E+00 -0.10531001845E+03  0.10531767604E+03  0.12700000000E+01 0.  1.
         25    2    1    2    0    0  0.00000000000E+00  0.00000000000E+00 -0.68236519707E+02  0.14241292114E+03  0.12500086994E+03 0.  0.
    9000005    1    3    3    0    0  0.37144121042E+02  0.43010689348E+02 -0.45031685369E+01  0.57016520878E+02  0.10000000000E+01 0.  0.
    9000005    1    3    3    0    0 -0.37144121042E+02 -0.43010689348E+02 -0.63733351170E+02  0.85396400261E+02  0.10000000000E+01 0.  0.
<mgrwt>
<rscale>  0 0.12500087E+03</rscale>
<asrwt>0</asrwt>
<pdfrwt beam="2">  1        4 0.16203803E-01 0.12500087E+03</pdfrwt>
<pdfrwt beam="1">  1       -4 0.57058771E-02 0.12500087E+03</pdfrwt>
<totfact> 0.10083622E+04</totfact>
</mgrwt>
</event>
<event>
 5    1  0.3401591E-002  0.1249995E+03  0.7818608E-02  0.1235070E+00
          4   -1    0    0  501    0  0.00000000000E+00  0.00000000000E+00  0.35672158693E+01  0.37865457951E+01  0.12700000000E+01 0. -1.
         -4   -1    0    0    0  501 -0.00000000000E+00 -0.00000000000E+00 -0.10621526695E+04  0.10621534287E+04  0.12700000000E+01 0. -1.
         25    2    1    2    0    0  0.00000000000E+00  0.00000000000E+00 -0.10585854536E+04  0.10659399745E+04  0.12499946686E+03 0.  0.
    9000005    1    3    3    0    0  0.44655084715E+02 -0.37267255547E+02 -0.72417896480E+03  0.72651159522E+03  0.10000000000E+01 0.  0.
    9000005    1    3    3    0    0 -0.44655084715E+02  0.37267255547E+02 -0.33440648879E+03  0.33942837930E+03  0.10000000000E+01 0.  0.
<mgrwt>
<rscale>  0 0.12499947E+03</rscale>
<asrwt>0</asrwt>
<pdfrwt beam="1">  1        4 0.56573323E-03 0.12499947E+03</pdfrwt>
<pdfrwt beam="2">  1       -4 0.16342479E+00 0.12499947E+03</pdfrwt>
<totfact> 0.28502616E+03</totfact>
</mgrwt>
</event>
<event>
 5    1  0.3401591E-002  0.1250035E+03  0.7818608E-02  0.1235064E+00
          4   -1    0    0  501    0  0.00000000000E+00  0.00000000000E+00  0.46962952736E+02  0.46980121644E+02  0.12700000000E+01 0.  1.
         -4   -1    0    0    0  501 -0.00000000000E+00 -0.00000000000E+00 -0.83144667986E+02  0.83154366779E+02  0.12700000000E+01 0.  1.
         25    2    1    2    0    0  0.00000000000E+00  0.00000000000E+00 -0.36181715250E+02  0.13013448842E+03  0.12500347419E+03 0.  0.
    9000005    1    3    3    0    0 -0.97691333131E+01  0.50967461576E+02 -0.54338866976E+02  0.75145396196E+02  0.10000000000E+01 0.  0.
    9000005    1    3    3    0    0  0.97691333131E+01 -0.50967461576E+02  0.18157151726E+02  0.54989092228E+02  0.10000000000E+01 0.  0.
<mgrwt>
<rscale>  0 0.12500347E+03</rscale>
<asrwt>0</asrwt>
<pdfrwt beam="1">  1        4 0.72271364E-02 0.12500347E+03</pdfrwt>
<pdfrwt beam="2">  1       -4 0.12793554E-01 0.12500347E+03</pdfrwt>
<totfact> 0.10340820E+04</totfact>
</mgrwt>
</event>
<event>
 5    1  0.3401591E-002  0.1249955E+03  0.7818608E-02  0.1235076E+00
          4   -1    0    0  501    0  0.00000000000E+00  0.00000000000E+00  0.48560963678E+01  0.50194194817E+01  0.12700000000E+01 0.  1.
         -4   -1    0    0    0  501 -0.00000000000E+00 -0.00000000000E+00 -0.79087733831E+03  0.79087835800E+03  0.12700000000E+01 0.  1.
         25    2    1    2    0    0  0.00000000000E+00  0.00000000000E+00 -0.78602124195E+03  0.79589777749E+03  0.12499551758E+03 0.  0.
    9000005    1    3    3    0    0  0.30857703432E+02  0.53768814006E+02 -0.34300044459E+03  0.34855930372E+03  0.10000000000E+01 0.  0.
    9000005    1    3    3    0    0 -0.30857703432E+02 -0.53768814006E+02 -0.44302079735E+03  0.44733847376E+03  0.10000000000E+01 0.  0.
<mgrwt>
<rscale>  0 0.12499552E+03</rscale>
<asrwt>0</asrwt>
<pdfrwt beam="1">  1        4 0.75973413E-03 0.12499552E+03</pdfrwt>
<pdfrwt beam="2">  1       -4 0.12168598E+00 0.12499552E+03</pdfrwt>
<totfact> 0.38452311E+03</totfact>
</mgrwt>
</event>
<event>
 5    1  0.3401591E-002  0.1250039E+03  0.7818608E-02  0.1235063E+00
         -4   -1    0    0    0  501 -0.00000000000E+00  0.00000000000E+00  0.10425399941E+03  0.10426173456E+03  0.12700000000E+01 0.  1.
          4   -1    0    0  501    0  0.00000000000E+00 -0.00000000000E+00 -0.37451007459E+02  0.37472534738E+02  0.12700000000E+01 0.  1.
         25    2    1    2    0    0  0.00000000000E+00  0.00000000000E+00  0.66802991953E+02  0.14173426930E+03  0.12500385338E+03 0.  0.
    9000005    1    3    3    0    0 -0.10512631302E+02  0.54932144243E+02  0.17872011496E+01  0.55966507627E+02  0.10000000000E+01 0.  0.
    9000005    1    3    3    0    0  0.10512631302E+02 -0.54932144243E+02  0.65015790803E+02  0.85767761669E+02  0.10000000000E+01 0.  0.
<mgrwt>
<rscale>  0 0.12500385E+03</rscale>
<asrwt>0</asrwt>
<pdfrwt beam="2">  1        4 0.57639446E-02 0.12500385E+03</pdfrwt>
<pdfrwt beam="1">  1       -4 0.16041327E-01 0.12500385E+03</pdfrwt>
<totfact> 0.10096891E+04</totfact>
</mgrwt>
</event>
<event>
 5    1  0.3401591E-002  0.1249978E+03  0.7818608E-02  0.1235073E+00
         -4   -1    0    0    0  501 -0.00000000000E+00  0.00000000000E+00  0.18899387291E+03  0.18899813993E+03  0.12700000000E+01 0.  1.
          4   -1    0    0  501    0  0.00000000000E+00 -0.00000000000E+00 -0.20643930816E+02  0.20682958674E+02  0.12700000000E+01 0.  1.
         25    2    1    2    0    0  0.00000000000E+00  0.00000000000E+00  0.16834994209E+03  0.20968109860E+03  0.12499784042E+03 0.  0.
    9000005    1    3    3    0    0  0.91992472628E+01 -0.11877168877E+02 -0.17577873376E+02  0.23144652150E+02  0.10000000000E+01 0.  0.
    9000005    1    3    3    0    0 -0.91992472628E+01  0.11877168877E+02  0.18592781547E+03  0.18653644645E+03  0.10000000000E+01 0.  0.
<mgrwt>
<rscale>  0 0.12499784E+03</rscale>
<asrwt>0</asrwt>
<pdfrwt beam="2">  1        4 0.31793198E-02 0.12499784E+03</pdfrwt>
<pdfrwt beam="1">  1       -4 0.29079311E-01 0.12499784E+03</pdfrwt>
<totfact> 0.88532262E+03</totfact>
</mgrwt>
</event>
<event>
 5    1  0.3401591E-002  0.1249991E+03  0.7818608E-02  0.1235071E+00
          4   -1    0    0  501    0  0.00000000000E+00  0.00000000000E+00  0.64402856917E+01  0.65643110675E+01  0.12700000000E+01 0. -1.
         -4   -1    0    0    0  501 -0.00000000000E+00 -0.00000000000E+00 -0.60061550328E+03  0.60061684598E+03  0.12700000000E+01 0. -1.
         25    2    1    2    0    0  0.00000000000E+00  0.00000000000E+00 -0.59417521759E+03  0.60718115705E+03  0.12499907313E+03 0.  0.
    9000005    1    3    3    0    0  0.10159552578E+01 -0.78349559224E+01  0.40284233399E+01  0.89245108547E+01  0.10000000000E+01 0.  0.
    9000005    1    3    3    0    0 -0.10159552578E+01  0.78349559224E+01 -0.59820364093E+03  0.59825664620E+03  0.10000000000E+01 0.  0.
<mgrwt>
<rscale>  0 0.12499907E+03</rscale>
<asrwt>0</asrwt>
<pdfrwt beam="1">  1        4 0.10004574E-02 0.12499907E+03</pdfrwt>
<pdfrwt beam="2">  1       -4 0.92411985E-01 0.12499907E+03</pdfrwt>
<totfact> 0.48418431E+03</totfact>
</mgrwt>
</event>
<event>
 5    1  0.3401591E-002  0.1249988E+03  0.7818608E-02  0.1235071E+00
         -4   -1    0    0    0  501 -0.00000000000E+00  0.00000000000E+00  0.15949061293E+02  0.15999545497E+02  0.12700000000E+01 0. -1.
          4   -1    0    0  501    0  0.00000000000E+00 -0.00000000000E+00 -0.24447641452E+03  0.24447971318E+03  0.12700000000E+01 0. -1.
         25    2    1    2    0    0  0.00000000000E+00  0.00000000000E+00 -0.22852735323E+03  0.26047925868E+03  0.12499877211E+03 0.  0.
    9000005    1    3    3    0    0  0.28643509332E+01  0.41973811349E+02 -0.21055417120E+03  0.21471857012E+03  0.10000000000E+01 0.  0.
    9000005    1    3    3    0    0 -0.28643509332E+01 -0.41973811349E+02 -0.17973182037E+02  0.45760688565E+02  0.10000000000E+01 0.  0.
<mgrwt>
<rscale>  0 0.12499877E+03</rscale>
<asrwt>0</asrwt>
<pdfrwt beam="2">  1        4 0.37615890E-01 0.12499877E+03</pdfrwt>
<pdfrwt beam="1">  1       -4 0.24578391E-02 0.12499877E+03</pdfrwt>
<totfact> 0.80841061E+03</totfact>
</mgrwt>
</event>
<event>
 5    1  0.3401591E-002  0.1249539E+03  0.7818608E-02  0.1235141E+00
         -4   -1    0    0    0  501 -0.00000000000E+00  0.00000000000E+00  0.17894250780E+02  0.17939261717E+02  0.12700000000E+01 0. -1.
          4   -1    0    0  501    0  0.00000000000E+00 -0.00000000000E+00 -0.21781461014E+03  0.21781831257E+03  0.12700000000E+01 0. -1.
         25    2    1    2    0    0  0.00000000000E+00  0.00000000000E+00 -0.19992035936E+03  0.23575757429E+03  0.12495392650E+03 0.  0.
    9000005    1    3    3    0    0  0.54011813575E+02 -0.25523533316E+02 -0.65496827181E+02  0.88654165888E+02  0.10000000000E+01 0.  0.
    9000005    1    3    3    0    0 -0.54011813575E+02  0.25523533316E+02 -0.13442353218E+03  0.14710340840E+03  0.10000000000E+01 0.  0.
<mgrwt>
<rscale>  0 0.12495393E+03</rscale>
<asrwt>0</asrwt>
<pdfrwt beam="2">  1        4 0.33513685E-01 0.12495393E+03</pdfrwt>
<pdfrwt beam="1">  1       -4 0.27567090E-02 0.12495393E+03</pdfrwt>
<totfact> 0.84520100E+03</totfact>
</mgrwt>
</event>
<event>
 5    1  0.3401591E-002  0.1249796E+03  0.7818608E-02  0.1235101E+00
         -4   -1    0    0    0  501 -0.00000000000E+00  0.00000000000E+00  0.84566620059E+02  0.84576155790E+02  0.12700000000E+01 0. -1.
          4   -1    0    0  501    0  0.00000000000E+00 -0.00000000000E+00 -0.46155441091E+02  0.46172910265E+02  0.12700000000E+01 0. -1.
         25    2    1    2    0    0  0.00000000000E+00  0.00000000000E+00  0.38411178968E+02  0.13074906605E+03  0.12497959675E+03 0.  0.
    9000005    1    3    3    0    0  0.60219443817E+02  0.10134002859E+02  0.33040895234E+02  0.69439039347E+02  0.10000000000E+01 0.  0.
    9000005    1    3    3    0    0 -0.60219443817E+02 -0.10134002859E+02  0.53702837339E+01  0.61310026708E+02  0.10000000000E+01 0.  0.
<mgrwt>
<rscale>  0 0.12497960E+03</rscale>
<asrwt>0</asrwt>
<pdfrwt beam="2">  1        4 0.71029144E-02 0.12497960E+03</pdfrwt>
<pdfrwt beam="1">  1       -4 0.13012326E-01 0.12497960E+03</pdfrwt>
<totfact> 0.10333228E+04</totfact>
</mgrwt>
</event>
<event>
 5    1  0.3401591E-002  0.1249959E+03  0.7818608E-02  0.1235076E+00
         -4   -1    0    0    0  501 -0.00000000000E+00  0.00000000000E+00  0.73234392191E+01  0.74327425622E+01  0.12700000000E+01 0. -1.
          4   -1    0    0  501    0  0.00000000000E+00 -0.00000000000E+00 -0.52929462425E+03  0.52929614788E+03  0.12700000000E+01 0. -1.
         25    2    1    2    0    0  0.00000000000E+00  0.00000000000E+00 -0.52197118503E+03  0.53672889044E+03  0.12499593526E+03 0.  0.
    9000005    1    3    3    0    0 -0.56675456319E+02  0.21777015363E+02 -0.19749139590E+03  0.20661606230E+03  0.10000000000E+01 0.  0.
    9000005    1    3    3    0    0  0.56675456319E+02 -0.21777015363E+02 -0.32447978913E+03  0.33011282814E+03  0.10000000000E+01 0.  0.
<mgrwt>
<rscale>  0 0.12499594E+03</rscale>
<asrwt>0</asrwt>
<pdfrwt beam="2">  1        4 0.81438438E-01 0.12499594E+03</pdfrwt>
<pdfrwt beam="1">  1       -4 0.11352085E-02 0.12499594E+03</pdfrwt>
<totfact> 0.53127927E+03</totfact>
</mgrwt>
</event>
<event>
 5    1  0.3401591E-002  0.1249982E+03  0.7818608E-02  0.1235072E+00
          4   -1    0    0  501    0  0.00000000000E+00  0.00000000000E+00  0.26164458389E+04  0.26164461472E+04  0.12700000000E+01 0.  1.
         -4   -1    0    0    0  501 -0.00000000000E+00 -0.00000000000E+00 -0.12224624746E+01  0.17627576412E+01  0.12700000000E+01 0.  1.
         25    2    1    2    0    0  0.00000000000E+00  0.00000000000E+00  0.26152233765E+04  0.26182089048E+04  0.12499824154E+03 0.  0.
    9000005    1    3    3    0    0 -0.11459540628E+02 -0.58165665622E+02  0.17215658580E+04  0.17225865926E+04  0.10000000000E+01 0.  0.
    9000005    1    3    3    0    0  0.11459540628E+02  0.58165665622E+02  0.89365751846E+03  0.89562231216E+03  0.10000000000E+01 0.  0.
<mgrwt>
<rscale>  0 0.12499824E+03</rscale>
<asrwt>0</asrwt>
<pdfrwt beam="1">  1        4 0.40256717E+00 0.12499824E+03</pdfrwt>
<pdfrwt beam="2">  1       -4 0.22965862E-03 0.12499824E+03</pdfrwt>
<totfact> 0.38061472E+02</totfact>
</mgrwt>
</event>
<event>
 5    1  0.3401591E-002  0.1249952E+03  0.7818608E-02  0.1235077E+00
          4   -1    0    0  501    0  0.00000000000E+00  0.00000000000E+00  0.56490120288E+01  0.57900118222E+01  0.12700000000E+01 0. -1.
         -4   -1    0    0    0  501 -0.00000000000E+00 -0.00000000000E+00 -0.68277506409E+03  0.68277624522E+03  0.12700000000E+01 0. -1.
         25    2    1    2    0    0  0.00000000000E+00  0.00000000000E+00 -0.67712605206E+03  0.68856625705E+03  0.12499519976E+03 0.  0.
    9000005    1    3    3    0    0 -0.49280065395E+02  0.20999290309E+02 -0.51582598978E+03  0.51860095138E+03  0.10000000000E+01 0.  0.
    9000005    1    3    3    0    0  0.49280065395E+02 -0.20999290309E+02 -0.16130006228E+03  0.16996530567E+03  0.10000000000E+01 0.  0.
<mgrwt>
<rscale>  0 0.12499520E+03</rscale>
<asrwt>0</asrwt>
<pdfrwt beam="1">  1        4 0.88001631E-03 0.12499520E+03</pdfrwt>
<pdfrwt beam="2">  1       -4 0.10505319E+00 0.12499520E+03</pdfrwt>
<totfact> 0.43701787E+03</totfact>
</mgrwt>
</event>
<event>
 5    1  0.3401591E-002  0.1250043E+03  0.7818608E-02  0.1235063E+00
          4   -1    0    0  501    0  0.00000000000E+00  0.00000000000E+00  0.66917768998E+02  0.66929819271E+02  0.12700000000E+01 0. -1.
         -4   -1    0    0    0  501 -0.00000000000E+00 -0.00000000000E+00 -0.58353707178E+02  0.58367525572E+02  0.12700000000E+01 0. -1.
         25    2    1    2    0    0  0.00000000000E+00  0.00000000000E+00  0.85640618200E+01  0.12529734484E+03  0.12500432580E+03 0.  0.
    9000005    1    3    3    0    0  0.57458320908E+02 -0.24565858102E+02  0.50456182008E+01  0.62700863542E+02  0.10000000000E+01 0.  0.
    9000005    1    3    3    0    0 -0.57458320908E+02  0.24565858102E+02  0.35184436191E+01  0.62596481301E+02  0.10000000000E+01 0.  0.
<mgrwt>
<rscale>  0 0.12500433E+03</rscale>
<asrwt>0</asrwt>
<pdfrwt beam="1">  1        4 0.10297031E-01 0.12500433E+03</pdfrwt>
<pdfrwt beam="2">  1       -4 0.89794832E-02 0.12500433E+03</pdfrwt>
<totfact> 0.10445386E+04</totfact>
</mgrwt>
</event>
<event>
 5    1  0.3401591E-002  0.1249997E+03  0.7818608E-02  0.1235070E+00
         -4   -1    0    0    0  501 -0.00000000000E+00  0.00000000000E+00  0.17462920258E+03  0.17463382059E+03  0.12700000000E+01 0.  1.
          4   -1    0    0  501    0  0.00000000000E+00 -0.00000000000E+00 -0.22345755462E+02  0.22381815994E+02  0.12700000000E+01 0.  1.
         25    2    1    2    0    0  0.00000000000E+00  0.00000000000E+00  0.15228344712E+03  0.19701563659E+03  0.12499965117E+03 0.  0.
    9000005    1    3    3    0    0 -0.14723905890E+02  0.24401917862E+02 -0.11514051714E+02  0.30754192996E+02  0.10000000000E+01 0.  0.
    9000005    1    3    3    0    0  0.14723905890E+02 -0.24401917862E+02  0.16379749883E+03  0.16626144359E+03  0.10000000000E+01 0.  0.
<mgrwt>
<rscale>  0 0.12499965E+03</rscale>
<asrwt>0</asrwt>
<pdfrwt beam="2">  1        4 0.34409376E-02 0.12499965E+03</pdfrwt>
<pdfrwt beam="1">  1       -4 0.26869161E-01 0.12499965E+03</pdfrwt>
<totfact> 0.90641449E+03</totfact>
</mgrwt>
</event>
<event>
 5    1  0.3401591E-002  0.1250002E+03  0.7818608E-02  0.1235069E+00
          4   -1    0    0  501    0  0.00000000000E+00  0.00000000000E+00  0.16690319197E+04  0.16690324029E+04  0.12700000000E+01 0. -1.
         -4   -1    0    0    0  501 -0.00000000000E+00 -0.00000000000E+00 -0.21676319711E+01  0.25122755347E+01  0.12700000000E+01 0. -1.
         25    2    1    2    0    0  0.00000000000E+00  0.00000000000E+00  0.16668642877E+04  0.16715446784E+04  0.12500023298E+03 0.  0.
    9000005    1    3    3    0    0  0.55864471386E+02 -0.99327919273E+01  0.11836149658E+04  0.11849746355E+04  0.10000000000E+01 0.  0.
    9000005    1    3    3    0    0 -0.55864471386E+02  0.99327919273E+01  0.48324932190E+03  0.48657004289E+03  0.10000000000E+01 0.  0.
<mgrwt>
<rscale>  0 0.12500023E+03</rscale>
<asrwt>0</asrwt>
<pdfrwt beam="1">  1        4 0.25680003E+00 0.12500023E+03</pdfrwt>
<pdfrwt beam="2">  1       -4 0.36003097E-03 0.12500023E+03</pdfrwt>
<totfact> 0.14788224E+03</totfact>
</mgrwt>
</event>
<event>
 5    1  0.3401591E-002  0.1250014E+03  0.7818608E-02  0.1235067E+00
         -4   -1    0    0    0  501 -0.00000000000E+00  0.00000000000E+00  0.75057470160E+01  0.76124331372E+01  0.12700000000E+01 0. -1.
          4   -1    0    0  501    0  0.00000000000E+00 -0.00000000000E+00 -0.51666638921E+03  0.51666795008E+03  0.12700000000E+01 0. -1.
         25    2    1    2    0    0  0.00000000000E+00  0.00000000000E+00 -0.50916064219E+03  0.52428038322E+03  0.12500144266E+03 0.  0.
    9000005    1    3    3    0    0 -0.94542348718E+01  0.11070886689E+02 -0.50947533981E+03  0.50968428361E+03  0.10000000000E+01 0.  0.
    9000005    1    3    3    0    0  0.94542348718E+01 -0.11070886689E+02  0.31469761287E+00  0.14596099605E+02  0.10000000000E+01 0.  0.
<mgrwt>
<rscale>  0 0.12500144E+03</rscale>
<asrwt>0</asrwt>
<pdfrwt beam="2">  1        4 0.79495436E-01 0.12500144E+03</pdfrwt>
<pdfrwt beam="1">  1       -4 0.11630574E-02 0.12500144E+03</pdfrwt>
<totfact> 0.54026820E+03</totfact>
</mgrwt>
</event>
<event>
 5    1  0.3401591E-002  0.1249986E+03  0.7818608E-02  0.1235071E+00
         -4   -1    0    0    0  501 -0.00000000000E+00  0.00000000000E+00  0.64918636712E+02  0.64931057997E+02  0.12700000000E+01 0. -1.
          4   -1    0    0  501    0  0.00000000000E+00 -0.00000000000E+00 -0.60145283109E+02  0.60158689981E+02  0.12700000000E+01 0. -1.
         25    2    1    2    0    0  0.00000000000E+00  0.00000000000E+00  0.47733536034E+01  0.12508974798E+03  0.12499864057E+03 0.  0.
    9000005    1    3    3    0    0 -0.44641436566E+01 -0.15496509491E+02  0.62805301143E+02  0.64850414314E+02  0.10000000000E+01 0.  0.
    9000005    1    3    3    0    0  0.44641436566E+01  0.15496509491E+02 -0.58031947540E+02  0.60239333664E+02  0.10000000000E+01 0.  0.
<mgrwt>
<rscale>  0 0.12499864E+03</rscale>
<asrwt>0</asrwt>
<pdfrwt beam="2">  1        4 0.92551072E-02 0.12499864E+03</pdfrwt>
<pdfrwt beam="1">  1       -4 0.99894694E-02 0.12499864E+03</pdfrwt>
<totfact> 0.10451235E+04</totfact>
</mgrwt>
</event>
<event>
 5    1  0.3401591E-002  0.1249999E+03  0.7818608E-02  0.1235069E+00
         -4   -1    0    0    0  501 -0.00000000000E+00  0.00000000000E+00  0.87117154701E+00  0.15400778761E+01  0.12700000000E+01 0.  1.
          4   -1    0    0  501    0  0.00000000000E+00 -0.00000000000E+00 -0.32393483269E+04  0.32393485759E+04  0.12700000000E+01 0.  1.
         25    2    1    2    0    0  0.00000000000E+00  0.00000000000E+00 -0.32384771554E+04  0.32408886537E+04  0.12499992054E+03 0.  0.
    9000005    1    3    3    0    0 -0.50836492241E+02 -0.26105477856E+02 -0.96363588454E+03  0.96532945821E+03  0.10000000000E+01 0.  0.
    9000005    1    3    3    0    0  0.50836492241E+02  0.26105477856E+02 -0.22748412708E+04  0.22755591955E+04  0.10000000000E+01 0.  0.
<mgrwt>
<rscale>  0 0.12499992E+03</rscale>
<asrwt>0</asrwt>
<pdfrwt beam="2">  1        4 0.49840579E+00 0.12499992E+03</pdfrwt>
<pdfrwt beam="1">  1       -4 0.18550247E-03 0.12499992E+03</pdfrwt>
<totfact> 0.10721912E+02</totfact>
</mgrwt>
</event>
<event>
 5    1  0.3401591E-002  0.1249879E+03  0.7818608E-02  0.1235088E+00
         -4   -1    0    0    0  501 -0.00000000000E+00  0.00000000000E+00  0.73629207794E+02  0.73640159834E+02  0.12700000000E+01 0. -1.
          4   -1    0    0  501    0  0.00000000000E+00 -0.00000000000E+00 -0.53020240019E+02  0.53035448067E+02  0.12700000000E+01 0. -1.
         25    2    1    2    0    0  0.00000000000E+00  0.00000000000E+00  0.20608967776E+02  0.12667560790E+03  0.12498791975E+03 0.  0.
    9000005    1    3    3    0    0  0.43565662841E+02  0.79666906390E+01  0.54979842756E+02  0.70606077982E+02  0.10000000000E+01 0.  0.
    9000005    1    3    3    0    0 -0.43565662841E+02 -0.79666906390E+01 -0.34370874980E+02  0.56069529919E+02  0.10000000000E+01 0.  0.
<mgrwt>
<rscale>  0 0.12498792E+03</rscale>
<asrwt>0</asrwt>
<pdfrwt beam="2">  1        4 0.81589724E-02 0.12498792E+03</pdfrwt>
<pdfrwt beam="1">  1       -4 0.11329583E-01 0.12498792E+03</pdfrwt>
<totfact> 0.10419042E+04</totfact>
</mgrwt>
</event>
<event>
 5    1  0.3401591E-002  0.1249767E+03  0.7818608E-02  0.1235106E+00
         -4   -1    0    0    0  501 -0.00000000000E+00  0.00000000000E+00  0.25336966007E+02  0.25368775029E+02  0.12700000000E+01 0. -1.
          4   -1    0    0  501    0  0.00000000000E+00 -0.00000000000E+00 -0.15398327265E+03  0.15398850982E+03  0.12700000000E+01 0. -1.
         25    2    1    2    0    0  0.00000000000E+00  0.00000000000E+00 -0.12864630665E+03  0.17935728485E+03  0.12497665148E+03 0.  0.
    9000005    1    3    3    0    0 -0.67306500089E+01  0.57272728830E+02 -0.29810714854E+02  0.64924154499E+02  0.10000000000E+01 0.  0.
    9000005    1    3    3    0    0  0.67306500089E+01 -0.57272728830E+02 -0.98835591793E+02  0.11443313035E+03  0.10000000000E+01 0.  0.
<mgrwt>
<rscale>  0 0.12497665E+03</rscale>
<asrwt>0</asrwt>
<pdfrwt beam="2">  1        4 0.23692583E-01 0.12497665E+03</pdfrwt>
<pdfrwt beam="1">  1       -4 0.39008446E-02 0.12497665E+03</pdfrwt>
<totfact> 0.93781913E+03</totfact>
</mgrwt>
</event>
<event>
 5    1  0.3401591E-002  0.1249995E+03  0.7818608E-02  0.1235070E+00
          4   -1    0    0  501    0  0.00000000000E+00  0.00000000000E+00  0.41658301194E+03  0.41658494780E+03  0.12700000000E+01 0. -1.
         -4   -1    0    0    0  501 -0.00000000000E+00 -0.00000000000E+00 -0.93318369421E+01  0.94178596673E+01  0.12700000000E+01 0. -1.
         25    2    1    2    0    0  0.00000000000E+00  0.00000000000E+00  0.40725117500E+03  0.42600280747E+03  0.12499948974E+03 0.  0.
    9000005    1    3    3    0    0 -0.22979743106E+02 -0.48791997249E+02  0.96043291957E+02  0.11015462550E+03  0.10000000000E+01 0.  0.
    9000005    1    3    3    0    0  0.22979743106E+02  0.48791997249E+02  0.31120788304E+03  0.31584818197E+03  0.10000000000E+01 0.  0.
<mgrwt>
<rscale>  0 0.12499949E+03</rscale>
<asrwt>0</asrwt>
<pdfrwt beam="1">  1        4 0.64096467E-01 0.12499949E+03</pdfrwt>
<pdfrwt beam="2">  1       -4 0.14424331E-02 0.12499949E+03</pdfrwt>
<totfact> 0.62100684E+03</totfact>
</mgrwt>
</event>
<event>
 5    1  0.3401591E-002  0.1249989E+03  0.7818608E-02  0.1235071E+00
         -4   -1    0    0    0  501 -0.00000000000E+00  0.00000000000E+00  0.61545840003E+01  0.62842504896E+01  0.12700000000E+01 0. -1.
          4   -1    0    0  501    0  0.00000000000E+00 -0.00000000000E+00 -0.62793144421E+03  0.62793272850E+03  0.12700000000E+01 0. -1.
         25    2    1    2    0    0  0.00000000000E+00  0.00000000000E+00 -0.62177686021E+03  0.63421697899E+03  0.12499885021E+03 0.  0.
    9000005    1    3    3    0    0 -0.14520990338E+02 -0.15058488214E+01 -0.61918288649E+03  0.61935577310E+03  0.10000000000E+01 0.  0.
    9000005    1    3    3    0    0  0.14520990338E+02  0.15058488214E+01 -0.25939737147E+01  0.14861205897E+02  0.10000000000E+01 0.  0.
<mgrwt>
<rscale>  0 0.12499885E+03</rscale>
<asrwt>0</asrwt>
<pdfrwt beam="2">  1        4 0.96614861E-01 0.12499885E+03</pdfrwt>
<pdfrwt beam="1">  1       -4 0.95693271E-03 0.12499885E+03</pdfrwt>
<totfact> 0.46777795E+03</totfact>
</mgrwt>
</event>
<event>
 5    1  0.3401591E-002  0.1250005E+03  0.7818608E-02  0.1235069E+00
          4   -1    0    0  501    0  0.00000000000E+00  0.00000000000E+00  0.29053514465E+02  0.29081258617E+02  0.12700000000E+01 0. -1.
         -4   -1    0    0    0  501 -0.00000000000E+00 -0.00000000000E+00 -0.13435633148E+03  0.13436233366E+03  0.12700000000E+01 0. -1.
         25    2    1    2    0    0  0.00000000000E+00  0.00000000000E+00 -0.10530281701E+03  0.16344359228E+03  0.12500049835E+03 0.  0.
    9000005    1    3    3    0    0 -0.56461425204E+02 -0.20667042932E+02 -0.30374690528E+02  0.67369436871E+02  0.10000000000E+01 0.  0.
    9000005    1    3    3    0    0  0.56461425204E+02  0.20667042932E+02 -0.74928126484E+02  0.96074155411E+02  0.10000000000E+01 0.  0.
<mgrwt>
<rscale>  0 0.12500050E+03</rscale>
<asrwt>0</asrwt>
<pdfrwt beam="1">  1        4 0.44723674E-02 0.12500050E+03</pdfrwt>
<pdfrwt beam="2">  1       -4 0.20672800E-01 0.12500050E+03</pdfrwt>
<totfact> 0.96681883E+03</totfact>
</mgrwt>
</event>
<event>
 5    1  0.3401591E-002  0.1250046E+03  0.7818608E-02  0.1235062E+00
          4   -1    0    0  501    0  0.00000000000E+00  0.00000000000E+00  0.47725413640E+02  0.47742308355E+02  0.12700000000E+01 0. -1.
         -4   -1    0    0    0  501 -0.00000000000E+00 -0.00000000000E+00 -0.81818082739E+02  0.81827938769E+02  0.12700000000E+01 0. -1.
         25    2    1    2    0    0  0.00000000000E+00  0.00000000000E+00 -0.34092669099E+02  0.12957024712E+03  0.12500455533E+03 0.  0.
    9000005    1    3    3    0    0  0.84100099537E+01  0.47525075779E+02 -0.58197436996E+02  0.75612847904E+02  0.10000000000E+01 0.  0.
    9000005    1    3    3    0    0 -0.84100099537E+01 -0.47525075779E+02  0.24104767897E+02  0.53957399220E+02  0.10000000000E+01 0.  0.
<mgrwt>
<rscale>  0 0.12500456E+03</rscale>
<asrwt>0</asrwt>
<pdfrwt beam="1">  1        4 0.73444291E-02 0.12500456E+03</pdfrwt>
<pdfrwt beam="2">  1       -4 0.12589455E-01 0.12500456E+03</pdfrwt>
<totfact> 0.10352645E+04</totfact>
</mgrwt>
</event>
<event>
 5    1  0.3401591E-002  0.1250014E+03  0.7818608E-02  0.1235067E+00
         -4   -1    0    0    0  501 -0.00000000000E+00  0.00000000000E+00  0.26663690519E+03  0.26663992970E+03  0.12700000000E+01 0.  1.
          4   -1    0    0  501    0  0.00000000000E+00 -0.00000000000E+00 -0.14619752636E+02  0.14674810634E+02  0.12700000000E+01 0.  1.
         25    2    1    2    0    0  0.00000000000E+00  0.00000000000E+00  0.25201715256E+03  0.28131474033E+03  0.12500135178E+03 0.  0.
    9000005    1    3    3    0    0  0.92648799787E+01 -0.50021127132E+02  0.20769198643E+03  0.21383384294E+03  0.10000000000E+01 0.  0.
    9000005    1    3    3    0    0 -0.92648799787E+01  0.50021127132E+02  0.44325166129E+02  0.67480897393E+02  0.10000000000E+01 0.  0.
<mgrwt>
<rscale>  0 0.12500135E+03</rscale>
<asrwt>0</asrwt>
<pdfrwt beam="2">  1        4 0.22536607E-02 0.12500135E+03</pdfrwt>
<pdfrwt beam="1">  1       -4 0.41025528E-01 0.12500135E+03</pdfrwt>
<totfact> 0.78001759E+03</totfact>
</mgrwt>
</event>
<event>
 5    1  0.3401591E-002  0.1249981E+03  0.7818608E-02  0.1235072E+00
          4   -1    0    0  501    0  0.00000000000E+00  0.00000000000E+00  0.18510072987E+02  0.18553590003E+02  0.12700000000E+01 0.  1.
         -4   -1    0    0    0  501 -0.00000000000E+00 -0.00000000000E+00 -0.21073426869E+03  0.21073809551E+03  0.12700000000E+01 0.  1.
         25    2    1    2    0    0  0.00000000000E+00  0.00000000000E+00 -0.19222419570E+03  0.22929168552E+03  0.12499814252E+03 0.  0.
    9000005    1    3    3    0    0  0.45569357438E+02  0.37989578242E+02 -0.60102539798E+02  0.84457620630E+02  0.10000000000E+01 0.  0.
    9000005    1    3    3    0    0 -0.45569357438E+02 -0.37989578242E+02 -0.13212165591E+03  0.14483406489E+03  0.10000000000E+01 0.  0.
<mgrwt>
<rscale>  0 0.12499814E+03</rscale>
<asrwt>0</asrwt>
<pdfrwt beam="1">  1        4 0.28513455E-02 0.12499814E+03</pdfrwt>
<pdfrwt beam="2">  1       -4 0.32424297E-01 0.12499814E+03</pdfrwt>
<totfact> 0.85422019E+03</totfact>
</mgrwt>
</event>
<event>
 5    1  0.3401591E-002  0.1250002E+03  0.7818608E-02  0.1235069E+00
          4   -1    0    0  501    0  0.00000000000E+00  0.00000000000E+00  0.18377276107E+03  0.18377714932E+03  0.12700000000E+01 0.  1.
         -4   -1    0    0    0  501 -0.00000000000E+00 -0.00000000000E+00 -0.21232328562E+02  0.21270276824E+02  0.12700000000E+01 0.  1.
         25    2    1    2    0    0  0.00000000000E+00  0.00000000000E+00  0.16254043251E+03  0.20504742614E+03  0.12500021907E+03 0.  0.
    9000005    1    3    3    0    0 -0.39095879222E+02  0.47534190715E+02  0.99034565065E+02  0.11660545500E+03  0.10000000000E+01 0.  0.
    9000005    1    3    3    0    0  0.39095879222E+02 -0.47534190715E+02  0.63505867445E+02  0.88441971139E+02  0.10000000000E+01 0.  0.
<mgrwt>
<rscale>  0 0.12500022E+03</rscale>
<asrwt>0</asrwt>
<pdfrwt beam="1">  1        4 0.28275989E-01 0.12500022E+03</pdfrwt>
<pdfrwt beam="2">  1       -4 0.32697688E-02 0.12500022E+03</pdfrwt>
<totfact> 0.89290705E+03</totfact>
</mgrwt>
</event>
<event>
 5    1  0.3401591E-002  0.1249955E+03  0.7818608E-02  0.1235076E+00
          4   -1    0    0  501    0  0.00000000000E+00  0.00000000000E+00  0.26876751361E+03  0.26877051415E+03  0.12700000000E+01 0. -1.
         -4   -1    0    0    0  501 -0.00000000000E+00 -0.00000000000E+00 -0.14502052554E+02  0.14557555711E+02  0.12700000000E+01 0. -1.
         25    2    1    2    0    0  0.00000000000E+00  0.00000000000E+00  0.25426546106E+03  0.28332806986E+03  0.12499548184E+03 0.  0.
    9000005    1    3    3    0    0 -0.23878354529E+02 -0.25559205117E+02  0.24451046267E+03  0.24700165006E+03  0.10000000000E+01 0.  0.
    9000005    1    3    3    0    0  0.23878354529E+02  0.25559205117E+02  0.97549983936E+01  0.36326419792E+02  0.10000000000E+01 0.  0.
<mgrwt>
<rscale>  0 0.12499548E+03</rscale>
<asrwt>0</asrwt>
<pdfrwt beam="1">  1        4 0.41353351E-01 0.12499548E+03</pdfrwt>
<pdfrwt beam="2">  1       -4 0.22355852E-02 0.12499548E+03</pdfrwt>
<totfact> 0.77746690E+03</totfact>
</mgrwt>
</event>
<event>
 5    1  0.3401591E-002  0.1249950E+03  0.7818608E-02  0.1235077E+00
         -4   -1    0    0    0  501 -0.00000000000E+00  0.00000000000E+00  0.19788987343E+02  0.19829697931E+02  0.12700000000E+01 0. -1.
          4   -1    0    0  501    0  0.00000000000E+00 -0.00000000000E+00 -0.19713388183E+03  0.19713797266E+03  0.12700000000E+01 0. -1.
         25    2    1    2    0    0  0.00000000000E+00  0.00000000000E+00 -0.17734489448E+03  0.21696767059E+03  0.12499503383E+03 0.  0.
    9000005    1    3    3    0    0  0.33265205229E+02  0.46724299109E+02 -0.13172633884E+03  0.14367519741E+03  0.10000000000E+01 0.  0.
    9000005    1    3    3    0    0 -0.33265205229E+02 -0.46724299109E+02 -0.45618555645E+02  0.73292473182E+02  0.10000000000E+01 0.  0.
<mgrwt>
<rscale>  0 0.12499503E+03</rscale>
<asrwt>0</asrwt>
<pdfrwt beam="2">  1        4 0.30331735E-01 0.12499503E+03</pdfrwt>
<pdfrwt beam="1">  1       -4 0.30479060E-02 0.12499503E+03</pdfrwt>
<totfact> 0.87360155E+03</totfact>
</mgrwt>
</event>
<event>
 5    1  0.3401591E-002  0.1250005E+03  0.7818608E-02  0.1235069E+00
         -4   -1    0    0    0  501 -0.00000000000E+00  0.00000000000E+00  0.69240517812E+02  0.69252163915E+02  0.12700000000E+01 0. -1.
          4   -1    0    0  501    0  0.00000000000E+00 -0.00000000000E+00 -0.56392561230E+02  0.56406860062E+02  0.12700000000E+01 0. -1.
         25    2    1    2    0    0  0.00000000000E+00  0.00000000000E+00  0.12847956582E+02  0.12565902398E+03  0.12500048127E+03 0.  0.
    9000005    1    3    3    0    0  0.30462965136E+02 -0.28717956146E+02  0.53064169136E+02  0.67598219623E+02  0.10000000000E+01 0.  0.
    9000005    1    3    3    0    0 -0.30462965136E+02  0.28717956146E+02 -0.40216212554E+02  0.58060804354E+02  0.10000000000E+01 0.  0.
<mgrwt>
<rscale>  0 0.12500048E+03</rscale>
<asrwt>0</asrwt>
<pdfrwt beam="2">  1        4 0.86777744E-02 0.12500048E+03</pdfrwt>
<pdfrwt beam="1">  1       -4 0.10654383E-01 0.12500048E+03</pdfrwt>
<totfact> 0.10438333E+04</totfact>
</mgrwt>
</event>
<event>
 5    1  0.3401591E-002  0.1249994E+03  0.7818608E-02  0.1235070E+00
         -4   -1    0    0    0  501 -0.00000000000E+00  0.00000000000E+00  0.21600708225E+03  0.21601081566E+03  0.12700000000E+01 0. -1.
          4   -1    0    0  501    0  0.00000000000E+00 -0.00000000000E+00 -0.18057517989E+02  0.18102122967E+02  0.12700000000E+01 0. -1.
         25    2    1    2    0    0  0.00000000000E+00  0.00000000000E+00  0.19794956426E+03  0.23411293863E+03  0.12499935216E+03 0.  0.
    9000005    1    3    3    0    0  0.29129295890E+02  0.97101095768E+01 -0.29641421492E+01  0.30864028346E+02  0.10000000000E+01 0.  0.
    9000005    1    3    3    0    0 -0.29129295890E+02 -0.97101095768E+01  0.20091370641E+03  0.20324891028E+03  0.10000000000E+01 0.  0.
<mgrwt>
<rscale>  0 0.12499935E+03</rscale>
<asrwt>0</asrwt>
<pdfrwt beam="2">  1        4 0.27817980E-02 0.12499935E+03</pdfrwt>
<pdfrwt beam="1">  1       -4 0.33235577E-01 0.12499935E+03</pdfrwt>
<totfact> 0.84683250E+03</totfact>
</mgrwt>
</event>
<event>
 5    1  0.3401591E-002  0.1249982E+03  0.7818608E-02  0.1235072E+00
         -4   -1    0    0    0  501 -0.00000000000E+00  0.00000000000E+00  0.26594487180E+03  0.26594790418E+03  0.12700000000E+01 0.  1.
          4   -1    0    0  501    0  0.00000000000E+00 -0.00000000000E+00 -0.14657187699E+02  0.14712105602E+02  0.12700000000E+01 0.  1.
         25    2    1    2    0    0  0.00000000000E+00  0.00000000000E+00  0.25128768410E+03  0.28066000978E+03  0.12499816362E+03 0.  0.
    9000005    1    3    3    0    0  0.29584835581E+02  0.54568828620E+02  0.10943466065E+03  0.12581718684E+03  0.10000000000E+01 0.  0.
    9000005    1    3    3    0    0 -0.29584835581E+02 -0.54568828620E+02  0.14185302345E+03  0.15484282294E+03  0.10000000000E+01 0.  0.
<mgrwt>
<rscale>  0 0.12499816E+03</rscale>
<asrwt>0</asrwt>
<pdfrwt beam="2">  1        4 0.22594099E-02 0.12499816E+03</pdfrwt>
<pdfrwt beam="1">  1       -4 0.40919048E-01 0.12499816E+03</pdfrwt>
<totfact> 0.78093865E+03</totfact>
</mgrwt>
</event>
<event>
 5    1  0.3401591E-002  0.1249938E+03  0.7818608E-02  0.1235079E+00
          4   -1    0    0  501    0  0.00000000000E+00  0.00000000000E+00  0.72379103700E+01  0.73484860022E+01  0.12700000000E+01 0. -1.
         -4   -1    0    0    0  501 -0.00000000000E+00 -0.00000000000E+00 -0.53543769855E+03  0.53543920470E+03  0.12700000000E+01 0. -1.
         25    2    1    2    0    0  0.00000000000E+00  0.00000000000E+00 -0.52819978818E+03  0.54278769070E+03  0.12499384362E+03 0.  0.
    9000005    1    3    3    0    0 -0.14094421481E+02  0.57756361828E+02 -0.18052309010E+03  0.19006324239E+03  0.10000000000E+01 0.  0.
    9000005    1    3    3    0    0  0.14094421481E+02 -0.57756361828E+02 -0.34767669808E+03  0.35272444831E+03  0.10000000000E+01 0.  0.
<mgrwt>
<rscale>  0 0.12499384E+03</rscale>
<asrwt>0</asrwt>
<pdfrwt beam="1">  1        4 0.11221468E-02 0.12499384E+03</pdfrwt>
<pdfrwt beam="2">  1       -4 0.82383621E-01 0.12499384E+03</pdfrwt>
<totfact> 0.52698099E+03</totfact>
</mgrwt>
</event>
<event>
 5    1  0.3401591E-002  0.1249990E+03  0.7818608E-02  0.1235071E+00
         -4   -1    0    0    0  501 -0.00000000000E+00  0.00000000000E+00  0.82817753022E+02  0.82827490096E+02  0.12700000000E+01 0.  1.
          4   -1    0    0  501    0  0.00000000000E+00 -0.00000000000E+00 -0.47144976210E+02  0.47162078854E+02  0.12700000000E+01 0.  1.
         25    2    1    2    0    0  0.00000000000E+00  0.00000000000E+00  0.35672776812E+02  0.12998956895E+03  0.12499896412E+03 0.  0.
    9000005    1    3    3    0    0 -0.17840485754E+02 -0.56038467598E+02  0.39812851094E+02  0.71025741073E+02  0.10000000000E+01 0.  0.
    9000005    1    3    3    0    0  0.17840485754E+02  0.56038467598E+02 -0.41400742822E+01  0.58963827876E+02  0.10000000000E+01 0.  0.
<mgrwt>
<rscale>  0 0.12499896E+03</rscale>
<asrwt>0</asrwt>
<pdfrwt beam="2">  1        4 0.72551379E-02 0.12499896E+03</pdfrwt>
<pdfrwt beam="1">  1       -4 0.12743257E-01 0.12499896E+03</pdfrwt>
<totfact> 0.10344973E+04</totfact>
</mgrwt>
</event>
<event>
 4    1  0.3401591E-002  0.1250793E+03  0.7818608E-02  0.1234945E+00
          4   -1    0    0  501    0  0.00000000000E+00  0.00000000000E+00  0.10236065534E+03  0.10236853355E+03  0.12700000000E+01 0.  1.
         -4   -1    0    0    0  501 -0.00000000000E+00 -0.00000000000E+00 -0.38190148311E+02  0.38211259178E+02  0.12700000000E+01 0.  1.
    9000005    1    1    2    0    0 -0.57086551706E+02  0.92970930298E+01  0.53723131122E+01  0.58096231140E+02  0.10000000000E+01 0.  0.
    9000005    1    1    2    0    0  0.57086551706E+02 -0.92970930298E+01  0.58798193913E+02  0.82483561586E+02  0.10000000000E+01 0.  0.
<mgrwt>
<rscale>  0 0.12507927E+03</rscale>
<asrwt>0</asrwt>
<pdfrwt beam="1">  1        4 0.15750023E-01 0.12507927E+03</pdfrwt>
<pdfrwt beam="2">  1       -4 0.58776374E-02 0.12507927E+03</pdfrwt>
<totfact> 0.10103529E+04</totfact>
</mgrwt>
</event>
<event>
 5    1  0.3401591E-002  0.1250002E+03  0.7818608E-02  0.1235069E+00
          4   -1    0    0  501    0  0.00000000000E+00  0.00000000000E+00  0.79204111694E+02  0.79214292960E+02  0.12700000000E+01 0. -1.
         -4   -1    0    0    0  501 -0.00000000000E+00 -0.00000000000E+00 -0.49297414417E+02  0.49313770574E+02  0.12700000000E+01 0. -1.
         25    2    1    2    0    0  0.00000000000E+00  0.00000000000E+00  0.29906697276E+02  0.12852806353E+03  0.12500021030E+03 0.  0.
    9000005    1    3    3    0    0  0.42824451114E+02  0.12974792875E+02 -0.29901027541E+02  0.53827040708E+02  0.10000000000E+01 0.  0.
    9000005    1    3    3    0    0 -0.42824451114E+02 -0.12974792875E+02  0.59807724818E+02  0.74701022826E+02  0.10000000000E+01 0.  0.
<mgrwt>
<rscale>  0 0.12500021E+03</rscale>
<asrwt>0</asrwt>
<pdfrwt beam="1">  1        4 0.12187289E-01 0.12500021E+03</pdfrwt>
<pdfrwt beam="2">  1       -4 0.75862590E-02 0.12500021E+03</pdfrwt>
<totfact> 0.10376050E+04</totfact>
</mgrwt>
</event>
<event>
 5    1  0.3401591E-002  0.1250282E+03  0.7818608E-02  0.1235025E+00
          4   -1    0    0  501    0  0.00000000000E+00  0.00000000000E+00  0.11195102007E+02  0.11266907692E+02  0.12700000000E+01 0. -1.
         -4   -1    0    0    0  501 -0.00000000000E+00 -0.00000000000E+00 -0.34789364880E+03  0.34789596689E+03  0.12700000000E+01 0. -1.
         25    2    1    2    0    0  0.00000000000E+00  0.00000000000E+00 -0.33669854679E+03  0.35916287458E+03  0.12502823306E+03 0.  0.
    9000005    1    3    3    0    0  0.36304385784E+02  0.48215430573E+02 -0.21504900001E+03  0.22336026634E+03  0.10000000000E+01 0.  0.
    9000005    1    3    3    0    0 -0.36304385784E+02 -0.48215430573E+02 -0.12164954678E+03  0.13580260824E+03  0.10000000000E+01 0.  0.
<mgrwt>
<rscale>  0 0.12502823E+03</rscale>
<asrwt>0</asrwt>
<pdfrwt beam="1">  1        4 0.17280255E-02 0.12502823E+03</pdfrwt>
<pdfrwt beam="2">  1       -4 0.53527793E-01 0.12502823E+03</pdfrwt>
<totfact> 0.68685253E+03</totfact>
</mgrwt>
</event>
<event>
 5    1  0.3401591E-002  0.1250010E+03  0.7818608E-02  0.1235068E+00
         -4   -1    0    0    0  501 -0.00000000000E+00  0.00000000000E+00  0.49085060789E+03  0.49085225085E+03  0.12700000000E+01 0. -1.
          4   -1    0    0  501    0  0.00000000000E+00 -0.00000000000E+00 -0.79059134928E+01  0.80072697067E+01  0.12700000000E+01 0. -1.
         25    2    1    2    0    0  0.00000000000E+00  0.00000000000E+00  0.48294469440E+03  0.49885952056E+03  0.12500097362E+03 0.  0.
    9000005    1    3    3    0    0  0.13105800929E+02 -0.29413210102E+02  0.45521225979E+03  0.45635085232E+03  0.10000000000E+01 0.  0.
    9000005    1    3    3    0    0 -0.13105800929E+02  0.29413210102E+02  0.27732434607E+02  0.42508668242E+02  0.10000000000E+01 0.  0.
<mgrwt>
<rscale>  0 0.12500097E+03</rscale>
<asrwt>0</asrwt>
<pdfrwt beam="2">  1        4 0.12242172E-02 0.12500097E+03</pdfrwt>
<pdfrwt beam="1">  1       -4 0.75523410E-01 0.12500097E+03</pdfrwt>
<totfact> 0.55951758E+03</totfact>
</mgrwt>
</event>
<event>
 5    1  0.3401591E-002  0.1250003E+03  0.7818608E-02  0.1235069E+00
          4   -1    0    0  501    0  0.00000000000E+00  0.00000000000E+00  0.22892936926E+04  0.22892940449E+04  0.12700000000E+01 0.  1.
         -4   -1    0    0    0  501 -0.00000000000E+00 -0.00000000000E+00 -0.14696072236E+01  0.19423298874E+01  0.12700000000E+01 0.  1.
         25    2    1    2    0    0  0.00000000000E+00  0.00000000000E+00  0.22878240854E+04  0.22912363748E+04  0.12500031754E+03 0.  0.
    9000005    1    3    3    0    0  0.59836138453E+02  0.17269595892E+02  0.12385683227E+04  0.12401334978E+04  0.10000000000E+01 0.  0.
    9000005    1    3    3    0    0 -0.59836138453E+02 -0.17269595892E+02  0.10492557628E+04  0.10511028770E+04  0.10000000000E+01 0.  0.
<mgrwt>
<rscale>  0 0.12500032E+03</rscale>
<asrwt>0</asrwt>
<pdfrwt beam="1">  1        4 0.35223674E+00 0.12500032E+03</pdfrwt>
<pdfrwt beam="2">  1       -4 0.26248282E-03 0.12500032E+03</pdfrwt>
<totfact> 0.65227080E+02</totfact>
</mgrwt>
</event>
<event>
 5    1  0.3401591E-002  0.1249989E+03  0.7818608E-02  0.1235071E+00
         -4   -1    0    0    0  501 -0.00000000000E+00  0.00000000000E+00  0.49813257782E+02  0.49829444617E+02  0.12700000000E+01 0.  1.
          4   -1    0    0  501    0  0.00000000000E+00 -0.00000000000E+00 -0.78382446988E+02  0.78392734968E+02  0.12700000000E+01 0.  1.
         25    2    1    2    0    0  0.00000000000E+00  0.00000000000E+00 -0.28569189206E+02  0.12822217958E+03  0.12499891506E+03 0.  0.
    9000005    1    3    3    0    0 -0.50578935004E+02 -0.14797821919E+02 -0.48736022327E+02  0.71787213847E+02  0.10000000000E+01 0.  0.
    9000005    1    3    3    0    0  0.50578935004E+02  0.14797821919E+02  0.20166833121E+02  0.56434965738E+02  0.10000000000E+01 0.  0.
<mgrwt>
<rscale>  0 0.12499892E+03</rscale>
<asrwt>0</asrwt>
<pdfrwt beam="2">  1        4 0.12060875E-01 0.12499892E+03</pdfrwt>
<pdfrwt beam="1">  1       -4 0.76656146E-02 0.12499892E+03</pdfrwt>
<totfact> 0.10382946E+04</totfact>
</mgrwt>
</event>
<event>
 5    1  0.3401591E-002  0.1249991E+03  0.7818608E-02  0.1235071E+00
         -4   -1    0    0    0  501 -0.00000000000E+00  0.00000000000E+00  0.10935011434E+04  0.10935018809E+04  0.12700000000E+01 0. -1.
          4   -1    0    0  501    0  0.00000000000E+00 -0.00000000000E+00 -0.34585485586E+01  0.36843531498E+01  0.12700000000E+01 0. -1.
         25    2    1    2    0    0  0.00000000000E+00  0.00000000000E+00  0.10900425948E+04  0.10971862340E+04  0.12499909442E+03 0.  0.
    9000005    1    3    3    0    0 -0.13164021420E+02 -0.45694209087E+02  0.90091198391E+03  0.90216664478E+03  0.10000000000E+01 0.  0.
    9000005    1    3    3    0    0  0.13164021420E+02  0.45694209087E+02  0.18913061090E+03  0.19501958923E+03  0.10000000000E+01 0.  0.
<mgrwt>
<rscale>  0 0.12499909E+03</rscale>
<asrwt>0</asrwt>
<pdfrwt beam="2">  1        4 0.54951149E-03 0.12499909E+03</pdfrwt>
<pdfrwt beam="1">  1       -4 0.16824813E+00 0.12499909E+03</pdfrwt>
<totfact> 0.27566474E+03</totfact>
</mgrwt>
</event>
<event>
 5    1  0.3401591E-002  0.1250010E+03  0.7818608E-02  0.1235068E+00
         -4   -1    0    0    0  501 -0.00000000000E+00  0.00000000000E+00  0.43634351860E+02  0.43652829946E+02  0.12700000000E+01 0. -1.
          4   -1    0    0  501    0  0.00000000000E+00 -0.00000000000E+00 -0.89481870987E+02  0.89490882974E+02  0.12700000000E+01 0. -1.
         25    2    1    2    0    0  0.00000000000E+00  0.00000000000E+00 -0.45847519127E+02  0.13314371292E+03  0.12500101312E+03 0.  0.
    9000005    1    3    3    0    0  0.32305997204E+02 -0.53130821915E+02 -0.29554348471E+02  0.68855073933E+02  0.10000000000E+01 0.  0.
    9000005    1    3    3    0    0 -0.32305997204E+02  0.53130821915E+02 -0.16293170656E+02  0.64288638987E+02  0.10000000000E+01 0.  0.
<mgrwt>
<rscale>  0 0.12500101E+03</rscale>
<asrwt>0</asrwt>
<pdfrwt beam="2">  1        4 0.13768556E-01 0.12500101E+03</pdfrwt>
<pdfrwt beam="1">  1       -4 0.67150919E-02 0.12500101E+03</pdfrwt>
<totfact> 0.10277112E+04</totfact>
</mgrwt>
</event>
<event>
 5    1  0.3401591E-002  0.1249940E+03  0.7818608E-02  0.1235079E+00
          4   -1    0    0  501    0  0.00000000000E+00  0.00000000000E+00  0.12300032384E+02  0.12365423431E+02  0.12700000000E+01 0.  1.
         -4   -1    0    0    0  501 -0.00000000000E+00 -0.00000000000E+00 -0.31664151791E+03  0.31664406479E+03  0.12700000000E+01 0.  1.
         25    2    1    2    0    0  0.00000000000E+00  0.00000000000E+00 -0.30434148553E+03  0.32900948822E+03  0.12499401396E+03 0.  0.
    9000005    1    3    3    0    0 -0.14214671589E+02  0.48047670501E+02 -0.25045592150E+03  0.25542083733E+03  0.10000000000E+01 0.  0.
    9000005    1    3    3    0    0  0.14214671589E+02 -0.48047670501E+02 -0.53885564032E+02  0.73588650891E+02  0.10000000000E+01 0.  0.
<mgrwt>
<rscale>  0 0.12499401E+03</rscale>
<asrwt>0</asrwt>
<pdfrwt beam="1">  1        4 0.18975389E-02 0.12499401E+03</pdfrwt>
<pdfrwt beam="2">  1       -4 0.48719299E-01 0.12499401E+03</pdfrwt>
<totfact> 0.72106791E+03</totfact>
</mgrwt>
</event>
<event>
 5    1  0.3401591E-002  0.1250009E+03  0.7818608E-02  0.1235068E+00
          4   -1    0    0  501    0  0.00000000000E+00  0.00000000000E+00  0.10416349965E+03  0.10417124151E+03  0.12700000000E+01 0.  1.
         -4   -1    0    0    0  501 -0.00000000000E+00 -0.00000000000E+00 -0.37481796365E+02  0.37503305971E+02  0.12700000000E+01 0.  1.
         25    2    1    2    0    0  0.00000000000E+00  0.00000000000E+00  0.66681703281E+02  0.14167454748E+03  0.12500091141E+03 0.  0.
    9000005    1    3    3    0    0 -0.37421214619E+02  0.49363363947E+02  0.23979727235E+02  0.66431290232E+02  0.10000000000E+01 0.  0.
    9000005    1    3    3    0    0  0.37421214619E+02 -0.49363363947E+02  0.42701976046E+02  0.75243257252E+02  0.10000000000E+01 0.  0.
<mgrwt>
<rscale>  0 0.12500091E+03</rscale>
<asrwt>0</asrwt>
<pdfrwt beam="1">  1        4 0.16027404E-01 0.12500091E+03</pdfrwt>
<pdfrwt beam="2">  1       -4 0.57686803E-02 0.12500091E+03</pdfrwt>
<totfact> 0.10098790E+04</totfact>
</mgrwt>
</event>
<event>
 5    1  0.3401591E-002  0.1250014E+03  0.7818608E-02  0.1235067E+00
         -4   -1    0    0    0  501 -0.00000000000E+00  0.00000000000E+00  0.33183786826E+02  0.33208080464E+02  0.12700000000E+01 0.  1.
          4   -1    0    0  501    0  0.00000000000E+00 -0.00000000000E+00 -0.11764745611E+03  0.11765431071E+03  0.12700000000E+01 0.  1.
         25    2    1    2    0    0  0.00000000000E+00  0.00000000000E+00 -0.84463669283E+02  0.15086239118E+03  0.12500139856E+03 0.  0.
    9000005    1    3    3    0    0 -0.35504166618E+02  0.35507951278E+02 -0.87130201578E+02  0.10056854617E+03  0.10000000000E+01 0.  0.
    9000005    1    3    3    0    0  0.35504166618E+02 -0.35507951278E+02  0.26665322946E+01  0.50293845008E+02  0.10000000000E+01 0.  0.
<mgrwt>
<rscale>  0 0.12500140E+03</rscale>
<asrwt>0</asrwt>
<pdfrwt beam="2">  1        4 0.18102004E-01 0.12500140E+03</pdfrwt>
<pdfrwt beam="1">  1       -4 0.51075941E-02 0.12500140E+03</pdfrwt>
<totfact> 0.99128951E+03</totfact>
</mgrwt>
</event>
<event>
 5    1  0.3401591E-002  0.1250036E+03  0.7818608E-02  0.1235064E+00
         -4   -1    0    0    0  501 -0.00000000000E+00  0.00000000000E+00  0.23438114829E+03  0.23438458903E+03  0.12700000000E+01 0. -1.
          4   -1    0    0  501    0  0.00000000000E+00 -0.00000000000E+00 -0.16639415680E+02  0.16687811545E+02  0.12700000000E+01 0. -1.
         25    2    1    2    0    0  0.00000000000E+00  0.00000000000E+00  0.21774173261E+03  0.25107240057E+03  0.12500355279E+03 0.  0.
    9000005    1    3    3    0    0 -0.12443962751E+01 -0.21032628987E+02 -0.93004441296E+01  0.23052511039E+02  0.10000000000E+01 0.  0.
    9000005    1    3    3    0    0  0.12443962751E+01  0.21032628987E+02  0.22704217674E+03  0.22801988953E+03  0.10000000000E+01 0.  0.
<mgrwt>
<rscale>  0 0.12500355E+03</rscale>
<asrwt>0</asrwt>
<pdfrwt beam="2">  1        4 0.25638974E-02 0.12500355E+03</pdfrwt>
<pdfrwt beam="1">  1       -4 0.36062627E-01 0.12500355E+03</pdfrwt>
<totfact> 0.82168974E+03</totfact>
</mgrwt>
</event>
<event>
 4    1  0.3401591E-002  0.1249383E+03  0.7818608E-02  0.1235166E+00
          4   -1    0    0  501    0  0.00000000000E+00  0.00000000000E+00  0.36518115294E+02  0.36540192181E+02  0.12700000000E+01 0. -1.
         -4   -1    0    0    0  501 -0.00000000000E+00 -0.00000000000E+00 -0.10680371792E+03  0.10681126842E+03  0.12700000000E+01 0. -1.
    9000005    1    1    2    0    0 -0.16523781432E+02  0.60654183843E+01  0.33619229777E+02  0.37961523465E+02  0.10000000000E+01 0.  0.
    9000005    1    1    2    0    0  0.16523781432E+02 -0.60654183843E+01 -0.10390483241E+03  0.10538993714E+03  0.10000000000E+01 0.  0.
<mgrwt>
<rscale>  0 0.12493829E+03</rscale>
<asrwt>0</asrwt>
<pdfrwt beam="1">  1        4 0.56204507E-02 0.12493829E+03</pdfrwt>
<pdfrwt beam="2">  1       -4 0.16433620E-01 0.12493829E+03</pdfrwt>
<totfact> 0.10078593E+04</totfact>
</mgrwt>
</event>
<event>
 5    1  0.3401591E-002  0.1249982E+03  0.7818608E-02  0.1235072E+00
         -4   -1    0    0    0  501 -0.00000000000E+00  0.00000000000E+00  0.15690057748E+02  0.15741372625E+02  0.12700000000E+01 0. -1.
          4   -1    0    0  501    0  0.00000000000E+00 -0.00000000000E+00 -0.24849663872E+03  0.24849988402E+03  0.12700000000E+01 0. -1.
         25    2    1    2    0    0  0.00000000000E+00  0.00000000000E+00 -0.23280658097E+03  0.26424125664E+03  0.12499815025E+03 0.  0.
    9000005    1    3    3    0    0  0.47483588726E+02 -0.37187609633E+02 -0.15097963933E+03  0.16258370460E+03  0.10000000000E+01 0.  0.
    9000005    1    3    3    0    0 -0.47483588726E+02  0.37187609633E+02 -0.81826941641E+02  0.10165755204E+03  0.10000000000E+01 0.  0.
<mgrwt>
<rscale>  0 0.12499815E+03</rscale>
<asrwt>0</asrwt>
<pdfrwt beam="2">  1        4 0.38234446E-01 0.12499815E+03</pdfrwt>
<pdfrwt beam="1">  1       -4 0.24180522E-02 0.12499815E+03</pdfrwt>
<totfact> 0.80317828E+03</totfact>
</mgrwt>
</event>
<event>
 5    1  0.3401591E-002  0.1249969E+03  0.7818608E-02  0.1235074E+00
          4   -1    0    0  501    0  0.00000000000E+00  0.00000000000E+00  0.79669711065E+01  0.80675602639E+01  0.12700000000E+01 0. -1.
         -4   -1    0    0    0  501 -0.00000000000E+00 -0.00000000000E+00 -0.48710432202E+03  0.48710597762E+03  0.12700000000E+01 0. -1.
         25    2    1    2    0    0  0.00000000000E+00  0.00000000000E+00 -0.47913735091E+03  0.49517353788E+03  0.12499692627E+03 0.  0.
    9000005    1    3    3    0    0  0.52156684162E+02 -0.23613499475E+02 -0.14036205990E+03  0.15159295802E+03  0.10000000000E+01 0.  0.
    9000005    1    3    3    0    0 -0.52156684162E+02  0.23613499475E+02 -0.33877529101E+03  0.34358057987E+03  0.10000000000E+01 0.  0.
<mgrwt>
<rscale>  0 0.12499693E+03</rscale>
<asrwt>0</asrwt>
<pdfrwt beam="1">  1        4 0.12335532E-02 0.12499693E+03</pdfrwt>
<pdfrwt beam="2">  1       -4 0.74946968E-01 0.12499693E+03</pdfrwt>
<totfact> 0.56244606E+03</totfact>
</mgrwt>
</event>
<event>
 4    1  0.3401591E-002  0.1235767E+03  0.7818608E-02  0.1237311E+00
          4   -1    0    0  501    0  0.00000000000E+00  0.00000000000E+00  0.68516171298E+02  0.68527940501E+02  0.12700000000E+01 0. -1.
         -4   -1    0    0    0  501 -0.00000000000E+00 -0.00000000000E+00 -0.55697326119E+02  0.55711803389E+02  0.12700000000E+01 0. -1.
    9000005    1    1    2    0    0  0.10818221460E+02  0.19911364233E+02 -0.51373325769E+02  0.56157946381E+02  0.10000000000E+01 0.  0.
    9000005    1    1    2    0    0 -0.10818221460E+02 -0.19911364233E+02  0.64192170947E+02  0.68081797509E+02  0.10000000000E+01 0.  0.
<mgrwt>
<rscale>  0 0.12357666E+03</rscale>
<asrwt>0</asrwt>
<pdfrwt beam="1">  1        4 0.10542968E-01 0.12357666E+03</pdfrwt>
<pdfrwt beam="2">  1       -4 0.85708384E-02 0.12357666E+03</pdfrwt>
<totfact> 0.10813262E+04</totfact>
</mgrwt>
</event>
<event>
 5    1  0.3401591E-002  0.1249988E+03  0.7818608E-02  0.1235071E+00
         -4   -1    0    0    0  501 -0.00000000000E+00  0.00000000000E+00  0.92615437021E+01  0.93482132917E+01  0.12700000000E+01 0. -1.
          4   -1    0    0  501    0  0.00000000000E+00 -0.00000000000E+00 -0.41971080627E+03  0.41971272771E+03  0.12700000000E+01 0. -1.
         25    2    1    2    0    0  0.00000000000E+00  0.00000000000E+00 -0.41044926257E+03  0.42906094100E+03  0.12499877579E+03 0.  0.
    9000005    1    3    3    0    0  0.30018527988E+02  0.31476484063E+01 -0.39304827948E+03  0.39420676011E+03  0.10000000000E+01 0.  0.
    9000005    1    3    3    0    0 -0.30018527988E+02 -0.31476484063E+01 -0.17400983085E+02  0.34854180888E+02  0.10000000000E+01 0.  0.
<mgrwt>
<rscale>  0 0.12499878E+03</rscale>
<asrwt>0</asrwt>
<pdfrwt beam="2">  1        4 0.64577693E-01 0.12499878E+03</pdfrwt>
<pdfrwt beam="1">  1       -4 0.14316679E-02 0.12499878E+03</pdfrwt>
<totfact> 0.61822879E+03</totfact>
</mgrwt>
</event>
<event>
 5    1  0.3401591E-002  0.1250078E+03  0.7818608E-02  0.1235057E+00
         -4   -1    0    0    0  501 -0.00000000000E+00  0.00000000000E+00  0.12966905658E+03  0.12967527572E+03  0.12700000000E+01 0.  1.
          4   -1    0    0  501    0  0.00000000000E+00 -0.00000000000E+00 -0.30108213851E+02  0.30134986997E+02  0.12700000000E+01 0.  1.
         25    2    1    2    0    0  0.00000000000E+00  0.00000000000E+00  0.99560842726E+02  0.15981026272E+03  0.12500783442E+03 0.  0.
    9000005    1    3    3    0    0 -0.35394322446E+02 -0.44389723334E+02  0.83179124252E+02  0.10071232452E+03  0.10000000000E+01 0.  0.
    9000005    1    3    3    0    0  0.35394322446E+02  0.44389723334E+02  0.16381718474E+02  0.59097938198E+02  0.10000000000E+01 0.  0.
<mgrwt>
<rscale>  0 0.12500783E+03</rscale>
<asrwt>0</asrwt>
<pdfrwt beam="2">  1        4 0.46345708E-02 0.12500783E+03</pdfrwt>
<pdfrwt beam="1">  1       -4 0.19951623E-01 0.12500783E+03</pdfrwt>
<totfact> 0.97362231E+03</totfact>
</mgrwt>
</event>
<event>
 5    1  0.3401591E-002  0.1250035E+03  0.7818608E-02  0.1235064E+00
          4   -1    0    0  501    0  0.00000000000E+00  0.00000000000E+00  0.21168231235E+04  0.21168235045E+04  0.12700000000E+01 0. -1.
         -4   -1    0    0    0  501 -0.00000000000E+00 -0.00000000000E+00 -0.16265135854E+01  0.20636003594E+01  0.12700000000E+01 0. -1.
         25    2    1    2    0    0  0.00000000000E+00  0.00000000000E+00  0.21151966099E+04  0.21188871048E+04  0.12500345766E+03 0.  0.
    9000005    1    3    3    0    0  0.13602860801E+02  0.60979373805E+02  0.10812336741E+04  0.10830377555E+04  0.10000000000E+01 0.  0.
    9000005    1    3    3    0    0 -0.13602860801E+02 -0.60979373805E+02  0.10339629359E+04  0.10358493494E+04  0.10000000000E+01 0.  0.
<mgrwt>
<rscale>  0 0.12500346E+03</rscale>
<asrwt>0</asrwt>
<pdfrwt beam="1">  1        4 0.32569805E+00 0.12500346E+03</pdfrwt>
<pdfrwt beam="2">  1       -4 0.28388484E-03 0.12500346E+03</pdfrwt>
<totfact> 0.83876460E+02</totfact>
</mgrwt>
</event>
<event>
 5    1  0.3401591E-002  0.1250023E+03  0.7818608E-02  0.1235066E+00
          4   -1    0    0  501    0  0.00000000000E+00  0.00000000000E+00  0.18172499675E+03  0.18172943445E+03  0.12700000000E+01 0. -1.
         -4   -1    0    0    0  501 -0.00000000000E+00 -0.00000000000E+00 -0.21472719595E+02  0.21510243765E+02  0.12700000000E+01 0. -1.
         25    2    1    2    0    0  0.00000000000E+00  0.00000000000E+00  0.16025227716E+03  0.20323967821E+03  0.12500229784E+03 0.  0.
    9000005    1    3    3    0    0  0.42027965712E+02 -0.44951957764E+02  0.97815108131E+02  0.11556739933E+03  0.10000000000E+01 0.  0.
    9000005    1    3    3    0    0 -0.42027965712E+02  0.44951957764E+02  0.62437169026E+02  0.87672278884E+02  0.10000000000E+01 0.  0.
<mgrwt>
<rscale>  0 0.12500230E+03</rscale>
<asrwt>0</asrwt>
<pdfrwt beam="1">  1        4 0.27960920E-01 0.12500230E+03</pdfrwt>
<pdfrwt beam="2">  1       -4 0.33067231E-02 0.12500230E+03</pdfrwt>
<totfact> 0.89587364E+03</totfact>
</mgrwt>
</event>
<event>
 5    1  0.3401591E-002  0.1250088E+03  0.7818608E-02  0.1235056E+00
          4   -1    0    0  501    0  0.00000000000E+00  0.00000000000E+00  0.18434548196E+03  0.18434985657E+03  0.12700000000E+01 0. -1.
         -4   -1    0    0    0  501 -0.00000000000E+00 -0.00000000000E+00 -0.21169147361E+02  0.21207208680E+02  0.12700000000E+01 0. -1.
         25    2    1    2    0    0  0.00000000000E+00  0.00000000000E+00  0.16317633460E+03  0.20555706525E+03  0.12500876330E+03 0.  0.
    9000005    1    3    3    0    0  0.51920962870E+02 -0.10782432835E+02  0.13596965429E+03  0.14594791581E+03  0.10000000000E+01 0.  0.
    9000005    1    3    3    0    0 -0.51920962870E+02  0.10782432835E+02  0.27206680306E+02  0.59609149436E+02  0.10000000000E+01 0.  0.
<mgrwt>
<rscale>  0 0.12500876E+03</rscale>
<asrwt>0</asrwt>
<pdfrwt beam="1">  1        4 0.28364108E-01 0.12500876E+03</pdfrwt>
<pdfrwt beam="2">  1       -4 0.32600562E-02 0.12500876E+03</pdfrwt>
<totfact> 0.89189167E+03</totfact>
</mgrwt>
</event>
<event>
 5    1  0.3401591E-002  0.1249994E+03  0.7818608E-02  0.1235070E+00
         -4   -1    0    0    0  501 -0.00000000000E+00  0.00000000000E+00  0.58687106954E+02  0.58700846865E+02  0.12700000000E+01 0. -1.
          4   -1    0    0  501    0  0.00000000000E+00 -0.00000000000E+00 -0.66532352035E+02  0.66544472102E+02  0.12700000000E+01 0. -1.
         25    2    1    2    0    0  0.00000000000E+00  0.00000000000E+00 -0.78452450810E+01  0.12524531897E+03  0.12499936821E+03 0.  0.
    9000005    1    3    3    0    0 -0.14452795186E+02  0.58685404661E+02  0.11994177987E+02  0.61625646564E+02  0.10000000000E+01 0.  0.
    9000005    1    3    3    0    0  0.14452795186E+02 -0.58685404661E+02 -0.19839423068E+02  0.63619672402E+02  0.10000000000E+01 0.  0.
<mgrwt>
<rscale>  0 0.12499937E+03</rscale>
<asrwt>0</asrwt>
<pdfrwt beam="2">  1        4 0.10237736E-01 0.12499937E+03</pdfrwt>
<pdfrwt beam="1">  1       -4 0.90307749E-02 0.12499937E+03</pdfrwt>
<totfact> 0.10447686E+04</totfact>
</mgrwt>
</event>
<event>
 5    1  0.3401591E-002  0.1249983E+03  0.7818608E-02  0.1235072E+00
          4   -1    0    0  501    0  0.00000000000E+00  0.00000000000E+00  0.24533696962E+02  0.24566546086E+02  0.12700000000E+01 0.  1.
         -4   -1    0    0    0  501 -0.00000000000E+00 -0.00000000000E+00 -0.15907355645E+03  0.15907862604E+03  0.12700000000E+01 0.  1.
         25    2    1    2    0    0  0.00000000000E+00  0.00000000000E+00 -0.13453985949E+03  0.18364517212E+03  0.12499830180E+03 0.  0.
    9000005    1    3    3    0    0 -0.54814504565E+02  0.59341679517E+01 -0.24052527823E+02  0.60161186447E+02  0.10000000000E+01 0.  0.
    9000005    1    3    3    0    0  0.54814504565E+02 -0.59341679517E+01 -0.11048733166E+03  0.12348398568E+03  0.10000000000E+01 0.  0.
<mgrwt>
<rscale>  0 0.12499830E+03</rscale>
<asrwt>0</asrwt>
<pdfrwt beam="1">  1        4 0.37773318E-02 0.12499830E+03</pdfrwt>
<pdfrwt beam="2">  1       -4 0.24475771E-01 0.12499830E+03</pdfrwt>
<totfact> 0.92968484E+03</totfact>
</mgrwt>
</event>
<event>
 5    1  0.3401591E-002  0.1249990E+03  0.7818608E-02  0.1235071E+00
         -4   -1    0    0    0  501 -0.00000000000E+00  0.00000000000E+00  0.12622375539E+03  0.12623014428E+03  0.12700000000E+01 0.  1.
          4   -1    0    0  501    0  0.00000000000E+00 -0.00000000000E+00 -0.30926327760E+02  0.30952393263E+02  0.12700000000E+01 0.  1.
         25    2    1    2    0    0  0.00000000000E+00  0.00000000000E+00  0.95297427627E+02  0.15718253754E+03  0.12499900158E+03 0.  0.
    9000005    1    3    3    0    0 -0.38207536264E+02  0.46719459833E+02  0.27269008511E+02  0.66235357473E+02  0.10000000000E+01 0.  0.
    9000005    1    3    3    0    0  0.38207536264E+02 -0.46719459833E+02  0.68028419116E+02  0.90947180065E+02  0.10000000000E+01 0.  0.
<mgrwt>
<rscale>  0 0.12499900E+03</rscale>
<asrwt>0</asrwt>
<pdfrwt beam="2">  1        4 0.47603931E-02 0.12499900E+03</pdfrwt>
<pdfrwt beam="1">  1       -4 0.19421536E-01 0.12499900E+03</pdfrwt>
<totfact> 0.97890933E+03</totfact>
</mgrwt>
</event>
<event>
 5    1  0.3401591E-002  0.1250011E+03  0.7818608E-02  0.1235067E+00
         -4   -1    0    0    0  501 -0.00000000000E+00  0.00000000000E+00  0.21736868896E+03  0.21737239898E+03  0.12700000000E+01 0.  1.
          4   -1    0    0  501    0  0.00000000000E+00 -0.00000000000E+00 -0.17944642223E+02  0.17989527079E+02  0.12700000000E+01 0.  1.
         25    2    1    2    0    0  0.00000000000E+00  0.00000000000E+00  0.19942404673E+03  0.23536192606E+03  0.12500114329E+03 0.  0.
    9000005    1    3    3    0    0  0.53198527995E+02  0.32488400065E+02  0.10807800865E+03  0.12476952943E+03  0.10000000000E+01 0.  0.
    9000005    1    3    3    0    0 -0.53198527995E+02 -0.32488400065E+02  0.91346038081E+02  0.11059239663E+03  0.10000000000E+01 0.  0.
<mgrwt>
<rscale>  0 0.12500114E+03</rscale>
<asrwt>0</asrwt>
<pdfrwt beam="2">  1        4 0.27644524E-02 0.12500114E+03</pdfrwt>
<pdfrwt beam="1">  1       -4 0.33445073E-01 0.12500114E+03</pdfrwt>
<totfact> 0.84490858E+03</totfact>
</mgrwt>
</event>
<event>
 5    1  0.3401591E-002  0.1249985E+03  0.7818608E-02  0.1235072E+00
         -4   -1    0    0    0  501 -0.00000000000E+00  0.00000000000E+00  0.96933125632E+01  0.97761550953E+01  0.12700000000E+01 0. -1.
          4   -1    0    0  501    0  0.00000000000E+00 -0.00000000000E+00 -0.40117586970E+03  0.40117787991E+03  0.12700000000E+01 0. -1.
         25    2    1    2    0    0  0.00000000000E+00  0.00000000000E+00 -0.39148255713E+03  0.41095403500E+03  0.12499850537E+03 0.  0.
    9000005    1    3    3    0    0  0.57636392063E+02  0.22940888878E+02 -0.17093765084E+03  0.18184861436E+03  0.10000000000E+01 0.  0.
    9000005    1    3    3    0    0 -0.57636392063E+02 -0.22940888878E+02 -0.22054490630E+03  0.22910542064E+03  0.10000000000E+01 0.  0.
<mgrwt>
<rscale>  0 0.12499851E+03</rscale>
<asrwt>0</asrwt>
<pdfrwt beam="2">  1        4 0.61725879E-01 0.12499851E+03</pdfrwt>
<pdfrwt beam="1">  1       -4 0.14978063E-02 0.12499851E+03</pdfrwt>
<totfact> 0.63503276E+03</totfact>
</mgrwt>
</event>
<event>
 5    1  0.3401591E-002  0.1249999E+03  0.7818608E-02  0.1235069E+00
          4   -1    0    0  501    0  0.00000000000E+00  0.00000000000E+00  0.80646759922E+03  0.80646859920E+03  0.12700000000E+01 0. -1.
         -4   -1    0    0    0  501 -0.00000000000E+00 -0.00000000000E+00 -0.47593752934E+01  0.49259063311E+01  0.12700000000E+01 0. -1.
         25    2    1    2    0    0  0.00000000000E+00  0.00000000000E+00  0.80170822393E+03  0.81139450553E+03  0.12499986916E+03 0.  0.
    9000005    1    3    3    0    0 -0.37862169359E+02 -0.46513000051E+02  0.51481770753E+03  0.51830037144E+03  0.10000000000E+01 0.  0.
    9000005    1    3    3    0    0  0.37862169359E+02  0.46513000051E+02  0.28689051640E+03  0.29309413409E+03  0.10000000000E+01 0.  0.
<mgrwt>
<rscale>  0 0.12499987E+03</rscale>
<asrwt>0</asrwt>
<pdfrwt beam="1">  1        4 0.12408476E+00 0.12499987E+03</pdfrwt>
<pdfrwt beam="2">  1       -4 0.74509899E-03 0.12499987E+03</pdfrwt>
<totfact> 0.37761207E+03</totfact>
</mgrwt>
</event>
<event>
 5    1  0.3401591E-002  0.1250017E+03  0.7818608E-02  0.1235067E+00
         -4   -1    0    0    0  501 -0.00000000000E+00  0.00000000000E+00  0.12890893906E+03  0.12891519487E+03  0.12700000000E+01 0.  1.
          4   -1    0    0  501    0  0.00000000000E+00 -0.00000000000E+00 -0.30282926180E+02  0.30309544999E+02  0.12700000000E+01 0.  1.
         25    2    1    2    0    0  0.00000000000E+00  0.00000000000E+00  0.98626012876E+02  0.15922473987E+03  0.12500170947E+03 0.  0.
    9000005    1    3    3    0    0 -0.53975092390E+02  0.15958236174E+02  0.83902209048E+02  0.10103740190E+03  0.10000000000E+01 0.  0.
    9000005    1    3    3    0    0  0.53975092390E+02 -0.15958236174E+02  0.14723803827E+02  0.58187337965E+02  0.10000000000E+01 0.  0.
<mgrwt>
<rscale>  0 0.12500171E+03</rscale>
<asrwt>0</asrwt>
<pdfrwt beam="2">  1        4 0.46614406E-02 0.12500171E+03</pdfrwt>
<pdfrwt beam="1">  1       -4 0.19834673E-01 0.12500171E+03</pdfrwt>
<totfact> 0.97488711E+03</totfact>
</mgrwt>
</event>
<event>
 5    1  0.3401591E-002  0.1250012E+03  0.7818608E-02  0.1235067E+00
         -4   -1    0    0    0  501 -0.00000000000E+00  0.00000000000E+00  0.11484983691E+03  0.11485685847E+03  0.12700000000E+01 0. -1.
          4   -1    0    0  501    0  0.00000000000E+00 -0.00000000000E+00 -0.33992557680E+02  0.34016273717E+02  0.12700000000E+01 0. -1.
         25    2    1    2    0    0  0.00000000000E+00  0.00000000000E+00  0.80857279228E+02  0.14887313219E+03  0.12500123953E+03 0.  0.
    9000005    1    3    3    0    0 -0.43745867493E+02  0.15392442059E+02  0.90317473708E+02  0.10153262654E+03  0.10000000000E+01 0.  0.
    9000005    1    3    3    0    0  0.43745867493E+02 -0.15392442059E+02 -0.94601944807E+01  0.47340505646E+02  0.10000000000E+01 0.  0.
<mgrwt>
<rscale>  0 0.12500124E+03</rscale>
<asrwt>0</asrwt>
<pdfrwt beam="2">  1        4 0.52319887E-02 0.12500124E+03</pdfrwt>
<pdfrwt beam="1">  1       -4 0.17671570E-01 0.12500124E+03</pdfrwt>
<totfact> 0.99526021E+03</totfact>
</mgrwt>
</event>
<event>
 5    1  0.3401591E-002  0.1250050E+03  0.7818608E-02  0.1235061E+00
         -4   -1    0    0    0  501 -0.00000000000E+00  0.00000000000E+00  0.26632010136E+03  0.26632312946E+03  0.12700000000E+01 0.  1.
          4   -1    0    0  501    0  0.00000000000E+00 -0.00000000000E+00 -0.14638063775E+02  0.14693053157E+02  0.12700000000E+01 0.  1.
         25    2    1    2    0    0  0.00000000000E+00  0.00000000000E+00  0.25168203758E+03  0.28101618262E+03  0.12500498731E+03 0.  0.
    9000005    1    3    3    0    0  0.34443846079E+02  0.52014791483E+02  0.11753706071E+03  0.13307094990E+03  0.10000000000E+01 0.  0.
    9000005    1    3    3    0    0 -0.34443846079E+02 -0.52014791483E+02  0.13414497687E+03  0.14794523272E+03  0.10000000000E+01 0.  0.
<mgrwt>
<rscale>  0 0.12500499E+03</rscale>
<asrwt>0</asrwt>
<pdfrwt beam="2">  1        4 0.22564727E-02 0.12500499E+03</pdfrwt>
<pdfrwt beam="1">  1       -4 0.40976787E-01 0.12500499E+03</pdfrwt>
<totfact> 0.78034907E+03</totfact>
</mgrwt>
</event>
<event>
 5    1  0.3401591E-002  0.1250004E+03  0.7818608E-02  0.1235069E+00
          4   -1    0    0  501    0  0.00000000000E+00  0.00000000000E+00  0.69028140879E+02  0.69039822807E+02  0.12700000000E+01 0.  1.
         -4   -1    0    0    0  501 -0.00000000000E+00 -0.00000000000E+00 -0.56565972851E+02  0.56580227859E+02  0.12700000000E+01 0.  1.
         25    2    1    2    0    0  0.00000000000E+00  0.00000000000E+00  0.12462168028E+02  0.12562005067E+03  0.12500036599E+03 0.  0.
    9000005    1    3    3    0    0  0.33567895703E+02 -0.11538313623E+02 -0.45456727895E+02  0.57682323237E+02  0.10000000000E+01 0.  0.
    9000005    1    3    3    0    0 -0.33567895703E+02  0.11538313623E+02  0.57918895923E+02  0.67937727428E+02  0.10000000000E+01 0.  0.
<mgrwt>
<rscale>  0 0.12500037E+03</rscale>
<asrwt>0</asrwt>
<pdfrwt beam="1">  1        4 0.10621709E-01 0.12500037E+03</pdfrwt>
<pdfrwt beam="2">  1       -4 0.87044525E-02 0.12500037E+03</pdfrwt>
<totfact> 0.10439219E+04</totfact>
</mgrwt>
</event>
<event>
 5    1  0.3401591E-002  0.1249962E+03  0.7818608E-02  0.1235075E+00
         -4   -1    0    0    0  501 -0.00000000000E+00  0.00000000000E+00  0.66801131761E+02  0.66813203071E+02  0.12700000000E+01 0.  1.
          4   -1    0    0  501    0  0.00000000000E+00 -0.00000000000E+00 -0.58448013568E+02  0.58461809671E+02  0.12700000000E+01 0.  1.
         25    2    1    2    0    0  0.00000000000E+00  0.00000000000E+00  0.83531181938E+01  0.12527501274E+03  0.12499621688E+03 0.  0.
    9000005    1    3    3    0    0  0.42902781221E+02  0.28668562206E+02  0.39503987218E+02  0.64993077335E+02  0.10000000000E+01 0.  0.
    9000005    1    3    3    0    0 -0.42902781221E+02 -0.28668562206E+02 -0.31150869024E+02  0.60281935407E+02  0.10000000000E+01 0.  0.
<mgrwt>
<rscale>  0 0.12499622E+03</rscale>
<asrwt>0</asrwt>
<pdfrwt beam="2">  1        4 0.89939919E-02 0.12499622E+03</pdfrwt>
<pdfrwt beam="1">  1       -4 0.10279087E-01 0.12499622E+03</pdfrwt>
<totfact> 0.10447785E+04</totfact>
</mgrwt>
</event>
<event>
 5    1  0.3401591E-002  0.1250008E+03  0.7818608E-02  0.1235068E+00
          4   -1    0    0  501    0  0.00000000000E+00  0.00000000000E+00  0.86451674902E+01  0.87379529029E+01  0.12700000000E+01 0. -1.
         -4   -1    0    0    0  501 -0.00000000000E+00 -0.00000000000E+00 -0.44934201290E+03  0.44934380763E+03  0.12700000000E+01 0. -1.
         25    2    1    2    0    0  0.00000000000E+00  0.00000000000E+00 -0.44069684541E+03  0.45808176054E+03  0.12500075912E+03 0.  0.
    9000005    1    3    3    0    0 -0.46580864322E+02 -0.33398441861E+02 -0.12909507200E+03  0.14125073612E+03  0.10000000000E+01 0.  0.
    9000005    1    3    3    0    0  0.46580864322E+02  0.33398441861E+02 -0.31160177341E+03  0.31683102442E+03  0.10000000000E+01 0.  0.
<mgrwt>
<rscale>  0 0.12500076E+03</rscale>
<asrwt>0</asrwt>
<pdfrwt beam="1">  1        4 0.13373015E-02 0.12500076E+03</pdfrwt>
<pdfrwt beam="2">  1       -4 0.69136798E-01 0.12500076E+03</pdfrwt>
<totfact> 0.59269029E+03</totfact>
</mgrwt>
</event>
