<event>
 5    1  0.3514886E-002  0.1250011E+03  0.7818608E-02  0.1235068E+00
          4   -1    0    0  501    0  0.00000000000E+00  0.00000000000E+00  0.14236535125E+02  0.14293069382E+02  0.12700000000E+01 0. -1.
         -4   -1    0    0    0  501 -0.00000000000E+00 -0.00000000000E+00 -0.27378498052E+03  0.27378792607E+03  0.12700000000E+01 0. -1.
         25    2    1    2    0    0  0.00000000000E+00  0.00000000000E+00 -0.25954844540E+03  0.28808099545E+03  0.12500105772E+03 0.  0.
    9000005    1    3    3    0    0  0.61353777402E+02 -0.26152072449E+01 -0.10307723339E+03  0.11998767167E+03  0.10000000000E+01 0.  0.
    9000005    1    3    3    0    0 -0.61353777402E+02  0.26152072449E+01 -0.15647121201E+03  0.16809332378E+03  0.10000000000E+01 0.  0.
<mgrwt>
<rscale>  0 0.12500106E+03</rscale>
<asrwt>0</asrwt>
<pdfrwt beam="1">  1        4 0.21948118E-02 0.12500106E+03</pdfrwt>
<pdfrwt beam="2">  1       -4 0.42125337E-01 0.12500106E+03</pdfrwt>
<totfact> 0.77116871E+03</totfact>
</mgrwt>
</event>
<event>
 5    1  0.3514886E-002  0.1250004E+03  0.7818608E-02  0.1235069E+00
          4   -1    0    0  501    0  0.00000000000E+00  0.00000000000E+00  0.20261954121E+02  0.20301716302E+02  0.12700000000E+01 0.  1.
         -4   -1    0    0    0  501 -0.00000000000E+00 -0.00000000000E+00 -0.19255796740E+03  0.19256215545E+03  0.12700000000E+01 0.  1.
         25    2    1    2    0    0  0.00000000000E+00  0.00000000000E+00 -0.17229601328E+03  0.21286387175E+03  0.12500044681E+03 0.  0.
    9000005    1    3    3    0    0 -0.28802300257E+02 -0.12031993844E+02 -0.17834008382E+03  0.18105393360E+03  0.10000000000E+01 0.  0.
    9000005    1    3    3    0    0  0.28802300257E+02  0.12031993844E+02  0.60440705415E+01  0.31809938143E+02  0.10000000000E+01 0.  0.
<mgrwt>
<rscale>  0 0.12500045E+03</rscale>
<asrwt>0</asrwt>
<pdfrwt beam="1">  1        4 0.31206046E-02 0.12500045E+03</pdfrwt>
<pdfrwt beam="2">  1       -4 0.29627682E-01 0.12500045E+03</pdfrwt>
<totfact> 0.88009420E+03</totfact>
</mgrwt>
</event>
<event>
 5    1  0.3514886E-002  0.1249983E+03  0.7818608E-02  0.1235072E+00
          4   -1    0    0  501    0  0.00000000000E+00  0.00000000000E+00  0.78641339948E+02  0.78651594064E+02  0.12700000000E+01 0. -1.
         -4   -1    0    0    0  501 -0.00000000000E+00 -0.00000000000E+00 -0.49648730415E+02  0.49664970873E+02  0.12700000000E+01 0. -1.
         25    2    1    2    0    0  0.00000000000E+00  0.00000000000E+00  0.28992609533E+02  0.12831656494E+03  0.12499827771E+03 0.  0.
    9000005    1    3    3    0    0 -0.47798286281E+02  0.14824151068E+02 -0.23923302736E+02  0.55477527343E+02  0.10000000000E+01 0.  0.
    9000005    1    3    3    0    0  0.47798286281E+02 -0.14824151068E+02  0.52915912270E+02  0.72839037594E+02  0.10000000000E+01 0.  0.
<mgrwt>
<rscale>  0 0.12499828E+03</rscale>
<asrwt>0</asrwt>
<pdfrwt beam="1">  1        4 0.12100706E-01 0.12499828E+03</pdfrwt>
<pdfrwt beam="2">  1       -4 0.76403043E-02 0.12499828E+03</pdfrwt>
<totfact> 0.10381060E+04</totfact>
</mgrwt>
</event>
<event>
 5    1  0.3514886E-002  0.1250038E+03  0.7818608E-02  0.1235063E+00
         -4   -1    0    0    0  501 -0.00000000000E+00  0.00000000000E+00  0.74611552764E+02  0.74622360629E+02  0.12700000000E+01 0. -1.
          4   -1    0    0  501    0  0.00000000000E+00 -0.00000000000E+00 -0.52335347573E+02  0.52350754585E+02  0.12700000000E+01 0. -1.
         25    2    1    2    0    0  0.00000000000E+00  0.00000000000E+00  0.22276205190E+02  0.12697311521E+03  0.12500377062E+03 0.  0.
    9000005    1    3    3    0    0  0.17086659670E+02  0.43068010073E+02  0.53735381386E+02  0.70959838240E+02  0.10000000000E+01 0.  0.
    9000005    1    3    3    0    0 -0.17086659670E+02 -0.43068010073E+02 -0.31459176196E+02  0.56013276973E+02  0.10000000000E+01 0.  0.
<mgrwt>
<rscale>  0 0.12500377E+03</rscale>
<asrwt>0</asrwt>
<pdfrwt beam="2">  1        4 0.80536084E-02 0.12500377E+03</pdfrwt>
<pdfrwt beam="1">  1       -4 0.11480717E-01 0.12500377E+03</pdfrwt>
<totfact> 0.10408844E+04</totfact>
</mgrwt>
</event>
<event>
 5    1  0.3514886E-002  0.1249941E+03  0.7818608E-02  0.1235079E+00
         -4   -1    0    0    0  501 -0.00000000000E+00  0.00000000000E+00  0.14967447070E+03  0.14967985863E+03  0.12700000000E+01 0.  1.
          4   -1    0    0  501    0  0.00000000000E+00 -0.00000000000E+00 -0.26074527941E+02  0.26105438272E+02  0.12700000000E+01 0.  1.
         25    2    1    2    0    0  0.00000000000E+00  0.00000000000E+00  0.12359994276E+03  0.17578529690E+03  0.12499409889E+03 0.  0.
    9000005    1    3    3    0    0 -0.58049797427E+02 -0.23127167120E+02  0.62483678144E+02  0.88373383293E+02  0.10000000000E+01 0.  0.
    9000005    1    3    3    0    0  0.58049797427E+02  0.23127167120E+02  0.61116264616E+02  0.87411913610E+02  0.10000000000E+01 0.  0.
<mgrwt>
<rscale>  0 0.12499410E+03</rscale>
<asrwt>0</asrwt>
<pdfrwt beam="2">  1        4 0.40142580E-02 0.12499410E+03</pdfrwt>
<pdfrwt beam="1">  1       -4 0.23029634E-01 0.12499410E+03</pdfrwt>
<totfact> 0.94393706E+03</totfact>
</mgrwt>
</event>
<event>
 5    1  0.3514886E-002  0.1249995E+03  0.7818608E-02  0.1235070E+00
          4   -1    0    0  501    0  0.00000000000E+00  0.00000000000E+00  0.14859346318E+03  0.14859889031E+03  0.12700000000E+01 0.  1.
         -4   -1    0    0    0  501 -0.00000000000E+00 -0.00000000000E+00 -0.26266719271E+02  0.26297403698E+02  0.12700000000E+01 0.  1.
         25    2    1    2    0    0  0.00000000000E+00  0.00000000000E+00  0.12232674391E+03  0.17489629401E+03  0.12499952552E+03 0.  0.
    9000005    1    3    3    0    0  0.31758167204E+02  0.14959564292E+02 -0.11173476638E+02  0.36853986597E+02  0.10000000000E+01 0.  0.
    9000005    1    3    3    0    0 -0.31758167204E+02 -0.14959564292E+02  0.13350022055E+03  0.13804230741E+03  0.10000000000E+01 0.  0.
<mgrwt>
<rscale>  0 0.12499953E+03</rscale>
<asrwt>0</asrwt>
<pdfrwt beam="1">  1        4 0.22863311E-01 0.12499953E+03</pdfrwt>
<pdfrwt beam="2">  1       -4 0.40438115E-02 0.12499953E+03</pdfrwt>
<totfact> 0.94544843E+03</totfact>
</mgrwt>
</event>
<event>
 5    1  0.3514886E-002  0.1249966E+03  0.7818608E-02  0.1235075E+00
         -4   -1    0    0    0  501 -0.00000000000E+00  0.00000000000E+00  0.47415339398E+02  0.47432344558E+02  0.12700000000E+01 0.  1.
          4   -1    0    0  501    0  0.00000000000E+00 -0.00000000000E+00 -0.82342496022E+02  0.82352289289E+02  0.12700000000E+01 0.  1.
         25    2    1    2    0    0  0.00000000000E+00  0.00000000000E+00 -0.34927156624E+02  0.12978463385E+03  0.12499657961E+03 0.  0.
    9000005    1    3    3    0    0  0.84542643369E+01 -0.60402034210E+02 -0.31592009213E+02  0.68694507555E+02  0.10000000000E+01 0.  0.
    9000005    1    3    3    0    0 -0.84542643369E+01  0.60402034210E+02 -0.33351474114E+01  0.61090126292E+02  0.10000000000E+01 0.  0.
<mgrwt>
<rscale>  0 0.12499658E+03</rscale>
<asrwt>0</asrwt>
<pdfrwt beam="2">  1        4 0.12670138E-01 0.12499658E+03</pdfrwt>
<pdfrwt beam="1">  1       -4 0.72967290E-02 0.12499658E+03</pdfrwt>
<totfact> 0.10349916E+04</totfact>
</mgrwt>
</event>
<event>
 5    1  0.3514886E-002  0.1250057E+03  0.7818608E-02  0.1235060E+00
         -4   -1    0    0    0  501 -0.00000000000E+00  0.00000000000E+00  0.38250308721E+01  0.40303549685E+01  0.12700000000E+01 0.  1.
          4   -1    0    0  501    0  0.00000000000E+00 -0.00000000000E+00 -0.99442552503E+03  0.99442633600E+03  0.12700000000E+01 0.  1.
         25    2    1    2    0    0  0.00000000000E+00  0.00000000000E+00 -0.99060049416E+03  0.99845669097E+03  0.12500569873E+03 0.  0.
    9000005    1    3    3    0    0 -0.47910883639E+02  0.29117366032E+02 -0.71583224380E+03  0.71802512145E+03  0.10000000000E+01 0.  0.
    9000005    1    3    3    0    0  0.47910883639E+02 -0.29117366032E+02 -0.27476825036E+03  0.28043156952E+03  0.10000000000E+01 0.  0.
<mgrwt>
<rscale>  0 0.12500570E+03</rscale>
<asrwt>0</asrwt>
<pdfrwt beam="2">  1        4 0.15300420E+00 0.12500570E+03</pdfrwt>
<pdfrwt beam="1">  1       -4 0.60432362E-03 0.12500570E+03</pdfrwt>
<totfact> 0.30651726E+03</totfact>
</mgrwt>
</event>
<event>
 5    1  0.3514886E-002  0.1249937E+03  0.7818608E-02  0.1235079E+00
         -4   -1    0    0    0  501 -0.00000000000E+00  0.00000000000E+00  0.14247753445E+03  0.14248319452E+03  0.12700000000E+01 0. -1.
          4   -1    0    0  501    0  0.00000000000E+00 -0.00000000000E+00 -0.27392922481E+02  0.27422346764E+02  0.12700000000E+01 0. -1.
         25    2    1    2    0    0  0.00000000000E+00  0.00000000000E+00  0.11508461197E+03  0.16990554129E+03  0.12499370004E+03 0.  0.
    9000005    1    3    3    0    0  0.40310697638E+02 -0.95643854454E+01  0.12113180398E+03  0.12802477787E+03  0.10000000000E+01 0.  0.
    9000005    1    3    3    0    0 -0.40310697638E+02  0.95643854454E+01 -0.60471920176E+01  0.41880763416E+02  0.10000000000E+01 0.  0.
<mgrwt>
<rscale>  0 0.12499370E+03</rscale>
<asrwt>0</asrwt>
<pdfrwt beam="2">  1        4 0.42169945E-02 0.12499370E+03</pdfrwt>
<pdfrwt beam="1">  1       -4 0.21922320E-01 0.12499370E+03</pdfrwt>
<totfact> 0.95479745E+03</totfact>
</mgrwt>
</event>
<event>
 5    1  0.3514886E-002  0.1250020E+03  0.7818608E-02  0.1235066E+00
         -4   -1    0    0    0  501 -0.00000000000E+00  0.00000000000E+00  0.19017130476E+03  0.19017554536E+03  0.12700000000E+01 0. -1.
          4   -1    0    0  501    0  0.00000000000E+00 -0.00000000000E+00 -0.20517256631E+02  0.20556524990E+02  0.12700000000E+01 0. -1.
         25    2    1    2    0    0  0.00000000000E+00  0.00000000000E+00  0.16965404813E+03  0.21073207035E+03  0.12500203770E+03 0.  0.
    9000005    1    3    3    0    0  0.21116086038E+01  0.62347586861E+02  0.78587889574E+02  0.10034309576E+03  0.10000000000E+01 0.  0.
    9000005    1    3    3    0    0 -0.21116086038E+01 -0.62347586861E+02  0.91066158553E+02  0.11038897459E+03  0.10000000000E+01 0.  0.
<mgrwt>
<rscale>  0 0.12500204E+03</rscale>
<asrwt>0</asrwt>
<pdfrwt beam="2">  1        4 0.31598477E-02 0.12500204E+03</pdfrwt>
<pdfrwt beam="1">  1       -4 0.29260472E-01 0.12500204E+03</pdfrwt>
<totfact> 0.88352437E+03</totfact>
</mgrwt>
</event>
<event>
 5    1  0.3514886E-002  0.1249992E+03  0.7818608E-02  0.1235071E+00
         -4   -1    0    0    0  501 -0.00000000000E+00  0.00000000000E+00  0.76208066760E+02  0.76218648238E+02  0.12700000000E+01 0.  1.
          4   -1    0    0  501    0  0.00000000000E+00 -0.00000000000E+00 -0.51235023464E+02  0.51250761256E+02  0.12700000000E+01 0.  1.
         25    2    1    2    0    0  0.00000000000E+00  0.00000000000E+00  0.24973043296E+02  0.12746940949E+03  0.12499918986E+03 0.  0.
    9000005    1    3    3    0    0  0.67319614203E+00  0.23439649583E+02  0.71556434609E+02  0.75307328326E+02  0.10000000000E+01 0.  0.
    9000005    1    3    3    0    0 -0.67319614203E+00 -0.23439649583E+02 -0.46583391313E+02  0.52162081168E+02  0.10000000000E+01 0.  0.
<mgrwt>
<rscale>  0 0.12499919E+03</rscale>
<asrwt>0</asrwt>
<pdfrwt beam="2">  1        4 0.78843359E-02 0.12499919E+03</pdfrwt>
<pdfrwt beam="1">  1       -4 0.11726342E-01 0.12499919E+03</pdfrwt>
<totfact> 0.10399153E+04</totfact>
</mgrwt>
</event>
<event>
 5    1  0.3514886E-002  0.1249832E+03  0.7818608E-02  0.1235096E+00
         -4   -1    0    0    0  501 -0.00000000000E+00  0.00000000000E+00  0.67733196127E+02  0.67745101355E+02  0.12700000000E+01 0.  1.
          4   -1    0    0  501    0  0.00000000000E+00 -0.00000000000E+00 -0.57631648038E+02  0.57645639519E+02  0.12700000000E+01 0.  1.
         25    2    1    2    0    0  0.00000000000E+00  0.00000000000E+00  0.10101548089E+02  0.12539074087E+03  0.12498318536E+03 0.  0.
    9000005    1    3    3    0    0  0.50473662839E+02  0.24565021523E+02  0.32584176090E+02  0.64913476677E+02  0.10000000000E+01 0.  0.
    9000005    1    3    3    0    0 -0.50473662839E+02 -0.24565021523E+02 -0.22482628001E+02  0.60477264196E+02  0.10000000000E+01 0.  0.
<mgrwt>
<rscale>  0 0.12498319E+03</rscale>
<asrwt>0</asrwt>
<pdfrwt beam="2">  1        4 0.88683995E-02 0.12498319E+03</pdfrwt>
<pdfrwt beam="1">  1       -4 0.10422484E-01 0.12498319E+03</pdfrwt>
<totfact> 0.10448333E+04</totfact>
</mgrwt>
</event>
<event>
 5    1  0.3514886E-002  0.1249982E+03  0.7818608E-02  0.1235072E+00
         -4   -1    0    0    0  501 -0.00000000000E+00  0.00000000000E+00  0.74194417324E+02  0.74205285944E+02  0.12700000000E+01 0. -1.
          4   -1    0    0  501    0  0.00000000000E+00 -0.00000000000E+00 -0.52624975108E+02  0.52640297350E+02  0.12700000000E+01 0. -1.
         25    2    1    2    0    0  0.00000000000E+00  0.00000000000E+00  0.21569442216E+02  0.12684558329E+03  0.12499824464E+03 0.  0.
    9000005    1    3    3    0    0  0.10742300286E+02 -0.47956584991E+02  0.49954519948E+02  0.70083415460E+02  0.10000000000E+01 0.  0.
    9000005    1    3    3    0    0 -0.10742300286E+02  0.47956584991E+02 -0.28385077731E+02  0.56762167834E+02  0.10000000000E+01 0.  0.
<mgrwt>
<rscale>  0 0.12499824E+03</rscale>
<asrwt>0</asrwt>
<pdfrwt beam="2">  1        4 0.80981648E-02 0.12499824E+03</pdfrwt>
<pdfrwt beam="1">  1       -4 0.11416540E-01 0.12499824E+03</pdfrwt>
<totfact> 0.10412915E+04</totfact>
</mgrwt>
</event>
<event>
 5    1  0.3514886E-002  0.1249906E+03  0.7818608E-02  0.1235084E+00
         -4   -1    0    0    0  501 -0.00000000000E+00  0.00000000000E+00  0.69574263572E+03  0.69574379484E+03  0.12700000000E+01 0. -1.
          4   -1    0    0  501    0  0.00000000000E+00 -0.00000000000E+00 -0.55406524668E+01  0.56843407496E+01  0.12700000000E+01 0. -1.
         25    2    1    2    0    0  0.00000000000E+00  0.00000000000E+00  0.69020198326E+03  0.70142813559E+03  0.12499060649E+03 0.  0.
    9000005    1    3    3    0    0 -0.55835110360E+02 -0.12627035048E+02  0.48569554783E+03  0.48905844921E+03  0.10000000000E+01 0.  0.
    9000005    1    3    3    0    0  0.55835110360E+02  0.12627035048E+02  0.20450643542E+03  0.21236968638E+03  0.10000000000E+01 0.  0.
<mgrwt>
<rscale>  0 0.12499061E+03</rscale>
<asrwt>0</asrwt>
<pdfrwt beam="2">  1        4 0.86355110E-03 0.12499061E+03</pdfrwt>
<pdfrwt beam="1">  1       -4 0.10704836E+00 0.12499061E+03</pdfrwt>
<totfact> 0.43020287E+03</totfact>
</mgrwt>
</event>
<event>
 5    1  0.3514886E-002  0.1250010E+03  0.7818608E-02  0.1235068E+00
         -4   -1    0    0    0  501 -0.00000000000E+00  0.00000000000E+00  0.21854371610E+02  0.21891241593E+02  0.12700000000E+01 0. -1.
          4   -1    0    0  501    0  0.00000000000E+00 -0.00000000000E+00 -0.17855313293E+03  0.17855764946E+03  0.12700000000E+01 0. -1.
         25    2    1    2    0    0  0.00000000000E+00  0.00000000000E+00 -0.15669876132E+03  0.20044889105E+03  0.12500102449E+03 0.  0.
    9000005    1    3    3    0    0 -0.22762607698E+02  0.10045391900E+02 -0.17027605796E+03  0.17208713526E+03  0.10000000000E+01 0.  0.
    9000005    1    3    3    0    0  0.22762607698E+02 -0.10045391900E+02  0.13577296637E+02  0.28361755792E+02  0.10000000000E+01 0.  0.
<mgrwt>
<rscale>  0 0.12500102E+03</rscale>
<asrwt>0</asrwt>
<pdfrwt beam="2">  1        4 0.27472895E-01 0.12500102E+03</pdfrwt>
<pdfrwt beam="1">  1       -4 0.33653947E-02 0.12500102E+03</pdfrwt>
<totfact> 0.90057788E+03</totfact>
</mgrwt>
</event>
<event>
 5    1  0.3514886E-002  0.1250430E+03  0.7818608E-02  0.1235002E+00
          4   -1    0    0  501    0  0.00000000000E+00  0.00000000000E+00  0.14003237177E+04  0.14003242936E+04  0.12700000000E+01 0.  1.
         -4   -1    0    0    0  501 -0.00000000000E+00 -0.00000000000E+00 -0.26463952024E+01  0.29353547600E+01  0.12700000000E+01 0.  1.
         25    2    1    2    0    0  0.00000000000E+00  0.00000000000E+00  0.13976773225E+04  0.14032596484E+04  0.12504296421E+03 0.  0.
    9000005    1    3    3    0    0 -0.24685102321E+02 -0.30443479691E+02  0.12453706809E+04  0.12459876775E+04  0.10000000000E+01 0.  0.
    9000005    1    3    3    0    0  0.24685102321E+02  0.30443479691E+02  0.15230664161E+03  0.15727197084E+03  0.10000000000E+01 0.  0.
<mgrwt>
<rscale>  0 0.12504296E+03</rscale>
<asrwt>0</asrwt>
<pdfrwt beam="1">  1        4 0.21545667E+00 0.12504296E+03</pdfrwt>
<pdfrwt beam="2">  1       -4 0.42940972E-03 0.12504296E+03</pdfrwt>
<totfact> 0.19892414E+03</totfact>
</mgrwt>
</event>
<event>
 5    1  0.3514886E-002  0.1249992E+03  0.7818608E-02  0.1235071E+00
         -4   -1    0    0    0  501 -0.00000000000E+00  0.00000000000E+00  0.45127411438E+01  0.46880414494E+01  0.12700000000E+01 0.  1.
          4   -1    0    0  501    0  0.00000000000E+00 -0.00000000000E+00 -0.84892600392E+03  0.84892695388E+03  0.12700000000E+01 0.  1.
         25    2    1    2    0    0  0.00000000000E+00  0.00000000000E+00 -0.84441326277E+03  0.85361499533E+03  0.12499920762E+03 0.  0.
    9000005    1    3    3    0    0  0.22043338054E+00 -0.61035957765E+02 -0.33064662173E+03  0.33623447948E+03  0.10000000000E+01 0.  0.
    9000005    1    3    3    0    0 -0.22043338054E+00  0.61035957765E+02 -0.51376664105E+03  0.51738051585E+03  0.10000000000E+01 0.  0.
<mgrwt>
<rscale>  0 0.12499921E+03</rscale>
<asrwt>0</asrwt>
<pdfrwt beam="2">  1        4 0.13061743E+00 0.12499921E+03</pdfrwt>
<pdfrwt beam="1">  1       -4 0.70782626E-03 0.12499921E+03</pdfrwt>
<totfact> 0.35980503E+03</totfact>
</mgrwt>
</event>
<event>
 5    1  0.3514886E-002  0.1249994E+03  0.7818608E-02  0.1235070E+00
         -4   -1    0    0    0  501 -0.00000000000E+00  0.00000000000E+00  0.16573496694E+02  0.16622084486E+02  0.12700000000E+01 0. -1.
          4   -1    0    0  501    0  0.00000000000E+00 -0.00000000000E+00 -0.23529505823E+03  0.23529848560E+03  0.12700000000E+01 0. -1.
         25    2    1    2    0    0  0.00000000000E+00  0.00000000000E+00 -0.21872156153E+03  0.25192057009E+03  0.12499940861E+03 0.  0.
    9000005    1    3    3    0    0  0.61502017482E+02  0.72057007483E+01 -0.92403738737E+02  0.11123790366E+03  0.10000000000E+01 0.  0.
    9000005    1    3    3    0    0 -0.61502017482E+02 -0.72057007483E+01 -0.12631782280E+03  0.14068266643E+03  0.10000000000E+01 0.  0.
<mgrwt>
<rscale>  0 0.12499941E+03</rscale>
<asrwt>0</asrwt>
<pdfrwt beam="2">  1        4 0.36203238E-01 0.12499941E+03</pdfrwt>
<pdfrwt beam="1">  1       -4 0.25537701E-02 0.12499941E+03</pdfrwt>
<totfact> 0.82054518E+03</totfact>
</mgrwt>
</event>
<event>
 5    1  0.3514886E-002  0.1250013E+03  0.7818608E-02  0.1235067E+00
         -4   -1    0    0    0  501 -0.00000000000E+00  0.00000000000E+00  0.35639808662E+03  0.35640034939E+03  0.12700000000E+01 0.  1.
          4   -1    0    0  501    0  0.00000000000E+00 -0.00000000000E+00 -0.10921485284E+02  0.10995078027E+02  0.12700000000E+01 0.  1.
         25    2    1    2    0    0  0.00000000000E+00  0.00000000000E+00  0.34547660133E+03  0.36739542741E+03  0.12500127206E+03 0.  0.
    9000005    1    3    3    0    0  0.29144358281E+02  0.18651040123E+02  0.19788250041E+02  0.39872669298E+02  0.10000000000E+01 0.  0.
    9000005    1    3    3    0    0 -0.29144358281E+02 -0.18651040123E+02  0.32568835129E+03  0.32752275812E+03  0.10000000000E+01 0.  0.
<mgrwt>
<rscale>  0 0.12500127E+03</rscale>
<asrwt>0</asrwt>
<pdfrwt beam="2">  1        4 0.16860638E-02 0.12500127E+03</pdfrwt>
<pdfrwt beam="1">  1       -4 0.54836302E-01 0.12500127E+03</pdfrwt>
<totfact> 0.67850402E+03</totfact>
</mgrwt>
</event>
<event>
 5    1  0.3514886E-002  0.1250003E+03  0.7818608E-02  0.1235069E+00
          4   -1    0    0  501    0  0.00000000000E+00  0.00000000000E+00  0.24047283475E+02  0.24080796135E+02  0.12700000000E+01 0. -1.
         -4   -1    0    0    0  501 -0.00000000000E+00 -0.00000000000E+00 -0.16229196834E+03  0.16229693740E+03  0.12700000000E+01 0. -1.
         25    2    1    2    0    0  0.00000000000E+00  0.00000000000E+00 -0.13824468487E+03  0.18637773353E+03  0.12500026665E+03 0.  0.
    9000005    1    3    3    0    0 -0.39812792777E+02  0.77427414809E+00  0.26885709776E+01  0.39923506648E+02  0.10000000000E+01 0.  0.
    9000005    1    3    3    0    0  0.39812792777E+02 -0.77427414809E+00 -0.14093325585E+03  0.14645422689E+03  0.10000000000E+01 0.  0.
<mgrwt>
<rscale>  0 0.12500027E+03</rscale>
<asrwt>0</asrwt>
<pdfrwt beam="1">  1        4 0.37025423E-02 0.12500027E+03</pdfrwt>
<pdfrwt beam="2">  1       -4 0.24970955E-01 0.12500027E+03</pdfrwt>
<totfact> 0.92480872E+03</totfact>
</mgrwt>
</event>
<event>
 5    1  0.3514886E-002  0.1249999E+03  0.7818608E-02  0.1235069E+00
         -4   -1    0    0    0  501 -0.00000000000E+00  0.00000000000E+00  0.19192787460E+02  0.19234759954E+02  0.12700000000E+01 0. -1.
          4   -1    0    0  501    0  0.00000000000E+00 -0.00000000000E+00 -0.20326028576E+03  0.20326425329E+03  0.12700000000E+01 0. -1.
         25    2    1    2    0    0  0.00000000000E+00  0.00000000000E+00 -0.18406749830E+03  0.22249901325E+03  0.12499986786E+03 0.  0.
    9000005    1    3    3    0    0  0.47919784318E+02 -0.12810637403E+02 -0.24374691286E+02  0.55276972919E+02  0.10000000000E+01 0.  0.
    9000005    1    3    3    0    0 -0.47919784318E+02  0.12810637403E+02 -0.15969280701E+03  0.16722204033E+03  0.10000000000E+01 0.  0.
<mgrwt>
<rscale>  0 0.12499987E+03</rscale>
<asrwt>0</asrwt>
<pdfrwt beam="2">  1        4 0.31274346E-01 0.12499987E+03</pdfrwt>
<pdfrwt beam="1">  1       -4 0.29562705E-02 0.12499987E+03</pdfrwt>
<totfact> 0.86474708E+03</totfact>
</mgrwt>
</event>
<event>
 5    1  0.3514886E-002  0.1250061E+03  0.7818608E-02  0.1235060E+00
          4   -1    0    0  501    0  0.00000000000E+00  0.00000000000E+00  0.40510692429E+02  0.40530594630E+02  0.12700000000E+01 0. -1.
         -4   -1    0    0    0  501 -0.00000000000E+00 -0.00000000000E+00 -0.96386875977E+02  0.96395242417E+02  0.12700000000E+01 0. -1.
         25    2    1    2    0    0  0.00000000000E+00  0.00000000000E+00 -0.55876183548E+02  0.13692583705E+03  0.12500614770E+03 0.  0.
    9000005    1    3    3    0    0 -0.39537501671E+02  0.47171968113E+02 -0.16078620863E+02  0.63623349982E+02  0.10000000000E+01 0.  0.
    9000005    1    3    3    0    0  0.39537501671E+02 -0.47171968113E+02 -0.39797562686E+02  0.73302487064E+02  0.10000000000E+01 0.  0.
<mgrwt>
<rscale>  0 0.12500615E+03</rscale>
<asrwt>0</asrwt>
<pdfrwt beam="1">  1        4 0.62345888E-02 0.12500615E+03</pdfrwt>
<pdfrwt beam="2">  1       -4 0.14830925E-01 0.12500615E+03</pdfrwt>
<totfact> 0.10196223E+04</totfact>
</mgrwt>
</event>
<event>
 5    1  0.3514886E-002  0.1250004E+03  0.7818608E-02  0.1235069E+00
          4   -1    0    0  501    0  0.00000000000E+00  0.00000000000E+00  0.30477395392E+03  0.30477659996E+03  0.12700000000E+01 0. -1.
         -4   -1    0    0    0  501 -0.00000000000E+00 -0.00000000000E+00 -0.12782790920E+02  0.12845724725E+02  0.12700000000E+01 0. -1.
         25    2    1    2    0    0  0.00000000000E+00  0.00000000000E+00  0.29199116300E+03  0.31762232469E+03  0.12500040749E+03 0.  0.
    9000005    1    3    3    0    0  0.44232293392E+02 -0.44140590032E+02  0.14441281773E+03  0.15735612283E+03  0.10000000000E+01 0.  0.
    9000005    1    3    3    0    0 -0.44232293392E+02  0.44140590032E+02  0.14757834527E+03  0.16026620186E+03  0.10000000000E+01 0.  0.
<mgrwt>
<rscale>  0 0.12500041E+03</rscale>
<asrwt>0</asrwt>
<pdfrwt beam="1">  1        4 0.46893345E-01 0.12500041E+03</pdfrwt>
<pdfrwt beam="2">  1       -4 0.19716278E-02 0.12500041E+03</pdfrwt>
<totfact> 0.73439148E+03</totfact>
</mgrwt>
</event>
<event>
 5    1  0.3514886E-002  0.1249963E+03  0.7818608E-02  0.1235075E+00
          4   -1    0    0  501    0  0.00000000000E+00  0.00000000000E+00  0.13090926972E+02  0.13152386437E+02  0.12700000000E+01 0. -1.
         -4   -1    0    0    0  501 -0.00000000000E+00 -0.00000000000E+00 -0.29761463116E+03  0.29761734086E+03  0.12700000000E+01 0. -1.
         25    2    1    2    0    0  0.00000000000E+00  0.00000000000E+00 -0.28452370419E+03  0.31076972730E+03  0.12499634059E+03 0.  0.
    9000005    1    3    3    0    0  0.91706579207E+01 -0.18016861092E+02 -0.28927174559E+03  0.28997905277E+03  0.10000000000E+01 0.  0.
    9000005    1    3    3    0    0 -0.91706579207E+01  0.18016861092E+02  0.47480413964E+01  0.20790674530E+02  0.10000000000E+01 0.  0.
<mgrwt>
<rscale>  0 0.12499634E+03</rscale>
<asrwt>0</asrwt>
<pdfrwt beam="1">  1        4 0.20189251E-02 0.12499634E+03</pdfrwt>
<pdfrwt beam="2">  1       -4 0.45791797E-01 0.12499634E+03</pdfrwt>
<totfact> 0.74273494E+03</totfact>
</mgrwt>
</event>
<event>
 5    1  0.3514886E-002  0.1249997E+03  0.7818608E-02  0.1235070E+00
          4   -1    0    0  501    0  0.00000000000E+00  0.00000000000E+00  0.64461555820E+02  0.64474065164E+02  0.12700000000E+01 0. -1.
         -4   -1    0    0    0  501 -0.00000000000E+00 -0.00000000000E+00 -0.60572775145E+02  0.60586087419E+02  0.12700000000E+01 0. -1.
         25    2    1    2    0    0  0.00000000000E+00  0.00000000000E+00  0.38887806752E+01  0.12506015258E+03  0.12499967660E+03 0.  0.
    9000005    1    3    3    0    0  0.49448036722E+02 -0.36414315252E+02 -0.96421925847E+01  0.62169788232E+02  0.10000000000E+01 0.  0.
    9000005    1    3    3    0    0 -0.49448036722E+02  0.36414315252E+02  0.13530973260E+02  0.62890364352E+02  0.10000000000E+01 0.  0.
<mgrwt>
<rscale>  0 0.12499968E+03</rscale>
<asrwt>0</asrwt>
<pdfrwt beam="1">  1        4 0.99191487E-02 0.12499968E+03</pdfrwt>
<pdfrwt beam="2">  1       -4 0.93208747E-02 0.12499968E+03</pdfrwt>
<totfact> 0.10451633E+04</totfact>
</mgrwt>
</event>
<event>
 5    1  0.3514886E-002  0.1250023E+03  0.7818608E-02  0.1235066E+00
          4   -1    0    0  501    0  0.00000000000E+00  0.00000000000E+00  0.38481436015E+02  0.38502387170E+02  0.12700000000E+01 0.  1.
         -4   -1    0    0    0  501 -0.00000000000E+00 -0.00000000000E+00 -0.10146114673E+03  0.10146909478E+03  0.12700000000E+01 0.  1.
         25    2    1    2    0    0  0.00000000000E+00  0.00000000000E+00 -0.62979710710E+02  0.13997148195E+03  0.12500228717E+03 0.  0.
    9000005    1    3    3    0    0  0.39656366319E+02  0.20111273647E+02 -0.80660868105E+02  0.92110077411E+02  0.10000000000E+01 0.  0.
    9000005    1    3    3    0    0 -0.39656366319E+02 -0.20111273647E+02  0.17681157395E+02  0.47861404536E+02  0.10000000000E+01 0.  0.
<mgrwt>
<rscale>  0 0.12500229E+03</rscale>
<asrwt>0</asrwt>
<pdfrwt beam="1">  1        4 0.59224439E-02 0.12500229E+03</pdfrwt>
<pdfrwt beam="2">  1       -4 0.15611630E-01 0.12500229E+03</pdfrwt>
<totfact> 0.10133655E+04</totfact>
</mgrwt>
</event>
<event>
 5    1  0.3514886E-002  0.1250070E+03  0.7818608E-02  0.1235058E+00
         -4   -1    0    0    0  501 -0.00000000000E+00  0.00000000000E+00  0.54607993880E+01  0.56065345763E+01  0.12700000000E+01 0.  1.
          4   -1    0    0  501    0  0.00000000000E+00 -0.00000000000E+00 -0.70583870217E+03  0.70583984471E+03  0.12700000000E+01 0.  1.
         25    2    1    2    0    0  0.00000000000E+00  0.00000000000E+00 -0.70037790278E+03  0.71144637929E+03  0.12500697539E+03 0.  0.
    9000005    1    3    3    0    0 -0.40377989183E+02 -0.26936697594E+02 -0.12614444213E+03  0.13516429990E+03  0.10000000000E+01 0.  0.
    9000005    1    3    3    0    0  0.40377989183E+02  0.26936697594E+02 -0.57423346065E+03  0.57628207938E+03  0.10000000000E+01 0.  0.
<mgrwt>
<rscale>  0 0.12500698E+03</rscale>
<asrwt>0</asrwt>
<pdfrwt beam="2">  1        4 0.10860180E+00 0.12500698E+03</pdfrwt>
<pdfrwt beam="1">  1       -4 0.85142183E-03 0.12500698E+03</pdfrwt>
<totfact> 0.42482849E+03</totfact>
</mgrwt>
</event>
<event>
 5    1  0.3514886E-002  0.1249985E+03  0.7818608E-02  0.1235072E+00
          4   -1    0    0  501    0  0.00000000000E+00  0.00000000000E+00  0.11803087895E+02  0.11871216612E+02  0.12700000000E+01 0.  1.
         -4   -1    0    0    0  501 -0.00000000000E+00 -0.00000000000E+00 -0.32992160039E+03  0.32992404475E+03  0.12700000000E+01 0.  1.
         25    2    1    2    0    0  0.00000000000E+00  0.00000000000E+00 -0.31811851250E+03  0.34179526137E+03  0.12499845078E+03 0.  0.
    9000005    1    3    3    0    0  0.13370402399E+02 -0.48677653047E+02 -0.58335761811E+02  0.77151426899E+02  0.10000000000E+01 0.  0.
    9000005    1    3    3    0    0 -0.13370402399E+02  0.48677653047E+02 -0.25978275069E+03  0.26464383447E+03  0.10000000000E+01 0.  0.
<mgrwt>
<rscale>  0 0.12499845E+03</rscale>
<asrwt>0</asrwt>
<pdfrwt beam="1">  1        4 0.18212886E-02 0.12499845E+03</pdfrwt>
<pdfrwt beam="2">  1       -4 0.50762591E-01 0.12499845E+03</pdfrwt>
<totfact> 0.70639136E+03</totfact>
</mgrwt>
</event>
<event>
 5    1  0.3514886E-002  0.1249975E+03  0.7818608E-02  0.1235073E+00
         -4   -1    0    0    0  501 -0.00000000000E+00  0.00000000000E+00  0.19570541439E+02  0.19611705490E+02  0.12700000000E+01 0. -1.
          4   -1    0    0  501    0  0.00000000000E+00 -0.00000000000E+00 -0.19933763838E+03  0.19934168399E+03  0.12700000000E+01 0. -1.
         25    2    1    2    0    0  0.00000000000E+00  0.00000000000E+00 -0.17976709694E+03  0.21895338948E+03  0.12499751046E+03 0.  0.
    9000005    1    3    3    0    0  0.58856331944E+02  0.64915591944E+00 -0.53115116063E+02  0.79288743007E+02  0.10000000000E+01 0.  0.
    9000005    1    3    3    0    0 -0.58856331944E+02 -0.64915591944E+00 -0.12665198088E+03  0.13966464647E+03  0.10000000000E+01 0.  0.
<mgrwt>
<rscale>  0 0.12499751E+03</rscale>
<asrwt>0</asrwt>
<pdfrwt beam="2">  1        4 0.30670805E-01 0.12499751E+03</pdfrwt>
<pdfrwt beam="1">  1       -4 0.30143303E-02 0.12499751E+03</pdfrwt>
<totfact> 0.87039074E+03</totfact>
</mgrwt>
</event>
<event>
 5    1  0.3514886E-002  0.1249909E+03  0.7818608E-02  0.1235084E+00
          4   -1    0    0  501    0  0.00000000000E+00  0.00000000000E+00  0.27749075382E+01  0.30517227668E+01  0.12700000000E+01 0. -1.
         -4   -1    0    0    0  501 -0.00000000000E+00 -0.00000000000E+00 -0.13403536850E+04  0.13403542867E+04  0.12700000000E+01 0. -1.
         25    2    1    2    0    0  0.00000000000E+00  0.00000000000E+00 -0.13375787775E+04  0.13434060095E+04  0.12499088076E+03 0.  0.
    9000005    1    3    3    0    0  0.38102639273E+02  0.26343427416E+01 -0.13723109578E+03  0.14245042832E+03  0.10000000000E+01 0.  0.
    9000005    1    3    3    0    0 -0.38102639273E+02 -0.26343427416E+01 -0.12003476817E+04  0.12009555811E+04  0.10000000000E+01 0.  0.
<mgrwt>
<rscale>  0 0.12499088E+03</rscale>
<asrwt>0</asrwt>
<pdfrwt beam="1">  1        4 0.44824969E-03 0.12499088E+03</pdfrwt>
<pdfrwt beam="2">  1       -4 0.20622911E+00 0.12499088E+03</pdfrwt>
<totfact> 0.21230932E+03</totfact>
</mgrwt>
</event>
<event>
 5    1  0.3514886E-002  0.1249966E+03  0.7818608E-02  0.1235075E+00
          4   -1    0    0  501    0  0.00000000000E+00  0.00000000000E+00  0.43916605635E+02  0.43934965011E+02  0.12700000000E+01 0. -1.
         -4   -1    0    0    0  501 -0.00000000000E+00 -0.00000000000E+00 -0.88900715977E+02  0.88909786869E+02  0.12700000000E+01 0. -1.
         25    2    1    2    0    0  0.00000000000E+00  0.00000000000E+00 -0.44984110341E+02  0.13284475188E+03  0.12499663163E+03 0.  0.
    9000005    1    3    3    0    0  0.52529571091E+02 -0.19071844192E+02  0.72270096831E+01  0.56358856880E+02  0.10000000000E+01 0.  0.
    9000005    1    3    3    0    0 -0.52529571091E+02  0.19071844192E+02 -0.52211120024E+02  0.76485895001E+02  0.10000000000E+01 0.  0.
<mgrwt>
<rscale>  0 0.12499663E+03</rscale>
<asrwt>0</asrwt>
<pdfrwt beam="1">  1        4 0.67585109E-02 0.12499663E+03</pdfrwt>
<pdfrwt beam="2">  1       -4 0.13679143E-01 0.12499663E+03</pdfrwt>
<totfact> 0.10284482E+04</totfact>
</mgrwt>
</event>
<event>
 5    1  0.3514886E-002  0.1250005E+03  0.7818608E-02  0.1235068E+00
         -4   -1    0    0    0  501 -0.00000000000E+00  0.00000000000E+00  0.79794726530E+02  0.79804832447E+02  0.12700000000E+01 0.  1.
          4   -1    0    0  501    0  0.00000000000E+00 -0.00000000000E+00 -0.48932714095E+02  0.48949192115E+02  0.12700000000E+01 0.  1.
         25    2    1    2    0    0  0.00000000000E+00  0.00000000000E+00  0.30862012435E+02  0.12875402456E+03  0.12500054012E+03 0.  0.
    9000005    1    3    3    0    0 -0.14932616026E+01  0.61536636895E+02  0.26538901399E+02  0.67039546523E+02  0.10000000000E+01 0.  0.
    9000005    1    3    3    0    0  0.14932616026E+01 -0.61536636895E+02  0.43231110361E+01  0.61714478039E+02  0.10000000000E+01 0.  0.
<mgrwt>
<rscale>  0 0.12500054E+03</rscale>
<asrwt>0</asrwt>
<pdfrwt beam="2">  1        4 0.75301548E-02 0.12500054E+03</pdfrwt>
<pdfrwt beam="1">  1       -4 0.12278157E-01 0.12500054E+03</pdfrwt>
<totfact> 0.10371109E+04</totfact>
</mgrwt>
</event>
<event>
 5    1  0.3514886E-002  0.1250017E+03  0.7818608E-02  0.1235067E+00
          4   -1    0    0  501    0  0.00000000000E+00  0.00000000000E+00  0.15144616164E+03  0.15145148654E+03  0.12700000000E+01 0.  1.
         -4   -1    0    0    0  501 -0.00000000000E+00 -0.00000000000E+00 -0.25772271053E+02  0.25803543463E+02  0.12700000000E+01 0.  1.
         25    2    1    2    0    0  0.00000000000E+00  0.00000000000E+00  0.12567389059E+03  0.17725503000E+03  0.12500167553E+03 0.  0.
    9000005    1    3    3    0    0 -0.33608278422E+02  0.40141802527E+02  0.14447834894E+02  0.54319615442E+02  0.10000000000E+01 0.  0.
    9000005    1    3    3    0    0  0.33608278422E+02 -0.40141802527E+02  0.11122605569E+03  0.12293541456E+03  0.10000000000E+01 0.  0.
<mgrwt>
<rscale>  0 0.12500168E+03</rscale>
<asrwt>0</asrwt>
<pdfrwt beam="1">  1        4 0.23302224E-01 0.12500168E+03</pdfrwt>
<pdfrwt beam="2">  1       -4 0.39677800E-02 0.12500168E+03</pdfrwt>
<totfact> 0.94109917E+03</totfact>
</mgrwt>
</event>
<event>
 5    1  0.3514886E-002  0.1250013E+03  0.7818608E-02  0.1235067E+00
          4   -1    0    0  501    0  0.00000000000E+00  0.00000000000E+00  0.33470261813E+02  0.33494347670E+02  0.12700000000E+01 0.  1.
         -4   -1    0    0    0  501 -0.00000000000E+00 -0.00000000000E+00 -0.11664105215E+03  0.11664796589E+03  0.12700000000E+01 0.  1.
         25    2    1    2    0    0  0.00000000000E+00  0.00000000000E+00 -0.83170790337E+02  0.15014231356E+03  0.12500133582E+03 0.  0.
    9000005    1    3    3    0    0 -0.14515217414E+02 -0.26432028447E+02 -0.10732977252E+03  0.11149001629E+03  0.10000000000E+01 0.  0.
    9000005    1    3    3    0    0  0.14515217414E+02  0.26432028447E+02  0.24158982179E+02  0.38652297271E+02  0.10000000000E+01 0.  0.
<mgrwt>
<rscale>  0 0.12500134E+03</rscale>
<asrwt>0</asrwt>
<pdfrwt beam="1">  1        4 0.51516557E-02 0.12500134E+03</pdfrwt>
<pdfrwt beam="2">  1       -4 0.17947162E-01 0.12500134E+03</pdfrwt>
<totfact> 0.99272353E+03</totfact>
</mgrwt>
</event>
<event>
 5    1  0.3514886E-002  0.1250007E+03  0.7818608E-02  0.1235068E+00
         -4   -1    0    0    0  501 -0.00000000000E+00  0.00000000000E+00  0.28161938022E+02  0.28190559646E+02  0.12700000000E+01 0.  1.
          4   -1    0    0  501    0  0.00000000000E+00 -0.00000000000E+00 -0.13860625806E+03  0.13861207622E+03  0.12700000000E+01 0.  1.
         25    2    1    2    0    0  0.00000000000E+00  0.00000000000E+00 -0.11044432004E+03  0.16680263587E+03  0.12500068601E+03 0.  0.
    9000005    1    3    3    0    0 -0.19631086636E+02 -0.43458431275E+02 -0.13264111287E+01  0.47715554884E+02  0.10000000000E+01 0.  0.
    9000005    1    3    3    0    0  0.19631086636E+02  0.43458431275E+02 -0.10911790891E+03  0.11908708098E+03  0.10000000000E+01 0.  0.
<mgrwt>
<rscale>  0 0.12500069E+03</rscale>
<asrwt>0</asrwt>
<pdfrwt beam="2">  1        4 0.21326689E-01 0.12500069E+03</pdfrwt>
<pdfrwt beam="1">  1       -4 0.43352551E-02 0.12500069E+03</pdfrwt>
<totfact> 0.96045607E+03</totfact>
</mgrwt>
</event>
<event>
 5    1  0.3514886E-002  0.1250016E+03  0.7818608E-02  0.1235067E+00
          4   -1    0    0  501    0  0.00000000000E+00  0.00000000000E+00  0.29998489879E+03  0.29998758708E+03  0.12700000000E+01 0.  1.
         -4   -1    0    0    0  501 -0.00000000000E+00 -0.00000000000E+00 -0.12988111471E+02  0.13050055157E+02  0.12700000000E+01 0.  1.
         25    2    1    2    0    0  0.00000000000E+00  0.00000000000E+00  0.28699678732E+03  0.31303764224E+03  0.12500163809E+03 0.  0.
    9000005    1    3    3    0    0  0.54298582938E+02 -0.63709371940E+01  0.21930898773E+03  0.22602291266E+03  0.10000000000E+01 0.  0.
    9000005    1    3    3    0    0 -0.54298582938E+02  0.63709371940E+01  0.67687799594E+02  0.87014729579E+02  0.10000000000E+01 0.  0.
<mgrwt>
<rscale>  0 0.12500164E+03</rscale>
<asrwt>0</asrwt>
<pdfrwt beam="1">  1        4 0.46156494E-01 0.12500164E+03</pdfrwt>
<pdfrwt beam="2">  1       -4 0.20031427E-02 0.12500164E+03</pdfrwt>
<totfact> 0.73989241E+03</totfact>
</mgrwt>
</event>
<event>
 5    1  0.3514886E-002  0.1249993E+03  0.7818608E-02  0.1235070E+00
         -4   -1    0    0    0  501 -0.00000000000E+00  0.00000000000E+00  0.13875655840E+03  0.13876237025E+03  0.12700000000E+01 0.  1.
          4   -1    0    0  501    0  0.00000000000E+00 -0.00000000000E+00 -0.28130770356E+02  0.28159423660E+02  0.12700000000E+01 0.  1.
         25    2    1    2    0    0  0.00000000000E+00  0.00000000000E+00  0.11062578804E+03  0.16692179391E+03  0.12499928121E+03 0.  0.
    9000005    1    3    3    0    0  0.24749509151E+02  0.53447901521E+02  0.83196127944E+02  0.10194023781E+03  0.10000000000E+01 0.  0.
    9000005    1    3    3    0    0 -0.24749509151E+02 -0.53447901521E+02  0.27429660095E+02  0.64981556099E+02  0.10000000000E+01 0.  0.
<mgrwt>
<rscale>  0 0.12499928E+03</rscale>
<asrwt>0</asrwt>
<pdfrwt beam="2">  1        4 0.43304619E-02 0.12499928E+03</pdfrwt>
<pdfrwt beam="1">  1       -4 0.21349814E-01 0.12499928E+03</pdfrwt>
<totfact> 0.96026218E+03</totfact>
</mgrwt>
</event>
<event>
 5    1  0.3514886E-002  0.1250012E+03  0.7818608E-02  0.1235067E+00
         -4   -1    0    0    0  501 -0.00000000000E+00  0.00000000000E+00  0.13814760994E+03  0.13815344741E+03  0.12700000000E+01 0. -1.
          4   -1    0    0  501    0  0.00000000000E+00 -0.00000000000E+00 -0.28255777376E+02  0.28284304042E+02  0.12700000000E+01 0. -1.
         25    2    1    2    0    0  0.00000000000E+00  0.00000000000E+00  0.10989183256E+03  0.16643775145E+03  0.12500124097E+03 0.  0.
    9000005    1    3    3    0    0 -0.41995015867E+02  0.45461985830E+02  0.66473414439E+02  0.90829996920E+02  0.10000000000E+01 0.  0.
    9000005    1    3    3    0    0  0.41995015867E+02 -0.45461985830E+02  0.43418418124E+02  0.75607754534E+02  0.10000000000E+01 0.  0.
<mgrwt>
<rscale>  0 0.12500124E+03</rscale>
<asrwt>0</asrwt>
<pdfrwt beam="2">  1        4 0.43496860E-02 0.12500124E+03</pdfrwt>
<pdfrwt beam="1">  1       -4 0.21256122E-01 0.12500124E+03</pdfrwt>
<totfact> 0.96113116E+03</totfact>
</mgrwt>
</event>
<event>
 5    1  0.3514886E-002  0.1250022E+03  0.7818608E-02  0.1235066E+00
          4   -1    0    0  501    0  0.00000000000E+00  0.00000000000E+00  0.75505743986E+02  0.75516423875E+02  0.12700000000E+01 0.  1.
         -4   -1    0    0    0  501 -0.00000000000E+00 -0.00000000000E+00 -0.51714140090E+02  0.51729732120E+02  0.12700000000E+01 0.  1.
         25    2    1    2    0    0  0.00000000000E+00  0.00000000000E+00  0.23791603896E+02  0.12724615600E+03  0.12500217518E+03 0.  0.
    9000005    1    3    3    0    0  0.40965179728E+02  0.17073869879E+02 -0.32890860825E+02  0.55249178353E+02  0.10000000000E+01 0.  0.
    9000005    1    3    3    0    0 -0.40965179728E+02 -0.17073869879E+02  0.56682464722E+02  0.71996977643E+02  0.10000000000E+01 0.  0.
<mgrwt>
<rscale>  0 0.12500218E+03</rscale>
<asrwt>0</asrwt>
<pdfrwt beam="1">  1        4 0.11618289E-01 0.12500218E+03</pdfrwt>
<pdfrwt beam="2">  1       -4 0.79580425E-02 0.12500218E+03</pdfrwt>
<totfact> 0.10403291E+04</totfact>
</mgrwt>
</event>
<event>
 5    1  0.3514886E-002  0.1250037E+03  0.7818608E-02  0.1235064E+00
         -4   -1    0    0    0  501 -0.00000000000E+00  0.00000000000E+00  0.49225861761E+02  0.49242241685E+02  0.12700000000E+01 0.  1.
          4   -1    0    0  501    0  0.00000000000E+00 -0.00000000000E+00 -0.79323639231E+02  0.79333805158E+02  0.12700000000E+01 0.  1.
         25    2    1    2    0    0  0.00000000000E+00  0.00000000000E+00 -0.30097777470E+02  0.12857604684E+03  0.12500369440E+03 0.  0.
    9000005    1    3    3    0    0  0.61428784123E+02  0.62562561061E+01 -0.51379304514E+01  0.61968012624E+02  0.10000000000E+01 0.  0.
    9000005    1    3    3    0    0 -0.61428784123E+02 -0.62562561061E+01 -0.24959847018E+02  0.66608034218E+02  0.10000000000E+01 0.  0.
<mgrwt>
<rscale>  0 0.12500369E+03</rscale>
<asrwt>0</asrwt>
<pdfrwt beam="2">  1        4 0.12205679E-01 0.12500369E+03</pdfrwt>
<pdfrwt beam="1">  1       -4 0.75752515E-02 0.12500369E+03</pdfrwt>
<totfact> 0.10374201E+04</totfact>
</mgrwt>
</event>
<event>
 5    1  0.3514886E-002  0.1250046E+03  0.7818608E-02  0.1235062E+00
          4   -1    0    0  501    0  0.00000000000E+00  0.00000000000E+00  0.12904244765E+03  0.12904869699E+03  0.12700000000E+01 0.  1.
         -4   -1    0    0    0  501 -0.00000000000E+00 -0.00000000000E+00 -0.30252957332E+02  0.30279602497E+02  0.12700000000E+01 0.  1.
         25    2    1    2    0    0  0.00000000000E+00  0.00000000000E+00  0.98789490315E+02  0.15932829949E+03  0.12500457440E+03 0.  0.
    9000005    1    3    3    0    0 -0.12413405465E+02  0.28028339444E+02 -0.20018445223E+02  0.36625381860E+02  0.10000000000E+01 0.  0.
    9000005    1    3    3    0    0  0.12413405465E+02 -0.28028339444E+02  0.11880793554E+03  0.12270291763E+03  0.10000000000E+01 0.  0.
<mgrwt>
<rscale>  0 0.12500457E+03</rscale>
<asrwt>0</asrwt>
<pdfrwt beam="1">  1        4 0.19855215E-01 0.12500457E+03</pdfrwt>
<pdfrwt beam="2">  1       -4 0.46568315E-02 0.12500457E+03</pdfrwt>
<totfact> 0.97462417E+03</totfact>
</mgrwt>
</event>
<event>
 5    1  0.3514886E-002  0.1249948E+03  0.7818608E-02  0.1235077E+00
          4   -1    0    0  501    0  0.00000000000E+00  0.00000000000E+00  0.25411204441E+02  0.25442920649E+02  0.12700000000E+01 0. -1.
         -4   -1    0    0    0  501 -0.00000000000E+00 -0.00000000000E+00 -0.15357868321E+03  0.15358393417E+03  0.12700000000E+01 0. -1.
         25    2    1    2    0    0  0.00000000000E+00  0.00000000000E+00 -0.12816747876E+03  0.17902685482E+03  0.12499484843E+03 0.  0.
    9000005    1    3    3    0    0  0.69290112009E+01  0.62059418615E+02 -0.67456553776E+02  0.91928065804E+02  0.10000000000E+01 0.  0.
    9000005    1    3    3    0    0 -0.69290112009E+01 -0.62059418615E+02 -0.60710924988E+02  0.87098789015E+02  0.10000000000E+01 0.  0.
<mgrwt>
<rscale>  0 0.12499485E+03</rscale>
<asrwt>0</asrwt>
<pdfrwt beam="1">  1        4 0.39122598E-02 0.12499485E+03</pdfrwt>
<pdfrwt beam="2">  1       -4 0.23630333E-01 0.12499485E+03</pdfrwt>
<totfact> 0.93803302E+03</totfact>
</mgrwt>
</event>
<event>
 5    1  0.3514886E-002  0.1250011E+03  0.7818608E-02  0.1235068E+00
          4   -1    0    0  501    0  0.00000000000E+00  0.00000000000E+00  0.64776279040E+03  0.64776403537E+03  0.12700000000E+01 0.  1.
         -4   -1    0    0    0  501 -0.00000000000E+00 -0.00000000000E+00 -0.59623499771E+01  0.60961067289E+01  0.12700000000E+01 0.  1.
         25    2    1    2    0    0  0.00000000000E+00  0.00000000000E+00  0.64180044042E+03  0.65386014210E+03  0.12500112042E+03 0.  0.
    9000005    1    3    3    0    0 -0.37183692931E+02  0.13709866910E+02  0.57364926818E+03  0.57501745222E+03  0.10000000000E+01 0.  0.
    9000005    1    3    3    0    0  0.37183692931E+02 -0.13709866910E+02  0.68151172243E+02  0.78842689888E+02  0.10000000000E+01 0.  0.
<mgrwt>
<rscale>  0 0.12500112E+03</rscale>
<asrwt>0</asrwt>
<pdfrwt beam="1">  1        4 0.99666240E-01 0.12500112E+03</pdfrwt>
<pdfrwt beam="2">  1       -4 0.92766897E-03 0.12500112E+03</pdfrwt>
<totfact> 0.45633860E+03</totfact>
</mgrwt>
</event>
<event>
 5    1  0.3514886E-002  0.1249954E+03  0.7818608E-02  0.1235076E+00
         -4   -1    0    0    0  501 -0.00000000000E+00  0.00000000000E+00  0.10476175863E+02  0.10552874523E+02  0.12700000000E+01 0.  1.
          4   -1    0    0  501    0  0.00000000000E+00 -0.00000000000E+00 -0.37140469048E+03  0.37140686183E+03  0.12700000000E+01 0.  1.
         25    2    1    2    0    0  0.00000000000E+00  0.00000000000E+00 -0.36092851462E+03  0.38195973635E+03  0.12499539002E+03 0.  0.
    9000005    1    3    3    0    0  0.28719584707E+01  0.50500396868E+02 -0.29259235521E+03  0.29693404075E+03  0.10000000000E+01 0.  0.
    9000005    1    3    3    0    0 -0.28719584707E+01 -0.50500396868E+02 -0.68336159409E+02  0.85025695599E+02  0.10000000000E+01 0.  0.
<mgrwt>
<rscale>  0 0.12499539E+03</rscale>
<asrwt>0</asrwt>
<pdfrwt beam="2">  1        4 0.57145240E-01 0.12499539E+03</pdfrwt>
<pdfrwt beam="1">  1       -4 0.16177866E-02 0.12499539E+03</pdfrwt>
<totfact> 0.66352774E+03</totfact>
</mgrwt>
</event>
<event>
 4    1  0.3514886E-002  0.1250909E+03  0.7818608E-02  0.1234927E+00
          4   -1    0    0  501    0  0.00000000000E+00  0.00000000000E+00  0.27845334032E+03  0.27845623648E+03  0.12700000000E+01 0.  1.
         -4   -1    0    0    0  501 -0.00000000000E+00 -0.00000000000E+00 -0.14017121086E+02  0.14074536708E+02  0.12700000000E+01 0.  1.
    9000005    1    1    2    0    0 -0.59588250499E+02 -0.72544683073E+01  0.91206941441E+02  0.10919291678E+03  0.10000000000E+01 0.  0.
    9000005    1    1    2    0    0  0.59588250499E+02  0.72544683073E+01  0.17322927779E+03  0.18333785641E+03  0.10000000000E+01 0.  0.
<mgrwt>
<rscale>  0 0.12509092E+03</rscale>
<asrwt>0</asrwt>
<pdfrwt beam="1">  1        4 0.42843614E-01 0.12509092E+03</pdfrwt>
<pdfrwt beam="2">  1       -4 0.21611196E-02 0.12509092E+03</pdfrwt>
<totfact> 0.76391048E+03</totfact>
</mgrwt>
</event>
<event>
 5    1  0.3514886E-002  0.1250142E+03  0.7818608E-02  0.1235047E+00
          4   -1    0    0  501    0  0.00000000000E+00  0.00000000000E+00  0.20212893570E+03  0.20213292544E+03  0.12700000000E+01 0.  1.
         -4   -1    0    0    0  501 -0.00000000000E+00 -0.00000000000E+00 -0.19304890578E+02  0.19346619865E+02  0.12700000000E+01 0.  1.
         25    2    1    2    0    0  0.00000000000E+00  0.00000000000E+00  0.18282404512E+03  0.22147954531E+03  0.12501422925E+03 0.  0.
    9000005    1    3    3    0    0  0.58135302539E+02  0.18317838241E+02  0.11588898664E+03  0.13094469758E+03  0.10000000000E+01 0.  0.
    9000005    1    3    3    0    0 -0.58135302539E+02 -0.18317838241E+02  0.66935058477E+02  0.90534847724E+02  0.10000000000E+01 0.  0.
<mgrwt>
<rscale>  0 0.12501423E+03</rscale>
<asrwt>0</asrwt>
<pdfrwt beam="1">  1        4 0.31100275E-01 0.12501423E+03</pdfrwt>
<pdfrwt beam="2">  1       -4 0.29735001E-02 0.12501423E+03</pdfrwt>
<totfact> 0.86607245E+03</totfact>
</mgrwt>
</event>
<event>
 5    1  0.3514886E-002  0.1249999E+03  0.7818608E-02  0.1235069E+00
         -4   -1    0    0    0  501 -0.00000000000E+00  0.00000000000E+00  0.57570308413E+02  0.57584314798E+02  0.12700000000E+01 0. -1.
          4   -1    0    0  501    0  0.00000000000E+00 -0.00000000000E+00 -0.67823529163E+02  0.67835418537E+02  0.12700000000E+01 0. -1.
         25    2    1    2    0    0  0.00000000000E+00  0.00000000000E+00 -0.10253220750E+02  0.12541973333E+03  0.12499992390E+03 0.  0.
    9000005    1    3    3    0    0 -0.38257454708E+02  0.41876900687E+02  0.21190042091E+02  0.60558447270E+02  0.10000000000E+01 0.  0.
    9000005    1    3    3    0    0  0.38257454708E+02 -0.41876900687E+02 -0.31443262841E+02  0.64861286065E+02  0.10000000000E+01 0.  0.
<mgrwt>
<rscale>  0 0.12499992E+03</rscale>
<asrwt>0</asrwt>
<pdfrwt beam="2">  1        4 0.10436381E-01 0.12499992E+03</pdfrwt>
<pdfrwt beam="1">  1       -4 0.88589625E-02 0.12499992E+03</pdfrwt>
<totfact> 0.10443748E+04</totfact>
</mgrwt>
</event>
<event>
 5    1  0.3514886E-002  0.1249966E+03  0.7818608E-02  0.1235075E+00
         -4   -1    0    0    0  501 -0.00000000000E+00  0.00000000000E+00  0.45822840611E+02  0.45840436534E+02  0.12700000000E+01 0. -1.
          4   -1    0    0  501    0  0.00000000000E+00 -0.00000000000E+00 -0.85203418259E+02  0.85212882729E+02  0.12700000000E+01 0. -1.
         25    2    1    2    0    0  0.00000000000E+00  0.00000000000E+00 -0.39380577648E+02  0.13105331926E+03  0.12499657033E+03 0.  0.
    9000005    1    3    3    0    0  0.70126007757E+01  0.18579906545E+02  0.42431429065E+02  0.46859531254E+02  0.10000000000E+01 0.  0.
    9000005    1    3    3    0    0 -0.70126007757E+01 -0.18579906545E+02 -0.81812006713E+02  0.84193788009E+02  0.10000000000E+01 0.  0.
<mgrwt>
<rscale>  0 0.12499657E+03</rscale>
<asrwt>0</asrwt>
<pdfrwt beam="2">  1        4 0.13110300E-01 0.12499657E+03</pdfrwt>
<pdfrwt beam="1">  1       -4 0.70517494E-02 0.12499657E+03</pdfrwt>
<totfact> 0.10322745E+04</totfact>
</mgrwt>
</event>
<event>
 5    1  0.3514886E-002  0.1250018E+03  0.7818608E-02  0.1235066E+00
         -4   -1    0    0    0  501 -0.00000000000E+00  0.00000000000E+00  0.92765552719E+03  0.92765639654E+03  0.12700000000E+01 0. -1.
          4   -1    0    0  501    0  0.00000000000E+00 -0.00000000000E+00 -0.41143604460E+01  0.43059101104E+01  0.12700000000E+01 0. -1.
         25    2    1    2    0    0  0.00000000000E+00  0.00000000000E+00  0.92354116675E+03  0.93196230665E+03  0.12500181731E+03 0.  0.
    9000005    1    3    3    0    0 -0.37096603110E+02  0.38109752785E+02  0.70642896767E+03  0.70842882323E+03  0.10000000000E+01 0.  0.
    9000005    1    3    3    0    0  0.37096603110E+02 -0.38109752785E+02  0.21711219907E+03  0.22353348341E+03  0.10000000000E+01 0.  0.
<mgrwt>
<rscale>  0 0.12500182E+03</rscale>
<asrwt>0</asrwt>
<pdfrwt beam="2">  1        4 0.64777969E-03 0.12500182E+03</pdfrwt>
<pdfrwt beam="1">  1       -4 0.14273110E+00 0.12500182E+03</pdfrwt>
<totfact> 0.32963839E+03</totfact>
</mgrwt>
</event>
<event>
 5    1  0.3514886E-002  0.1250012E+03  0.7818608E-02  0.1235067E+00
         -4   -1    0    0    0  501 -0.00000000000E+00  0.00000000000E+00  0.53555282905E+02  0.53570339061E+02  0.12700000000E+01 0.  1.
          4   -1    0    0  501    0  0.00000000000E+00 -0.00000000000E+00 -0.72909262251E+02  0.72920322421E+02  0.12700000000E+01 0.  1.
         25    2    1    2    0    0  0.00000000000E+00  0.00000000000E+00 -0.19353979345E+02  0.12649066148E+03  0.12500124370E+03 0.  0.
    9000005    1    3    3    0    0  0.45186804450E+02 -0.41407229210E+02 -0.22025747513E+02  0.65134779348E+02  0.10000000000E+01 0.  0.
    9000005    1    3    3    0    0 -0.45186804450E+02  0.41407229210E+02  0.26717681682E+01  0.61355882133E+02  0.10000000000E+01 0.  0.
<mgrwt>
<rscale>  0 0.12500124E+03</rscale>
<asrwt>0</asrwt>
<pdfrwt beam="2">  1        4 0.11218819E-01 0.12500124E+03</pdfrwt>
<pdfrwt beam="1">  1       -4 0.82412832E-02 0.12500124E+03</pdfrwt>
<totfact> 0.10419939E+04</totfact>
</mgrwt>
</event>
<event>
 5    1  0.3514886E-002  0.1250042E+03  0.7818608E-02  0.1235063E+00
         -4   -1    0    0    0  501 -0.00000000000E+00  0.00000000000E+00  0.21777427544E+03  0.21777797855E+03  0.12700000000E+01 0. -1.
          4   -1    0    0  501    0  0.00000000000E+00 -0.00000000000E+00 -0.17912024072E+02  0.17956990459E+02  0.12700000000E+01 0. -1.
         25    2    1    2    0    0  0.00000000000E+00  0.00000000000E+00  0.19986225137E+03  0.23573496901E+03  0.12500422431E+03 0.  0.
    9000005    1    3    3    0    0  0.32801528835E+02  0.50992160165E+02  0.71370298444E+02  0.93652870710E+02  0.10000000000E+01 0.  0.
    9000005    1    3    3    0    0 -0.32801528835E+02 -0.50992160165E+02  0.12849195292E+03  0.14208209830E+03  0.10000000000E+01 0.  0.
<mgrwt>
<rscale>  0 0.12500422E+03</rscale>
<asrwt>0</asrwt>
<pdfrwt beam="2">  1        4 0.27594397E-02 0.12500422E+03</pdfrwt>
<pdfrwt beam="1">  1       -4 0.33507479E-01 0.12500422E+03</pdfrwt>
<totfact> 0.84428741E+03</totfact>
</mgrwt>
</event>
<event>
 5    1  0.3514886E-002  0.1250002E+03  0.7818608E-02  0.1235069E+00
          4   -1    0    0  501    0  0.00000000000E+00  0.00000000000E+00  0.11630085225E+02  0.11699221442E+02  0.12700000000E+01 0.  1.
         -4   -1    0    0    0  501 -0.00000000000E+00 -0.00000000000E+00 -0.33480983416E+03  0.33481224283E+03  0.12700000000E+01 0.  1.
         25    2    1    2    0    0  0.00000000000E+00  0.00000000000E+00 -0.32317974893E+03  0.34651146427E+03  0.12500017900E+03 0.  0.
    9000005    1    3    3    0    0  0.14742949388E+02  0.60363470758E+02 -0.14316893337E+03  0.15607513140E+03  0.10000000000E+01 0.  0.
    9000005    1    3    3    0    0 -0.14742949388E+02 -0.60363470758E+02 -0.18001081556E+03  0.19043633287E+03  0.10000000000E+01 0.  0.
<mgrwt>
<rscale>  0 0.12500018E+03</rscale>
<asrwt>0</asrwt>
<pdfrwt beam="1">  1        4 0.17947476E-02 0.12500018E+03</pdfrwt>
<pdfrwt beam="2">  1       -4 0.51514701E-01 0.12500018E+03</pdfrwt>
<totfact> 0.70109775E+03</totfact>
</mgrwt>
</event>
<event>
 4    1  0.3514886E-002  0.1243319E+03  0.7818608E-02  0.1236117E+00
          4   -1    0    0  501    0  0.00000000000E+00  0.00000000000E+00  0.36583243328E+03  0.36583463769E+03  0.12700000000E+01 0. -1.
         -4   -1    0    0    0  501 -0.00000000000E+00 -0.00000000000E+00 -0.10523450245E+02  0.10599806841E+02  0.12700000000E+01 0. -1.
    9000005    1    1    2    0    0  0.29678521126E+02  0.47955324948E+02  0.25678455974E+03  0.26290651937E+03  0.10000000000E+01 0.  0.
    9000005    1    1    2    0    0 -0.29678521126E+02 -0.47955324948E+02  0.98524423288E+02  0.11352792516E+03  0.10000000000E+01 0.  0.
<mgrwt>
<rscale>  0 0.12433188E+03</rscale>
<asrwt>0</asrwt>
<pdfrwt beam="1">  1        4 0.56287956E-01 0.12433188E+03</pdfrwt>
<pdfrwt beam="2">  1       -4 0.16250355E-02 0.12433188E+03</pdfrwt>
<totfact> 0.67908822E+03</totfact>
</mgrwt>
</event>
<event>
 5    1  0.3514886E-002  0.1250000E+03  0.7818608E-02  0.1235069E+00
         -4   -1    0    0    0  501 -0.00000000000E+00  0.00000000000E+00  0.25524774017E+02  0.25556349282E+02  0.12700000000E+01 0. -1.
          4   -1    0    0  501    0  0.00000000000E+00 -0.00000000000E+00 -0.15290871836E+03  0.15291399233E+03  0.12700000000E+01 0. -1.
         25    2    1    2    0    0  0.00000000000E+00  0.00000000000E+00 -0.12738394434E+03  0.17847034161E+03  0.12499997424E+03 0.  0.
    9000005    1    3    3    0    0  0.62418573190E+02  0.36057072461E-01 -0.68015244866E+02  0.92320924570E+02  0.10000000000E+01 0.  0.
    9000005    1    3    3    0    0 -0.62418573190E+02 -0.36057072461E-01 -0.59368699475E+02  0.86149417042E+02  0.10000000000E+01 0.  0.
<mgrwt>
<rscale>  0 0.12499997E+03</rscale>
<asrwt>0</asrwt>
<pdfrwt beam="2">  1        4 0.23527252E-01 0.12499997E+03</pdfrwt>
<pdfrwt beam="1">  1       -4 0.39297230E-02 0.12499997E+03</pdfrwt>
<totfact> 0.93893128E+03</totfact>
</mgrwt>
</event>
<event>
 5    1  0.3514886E-002  0.1249997E+03  0.7818608E-02  0.1235070E+00
          4   -1    0    0  501    0  0.00000000000E+00  0.00000000000E+00  0.75074860916E+01  0.76141478456E+01  0.12700000000E+01 0.  1.
         -4   -1    0    0    0  501 -0.00000000000E+00 -0.00000000000E+00 -0.51653374571E+03  0.51653530698E+03  0.12700000000E+01 0.  1.
         25    2    1    2    0    0  0.00000000000E+00  0.00000000000E+00 -0.50902625961E+03  0.52414945482E+03  0.12499967205E+03 0.  0.
    9000005    1    3    3    0    0 -0.51035142594E+02 -0.30996662876E+02 -0.17721120741E+03  0.18700318425E+03  0.10000000000E+01 0.  0.
    9000005    1    3    3    0    0  0.51035142594E+02  0.30996662876E+02 -0.33181505221E+03  0.33714627057E+03  0.10000000000E+01 0.  0.
<mgrwt>
<rscale>  0 0.12499967E+03</rscale>
<asrwt>0</asrwt>
<pdfrwt beam="1">  1        4 0.11633231E-02 0.12499967E+03</pdfrwt>
<pdfrwt beam="2">  1       -4 0.79475027E-01 0.12499967E+03</pdfrwt>
<totfact> 0.54038571E+03</totfact>
</mgrwt>
</event>
<event>
 5    1  0.3514886E-002  0.1250191E+03  0.7818608E-02  0.1235039E+00
         -4   -1    0    0    0  501 -0.00000000000E+00  0.00000000000E+00  0.47863092682E+01  0.49519346129E+01  0.12700000000E+01 0. -1.
          4   -1    0    0  501    0  0.00000000000E+00 -0.00000000000E+00 -0.80232898340E+03  0.80232998854E+03  0.12700000000E+01 0. -1.
         25    2    1    2    0    0  0.00000000000E+00  0.00000000000E+00 -0.79754267413E+03  0.80728192315E+03  0.12501914406E+03 0.  0.
    9000005    1    3    3    0    0 -0.19845551065E+01  0.32425881820E+02 -0.74355975722E+03  0.74426976885E+03  0.10000000000E+01 0.  0.
    9000005    1    3    3    0    0  0.19845551065E+01 -0.32425881820E+02 -0.53982916916E+02  0.63012154300E+02  0.10000000000E+01 0.  0.
<mgrwt>
<rscale>  0 0.12501914E+03</rscale>
<asrwt>0</asrwt>
<pdfrwt beam="2">  1        4 0.12344794E+00 0.12501914E+03</pdfrwt>
<pdfrwt beam="1">  1       -4 0.74917364E-03 0.12501914E+03</pdfrwt>
<totfact> 0.37925867E+03</totfact>
</mgrwt>
</event>
<event>
 5    1  0.3514886E-002  0.1250044E+03  0.7818608E-02  0.1235062E+00
         -4   -1    0    0    0  501 -0.00000000000E+00  0.00000000000E+00  0.12446174119E+03  0.12446822052E+03  0.12700000000E+01 0.  1.
          4   -1    0    0  501    0  0.00000000000E+00 -0.00000000000E+00 -0.31367227867E+02  0.31392927293E+02  0.12700000000E+01 0.  1.
         25    2    1    2    0    0  0.00000000000E+00  0.00000000000E+00  0.93094513325E+02  0.15586114782E+03  0.12500443587E+03 0.  0.
    9000005    1    3    3    0    0 -0.54175077945E+02 -0.24530253527E+02  0.70493654201E+02  0.92233549705E+02  0.10000000000E+01 0.  0.
    9000005    1    3    3    0    0  0.54175077945E+02  0.24530253527E+02  0.22600859123E+02  0.63627598113E+02  0.10000000000E+01 0.  0.
<mgrwt>
<rscale>  0 0.12500444E+03</rscale>
<asrwt>0</asrwt>
<pdfrwt beam="2">  1        4 0.48282027E-02 0.12500444E+03</pdfrwt>
<pdfrwt beam="1">  1       -4 0.19150435E-01 0.12500444E+03</pdfrwt>
<totfact> 0.98136920E+03</totfact>
</mgrwt>
</event>
<event>
 5    1  0.3514886E-002  0.1249998E+03  0.7818608E-02  0.1235070E+00
          4   -1    0    0  501    0  0.00000000000E+00  0.00000000000E+00  0.14808592809E+03  0.14809137381E+03  0.12700000000E+01 0.  1.
         -4   -1    0    0    0  501 -0.00000000000E+00 -0.00000000000E+00 -0.26356977698E+02  0.26387557170E+02  0.12700000000E+01 0.  1.
         25    2    1    2    0    0  0.00000000000E+00  0.00000000000E+00  0.12172895039E+03  0.17447893098E+03  0.12499983997E+03 0.  0.
    9000005    1    3    3    0    0 -0.97818030730E+01 -0.50256960464E+02  0.10851666142E+02  0.52346961750E+02  0.10000000000E+01 0.  0.
    9000005    1    3    3    0    0  0.97818030730E+01  0.50256960464E+02  0.11087728424E+03  0.12213196923E+03  0.10000000000E+01 0.  0.
<mgrwt>
<rscale>  0 0.12499984E+03</rscale>
<asrwt>0</asrwt>
<pdfrwt beam="1">  1        4 0.22785221E-01 0.12499984E+03</pdfrwt>
<pdfrwt beam="2">  1       -4 0.40576909E-02 0.12499984E+03</pdfrwt>
<totfact> 0.94620700E+03</totfact>
</mgrwt>
</event>
<event>
 5    1  0.3514886E-002  0.1250036E+03  0.7818608E-02  0.1235064E+00
          4   -1    0    0  501    0  0.00000000000E+00  0.00000000000E+00  0.66199060780E+02  0.66211241857E+02  0.12700000000E+01 0.  1.
         -4   -1    0    0    0  501 -0.00000000000E+00 -0.00000000000E+00 -0.58986630245E+02  0.59000300403E+02  0.12700000000E+01 0.  1.
         25    2    1    2    0    0  0.00000000000E+00  0.00000000000E+00  0.72124305356E+01  0.12521154226E+03  0.12500364459E+03 0.  0.
    9000005    1    3    3    0    0 -0.50497175496E+02 -0.28504742001E+02  0.26947174560E+02  0.63950256187E+02  0.10000000000E+01 0.  0.
    9000005    1    3    3    0    0  0.50497175496E+02  0.28504742001E+02 -0.19734744025E+02  0.61261286073E+02  0.10000000000E+01 0.  0.
<mgrwt>
<rscale>  0 0.12500364E+03</rscale>
<asrwt>0</asrwt>
<pdfrwt beam="1">  1        4 0.10186459E-01 0.12500364E+03</pdfrwt>
<pdfrwt beam="2">  1       -4 0.90768548E-02 0.12500364E+03</pdfrwt>
<totfact> 0.10447409E+04</totfact>
</mgrwt>
</event>
<event>
 5    1  0.3514886E-002  0.1249983E+03  0.7818608E-02  0.1235072E+00
         -4   -1    0    0    0  501 -0.00000000000E+00  0.00000000000E+00  0.81439819376E+01  0.82424111642E+01  0.12700000000E+01 0. -1.
          4   -1    0    0  501    0  0.00000000000E+00 -0.00000000000E+00 -0.47665504739E+03  0.47665673929E+03  0.12700000000E+01 0. -1.
         25    2    1    2    0    0  0.00000000000E+00  0.00000000000E+00 -0.46851106546E+03  0.48489915045E+03  0.12499827059E+03 0.  0.
    9000005    1    3    3    0    0  0.80242524423E+01  0.41240608613E+02 -0.41370856594E+03  0.41583765337E+03  0.10000000000E+01 0.  0.
    9000005    1    3    3    0    0 -0.80242524423E+01 -0.41240608613E+02 -0.54802499519E+02  0.69061497085E+02  0.10000000000E+01 0.  0.
<mgrwt>
<rscale>  0 0.12499827E+03</rscale>
<asrwt>0</asrwt>
<pdfrwt beam="2">  1        4 0.73339226E-01 0.12499827E+03</pdfrwt>
<pdfrwt beam="1">  1       -4 0.12606223E-02 0.12499827E+03</pdfrwt>
<totfact> 0.57057522E+03</totfact>
</mgrwt>
</event>
<event>
 5    1  0.3514886E-002  0.1249996E+03  0.7818608E-02  0.1235070E+00
          4   -1    0    0  501    0  0.00000000000E+00  0.00000000000E+00  0.13549532447E+02  0.13608920954E+02  0.12700000000E+01 0. -1.
         -4   -1    0    0    0  501 -0.00000000000E+00 -0.00000000000E+00 -0.28760114511E+03  0.28760394915E+03  0.12700000000E+01 0. -1.
         25    2    1    2    0    0  0.00000000000E+00  0.00000000000E+00 -0.27405161266E+03  0.30121287011E+03  0.12499962686E+03 0.  0.
    9000005    1    3    3    0    0 -0.40605928547E+02  0.22521093854E+02 -0.23780775504E+03  0.24230057668E+03  0.10000000000E+01 0.  0.
    9000005    1    3    3    0    0  0.40605928547E+02 -0.22521093854E+02 -0.36243857620E+02  0.58912293426E+02  0.10000000000E+01 0.  0.
<mgrwt>
<rscale>  0 0.12499963E+03</rscale>
<asrwt>0</asrwt>
<pdfrwt beam="1">  1        4 0.20893277E-02 0.12499963E+03</pdfrwt>
<pdfrwt beam="2">  1       -4 0.44251109E-01 0.12499963E+03</pdfrwt>
<totfact> 0.75447577E+03</totfact>
</mgrwt>
</event>
<event>
 5    1  0.3514886E-002  0.1250008E+03  0.7818608E-02  0.1235068E+00
         -4   -1    0    0    0  501 -0.00000000000E+00  0.00000000000E+00  0.18845419087E+02  0.18888163504E+02  0.12700000000E+01 0.  1.
          4   -1    0    0  501    0  0.00000000000E+00 -0.00000000000E+00 -0.20700178523E+03  0.20700568105E+03  0.12700000000E+01 0.  1.
         25    2    1    2    0    0  0.00000000000E+00  0.00000000000E+00 -0.18815636614E+03  0.22589384455E+03  0.12500084355E+03 0.  0.
    9000005    1    3    3    0    0  0.14064848237E+02  0.46023935873E+02 -0.22035202063E+02  0.52939330928E+02  0.10000000000E+01 0.  0.
    9000005    1    3    3    0    0 -0.14064848237E+02 -0.46023935873E+02 -0.16612116408E+03  0.17295451362E+03  0.10000000000E+01 0.  0.
<mgrwt>
<rscale>  0 0.12500084E+03</rscale>
<asrwt>0</asrwt>
<pdfrwt beam="2">  1        4 0.31850015E-01 0.12500084E+03</pdfrwt>
<pdfrwt beam="1">  1       -4 0.29028831E-02 0.12500084E+03</pdfrwt>
<totfact> 0.85942498E+03</totfact>
</mgrwt>
</event>
<event>
 5    1  0.3514886E-002  0.1249989E+03  0.7818608E-02  0.1235071E+00
          4   -1    0    0  501    0  0.00000000000E+00  0.00000000000E+00  0.13035399435E+03  0.13036018081E+03  0.12700000000E+01 0. -1.
         -4   -1    0    0    0  501 -0.00000000000E+00 -0.00000000000E+00 -0.29945580008E+02  0.29972498428E+02  0.12700000000E+01 0. -1.
         25    2    1    2    0    0  0.00000000000E+00  0.00000000000E+00  0.10040841434E+03  0.16033267924E+03  0.12499887345E+03 0.  0.
    9000005    1    3    3    0    0 -0.15721043103E+02  0.22734747114E+02 -0.21684546982E+02  0.35145974171E+02  0.10000000000E+01 0.  0.
    9000005    1    3    3    0    0  0.15721043103E+02 -0.22734747114E+02  0.12209296132E+03  0.12518670507E+03  0.10000000000E+01 0.  0.
<mgrwt>
<rscale>  0 0.12499887E+03</rscale>
<asrwt>0</asrwt>
<pdfrwt beam="1">  1        4 0.20057007E-01 0.12499887E+03</pdfrwt>
<pdfrwt beam="2">  1       -4 0.46095590E-02 0.12499887E+03</pdfrwt>
<totfact> 0.97281149E+03</totfact>
</mgrwt>
</event>
<event>
 5    1  0.3514886E-002  0.1250016E+03  0.7818608E-02  0.1235067E+00
         -4   -1    0    0    0  501 -0.00000000000E+00  0.00000000000E+00  0.29805271870E+01  0.32398213396E+01  0.12700000000E+01 0. -1.
          4   -1    0    0  501    0  0.00000000000E+00 -0.00000000000E+00 -0.12557318897E+04  0.12557325319E+04  0.12700000000E+01 0. -1.
         25    2    1    2    0    0  0.00000000000E+00  0.00000000000E+00 -0.12527513625E+04  0.12589723532E+04  0.12500163991E+03 0.  0.
    9000005    1    3    3    0    0 -0.50734437891E+02 -0.32226047858E+02 -0.79873070512E+03  0.80098953841E+03  0.10000000000E+01 0.  0.
    9000005    1    3    3    0    0  0.50734437891E+02  0.32226047858E+02 -0.45402065736E+03  0.45798281481E+03  0.10000000000E+01 0.  0.
<mgrwt>
<rscale>  0 0.12500164E+03</rscale>
<asrwt>0</asrwt>
<pdfrwt beam="2">  1        4 0.19320911E+00 0.12500164E+03</pdfrwt>
<pdfrwt beam="1">  1       -4 0.47853875E-03 0.12500164E+03</pdfrwt>
<totfact> 0.23217254E+03</totfact>
</mgrwt>
</event>
<event>
 5    1  0.3514886E-002  0.1250022E+03  0.7818608E-02  0.1235066E+00
         -4   -1    0    0    0  501 -0.00000000000E+00  0.00000000000E+00  0.42795622903E+01  0.44640288301E+01  0.12700000000E+01 0. -1.
          4   -1    0    0  501    0  0.00000000000E+00 -0.00000000000E+00 -0.89335849289E+03  0.89335939561E+03  0.12700000000E+01 0. -1.
         25    2    1    2    0    0  0.00000000000E+00  0.00000000000E+00 -0.88907893060E+03  0.89782342444E+03  0.12500222650E+03 0.  0.
    9000005    1    3    3    0    0 -0.23784944665E+02 -0.32241230049E+02 -0.10006818164E+03  0.10779546133E+03  0.10000000000E+01 0.  0.
    9000005    1    3    3    0    0  0.23784944665E+02  0.32241230049E+02 -0.78901074896E+03  0.79002796311E+03  0.10000000000E+01 0.  0.
<mgrwt>
<rscale>  0 0.12500223E+03</rscale>
<asrwt>0</asrwt>
<pdfrwt beam="2">  1        4 0.13745388E+00 0.12500223E+03</pdfrwt>
<pdfrwt beam="1">  1       -4 0.67265408E-03 0.12500223E+03</pdfrwt>
<totfact> 0.34241768E+03</totfact>
</mgrwt>
</event>
<event>
 5    1  0.3514886E-002  0.1249996E+03  0.7818608E-02  0.1235070E+00
         -4   -1    0    0    0  501 -0.00000000000E+00  0.00000000000E+00  0.15094610048E+03  0.15095144302E+03  0.12700000000E+01 0.  1.
          4   -1    0    0  501    0  0.00000000000E+00 -0.00000000000E+00 -0.25856889239E+02  0.25888059431E+02  0.12700000000E+01 0.  1.
         25    2    1    2    0    0  0.00000000000E+00  0.00000000000E+00  0.12508921124E+03  0.17683950245E+03  0.12499959543E+03 0.  0.
    9000005    1    3    3    0    0 -0.39634680549E+02 -0.44697582688E+02  0.88493948821E+02  0.10677528168E+03  0.10000000000E+01 0.  0.
    9000005    1    3    3    0    0  0.39634680549E+02  0.44697582688E+02  0.36595262416E+02  0.70064220766E+02  0.10000000000E+01 0.  0.
<mgrwt>
<rscale>  0 0.12499960E+03</rscale>
<asrwt>0</asrwt>
<pdfrwt beam="2">  1        4 0.39807917E-02 0.12499960E+03</pdfrwt>
<pdfrwt beam="1">  1       -4 0.23225285E-01 0.12499960E+03</pdfrwt>
<totfact> 0.94189871E+03</totfact>
</mgrwt>
</event>
<event>
 5    1  0.3514886E-002  0.1249754E+03  0.7818608E-02  0.1235108E+00
          4   -1    0    0  501    0  0.00000000000E+00  0.00000000000E+00  0.35828653791E+01  0.38012924545E+01  0.12700000000E+01 0.  1.
         -4   -1    0    0    0  501 -0.00000000000E+00 -0.00000000000E+00 -0.10573728341E+04  0.10573735967E+04  0.12700000000E+01 0.  1.
         25    2    1    2    0    0  0.00000000000E+00  0.00000000000E+00 -0.10537899687E+04  0.10611748892E+04  0.12497538714E+03 0.  0.
    9000005    1    3    3    0    0 -0.23774401525E+02  0.51130168104E+02 -0.29839277076E+03  0.30367542196E+03  0.10000000000E+01 0.  0.
    9000005    1    3    3    0    0  0.23774401525E+02 -0.51130168104E+02 -0.75539719791E+03  0.75749946724E+03  0.10000000000E+01 0.  0.
<mgrwt>
<rscale>  0 0.12497539E+03</rscale>
<asrwt>0</asrwt>
<pdfrwt beam="1">  1        4 0.56807165E-03 0.12497539E+03</pdfrwt>
<pdfrwt beam="2">  1       -4 0.16268936E+00 0.12497539E+03</pdfrwt>
<totfact> 0.28663828E+03</totfact>
</mgrwt>
</event>
<event>
 5    1  0.3514886E-002  0.1250007E+03  0.7818608E-02  0.1235068E+00
         -4   -1    0    0    0  501 -0.00000000000E+00  0.00000000000E+00  0.21653946948E+03  0.21654319371E+03  0.12700000000E+01 0. -1.
          4   -1    0    0  501    0  0.00000000000E+00 -0.00000000000E+00 -0.18013416048E+02  0.18058129962E+02  0.12700000000E+01 0. -1.
         25    2    1    2    0    0  0.00000000000E+00  0.00000000000E+00  0.19852605344E+03  0.23460132368E+03  0.12500074871E+03 0.  0.
    9000005    1    3    3    0    0 -0.58778048734E+02  0.18792765134E+02  0.80753011899E+02  0.10163698129E+03  0.10000000000E+01 0.  0.
    9000005    1    3    3    0    0  0.58778048734E+02 -0.18792765134E+02  0.11777304154E+03  0.13296434239E+03  0.10000000000E+01 0.  0.
<mgrwt>
<rscale>  0 0.12500075E+03</rscale>
<asrwt>0</asrwt>
<pdfrwt beam="2">  1        4 0.27750209E-02 0.12500075E+03</pdfrwt>
<pdfrwt beam="1">  1       -4 0.33317490E-01 0.12500075E+03</pdfrwt>
<totfact> 0.84606618E+03</totfact>
</mgrwt>
</event>
<event>
 5    1  0.3514886E-002  0.1250041E+03  0.7818608E-02  0.1235063E+00
         -4   -1    0    0    0  501 -0.00000000000E+00  0.00000000000E+00  0.19193732760E+03  0.19194152919E+03  0.12700000000E+01 0. -1.
          4   -1    0    0  501    0  0.00000000000E+00 -0.00000000000E+00 -0.20328790056E+02  0.20368421763E+02  0.12700000000E+01 0. -1.
         25    2    1    2    0    0  0.00000000000E+00  0.00000000000E+00  0.17160853755E+03  0.21230995095E+03  0.12500410039E+03 0.  0.
    9000005    1    3    3    0    0 -0.41147517543E+02  0.45340416940E+02  0.64547852835E+02  0.88973574245E+02  0.10000000000E+01 0.  0.
    9000005    1    3    3    0    0  0.41147517543E+02 -0.45340416940E+02  0.10706068471E+03  0.12333637671E+03  0.10000000000E+01 0.  0.
<mgrwt>
<rscale>  0 0.12500410E+03</rscale>
<asrwt>0</asrwt>
<pdfrwt beam="2">  1        4 0.31308781E-02 0.12500410E+03</pdfrwt>
<pdfrwt beam="1">  1       -4 0.29532190E-01 0.12500410E+03</pdfrwt>
<totfact> 0.88091947E+03</totfact>
</mgrwt>
</event>
<event>
 5    1  0.3514886E-002  0.1250010E+03  0.7818608E-02  0.1235068E+00
         -4   -1    0    0    0  501 -0.00000000000E+00  0.00000000000E+00  0.34182375396E+02  0.34205959827E+02  0.12700000000E+01 0.  1.
          4   -1    0    0  501    0  0.00000000000E+00 -0.00000000000E+00 -0.11421205224E+03  0.11421911301E+03  0.12700000000E+01 0.  1.
         25    2    1    2    0    0  0.00000000000E+00  0.00000000000E+00 -0.80029676841E+02  0.14842507283E+03  0.12500101228E+03 0.  0.
    9000005    1    3    3    0    0  0.53009446724E+02 -0.14467901782E+02 -0.75358256953E+02  0.93269440413E+02  0.10000000000E+01 0.  0.
    9000005    1    3    3    0    0 -0.53009446724E+02  0.14467901782E+02 -0.46714198880E+01  0.55155632421E+02  0.10000000000E+01 0.  0.
<mgrwt>
<rscale>  0 0.12500101E+03</rscale>
<asrwt>0</asrwt>
<pdfrwt beam="2">  1        4 0.17573442E-01 0.12500101E+03</pdfrwt>
<pdfrwt beam="1">  1       -4 0.52611844E-02 0.12500101E+03</pdfrwt>
<totfact> 0.99616297E+03</totfact>
</mgrwt>
</event>
<event>
 5    1  0.3514886E-002  0.1250016E+03  0.7818608E-02  0.1235067E+00
          4   -1    0    0  501    0  0.00000000000E+00  0.00000000000E+00  0.24667870270E+02  0.24700540959E+02  0.12700000000E+01 0.  1.
         -4   -1    0    0    0  501 -0.00000000000E+00 -0.00000000000E+00 -0.15821790133E+03  0.15822299834E+03  0.12700000000E+01 0.  1.
         25    2    1    2    0    0  0.00000000000E+00  0.00000000000E+00 -0.13355003106E+03  0.18292353930E+03  0.12500164171E+03 0.  0.
    9000005    1    3    3    0    0 -0.15837658376E+02 -0.49183748431E+02 -0.15338474971E+02  0.53908638891E+02  0.10000000000E+01 0.  0.
    9000005    1    3    3    0    0  0.15837658376E+02  0.49183748431E+02 -0.11821155609E+03  0.12901490040E+03  0.10000000000E+01 0.  0.
<mgrwt>
<rscale>  0 0.12500164E+03</rscale>
<asrwt>0</asrwt>
<pdfrwt beam="1">  1        4 0.37979623E-02 0.12500164E+03</pdfrwt>
<pdfrwt beam="2">  1       -4 0.24344120E-01 0.12500164E+03</pdfrwt>
<totfact> 0.93089963E+03</totfact>
</mgrwt>
</event>
<event>
 5    1  0.3514886E-002  0.1249980E+03  0.7818608E-02  0.1235072E+00
          4   -1    0    0  501    0  0.00000000000E+00  0.00000000000E+00  0.94405740919E+00  0.15824488592E+01  0.12700000000E+01 0.  1.
         -4   -1    0    0    0  501 -0.00000000000E+00 -0.00000000000E+00 -0.30914762582E+04  0.30914765191E+04  0.12700000000E+01 0.  1.
         25    2    1    2    0    0  0.00000000000E+00  0.00000000000E+00 -0.30905322008E+04  0.30930589679E+04  0.12499797964E+03 0.  0.
    9000005    1    3    3    0    0 -0.42591302260E+02 -0.41549672813E+02 -0.10726912710E+04  0.10743407082E+04  0.10000000000E+01 0.  0.
    9000005    1    3    3    0    0  0.42591302260E+02  0.41549672813E+02 -0.20178409298E+04  0.20187182597E+04  0.10000000000E+01 0.  0.
<mgrwt>
<rscale>  0 0.12499798E+03</rscale>
<asrwt>0</asrwt>
<pdfrwt beam="1">  1        4 0.19436918E-03 0.12499798E+03</pdfrwt>
<pdfrwt beam="2">  1       -4 0.47565480E+00 0.12499798E+03</pdfrwt>
<totfact> 0.14907423E+02</totfact>
</mgrwt>
</event>
<event>
 5    1  0.3514886E-002  0.1249997E+03  0.7818608E-02  0.1235070E+00
         -4   -1    0    0    0  501 -0.00000000000E+00  0.00000000000E+00  0.52335128217E+02  0.52350535293E+02  0.12700000000E+01 0. -1.
          4   -1    0    0  501    0  0.00000000000E+00 -0.00000000000E+00 -0.74606973913E+02  0.74617782442E+02  0.12700000000E+01 0. -1.
         25    2    1    2    0    0  0.00000000000E+00  0.00000000000E+00 -0.22271845696E+02  0.12696831774E+03  0.12499967439E+03 0.  0.
    9000005    1    3    3    0    0 -0.16465336296E+02  0.40009145935E+02 -0.56939235481E+02  0.71518638095E+02  0.10000000000E+01 0.  0.
    9000005    1    3    3    0    0  0.16465336296E+02 -0.40009145935E+02  0.34667389785E+02  0.55449679641E+02  0.10000000000E+01 0.  0.
<mgrwt>
<rscale>  0 0.12499967E+03</rscale>
<asrwt>0</asrwt>
<pdfrwt beam="2">  1        4 0.11480013E-01 0.12499967E+03</pdfrwt>
<pdfrwt beam="1">  1       -4 0.80535747E-02 0.12499967E+03</pdfrwt>
<totfact> 0.10409911E+04</totfact>
</mgrwt>
</event>
<event>
 5    1  0.3514886E-002  0.1249960E+03  0.7818608E-02  0.1235076E+00
         -4   -1    0    0    0  501 -0.00000000000E+00  0.00000000000E+00  0.68878073670E+02  0.68889781046E+02  0.12700000000E+01 0.  1.
          4   -1    0    0  501    0  0.00000000000E+00 -0.00000000000E+00 -0.56685229859E+02  0.56699454884E+02  0.12700000000E+01 0.  1.
         25    2    1    2    0    0  0.00000000000E+00  0.00000000000E+00  0.12192843811E+02  0.12558923593E+03  0.12499596290E+03 0.  0.
    9000005    1    3    3    0    0 -0.46121877792E+02 -0.21030654866E+02  0.42814115306E+02  0.66359358983E+02  0.10000000000E+01 0.  0.
    9000005    1    3    3    0    0  0.46121877792E+02  0.21030654866E+02 -0.30621271495E+02  0.59229876947E+02  0.10000000000E+01 0.  0.
<mgrwt>
<rscale>  0 0.12499596E+03</rscale>
<asrwt>0</asrwt>
<pdfrwt beam="2">  1        4 0.87227995E-02 0.12499596E+03</pdfrwt>
<pdfrwt beam="1">  1       -4 0.10598621E-01 0.12499596E+03</pdfrwt>
<totfact> 0.10440935E+04</totfact>
</mgrwt>
</event>
<event>
 5    1  0.3514886E-002  0.1250067E+03  0.7818608E-02  0.1235059E+00
          4   -1    0    0  501    0  0.00000000000E+00  0.00000000000E+00  0.27412968403E+03  0.27413262587E+03  0.12700000000E+01 0.  1.
         -4   -1    0    0    0  501 -0.00000000000E+00 -0.00000000000E+00 -0.14219845479E+02  0.14276445827E+02  0.12700000000E+01 0.  1.
         25    2    1    2    0    0  0.00000000000E+00  0.00000000000E+00  0.25990983855E+03  0.28840907170E+03  0.12500667367E+03 0.  0.
    9000005    1    3    3    0    0 -0.15564148263E+02 -0.55347897687E+01  0.26901289229E+03  0.26952145151E+03  0.10000000000E+01 0.  0.
    9000005    1    3    3    0    0  0.15564148263E+02  0.55347897687E+01 -0.91030537350E+01  0.18887620185E+02  0.10000000000E+01 0.  0.
<mgrwt>
<rscale>  0 0.12500667E+03</rscale>
<asrwt>0</asrwt>
<pdfrwt beam="1">  1        4 0.42178369E-01 0.12500667E+03</pdfrwt>
<pdfrwt beam="2">  1       -4 0.21922492E-02 0.12500667E+03</pdfrwt>
<totfact> 0.77064752E+03</totfact>
</mgrwt>
</event>
<event>
 5    1  0.3514886E-002  0.1250006E+03  0.7818608E-02  0.1235068E+00
          4   -1    0    0  501    0  0.00000000000E+00  0.00000000000E+00  0.76020731601E+01  0.77074260510E+01  0.12700000000E+01 0. -1.
         -4   -1    0    0    0  501 -0.00000000000E+00 -0.00000000000E+00 -0.51020257435E+03  0.51020415500E+03  0.12700000000E+01 0. -1.
         25    2    1    2    0    0  0.00000000000E+00  0.00000000000E+00 -0.50260050119E+03  0.51791158105E+03  0.12500056794E+03 0.  0.
    9000005    1    3    3    0    0 -0.58639804257E+02 -0.11812218170E+02 -0.17636191234E+03  0.18623286301E+03  0.10000000000E+01 0.  0.
    9000005    1    3    3    0    0  0.58639804257E+02  0.11812218170E+02 -0.32623858885E+03  0.33167871804E+03  0.10000000000E+01 0.  0.
<mgrwt>
<rscale>  0 0.12500057E+03</rscale>
<asrwt>0</asrwt>
<pdfrwt beam="1">  1        4 0.11777758E-02 0.12500057E+03</pdfrwt>
<pdfrwt beam="2">  1       -4 0.78500903E-01 0.12500057E+03</pdfrwt>
<totfact> 0.54500276E+03</totfact>
</mgrwt>
</event>
<event>
 5    1  0.3514886E-002  0.1249931E+03  0.7818608E-02  0.1235080E+00
         -4   -1    0    0    0  501 -0.00000000000E+00  0.00000000000E+00  0.12782362499E+03  0.12782993392E+03  0.12700000000E+01 0. -1.
          4   -1    0    0  501    0  0.00000000000E+00 -0.00000000000E+00 -0.30536044087E+02  0.30562442449E+02  0.12700000000E+01 0. -1.
         25    2    1    2    0    0  0.00000000000E+00  0.00000000000E+00  0.97287580903E+02  0.15839237637E+03  0.12499308578E+03 0.  0.
    9000005    1    3    3    0    0 -0.96490712061E+01  0.49178397519E+02  0.13444825288E+01  0.50144062370E+02  0.10000000000E+01 0.  0.
    9000005    1    3    3    0    0  0.96490712061E+01 -0.49178397519E+02  0.95943098374E+02  0.10824831400E+03  0.10000000000E+01 0.  0.
<mgrwt>
<rscale>  0 0.12499309E+03</rscale>
<asrwt>0</asrwt>
<pdfrwt beam="2">  1        4 0.47003689E-02 0.12499309E+03</pdfrwt>
<pdfrwt beam="1">  1       -4 0.19667689E-01 0.12499309E+03</pdfrwt>
<totfact> 0.97668801E+03</totfact>
</mgrwt>
</event>
<event>
 5    1  0.3514886E-002  0.1250033E+03  0.7818608E-02  0.1235064E+00
         -4   -1    0    0    0  501 -0.00000000000E+00  0.00000000000E+00  0.98195345779E+01  0.99013210899E+01  0.12700000000E+01 0.  1.
          4   -1    0    0  501    0  0.00000000000E+00 -0.00000000000E+00 -0.39609213973E+03  0.39609417574E+03  0.12700000000E+01 0.  1.
         25    2    1    2    0    0  0.00000000000E+00  0.00000000000E+00 -0.38627260516E+03  0.40599549683E+03  0.12500327178E+03 0.  0.
    9000005    1    3    3    0    0 -0.14171729393E+02 -0.41907660705E+02 -0.49774007217E+02  0.66599862870E+02  0.10000000000E+01 0.  0.
    9000005    1    3    3    0    0  0.14171729393E+02  0.41907660705E+02 -0.33649859794E+03  0.33939563396E+03  0.10000000000E+01 0.  0.
<mgrwt>
<rscale>  0 0.12500327E+03</rscale>
<asrwt>0</asrwt>
<pdfrwt beam="2">  1        4 0.60943688E-01 0.12500327E+03</pdfrwt>
<pdfrwt beam="1">  1       -4 0.15171458E-02 0.12500327E+03</pdfrwt>
<totfact> 0.63969208E+03</totfact>
</mgrwt>
</event>
<event>
 5    1  0.3514886E-002  0.1249984E+03  0.7818608E-02  0.1235072E+00
         -4   -1    0    0    0  501 -0.00000000000E+00  0.00000000000E+00  0.44557788016E+01  0.46332348018E+01  0.12700000000E+01 0. -1.
          4   -1    0    0  501    0  0.00000000000E+00 -0.00000000000E+00 -0.85935475003E+03  0.85935568846E+03  0.12700000000E+01 0. -1.
         25    2    1    2    0    0  0.00000000000E+00  0.00000000000E+00 -0.85489897122E+03  0.86398892326E+03  0.12499843408E+03 0.  0.
    9000005    1    3    3    0    0 -0.77010526044E+01  0.44907052260E+02 -0.13182901470E+03  0.13948418788E+03  0.10000000000E+01 0.  0.
    9000005    1    3    3    0    0  0.77010526044E+01 -0.44907052260E+02 -0.72306995653E+03  0.72450473538E+03  0.10000000000E+01 0.  0.
<mgrwt>
<rscale>  0 0.12499843E+03</rscale>
<asrwt>0</asrwt>
<pdfrwt beam="2">  1        4 0.13222202E+00 0.12499843E+03</pdfrwt>
<pdfrwt beam="1">  1       -4 0.69922777E-03 0.12499843E+03</pdfrwt>
<totfact> 0.35562873E+03</totfact>
</mgrwt>
</event>
<event>
 5    1  0.3514886E-002  0.1249996E+03  0.7818608E-02  0.1235070E+00
          4   -1    0    0  501    0  0.00000000000E+00  0.00000000000E+00  0.32947110390E+03  0.32947355160E+03  0.12700000000E+01 0. -1.
         -4   -1    0    0    0  501 -0.00000000000E+00 -0.00000000000E+00 -0.11819544963E+02  0.11887579364E+02  0.12700000000E+01 0. -1.
         25    2    1    2    0    0  0.00000000000E+00  0.00000000000E+00  0.31765155893E+03  0.34136113096E+03  0.12499963536E+03 0.  0.
    9000005    1    3    3    0    0  0.14039839945E+02 -0.60585034667E+02  0.14208832609E+03  0.15510562834E+03  0.10000000000E+01 0.  0.
    9000005    1    3    3    0    0 -0.14039839945E+02  0.60585034667E+02  0.17556323285E+03  0.18625550263E+03  0.10000000000E+01 0.  0.
<mgrwt>
<rscale>  0 0.12499964E+03</rscale>
<asrwt>0</asrwt>
<pdfrwt beam="1">  1        4 0.50693288E-01 0.12499964E+03</pdfrwt>
<pdfrwt beam="2">  1       -4 0.18238131E-02 0.12499964E+03</pdfrwt>
<totfact> 0.70686077E+03</totfact>
</mgrwt>
</event>
<event>
 4    1  0.3514886E-002  0.1249229E+03  0.7818608E-02  0.1235190E+00
          4   -1    0    0  501    0  0.00000000000E+00  0.00000000000E+00  0.33753453412E+01  0.36063632890E+01  0.12700000000E+01 0. -1.
         -4   -1    0    0    0  501 -0.00000000000E+00 -0.00000000000E+00 -0.11173843787E+04  0.11173851004E+04  0.12700000000E+01 0. -1.
    9000005    1    1    2    0    0 -0.13508526855E+02  0.33325646318E+01 -0.10665081339E+02  0.17559334975E+02  0.10000000000E+01 0.  0.
    9000005    1    1    2    0    0  0.13508526855E+02 -0.33325646318E+01 -0.11033439520E+04  0.11034321287E+04  0.10000000000E+01 0.  0.
<mgrwt>
<rscale>  0 0.12492292E+03</rscale>
<asrwt>0</asrwt>
<pdfrwt beam="1">  1        4 0.53711092E-03 0.12492292E+03</pdfrwt>
<pdfrwt beam="2">  1       -4 0.17192283E+00 0.12492292E+03</pdfrwt>
<totfact> 0.26922305E+03</totfact>
</mgrwt>
</event>
<event>
 5    1  0.3514886E-002  0.1249980E+03  0.7818608E-02  0.1235072E+00
          4   -1    0    0  501    0  0.00000000000E+00  0.00000000000E+00  0.52462048397E+02  0.52477418211E+02  0.12700000000E+01 0.  1.
         -4   -1    0    0    0  501 -0.00000000000E+00 -0.00000000000E+00 -0.74424531952E+02  0.74435366973E+02  0.12700000000E+01 0.  1.
         25    2    1    2    0    0  0.00000000000E+00  0.00000000000E+00 -0.21962483555E+02  0.12691278518E+03  0.12499801742E+03 0.  0.
    9000005    1    3    3    0    0 -0.36323256218E+02 -0.11948453404E+02  0.39202420180E+02  0.54772020494E+02  0.10000000000E+01 0.  0.
    9000005    1    3    3    0    0  0.36323256218E+02  0.11948453404E+02 -0.61164903735E+02  0.72140764689E+02  0.10000000000E+01 0.  0.
<mgrwt>
<rscale>  0 0.12499802E+03</rscale>
<asrwt>0</asrwt>
<pdfrwt beam="1">  1        4 0.80731001E-02 0.12499802E+03</pdfrwt>
<pdfrwt beam="2">  1       -4 0.11451944E-01 0.12499802E+03</pdfrwt>
<totfact> 0.10411507E+04</totfact>
</mgrwt>
</event>
<event>
 5    1  0.3514886E-002  0.1250015E+03  0.7818608E-02  0.1235067E+00
          4   -1    0    0  501    0  0.00000000000E+00  0.00000000000E+00  0.86983373124E+02  0.86992643942E+02  0.12700000000E+01 0. -1.
         -4   -1    0    0    0  501 -0.00000000000E+00 -0.00000000000E+00 -0.44888473833E+02  0.44906435876E+02  0.12700000000E+01 0. -1.
         25    2    1    2    0    0  0.00000000000E+00  0.00000000000E+00  0.42094899291E+02  0.13189907982E+03  0.12500154683E+03 0.  0.
    9000005    1    3    3    0    0  0.48473980593E+02  0.29558369827E+02  0.48602038700E+02  0.74743442436E+02  0.10000000000E+01 0.  0.
    9000005    1    3    3    0    0 -0.48473980593E+02 -0.29558369827E+02 -0.65071394096E+01  0.57155637383E+02  0.10000000000E+01 0.  0.
<mgrwt>
<rscale>  0 0.12500155E+03</rscale>
<asrwt>0</asrwt>
<pdfrwt beam="1">  1        4 0.13384152E-01 0.12500155E+03</pdfrwt>
<pdfrwt beam="2">  1       -4 0.69080140E-02 0.12500155E+03</pdfrwt>
<totfact> 0.10303493E+04</totfact>
</mgrwt>
</event>
<event>
 5    1  0.3514886E-002  0.1249981E+03  0.7818608E-02  0.1235072E+00
         -4   -1    0    0    0  501 -0.00000000000E+00  0.00000000000E+00  0.22340841671E+03  0.22341202644E+03  0.12700000000E+01 0. -1.
          4   -1    0    0  501    0  0.00000000000E+00 -0.00000000000E+00 -0.17457449661E+02  0.17503583880E+02  0.12700000000E+01 0. -1.
         25    2    1    2    0    0  0.00000000000E+00  0.00000000000E+00  0.20595096705E+03  0.24091561032E+03  0.12499812185E+03 0.  0.
    9000005    1    3    3    0    0  0.12631238309E+01 -0.21519593160E+02  0.21602500174E+03  0.21710018367E+03  0.10000000000E+01 0.  0.
    9000005    1    3    3    0    0 -0.12631238309E+01  0.21519593160E+02 -0.10074034690E+02  0.23815426651E+02  0.10000000000E+01 0.  0.
<mgrwt>
<rscale>  0 0.12499812E+03</rscale>
<asrwt>0</asrwt>
<pdfrwt beam="2">  1        4 0.26895879E-02 0.12499812E+03</pdfrwt>
<pdfrwt beam="1">  1       -4 0.34374352E-01 0.12499812E+03</pdfrwt>
<totfact> 0.83664694E+03</totfact>
</mgrwt>
</event>
<event>
 5    1  0.3514886E-002  0.1250006E+03  0.7818608E-02  0.1235068E+00
         -4   -1    0    0    0  501 -0.00000000000E+00  0.00000000000E+00  0.31286575962E+03  0.31286833723E+03  0.12700000000E+01 0.  1.
          4   -1    0    0  501    0  0.00000000000E+00 -0.00000000000E+00 -0.12450573872E+02  0.12515178375E+02  0.12700000000E+01 0.  1.
         25    2    1    2    0    0  0.00000000000E+00  0.00000000000E+00  0.30041518574E+03  0.32538351560E+03  0.12500059360E+03 0.  0.
    9000005    1    3    3    0    0 -0.59443864688E+02 -0.19268534024E+02  0.15192964315E+03  0.16428166642E+03  0.10000000000E+01 0.  0.
    9000005    1    3    3    0    0  0.59443864688E+02  0.19268534024E+02  0.14848554259E+03  0.16110184918E+03  0.10000000000E+01 0.  0.
<mgrwt>
<rscale>  0 0.12500059E+03</rscale>
<asrwt>0</asrwt>
<pdfrwt beam="2">  1        4 0.19206405E-02 0.12500059E+03</pdfrwt>
<pdfrwt beam="1">  1       -4 0.48138368E-01 0.12500059E+03</pdfrwt>
<totfact> 0.72519410E+03</totfact>
</mgrwt>
</event>
<event>
 5    1  0.3514886E-002  0.1250080E+03  0.7818608E-02  0.1235057E+00
          4   -1    0    0  501    0  0.00000000000E+00  0.00000000000E+00  0.96809798817E+02  0.96818128711E+02  0.12700000000E+01 0. -1.
         -4   -1    0    0    0  501 -0.00000000000E+00 -0.00000000000E+00 -0.40334816853E+02  0.40354805793E+02  0.12700000000E+01 0. -1.
         25    2    1    2    0    0  0.00000000000E+00  0.00000000000E+00  0.56474981964E+02  0.13717293450E+03  0.12500796124E+03 0.  0.
    9000005    1    3    3    0    0 -0.21827089423E+02 -0.58559950775E+02  0.28501589861E+02  0.68695198464E+02  0.10000000000E+01 0.  0.
    9000005    1    3    3    0    0  0.21827089423E+02  0.58559950775E+02  0.27973392103E+02  0.68477736040E+02  0.10000000000E+01 0.  0.
<mgrwt>
<rscale>  0 0.12500796E+03</rscale>
<asrwt>0</asrwt>
<pdfrwt beam="1">  1        4 0.14895994E-01 0.12500796E+03</pdfrwt>
<pdfrwt beam="2">  1       -4 0.62075348E-02 0.12500796E+03</pdfrwt>
<totfact> 0.10190642E+04</totfact>
</mgrwt>
</event>
<event>
 5    1  0.3514886E-002  0.1250466E+03  0.7818608E-02  0.1234996E+00
          4   -1    0    0  501    0  0.00000000000E+00  0.00000000000E+00  0.63001845907E+02  0.63014645025E+02  0.12700000000E+01 0. -1.
         -4   -1    0    0    0  501 -0.00000000000E+00 -0.00000000000E+00 -0.62022821700E+02  0.62035822809E+02  0.12700000000E+01 0. -1.
         25    2    1    2    0    0  0.00000000000E+00  0.00000000000E+00  0.97902420663E+00  0.12505046783E+03  0.12504663537E+03 0.  0.
    9000005    1    3    3    0    0 -0.29633037629E+02  0.39258633209E+02 -0.38096745994E+02  0.62223140839E+02  0.10000000000E+01 0.  0.
    9000005    1    3    3    0    0  0.29633037629E+02 -0.39258633209E+02  0.39075770201E+02  0.62827326995E+02  0.10000000000E+01 0.  0.
<mgrwt>
<rscale>  0 0.12504664E+03</rscale>
<asrwt>0</asrwt>
<pdfrwt beam="1">  1        4 0.96945763E-02 0.12504664E+03</pdfrwt>
<pdfrwt beam="2">  1       -4 0.95439572E-02 0.12504664E+03</pdfrwt>
<totfact> 0.10440758E+04</totfact>
</mgrwt>
</event>
<event>
 5    1  0.3514886E-002  0.1249994E+03  0.7818608E-02  0.1235070E+00
          4   -1    0    0  501    0  0.00000000000E+00  0.00000000000E+00  0.95400931764E+01  0.96242546628E+01  0.12700000000E+01 0. -1.
         -4   -1    0    0    0  501 -0.00000000000E+00 -0.00000000000E+00 -0.40756894964E+03  0.40757092832E+03  0.12700000000E+01 0. -1.
         25    2    1    2    0    0  0.00000000000E+00  0.00000000000E+00 -0.39802885646E+03  0.41719518298E+03  0.12499940050E+03 0.  0.
    9000005    1    3    3    0    0  0.39177222109E+02 -0.48547161171E+02 -0.21129151606E+03  0.22031065872E+03  0.10000000000E+01 0.  0.
    9000005    1    3    3    0    0 -0.39177222109E+02  0.48547161171E+02 -0.18673734041E+03  0.19688452426E+03  0.10000000000E+01 0.  0.
<mgrwt>
<rscale>  0 0.12499940E+03</rscale>
<asrwt>0</asrwt>
<pdfrwt beam="1">  1        4 0.14743331E-02 0.12499940E+03</pdfrwt>
<pdfrwt beam="2">  1       -4 0.62709528E-01 0.12499940E+03</pdfrwt>
<totfact> 0.62914911E+03</totfact>
</mgrwt>
</event>
<event>
 5    1  0.3514886E-002  0.1250005E+03  0.7818608E-02  0.1235069E+00
          4   -1    0    0  501    0  0.00000000000E+00  0.00000000000E+00  0.14501857075E+04  0.14501862636E+04  0.12700000000E+01 0.  1.
         -4   -1    0    0    0  501 -0.00000000000E+00 -0.00000000000E+00 -0.25433581543E+01  0.28428103526E+01  0.12700000000E+01 0.  1.
         25    2    1    2    0    0  0.00000000000E+00  0.00000000000E+00  0.14476423493E+04  0.14530290739E+04  0.12500047254E+03 0.  0.
    9000005    1    3    3    0    0  0.69084321947E+01  0.55502828154E+02  0.10478399162E+04  0.10493320639E+04  0.10000000000E+01 0.  0.
    9000005    1    3    3    0    0 -0.69084321947E+01 -0.55502828154E+02  0.39980243313E+03  0.40369701003E+03  0.10000000000E+01 0.  0.
<mgrwt>
<rscale>  0 0.12500047E+03</rscale>
<asrwt>0</asrwt>
<pdfrwt beam="1">  1        4 0.22312805E+00 0.12500047E+03</pdfrwt>
<pdfrwt beam="2">  1       -4 0.41436440E-03 0.12500047E+03</pdfrwt>
<totfact> 0.18870650E+03</totfact>
</mgrwt>
</event>
<event>
 5    1  0.3514886E-002  0.1249980E+03  0.7818608E-02  0.1235072E+00
         -4   -1    0    0    0  501 -0.00000000000E+00  0.00000000000E+00  0.44971019154E+02  0.44988948240E+02  0.12700000000E+01 0.  1.
          4   -1    0    0  501    0  0.00000000000E+00 -0.00000000000E+00 -0.86818786712E+02  0.86828075103E+02  0.12700000000E+01 0.  1.
         25    2    1    2    0    0  0.00000000000E+00  0.00000000000E+00 -0.41847767558E+02  0.13181702334E+03  0.12499796796E+03 0.  0.
    9000005    1    3    3    0    0  0.45912799238E+02  0.24564578424E+02  0.15511190942E+02  0.54341519039E+02  0.10000000000E+01 0.  0.
    9000005    1    3    3    0    0 -0.45912799238E+02 -0.24564578424E+02 -0.57358958500E+02  0.77475504304E+02  0.10000000000E+01 0.  0.
<mgrwt>
<rscale>  0 0.12499797E+03</rscale>
<asrwt>0</asrwt>
<pdfrwt beam="2">  1        4 0.13358830E-01 0.12499797E+03</pdfrwt>
<pdfrwt beam="1">  1       -4 0.69207120E-02 0.12499797E+03</pdfrwt>
<totfact> 0.10306078E+04</totfact>
</mgrwt>
</event>
<event>
 5    1  0.3514886E-002  0.1250033E+03  0.7818608E-02  0.1235064E+00
         -4   -1    0    0    0  501 -0.00000000000E+00  0.00000000000E+00  0.12470610947E+04  0.12470617414E+04  0.12700000000E+01 0.  1.
          4   -1    0    0  501    0  0.00000000000E+00 -0.00000000000E+00 -0.30031348916E+01  0.32606317144E+01  0.12700000000E+01 0.  1.
         25    2    1    2    0    0  0.00000000000E+00  0.00000000000E+00  0.12440579598E+04  0.12503223731E+04  0.12500331715E+03 0.  0.
    9000005    1    3    3    0    0 -0.19081203802E+02 -0.36736174717E+02  0.10903059009E+04  0.10910919285E+04  0.10000000000E+01 0.  0.
    9000005    1    3    3    0    0  0.19081203802E+02  0.36736174717E+02  0.15375205889E+03  0.15923044459E+03  0.10000000000E+01 0.  0.
<mgrwt>
<rscale>  0 0.12500332E+03</rscale>
<asrwt>0</asrwt>
<pdfrwt beam="2">  1        4 0.48187735E-03 0.12500332E+03</pdfrwt>
<pdfrwt beam="1">  1       -4 0.19187565E+00 0.12500332E+03</pdfrwt>
<totfact> 0.23430442E+03</totfact>
</mgrwt>
</event>
<event>
 5    1  0.3514886E-002  0.1250081E+03  0.7818608E-02  0.1235057E+00
         -4   -1    0    0    0  501 -0.00000000000E+00  0.00000000000E+00  0.75661624515E+02  0.75672282404E+02  0.12700000000E+01 0.  1.
          4   -1    0    0  501    0  0.00000000000E+00 -0.00000000000E+00 -0.51612500692E+02  0.51628123418E+02  0.12700000000E+01 0.  1.
         25    2    1    2    0    0  0.00000000000E+00  0.00000000000E+00  0.24049123823E+02  0.12730040582E+03  0.12500813160E+03 0.  0.
    9000005    1    3    3    0    0  0.58665287075E+02 -0.21531014029E+02  0.12785095841E+02  0.63793880180E+02  0.10000000000E+01 0.  0.
    9000005    1    3    3    0    0 -0.58665287075E+02  0.21531014029E+02  0.11264027982E+02  0.63506525642E+02  0.10000000000E+01 0.  0.
<mgrwt>
<rscale>  0 0.12500813E+03</rscale>
<asrwt>0</asrwt>
<pdfrwt beam="2">  1        4 0.79424063E-02 0.12500813E+03</pdfrwt>
<pdfrwt beam="1">  1       -4 0.11642271E-01 0.12500813E+03</pdfrwt>
<totfact> 0.10400716E+04</totfact>
</mgrwt>
</event>
<event>
 5    1  0.3514886E-002  0.1249963E+03  0.7818608E-02  0.1235075E+00
         -4   -1    0    0    0  501 -0.00000000000E+00  0.00000000000E+00  0.20861891056E+03  0.20862277619E+03  0.12700000000E+01 0. -1.
          4   -1    0    0  501    0  0.00000000000E+00 -0.00000000000E+00 -0.18697635536E+02  0.18740717026E+02  0.12700000000E+01 0. -1.
         25    2    1    2    0    0  0.00000000000E+00  0.00000000000E+00  0.18992127502E+03  0.22736349321E+03  0.12499626930E+03 0.  0.
    9000005    1    3    3    0    0 -0.14897906593E+02  0.36907506998E+02  0.18259054988E+03  0.18688076572E+03  0.10000000000E+01 0.  0.
    9000005    1    3    3    0    0  0.14897906593E+02 -0.36907506998E+02  0.73307251488E+01  0.40482727488E+02  0.10000000000E+01 0.  0.
<mgrwt>
<rscale>  0 0.12499627E+03</rscale>
<asrwt>0</asrwt>
<pdfrwt beam="2">  1        4 0.28801706E-02 0.12499627E+03</pdfrwt>
<pdfrwt beam="1">  1       -4 0.32098829E-01 0.12499627E+03</pdfrwt>
<totfact> 0.85723221E+03</totfact>
</mgrwt>
</event>
<event>
 5    1  0.3514886E-002  0.1249996E+03  0.7818608E-02  0.1235070E+00
          4   -1    0    0  501    0  0.00000000000E+00  0.00000000000E+00  0.17423016344E+01  0.21560415083E+01  0.12700000000E+01 0.  1.
         -4   -1    0    0    0  501 -0.00000000000E+00 -0.00000000000E+00 -0.20036300622E+04  0.20036304647E+04  0.12700000000E+01 0.  1.
         25    2    1    2    0    0  0.00000000000E+00  0.00000000000E+00 -0.20018877606E+04  0.20057865062E+04  0.12499961025E+03 0.  0.
    9000005    1    3    3    0    0  0.73717383755E+01 -0.48445206696E+02 -0.37865501166E+03  0.38181395788E+03  0.10000000000E+01 0.  0.
    9000005    1    3    3    0    0 -0.73717383755E+01  0.48445206696E+02 -0.16232327489E+04  0.16239725483E+04  0.10000000000E+01 0.  0.
<mgrwt>
<rscale>  0 0.12499961E+03</rscale>
<asrwt>0</asrwt>
<pdfrwt beam="1">  1        4 0.29990511E-03 0.12499961E+03</pdfrwt>
<pdfrwt beam="2">  1       -4 0.30828099E+00 0.12499961E+03</pdfrwt>
<totfact> 0.97860788E+02</totfact>
</mgrwt>
</event>
<event>
 5    1  0.3514886E-002  0.1249840E+03  0.7818608E-02  0.1235094E+00
         -4   -1    0    0    0  501 -0.00000000000E+00  0.00000000000E+00  0.42633101452E+01  0.44484506735E+01  0.12700000000E+01 0. -1.
          4   -1    0    0  501    0  0.00000000000E+00 -0.00000000000E+00 -0.89636062637E+03  0.89636152607E+03  0.12700000000E+01 0. -1.
         25    2    1    2    0    0  0.00000000000E+00  0.00000000000E+00 -0.89209731623E+03  0.90080997674E+03  0.12498396926E+03 0.  0.
    9000005    1    3    3    0    0  0.19972190797E+02 -0.43654385703E+02 -0.73431368102E+03  0.73588190352E+03  0.10000000000E+01 0.  0.
    9000005    1    3    3    0    0 -0.19972190797E+02  0.43654385703E+02 -0.15778363521E+03  0.16492807322E+03  0.10000000000E+01 0.  0.
<mgrwt>
<rscale>  0 0.12498397E+03</rscale>
<asrwt>0</asrwt>
<pdfrwt beam="2">  1        4 0.13791580E+00 0.12498397E+03</pdfrwt>
<pdfrwt beam="1">  1       -4 0.67020537E-03 0.12498397E+03</pdfrwt>
<totfact> 0.34140900E+03</totfact>
</mgrwt>
</event>
<event>
 5    1  0.3514886E-002  0.1250017E+03  0.7818608E-02  0.1235067E+00
          4   -1    0    0  501    0  0.00000000000E+00  0.00000000000E+00  0.84398855686E+02  0.84408410369E+02  0.12700000000E+01 0. -1.
         -4   -1    0    0    0  501 -0.00000000000E+00 -0.00000000000E+00 -0.46263572547E+02  0.46281000906E+02  0.12700000000E+01 0. -1.
         25    2    1    2    0    0  0.00000000000E+00  0.00000000000E+00  0.38135283139E+02  0.13068941128E+03  0.12500168959E+03 0.  0.
    9000005    1    3    3    0    0 -0.41429608862E+02  0.46289805392E+02  0.26173745063E+02  0.67418272777E+02  0.10000000000E+01 0.  0.
    9000005    1    3    3    0    0  0.41429608862E+02 -0.46289805392E+02  0.11961538076E+02  0.63271138498E+02  0.10000000000E+01 0.  0.
<mgrwt>
<rscale>  0 0.12500169E+03</rscale>
<asrwt>0</asrwt>
<pdfrwt beam="1">  1        4 0.12986515E-01 0.12500169E+03</pdfrwt>
<pdfrwt beam="2">  1       -4 0.71195483E-02 0.12500169E+03</pdfrwt>
<totfact> 0.10329359E+04</totfact>
</mgrwt>
</event>
<event>
 4    1  0.3514886E-002  0.1250862E+03  0.7818608E-02  0.1234935E+00
         -4   -1    0    0    0  501 -0.00000000000E+00  0.00000000000E+00  0.22716364785E+02  0.22751837927E+02  0.12700000000E+01 0. -1.
          4   -1    0    0  501    0  0.00000000000E+00 -0.00000000000E+00 -0.17202252349E+03  0.17202721148E+03  0.12700000000E+01 0. -1.
    9000005    1    1    2    0    0  0.48453315236E+02  0.12942864655E+02 -0.13282074814E+03  0.14197743708E+03  0.10000000000E+01 0.  0.
    9000005    1    1    2    0    0 -0.48453315236E+02 -0.12942864655E+02 -0.16485410570E+02  0.52801612329E+02  0.10000000000E+01 0.  0.
<mgrwt>
<rscale>  0 0.12508617E+03</rscale>
<asrwt>0</asrwt>
<pdfrwt beam="2">  1        4 0.26468092E-01 0.12508617E+03</pdfrwt>
<pdfrwt beam="1">  1       -4 0.34979148E-02 0.12508617E+03</pdfrwt>
<totfact> 0.90846981E+03</totfact>
</mgrwt>
</event>
<event>
 5    1  0.3514886E-002  0.1249962E+03  0.7818608E-02  0.1235075E+00
         -4   -1    0    0    0  501 -0.00000000000E+00  0.00000000000E+00  0.35627706198E+03  0.35627932552E+03  0.12700000000E+01 0.  1.
          4   -1    0    0  501    0  0.00000000000E+00 -0.00000000000E+00 -0.10924326848E+02  0.10997900576E+02  0.12700000000E+01 0.  1.
         25    2    1    2    0    0  0.00000000000E+00  0.00000000000E+00  0.34535273513E+03  0.36727722610E+03  0.12499619652E+03 0.  0.
    9000005    1    3    3    0    0 -0.11038721088E+02 -0.18825655038E+02  0.62214242208E+00  0.21855107231E+02  0.10000000000E+01 0.  0.
    9000005    1    3    3    0    0  0.11038721088E+02  0.18825655038E+02  0.34473059271E+03  0.34542211886E+03  0.10000000000E+01 0.  0.
<mgrwt>
<rscale>  0 0.12499620E+03</rscale>
<asrwt>0</asrwt>
<pdfrwt beam="2">  1        4 0.16864990E-02 0.12499620E+03</pdfrwt>
<pdfrwt beam="1">  1       -4 0.54817700E-01 0.12499620E+03</pdfrwt>
<totfact> 0.67870454E+03</totfact>
</mgrwt>
</event>
<event>
 5    1  0.3514886E-002  0.1249868E+03  0.7818608E-02  0.1235090E+00
         -4   -1    0    0    0  501 -0.00000000000E+00  0.00000000000E+00  0.56691781447E+01  0.58096885317E+01  0.12700000000E+01 0. -1.
          4   -1    0    0  501    0  0.00000000000E+00 -0.00000000000E+00 -0.68031378948E+03  0.68031497489E+03  0.12700000000E+01 0. -1.
         25    2    1    2    0    0  0.00000000000E+00  0.00000000000E+00 -0.67464461134E+03  0.68612466342E+03  0.12498680790E+03 0.  0.
    9000005    1    3    3    0    0  0.51300469206E+02 -0.20200016742E+02 -0.17590198586E+03  0.18434285298E+03  0.10000000000E+01 0.  0.
    9000005    1    3    3    0    0 -0.51300469206E+02  0.20200016742E+02 -0.49874262548E+03  0.50178181044E+03  0.10000000000E+01 0.  0.
<mgrwt>
<rscale>  0 0.12498681E+03</rscale>
<asrwt>0</asrwt>
<pdfrwt beam="2">  1        4 0.10467450E+00 0.12498681E+03</pdfrwt>
<pdfrwt beam="1">  1       -4 0.88308147E-03 0.12498681E+03</pdfrwt>
<totfact> 0.43842022E+03</totfact>
</mgrwt>
</event>
<event>
 5    1  0.3514886E-002  0.1250016E+03  0.7818608E-02  0.1235067E+00
          4   -1    0    0  501    0  0.00000000000E+00  0.00000000000E+00  0.23718723270E+02  0.23752699501E+02  0.12700000000E+01 0. -1.
         -4   -1    0    0    0  501 -0.00000000000E+00 -0.00000000000E+00 -0.16454046239E+03  0.16454536354E+03  0.12700000000E+01 0. -1.
         25    2    1    2    0    0  0.00000000000E+00  0.00000000000E+00 -0.14082173912E+03  0.18829806304E+03  0.12500159334E+03 0.  0.
    9000005    1    3    3    0    0 -0.30216952924E+02 -0.50384233978E+02 -0.38324429111E+02  0.70152670258E+02  0.10000000000E+01 0.  0.
    9000005    1    3    3    0    0  0.30216952924E+02  0.50384233978E+02 -0.10249731001E+03  0.11814539279E+03  0.10000000000E+01 0.  0.
<mgrwt>
<rscale>  0 0.12500159E+03</rscale>
<asrwt>0</asrwt>
<pdfrwt beam="1">  1        4 0.36520250E-02 0.12500159E+03</pdfrwt>
<pdfrwt beam="2">  1       -4 0.25316907E-01 0.12500159E+03</pdfrwt>
<totfact> 0.92141003E+03</totfact>
</mgrwt>
</event>
<event>
 5    1  0.3514886E-002  0.1249978E+03  0.7818608E-02  0.1235073E+00
          4   -1    0    0  501    0  0.00000000000E+00  0.00000000000E+00  0.16815258080E+03  0.16815737668E+03  0.12700000000E+01 0.  1.
         -4   -1    0    0    0  501 -0.00000000000E+00 -0.00000000000E+00 -0.23207087479E+02  0.23241811661E+02  0.12700000000E+01 0.  1.
         25    2    1    2    0    0  0.00000000000E+00  0.00000000000E+00  0.14494549332E+03  0.19139918834E+03  0.12499781303E+03 0.  0.
    9000005    1    3    3    0    0  0.42899449251E+02 -0.10678135585E+01  0.29140357102E+01  0.43023186492E+02  0.10000000000E+01 0.  0.
    9000005    1    3    3    0    0 -0.42899449251E+02  0.10678135585E+01  0.14203145761E+03  0.14837600185E+03  0.10000000000E+01 0.  0.
<mgrwt>
<rscale>  0 0.12499781E+03</rscale>
<asrwt>0</asrwt>
<pdfrwt beam="1">  1        4 0.25872667E-01 0.12499781E+03</pdfrwt>
<pdfrwt beam="2">  1       -4 0.35733613E-02 0.12499781E+03</pdfrwt>
<totfact> 0.91608916E+03</totfact>
</mgrwt>
</event>
<event>
 5    1  0.3514886E-002  0.1249970E+03  0.7818608E-02  0.1235074E+00
          4   -1    0    0  501    0  0.00000000000E+00  0.00000000000E+00  0.94430317792E+02  0.94438857566E+02  0.12700000000E+01 0. -1.
         -4   -1    0    0    0  501 -0.00000000000E+00 -0.00000000000E+00 -0.41344348457E+02  0.41363849546E+02  0.12700000000E+01 0. -1.
         25    2    1    2    0    0  0.00000000000E+00  0.00000000000E+00  0.53085969336E+02  0.13580270711E+03  0.12499702044E+03 0.  0.
    9000005    1    3    3    0    0 -0.16248383015E+02  0.38784416687E+02  0.76764871628E+02  0.87533344757E+02  0.10000000000E+01 0.  0.
    9000005    1    3    3    0    0  0.16248383015E+02 -0.38784416687E+02 -0.23678902292E+02  0.48269362355E+02  0.10000000000E+01 0.  0.
<mgrwt>
<rscale>  0 0.12499702E+03</rscale>
<asrwt>0</asrwt>
<pdfrwt beam="1">  1        4 0.14529898E-01 0.12499702E+03</pdfrwt>
<pdfrwt beam="2">  1       -4 0.63628260E-02 0.12499702E+03</pdfrwt>
<totfact> 0.10221866E+04</totfact>
</mgrwt>
</event>
<event>
 5    1  0.3514886E-002  0.1250071E+03  0.7818608E-02  0.1235058E+00
          4   -1    0    0  501    0  0.00000000000E+00  0.00000000000E+00  0.12608287293E+02  0.12672087770E+02  0.12700000000E+01 0. -1.
         -4   -1    0    0    0  501 -0.00000000000E+00 -0.00000000000E+00 -0.30900441136E+03  0.30900702118E+03  0.12700000000E+01 0. -1.
         25    2    1    2    0    0  0.00000000000E+00  0.00000000000E+00 -0.29639612407E+03  0.32167910895E+03  0.12500714689E+03 0.  0.
    9000005    1    3    3    0    0  0.40072986871E+02  0.73409467585E+01 -0.26245956001E+02  0.48472507491E+02  0.10000000000E+01 0.  0.
    9000005    1    3    3    0    0 -0.40072986871E+02 -0.73409467585E+01 -0.27015016807E+03  0.27320660146E+03  0.10000000000E+01 0.  0.
<mgrwt>
<rscale>  0 0.12500715E+03</rscale>
<asrwt>0</asrwt>
<pdfrwt beam="1">  1        4 0.19448452E-02 0.12500715E+03</pdfrwt>
<pdfrwt beam="2">  1       -4 0.47544243E-01 0.12500715E+03</pdfrwt>
<totfact> 0.72945308E+03</totfact>
</mgrwt>
</event>
<event>
 5    1  0.3514886E-002  0.1250014E+03  0.7818608E-02  0.1235067E+00
         -4   -1    0    0    0  501 -0.00000000000E+00  0.00000000000E+00  0.84277133548E+03  0.84277229238E+03  0.12700000000E+01 0.  1.
          4   -1    0    0  501    0  0.00000000000E+00 -0.00000000000E+00 -0.45471368090E+01  0.47211601497E+01  0.12700000000E+01 0.  1.
         25    2    1    2    0    0  0.00000000000E+00  0.00000000000E+00  0.83822419867E+03  0.84749345253E+03  0.12500137938E+03 0.  0.
    9000005    1    3    3    0    0  0.26875819472E+02  0.12546351527E+02  0.79204304444E+03  0.79259882970E+03  0.10000000000E+01 0.  0.
    9000005    1    3    3    0    0 -0.26875819472E+02 -0.12546351527E+02  0.46181154236E+02  0.54894622829E+02  0.10000000000E+01 0.  0.
<mgrwt>
<rscale>  0 0.12500138E+03</rscale>
<asrwt>0</asrwt>
<pdfrwt beam="2">  1        4 0.71301970E-03 0.12500138E+03</pdfrwt>
<pdfrwt beam="1">  1       -4 0.12967056E+00 0.12500138E+03</pdfrwt>
<totfact> 0.36229029E+03</totfact>
</mgrwt>
</event>
<event>
 5    1  0.3514886E-002  0.1249994E+03  0.7818608E-02  0.1235070E+00
         -4   -1    0    0    0  501 -0.00000000000E+00  0.00000000000E+00  0.10929734876E+02  0.11003272443E+02  0.12700000000E+01 0. -1.
          4   -1    0    0  501    0  0.00000000000E+00 -0.00000000000E+00 -0.35612014435E+03  0.35612240889E+03  0.12700000000E+01 0. -1.
         25    2    1    2    0    0  0.00000000000E+00  0.00000000000E+00 -0.34519040948E+03  0.36712568133E+03  0.12499938840E+03 0.  0.
    9000005    1    3    3    0    0  0.15243429223E+02 -0.59982757351E+02 -0.19801671228E+03  0.20746544689E+03  0.10000000000E+01 0.  0.
    9000005    1    3    3    0    0 -0.15243429223E+02  0.59982757351E+02 -0.14717369720E+03  0.15966023444E+03  0.10000000000E+01 0.  0.
<mgrwt>
<rscale>  0 0.12499939E+03</rscale>
<asrwt>0</asrwt>
<pdfrwt beam="2">  1        4 0.54793537E-01 0.12499939E+03</pdfrwt>
<pdfrwt beam="1">  1       -4 0.16873289E-02 0.12499939E+03</pdfrwt>
<totfact> 0.67881642E+03</totfact>
</mgrwt>
</event>
<event>
 5    1  0.3514886E-002  0.1250049E+03  0.7818608E-02  0.1235062E+00
         -4   -1    0    0    0  501 -0.00000000000E+00  0.00000000000E+00  0.60322290820E+02  0.60335658360E+02  0.12700000000E+01 0. -1.
          4   -1    0    0  501    0  0.00000000000E+00 -0.00000000000E+00 -0.64734640741E+02  0.64747097324E+02  0.12700000000E+01 0. -1.
         25    2    1    2    0    0  0.00000000000E+00  0.00000000000E+00 -0.44123499218E+01  0.12508275568E+03  0.12500490765E+03 0.  0.
    9000005    1    3    3    0    0  0.53030877236E+02 -0.32288383228E+02 -0.93340304388E+01  0.62792816119E+02  0.10000000000E+01 0.  0.
    9000005    1    3    3    0    0 -0.53030877236E+02  0.32288383228E+02  0.49216805170E+01  0.62289939565E+02  0.10000000000E+01 0.  0.
<mgrwt>
<rscale>  0 0.12500491E+03</rscale>
<asrwt>0</asrwt>
<pdfrwt beam="2">  1        4 0.99611620E-02 0.12500491E+03</pdfrwt>
<pdfrwt beam="1">  1       -4 0.92823389E-02 0.12500491E+03</pdfrwt>
<totfact> 0.10449906E+04</totfact>
</mgrwt>
</event>
<event>
 5    1  0.3514886E-002  0.1250009E+03  0.7818608E-02  0.1235068E+00
         -4   -1    0    0    0  501 -0.00000000000E+00  0.00000000000E+00  0.47387804269E+02  0.47404819306E+02  0.12700000000E+01 0.  1.
          4   -1    0    0  501    0  0.00000000000E+00 -0.00000000000E+00 -0.82395972574E+02  0.82405759486E+02  0.12700000000E+01 0.  1.
         25    2    1    2    0    0  0.00000000000E+00  0.00000000000E+00 -0.35008168305E+02  0.12981057879E+03  0.12500085807E+03 0.  0.
    9000005    1    3    3    0    0 -0.23756177408E+02 -0.50321681197E+02  0.12027339703E+02  0.56941061316E+02  0.10000000000E+01 0.  0.
    9000005    1    3    3    0    0  0.23756177408E+02  0.50321681197E+02 -0.47035508008E+02  0.72869517475E+02  0.10000000000E+01 0.  0.
<mgrwt>
<rscale>  0 0.12500086E+03</rscale>
<asrwt>0</asrwt>
<pdfrwt beam="2">  1        4 0.12678365E-01 0.12500086E+03</pdfrwt>
<pdfrwt beam="1">  1       -4 0.72924931E-02 0.12500086E+03</pdfrwt>
<totfact> 0.10348361E+04</totfact>
</mgrwt>
</event>
<event>
 5    1  0.3514886E-002  0.1250003E+03  0.7818608E-02  0.1235069E+00
          4   -1    0    0  501    0  0.00000000000E+00  0.00000000000E+00  0.42757608313E+02  0.42776465126E+02  0.12700000000E+01 0.  1.
         -4   -1    0    0    0  501 -0.00000000000E+00 -0.00000000000E+00 -0.91315094539E+02  0.91323925620E+02  0.12700000000E+01 0.  1.
         25    2    1    2    0    0  0.00000000000E+00  0.00000000000E+00 -0.48557486225E+02  0.13410039075E+03  0.12500034132E+03 0.  0.
    9000005    1    3    3    0    0  0.53886351778E+01 -0.17122866968E+02 -0.88494965762E+02  0.90302762568E+02  0.10000000000E+01 0.  0.
    9000005    1    3    3    0    0 -0.53886351778E+01  0.17122866968E+02  0.39937479536E+02  0.43797628178E+02  0.10000000000E+01 0.  0.
<mgrwt>
<rscale>  0 0.12500034E+03</rscale>
<asrwt>0</asrwt>
<pdfrwt beam="1">  1        4 0.65802234E-02 0.12500034E+03</pdfrwt>
<pdfrwt beam="2">  1       -4 0.14050606E-01 0.12500034E+03</pdfrwt>
<totfact> 0.10256988E+04</totfact>
</mgrwt>
</event>
<event>
 5    1  0.3514886E-002  0.1249993E+03  0.7818608E-02  0.1235070E+00
          4   -1    0    0  501    0  0.00000000000E+00  0.00000000000E+00  0.19267752309E+02  0.19309561855E+02  0.12700000000E+01 0. -1.
         -4   -1    0    0    0  501 -0.00000000000E+00 -0.00000000000E+00 -0.20246927822E+03  0.20247326125E+03  0.12700000000E+01 0. -1.
         25    2    1    2    0    0  0.00000000000E+00  0.00000000000E+00 -0.18320152591E+03  0.22178282311E+03  0.12499928612E+03 0.  0.
    9000005    1    3    3    0    0  0.39753260700E+02  0.47417226116E+02 -0.76083197160E+02  0.98073278517E+02  0.10000000000E+01 0.  0.
    9000005    1    3    3    0    0 -0.39753260700E+02 -0.47417226116E+02 -0.10711832875E+03  0.12370954459E+03  0.10000000000E+01 0.  0.
<mgrwt>
<rscale>  0 0.12499929E+03</rscale>
<asrwt>0</asrwt>
<pdfrwt beam="1">  1        4 0.29677922E-02 0.12499929E+03</pdfrwt>
<pdfrwt beam="2">  1       -4 0.31152641E-01 0.12499929E+03</pdfrwt>
<totfact> 0.86588406E+03</totfact>
</mgrwt>
</event>
<event>
 5    1  0.3514886E-002  0.1249984E+03  0.7818608E-02  0.1235072E+00
         -4   -1    0    0    0  501 -0.00000000000E+00  0.00000000000E+00  0.80496076313E+03  0.80496176498E+03  0.12700000000E+01 0. -1.
          4   -1    0    0  501    0  0.00000000000E+00 -0.00000000000E+00 -0.47684824428E+01  0.49347061520E+01  0.12700000000E+01 0. -1.
         25    2    1    2    0    0  0.00000000000E+00  0.00000000000E+00  0.80019228069E+03  0.80989647113E+03  0.12499843151E+03 0.  0.
    9000005    1    3    3    0    0 -0.49852663149E+00  0.56046056569E+02  0.22103614862E+03  0.22803374308E+03  0.10000000000E+01 0.  0.
    9000005    1    3    3    0    0  0.49852663149E+00 -0.56046056569E+02  0.57915613207E+03  0.58186272805E+03  0.10000000000E+01 0.  0.
<mgrwt>
<rscale>  0 0.12499843E+03</rscale>
<asrwt>0</asrwt>
<pdfrwt beam="2">  1        4 0.74647663E-03 0.12499843E+03</pdfrwt>
<pdfrwt beam="1">  1       -4 0.12385291E+00 0.12499843E+03</pdfrwt>
<totfact> 0.37828038E+03</totfact>
</mgrwt>
</event>
<event>
 5    1  0.3514886E-002  0.1249953E+03  0.7818608E-02  0.1235077E+00
         -4   -1    0    0    0  501 -0.00000000000E+00  0.00000000000E+00  0.33493454045E+03  0.33493694822E+03  0.12700000000E+01 0.  1.
          4   -1    0    0  501    0  0.00000000000E+00 -0.00000000000E+00 -0.11624813109E+02  0.11693980495E+02  0.12700000000E+01 0.  1.
         25    2    1    2    0    0  0.00000000000E+00  0.00000000000E+00  0.32330972734E+03  0.34663092872E+03  0.12499528372E+03 0.  0.
    9000005    1    3    3    0    0  0.20270745284E+02 -0.46852744735E+02  0.26159891134E+03  0.26653531326E+03  0.10000000000E+01 0.  0.
    9000005    1    3    3    0    0 -0.20270745284E+02  0.46852744735E+02  0.61710815999E+02  0.80095615453E+02  0.10000000000E+01 0.  0.
<mgrwt>
<rscale>  0 0.12499528E+03</rscale>
<asrwt>0</asrwt>
<pdfrwt beam="2">  1        4 0.17939386E-02 0.12499528E+03</pdfrwt>
<pdfrwt beam="1">  1       -4 0.51533895E-01 0.12499528E+03</pdfrwt>
<totfact> 0.70104109E+03</totfact>
</mgrwt>
</event>
<event>
 5    1  0.3514886E-002  0.1249822E+03  0.7818608E-02  0.1235097E+00
          4   -1    0    0  501    0  0.00000000000E+00  0.00000000000E+00  0.26547364990E+03  0.26547668766E+03  0.12700000000E+01 0.  1.
         -4   -1    0    0    0  501 -0.00000000000E+00 -0.00000000000E+00 -0.14679534992E+02  0.14734369603E+02  0.12700000000E+01 0.  1.
         25    2    1    2    0    0  0.00000000000E+00  0.00000000000E+00  0.25079411491E+03  0.28021105726E+03  0.12498219289E+03 0.  0.
    9000005    1    3    3    0    0  0.35645628387E+02 -0.15628058480E+02  0.23498721978E+03  0.23819076492E+03  0.10000000000E+01 0.  0.
    9000005    1    3    3    0    0 -0.35645628387E+02  0.15628058480E+02  0.15806895132E+02  0.42020292344E+02  0.10000000000E+01 0.  0.
<mgrwt>
<rscale>  0 0.12498219E+03</rscale>
<asrwt>0</asrwt>
<pdfrwt beam="1">  1        4 0.40846550E-01 0.12498219E+03</pdfrwt>
<pdfrwt beam="2">  1       -4 0.22628418E-02 0.12498219E+03</pdfrwt>
<totfact> 0.78181071E+03</totfact>
</mgrwt>
</event>
<event>
 5    1  0.3514886E-002  0.1250000E+03  0.7818608E-02  0.1235069E+00
          4   -1    0    0  501    0  0.00000000000E+00  0.00000000000E+00  0.20238692683E+03  0.20239091149E+03  0.12700000000E+01 0.  1.
         -4   -1    0    0    0  501 -0.00000000000E+00 -0.00000000000E+00 -0.19275838957E+02  0.19317631001E+02  0.12700000000E+01 0.  1.
         25    2    1    2    0    0  0.00000000000E+00  0.00000000000E+00  0.18311108788E+03  0.22170854249E+03  0.12500002924E+03 0.  0.
    9000005    1    3    3    0    0  0.54561679157E+02  0.30090272964E+02  0.83077027600E+02  0.10385178802E+03  0.10000000000E+01 0.  0.
    9000005    1    3    3    0    0 -0.54561679157E+02 -0.30090272964E+02  0.10003406028E+03  0.11785675447E+03  0.10000000000E+01 0.  0.
<mgrwt>
<rscale>  0 0.12500003E+03</rscale>
<asrwt>0</asrwt>
<pdfrwt beam="1">  1        4 0.31139972E-01 0.12500003E+03</pdfrwt>
<pdfrwt beam="2">  1       -4 0.29690349E-02 0.12500003E+03</pdfrwt>
<totfact> 0.86598657E+03</totfact>
</mgrwt>
</event>
<event>
 5    1  0.3514886E-002  0.1250021E+03  0.7818608E-02  0.1235066E+00
         -4   -1    0    0    0  501 -0.00000000000E+00  0.00000000000E+00  0.12014650254E+04  0.12014656966E+04  0.12700000000E+01 0. -1.
          4   -1    0    0  501    0  0.00000000000E+00 -0.00000000000E+00 -0.31266346325E+01  0.33747213403E+01  0.12700000000E+01 0. -1.
         25    2    1    2    0    0  0.00000000000E+00  0.00000000000E+00  0.11983383907E+04  0.12048404179E+04  0.12500213585E+03 0.  0.
    9000005    1    3    3    0    0 -0.22285750752E+02  0.50349332292E+02  0.88406541508E+03  0.88577896119E+03  0.10000000000E+01 0.  0.
    9000005    1    3    3    0    0  0.22285750752E+02 -0.50349332292E+02  0.31427297564E+03  0.31906145673E+03  0.10000000000E+01 0.  0.
<mgrwt>
<rscale>  0 0.12500214E+03</rscale>
<asrwt>0</asrwt>
<pdfrwt beam="2">  1        4 0.50015567E-03 0.12500214E+03</pdfrwt>
<pdfrwt beam="1">  1       -4 0.18486001E+00 0.12500214E+03</pdfrwt>
<totfact> 0.24585238E+03</totfact>
</mgrwt>
</event>
<event>
 5    1  0.3514886E-002  0.1249993E+03  0.7818608E-02  0.1235070E+00
         -4   -1    0    0    0  501 -0.00000000000E+00  0.00000000000E+00  0.37563952253E+03  0.37564166940E+03  0.12700000000E+01 0.  1.
          4   -1    0    0  501    0  0.00000000000E+00 -0.00000000000E+00 -0.10357849723E+02  0.10435418098E+02  0.12700000000E+01 0.  1.
         25    2    1    2    0    0  0.00000000000E+00  0.00000000000E+00  0.36528167281E+03  0.38607708750E+03  0.12499926800E+03 0.  0.
    9000005    1    3    3    0    0 -0.19586337080E+02  0.59328727613E+02  0.18664622477E+03  0.19682818838E+03  0.10000000000E+01 0.  0.
    9000005    1    3    3    0    0  0.19586337080E+02 -0.59328727613E+02  0.17863544804E+03  0.18924889912E+03  0.10000000000E+01 0.  0.
<mgrwt>
<rscale>  0 0.12499927E+03</rscale>
<asrwt>0</asrwt>
<pdfrwt beam="2">  1        4 0.15996471E-02 0.12499927E+03</pdfrwt>
<pdfrwt beam="1">  1       -4 0.57796835E-01 0.12499927E+03</pdfrwt>
<totfact> 0.65930881E+03</totfact>
</mgrwt>
</event>
<event>
 5    1  0.3514886E-002  0.1249998E+03  0.7818608E-02  0.1235070E+00
         -4   -1    0    0    0  501 -0.00000000000E+00  0.00000000000E+00  0.90617803827E+02  0.90626702855E+02  0.12700000000E+01 0.  1.
          4   -1    0    0  501    0  0.00000000000E+00 -0.00000000000E+00 -0.43086334444E+02  0.43105047451E+02  0.12700000000E+01 0.  1.
         25    2    1    2    0    0  0.00000000000E+00  0.00000000000E+00  0.47531469383E+02  0.13373175031E+03  0.12499976183E+03 0.  0.
    9000005    1    3    3    0    0 -0.46740761493E+02  0.20982988299E+02  0.62045813718E+02  0.80471532748E+02  0.10000000000E+01 0.  0.
    9000005    1    3    3    0    0  0.46740761493E+02 -0.20982988299E+02 -0.14514344334E+02  0.53260217558E+02  0.10000000000E+01 0.  0.
<mgrwt>
<rscale>  0 0.12499976E+03</rscale>
<asrwt>0</asrwt>
<pdfrwt beam="2">  1        4 0.66307909E-02 0.12499976E+03</pdfrwt>
<pdfrwt beam="1">  1       -4 0.13943324E-01 0.12499976E+03</pdfrwt>
<totfact> 0.10264927E+04</totfact>
</mgrwt>
</event>
<event>
 5    1  0.3514886E-002  0.1250182E+03  0.7818608E-02  0.1235041E+00
          4   -1    0    0  501    0  0.00000000000E+00  0.00000000000E+00  0.15206271527E+02  0.15259213405E+02  0.12700000000E+01 0. -1.
         -4   -1    0    0    0  501 -0.00000000000E+00 -0.00000000000E+00 -0.25645785073E+03  0.25646099528E+03  0.12700000000E+01 0. -1.
         25    2    1    2    0    0  0.00000000000E+00  0.00000000000E+00 -0.24125157920E+03  0.27172020869E+03  0.12501818804E+03 0.  0.
    9000005    1    3    3    0    0 -0.27372857688E+02 -0.97328606423E+01 -0.24090169316E+03  0.24264918644E+03  0.10000000000E+01 0.  0.
    9000005    1    3    3    0    0  0.27372857688E+02  0.97328606423E+01 -0.34988604735E+00  0.29071022248E+02  0.10000000000E+01 0.  0.
<mgrwt>
<rscale>  0 0.12501819E+03</rscale>
<asrwt>0</asrwt>
<pdfrwt beam="1">  1        4 0.23437409E-02 0.12501819E+03</pdfrwt>
<pdfrwt beam="2">  1       -4 0.39459365E-01 0.12501819E+03</pdfrwt>
<totfact> 0.79256847E+03</totfact>
</mgrwt>
</event>
<event>
 5    1  0.3514886E-002  0.1249964E+03  0.7818608E-02  0.1235075E+00
         -4   -1    0    0    0  501 -0.00000000000E+00  0.00000000000E+00  0.48282796529E+02  0.48299496277E+02  0.12700000000E+01 0. -1.
          4   -1    0    0  501    0  0.00000000000E+00 -0.00000000000E+00 -0.80863201055E+02  0.80873173456E+02  0.12700000000E+01 0. -1.
         25    2    1    2    0    0  0.00000000000E+00  0.00000000000E+00 -0.32580404526E+02  0.12917266973E+03  0.12499638334E+03 0.  0.
    9000005    1    3    3    0    0 -0.58469614662E+02 -0.45644220465E+01 -0.38586374647E+02  0.70209957241E+02  0.10000000000E+01 0.  0.
    9000005    1    3    3    0    0  0.58469614662E+02  0.45644220465E+01  0.60059701205E+01  0.58962712493E+02  0.10000000000E+01 0.  0.
<mgrwt>
<rscale>  0 0.12499638E+03</rscale>
<asrwt>0</asrwt>
<pdfrwt beam="2">  1        4 0.12442544E-01 0.12499638E+03</pdfrwt>
<pdfrwt beam="1">  1       -4 0.74301743E-02 0.12499638E+03</pdfrwt>
<totfact> 0.10363084E+04</totfact>
</mgrwt>
</event>
<event>
 5    1  0.3514886E-002  0.1249906E+03  0.7818608E-02  0.1235084E+00
         -4   -1    0    0    0  501 -0.00000000000E+00  0.00000000000E+00  0.10994359669E+03  0.10995093157E+03  0.12700000000E+01 0.  1.
          4   -1    0    0  501    0  0.00000000000E+00 -0.00000000000E+00 -0.35504344889E+02  0.35527051750E+02  0.12700000000E+01 0.  1.
         25    2    1    2    0    0  0.00000000000E+00  0.00000000000E+00  0.74439251801E+02  0.14547798332E+03  0.12499056533E+03 0.  0.
    9000005    1    3    3    0    0  0.53915689018E+02 -0.29394349496E+02  0.50679350334E+02  0.79626163130E+02  0.10000000000E+01 0.  0.
    9000005    1    3    3    0    0 -0.53915689018E+02  0.29394349496E+02  0.23759901467E+02  0.65851820190E+02  0.10000000000E+01 0.  0.
<mgrwt>
<rscale>  0 0.12499057E+03</rscale>
<asrwt>0</asrwt>
<pdfrwt beam="2">  1        4 0.54645179E-02 0.12499057E+03</pdfrwt>
<pdfrwt beam="1">  1       -4 0.16916710E-01 0.12499057E+03</pdfrwt>
<totfact> 0.10023415E+04</totfact>
</mgrwt>
</event>
<event>
 5    1  0.3514886E-002  0.1249958E+03  0.7818608E-02  0.1235076E+00
          4   -1    0    0  501    0  0.00000000000E+00  0.00000000000E+00  0.57762324559E+02  0.57776284395E+02  0.12700000000E+01 0. -1.
         -4   -1    0    0    0  501 -0.00000000000E+00 -0.00000000000E+00 -0.67593637489E+02  0.67605567293E+02  0.12700000000E+01 0. -1.
         25    2    1    2    0    0  0.00000000000E+00  0.00000000000E+00 -0.98313129302E+01  0.12538185169E+03  0.12499581601E+03 0.  0.
    9000005    1    3    3    0    0 -0.11027384299E+02  0.59170107250E+02  0.11937533275E+02  0.61369450846E+02  0.10000000000E+01 0.  0.
    9000005    1    3    3    0    0  0.11027384299E+02 -0.59170107250E+02 -0.21768846205E+02  0.64012400842E+02  0.10000000000E+01 0.  0.
<mgrwt>
<rscale>  0 0.12499582E+03</rscale>
<asrwt>0</asrwt>
<pdfrwt beam="1">  1        4 0.88885030E-02 0.12499582E+03</pdfrwt>
<pdfrwt beam="2">  1       -4 0.10401013E-01 0.12499582E+03</pdfrwt>
<totfact> 0.10445555E+04</totfact>
</mgrwt>
</event>
<event>
 5    1  0.3514886E-002  0.1250029E+03  0.7818608E-02  0.1235065E+00
          4   -1    0    0  501    0  0.00000000000E+00  0.00000000000E+00  0.20592247826E+03  0.20592639450E+03  0.12700000000E+01 0. -1.
         -4   -1    0    0    0  501 -0.00000000000E+00 -0.00000000000E+00 -0.18945028522E+02  0.18987548702E+02  0.12700000000E+01 0. -1.
         25    2    1    2    0    0  0.00000000000E+00  0.00000000000E+00  0.18697744974E+03  0.22491394321E+03  0.12500286052E+03 0.  0.
    9000005    1    3    3    0    0 -0.23042785755E+02  0.54890746918E+02  0.59280591163E+02  0.84018763150E+02  0.10000000000E+01 0.  0.
    9000005    1    3    3    0    0  0.23042785755E+02 -0.54890746918E+02  0.12769685858E+03  0.14089518006E+03  0.10000000000E+01 0.  0.
<mgrwt>
<rscale>  0 0.12500286E+03</rscale>
<asrwt>0</asrwt>
<pdfrwt beam="1">  1        4 0.31683952E-01 0.12500286E+03</pdfrwt>
<pdfrwt beam="2">  1       -4 0.29181919E-02 0.12500286E+03</pdfrwt>
<totfact> 0.86091207E+03</totfact>
</mgrwt>
</event>
<event>
 5    1  0.3514886E-002  0.1250012E+03  0.7818608E-02  0.1235067E+00
          4   -1    0    0  501    0  0.00000000000E+00  0.00000000000E+00  0.26669003781E+01  0.29538547064E+01  0.12700000000E+01 0.  1.
         -4   -1    0    0    0  501 -0.00000000000E+00 -0.00000000000E+00 -0.13896770413E+04  0.13896776216E+04  0.12700000000E+01 0.  1.
         25    2    1    2    0    0  0.00000000000E+00  0.00000000000E+00 -0.13870101409E+04  0.13926314763E+04  0.12500119127E+03 0.  0.
    9000005    1    3    3    0    0  0.52840813631E+02 -0.31545744165E+02 -0.81454666115E+03  0.81686874634E+03  0.10000000000E+01 0.  0.
    9000005    1    3    3    0    0 -0.52840813631E+02  0.31545744165E+02 -0.57246347979E+03  0.57576272999E+03  0.10000000000E+01 0.  0.
<mgrwt>
<rscale>  0 0.12500119E+03</rscale>
<asrwt>0</asrwt>
<pdfrwt beam="1">  1        4 0.43241152E-03 0.12500119E+03</pdfrwt>
<pdfrwt beam="2">  1       -4 0.21381804E+00 0.12500119E+03</pdfrwt>
<totfact> 0.20139156E+03</totfact>
</mgrwt>
</event>
<event>
 5    1  0.3514886E-002  0.1250014E+03  0.7818608E-02  0.1235067E+00
          4   -1    0    0  501    0  0.00000000000E+00  0.00000000000E+00  0.20913625733E+03  0.20914011339E+03  0.12700000000E+01 0.  1.
         -4   -1    0    0    0  501 -0.00000000000E+00 -0.00000000000E+00 -0.18652815553E+02  0.18696000323E+02  0.12700000000E+01 0.  1.
         25    2    1    2    0    0  0.00000000000E+00  0.00000000000E+00  0.19048344177E+03  0.22783611371E+03  0.12500141248E+03 0.  0.
    9000005    1    3    3    0    0 -0.20543225786E+02  0.11076819082E+02  0.20090333319E+03  0.20225693890E+03  0.10000000000E+01 0.  0.
    9000005    1    3    3    0    0  0.20543225786E+02 -0.11076819082E+02 -0.10419891420E+02  0.25579174808E+02  0.10000000000E+01 0.  0.
<mgrwt>
<rscale>  0 0.12500141E+03</rscale>
<asrwt>0</asrwt>
<pdfrwt beam="1">  1        4 0.32178428E-01 0.12500141E+03</pdfrwt>
<pdfrwt beam="2">  1       -4 0.28732824E-02 0.12500141E+03</pdfrwt>
<totfact> 0.85640274E+03</totfact>
</mgrwt>
</event>
<event>
 5    1  0.3514886E-002  0.1250042E+03  0.7818608E-02  0.1235063E+00
          4   -1    0    0  501    0  0.00000000000E+00  0.00000000000E+00  0.41992979369E+02  0.42012179381E+02  0.12700000000E+01 0. -1.
         -4   -1    0    0    0  501 -0.00000000000E+00 -0.00000000000E+00 -0.92982901281E+02  0.92991573977E+02  0.12700000000E+01 0. -1.
         25    2    1    2    0    0  0.00000000000E+00  0.00000000000E+00 -0.50989921912E+02  0.13500375336E+03  0.12500416507E+03 0.  0.
    9000005    1    3    3    0    0  0.61788926946E+02  0.10895614995E+01 -0.35536680483E+02  0.71294560080E+02  0.10000000000E+01 0.  0.
    9000005    1    3    3    0    0 -0.61788926946E+02 -0.10895614995E+01 -0.15453241429E+02  0.63709193277E+02  0.10000000000E+01 0.  0.
<mgrwt>
<rscale>  0 0.12500417E+03</rscale>
<asrwt>0</asrwt>
<pdfrwt beam="1">  1        4 0.64626024E-02 0.12500417E+03</pdfrwt>
<pdfrwt beam="2">  1       -4 0.14307206E-01 0.12500417E+03</pdfrwt>
<totfact> 0.10237030E+04</totfact>
</mgrwt>
</event>
<event>
 5    1  0.3514886E-002  0.1250127E+03  0.7818608E-02  0.1235049E+00
          4   -1    0    0  501    0  0.00000000000E+00  0.00000000000E+00  0.88398108591E+03  0.88398199820E+03  0.12700000000E+01 0. -1.
         -4   -1    0    0    0  501 -0.00000000000E+00 -0.00000000000E+00 -0.43276654401E+01  0.45101649816E+01  0.12700000000E+01 0. -1.
         25    2    1    2    0    0  0.00000000000E+00  0.00000000000E+00  0.87965342047E+03  0.88849216318E+03  0.12501273493E+03 0.  0.
    9000005    1    3    3    0    0  0.16134489085E+02  0.43106480601E+02  0.13933733521E+03  0.14674598254E+03  0.10000000000E+01 0.  0.
    9000005    1    3    3    0    0 -0.16134489085E+02 -0.43106480601E+02  0.74031608526E+03  0.74174618064E+03  0.10000000000E+01 0.  0.
<mgrwt>
<rscale>  0 0.12501273E+03</rscale>
<asrwt>0</asrwt>
<pdfrwt beam="1">  1        4 0.13601111E+00 0.12501273E+03</pdfrwt>
<pdfrwt beam="2">  1       -4 0.67990372E-03 0.12501273E+03</pdfrwt>
<totfact> 0.34592199E+03</totfact>
</mgrwt>
</event>
<event>
 5    1  0.3514886E-002  0.1250001E+03  0.7818608E-02  0.1235069E+00
          4   -1    0    0  501    0  0.00000000000E+00  0.00000000000E+00  0.14641845829E+02  0.14696821060E+02  0.12700000000E+01 0. -1.
         -4   -1    0    0    0  501 -0.00000000000E+00 -0.00000000000E+00 -0.26623094450E+03  0.26623397362E+03  0.12700000000E+01 0. -1.
         25    2    1    2    0    0  0.00000000000E+00  0.00000000000E+00 -0.25158909867E+03  0.28093079468E+03  0.12500014732E+03 0.  0.
    9000005    1    3    3    0    0  0.16727867480E+02 -0.52187825210E+02 -0.58301283095E+02  0.80021436260E+02  0.10000000000E+01 0.  0.
    9000005    1    3    3    0    0 -0.16727867480E+02  0.52187825210E+02 -0.19328781558E+03  0.20090935842E+03  0.10000000000E+01 0.  0.
<mgrwt>
<rscale>  0 0.12500015E+03</rscale>
<asrwt>0</asrwt>
<pdfrwt beam="1">  1        4 0.22570537E-02 0.12500015E+03</pdfrwt>
<pdfrwt beam="2">  1       -4 0.40963065E-01 0.12500015E+03</pdfrwt>
<totfact> 0.78054596E+03</totfact>
</mgrwt>
</event>
<event>
 5    1  0.3514886E-002  0.1249985E+03  0.7818608E-02  0.1235072E+00
         -4   -1    0    0    0  501 -0.00000000000E+00  0.00000000000E+00  0.48742212672E+01  0.50369567163E+01  0.12700000000E+01 0. -1.
          4   -1    0    0  501    0  0.00000000000E+00 -0.00000000000E+00 -0.78806935292E+03  0.78807037625E+03  0.12700000000E+01 0. -1.
         25    2    1    2    0    0  0.00000000000E+00  0.00000000000E+00 -0.78319513166E+03  0.79310733296E+03  0.12499850939E+03 0.  0.
    9000005    1    3    3    0    0  0.17645475803E+02  0.75371669293E+01 -0.14248092130E+02  0.23920280746E+02  0.10000000000E+01 0.  0.
    9000005    1    3    3    0    0 -0.17645475803E+02 -0.75371669293E+01 -0.76894703953E+03  0.76918705222E+03  0.10000000000E+01 0.  0.
<mgrwt>
<rscale>  0 0.12499851E+03</rscale>
<asrwt>0</asrwt>
<pdfrwt beam="2">  1        4 0.12125394E+00 0.12499851E+03</pdfrwt>
<pdfrwt beam="1">  1       -4 0.76247765E-03 0.12499851E+03</pdfrwt>
<totfact> 0.38575576E+03</totfact>
</mgrwt>
</event>
<event>
 5    1  0.3514886E-002  0.1250007E+03  0.7818608E-02  0.1235068E+00
          4   -1    0    0  501    0  0.00000000000E+00  0.00000000000E+00  0.18321343519E+03  0.18321783684E+03  0.12700000000E+01 0. -1.
         -4   -1    0    0    0  501 -0.00000000000E+00 -0.00000000000E+00 -0.21297418091E+02  0.21335250580E+02  0.12700000000E+01 0. -1.
         25    2    1    2    0    0  0.00000000000E+00  0.00000000000E+00  0.16191601710E+03  0.20455308742E+03  0.12500067591E+03 0.  0.
    9000005    1    3    3    0    0 -0.60471148002E+02  0.12966518683E+02  0.95631275716E+02  0.11389131329E+03  0.10000000000E+01 0.  0.
    9000005    1    3    3    0    0  0.60471148002E+02 -0.12966518683E+02  0.66284741385E+02  0.90661774127E+02  0.10000000000E+01 0.  0.
<mgrwt>
<rscale>  0 0.12500068E+03</rscale>
<asrwt>0</asrwt>
<pdfrwt beam="1">  1        4 0.28189930E-01 0.12500068E+03</pdfrwt>
<pdfrwt beam="2">  1       -4 0.32797748E-02 0.12500068E+03</pdfrwt>
<totfact> 0.89371881E+03</totfact>
</mgrwt>
</event>
<event>
 5    1  0.3514886E-002  0.1250007E+03  0.7818608E-02  0.1235068E+00
         -4   -1    0    0    0  501 -0.00000000000E+00  0.00000000000E+00  0.35246424394E+03  0.35246653197E+03  0.12700000000E+01 0. -1.
          4   -1    0    0  501    0  0.00000000000E+00 -0.00000000000E+00 -0.11044099330E+02  0.11116880408E+02  0.12700000000E+01 0. -1.
         25    2    1    2    0    0  0.00000000000E+00  0.00000000000E+00  0.34142014461E+03  0.36358341238E+03  0.12500073043E+03 0.  0.
    9000005    1    3    3    0    0  0.57975072321E+01  0.17732046482E+02 -0.27698661704E+01  0.18886733999E+02  0.10000000000E+01 0.  0.
    9000005    1    3    3    0    0 -0.57975072321E+01 -0.17732046482E+02  0.34419001078E+03  0.34469667838E+03  0.10000000000E+01 0.  0.
<mgrwt>
<rscale>  0 0.12500073E+03</rscale>
<asrwt>0</asrwt>
<pdfrwt beam="2">  1        4 0.17048672E-02 0.12500073E+03</pdfrwt>
<pdfrwt beam="1">  1       -4 0.54231028E-01 0.12500073E+03</pdfrwt>
<totfact> 0.68254523E+03</totfact>
</mgrwt>
</event>
<event>
 5    1  0.3514886E-002  0.1249978E+03  0.7818608E-02  0.1235073E+00
          4   -1    0    0  501    0  0.00000000000E+00  0.00000000000E+00  0.73869138898E+03  0.73869248071E+03  0.12700000000E+01 0. -1.
         -4   -1    0    0    0  501 -0.00000000000E+00 -0.00000000000E+00 -0.52105179113E+01  0.53630585400E+01  0.12700000000E+01 0. -1.
         25    2    1    2    0    0  0.00000000000E+00  0.00000000000E+00  0.73348087107E+03  0.74405553925E+03  0.12499782902E+03 0.  0.
    9000005    1    3    3    0    0  0.12137718204E+01 -0.46558861787E+02  0.61474913766E+03  0.61651172179E+03  0.10000000000E+01 0.  0.
    9000005    1    3    3    0    0 -0.12137718204E+01  0.46558861787E+02  0.11873173341E+03  0.12754381746E+03  0.10000000000E+01 0.  0.
<mgrwt>
<rscale>  0 0.12499783E+03</rscale>
<asrwt>0</asrwt>
<pdfrwt beam="1">  1        4 0.11365653E+00 0.12499783E+03</pdfrwt>
<pdfrwt beam="2">  1       -4 0.81343684E-03 0.12499783E+03</pdfrwt>
<totfact> 0.40862060E+03</totfact>
</mgrwt>
</event>
<event>
 5    1  0.3514886E-002  0.1249974E+03  0.7818608E-02  0.1235073E+00
          4   -1    0    0  501    0  0.00000000000E+00  0.00000000000E+00  0.65235400406E+02  0.65247761388E+02  0.12700000000E+01 0.  1.
         -4   -1    0    0    0  501 -0.00000000000E+00 -0.00000000000E+00 -0.59852015164E+02  0.59865487713E+02  0.12700000000E+01 0.  1.
         25    2    1    2    0    0  0.00000000000E+00  0.00000000000E+00  0.53833852426E+01  0.12511324910E+03  0.12499737703E+03 0.  0.
    9000005    1    3    3    0    0 -0.37993945220E+02  0.48400388885E+02  0.13608156350E+02  0.63026339231E+02  0.10000000000E+01 0.  0.
    9000005    1    3    3    0    0  0.37993945220E+02 -0.48400388885E+02 -0.82247711074E+01  0.62086909871E+02  0.10000000000E+01 0.  0.
<mgrwt>
<rscale>  0 0.12499738E+03</rscale>
<asrwt>0</asrwt>
<pdfrwt beam="1">  1        4 0.10038203E-01 0.12499738E+03</pdfrwt>
<pdfrwt beam="2">  1       -4 0.92099896E-02 0.12499738E+03</pdfrwt>
<totfact> 0.10451023E+04</totfact>
</mgrwt>
</event>
<event>
 5    1  0.3514886E-002  0.1250009E+03  0.7818608E-02  0.1235068E+00
         -4   -1    0    0    0  501 -0.00000000000E+00  0.00000000000E+00  0.27422969796E+02  0.27452361874E+02  0.12700000000E+01 0.  1.
          4   -1    0    0  501    0  0.00000000000E+00 -0.00000000000E+00 -0.14233787573E+03  0.14234354136E+03  0.12700000000E+01 0.  1.
         25    2    1    2    0    0  0.00000000000E+00  0.00000000000E+00 -0.11491490594E+03  0.16979590324E+03  0.12500085260E+03 0.  0.
    9000005    1    3    3    0    0  0.35088238859E+02  0.36968599112E+02 -0.10657372079E+03  0.11813898506E+03  0.10000000000E+01 0.  0.
    9000005    1    3    3    0    0 -0.35088238859E+02 -0.36968599112E+02 -0.83411851440E+01  0.51656918182E+02  0.10000000000E+01 0.  0.
<mgrwt>
<rscale>  0 0.12500085E+03</rscale>
<asrwt>0</asrwt>
<pdfrwt beam="2">  1        4 0.21900831E-01 0.12500085E+03</pdfrwt>
<pdfrwt beam="1">  1       -4 0.42216153E-02 0.12500085E+03</pdfrwt>
<totfact> 0.95484864E+03</totfact>
</mgrwt>
</event>
<event>
 5    1  0.3514886E-002  0.1250005E+03  0.7818608E-02  0.1235069E+00
          4   -1    0    0  501    0  0.00000000000E+00  0.00000000000E+00  0.51696304024E+02  0.51711901432E+02  0.12700000000E+01 0.  1.
         -4   -1    0    0    0  501 -0.00000000000E+00 -0.00000000000E+00 -0.75529745285E+02  0.75540421781E+02  0.12700000000E+01 0.  1.
         25    2    1    2    0    0  0.00000000000E+00  0.00000000000E+00 -0.23833441261E+02  0.12725232321E+03  0.12500048336E+03 0.  0.
    9000005    1    3    3    0    0 -0.46383370951E+02  0.17518186449E+02 -0.50641123475E+02  0.70878962634E+02  0.10000000000E+01 0.  0.
    9000005    1    3    3    0    0  0.46383370951E+02 -0.17518186449E+02  0.26807682214E+02  0.56373360579E+02  0.10000000000E+01 0.  0.
<mgrwt>
<rscale>  0 0.12500048E+03</rscale>
<asrwt>0</asrwt>
<pdfrwt beam="1">  1        4 0.79552986E-02 0.12500048E+03</pdfrwt>
<pdfrwt beam="2">  1       -4 0.11621982E-01 0.12500048E+03</pdfrwt>
<totfact> 0.10403555E+04</totfact>
</mgrwt>
</event>
<event>
 5    1  0.3514886E-002  0.1249972E+03  0.7818608E-02  0.1235074E+00
         -4   -1    0    0    0  501 -0.00000000000E+00  0.00000000000E+00  0.95143897702E+01  0.95987766252E+01  0.12700000000E+01 0. -1.
          4   -1    0    0  501    0  0.00000000000E+00 -0.00000000000E+00 -0.40864626564E+03  0.40864823910E+03  0.12700000000E+01 0. -1.
         25    2    1    2    0    0  0.00000000000E+00  0.00000000000E+00 -0.39913187587E+03  0.41824701572E+03  0.12499724729E+03 0.  0.
    9000005    1    3    3    0    0  0.68675103652E+01 -0.60119910633E+02 -0.25178057129E+03  0.25895177627E+03  0.10000000000E+01 0.  0.
    9000005    1    3    3    0    0 -0.68675103652E+01  0.60119910633E+02 -0.14735130458E+03  0.15929523946E+03  0.10000000000E+01 0.  0.
<mgrwt>
<rscale>  0 0.12499725E+03</rscale>
<asrwt>0</asrwt>
<pdfrwt beam="2">  1        4 0.62875286E-01 0.12499725E+03</pdfrwt>
<pdfrwt beam="1">  1       -4 0.14703957E-02 0.12499725E+03</pdfrwt>
<totfact> 0.62819791E+03</totfact>
</mgrwt>
</event>
<event>
 5    1  0.3514886E-002  0.1249965E+03  0.7818608E-02  0.1235075E+00
         -4   -1    0    0    0  501 -0.00000000000E+00  0.00000000000E+00  0.81970839980E+02  0.81980677644E+02  0.12700000000E+01 0.  1.
          4   -1    0    0  501    0  0.00000000000E+00 -0.00000000000E+00 -0.47630317234E+02  0.47647245669E+02  0.12700000000E+01 0.  1.
         25    2    1    2    0    0  0.00000000000E+00  0.00000000000E+00  0.34340522746E+02  0.12962792331E+03  0.12499650795E+03 0.  0.
    9000005    1    3    3    0    0  0.50266536025E+02 -0.32342430899E+02  0.36074058128E+02  0.69821881601E+02  0.10000000000E+01 0.  0.
    9000005    1    3    3    0    0 -0.50266536025E+02  0.32342430899E+02 -0.17335353826E+01  0.59806041712E+02  0.10000000000E+01 0.  0.
<mgrwt>
<rscale>  0 0.12499651E+03</rscale>
<asrwt>0</asrwt>
<pdfrwt beam="2">  1        4 0.73298002E-02 0.12499651E+03</pdfrwt>
<pdfrwt beam="1">  1       -4 0.12612957E-01 0.12499651E+03</pdfrwt>
<totfact> 0.10353289E+04</totfact>
</mgrwt>
</event>
<event>
 5    1  0.3514886E-002  0.1249998E+03  0.7818608E-02  0.1235070E+00
          4   -1    0    0  501    0  0.00000000000E+00  0.00000000000E+00  0.48598482610E+01  0.50230493846E+01  0.12700000000E+01 0.  1.
         -4   -1    0    0    0  501 -0.00000000000E+00 -0.00000000000E+00 -0.79034060896E+03  0.79034162935E+03  0.12700000000E+01 0.  1.
         25    2    1    2    0    0  0.00000000000E+00  0.00000000000E+00 -0.78548076070E+03  0.79536467873E+03  0.12499978695E+03 0.  0.
    9000005    1    3    3    0    0  0.20797564613E+02  0.55295384861E+02 -0.26309918656E+03  0.26965218384E+03  0.10000000000E+01 0.  0.
    9000005    1    3    3    0    0 -0.20797564613E+02 -0.55295384861E+02 -0.52238157414E+03  0.52571249489E+03  0.10000000000E+01 0.  0.
<mgrwt>
<rscale>  0 0.12499979E+03</rscale>
<asrwt>0</asrwt>
<pdfrwt beam="1">  1        4 0.76030201E-03 0.12499979E+03</pdfrwt>
<pdfrwt beam="2">  1       -4 0.12160340E+00 0.12499979E+03</pdfrwt>
<totfact> 0.38472705E+03</totfact>
</mgrwt>
</event>
<event>
 5    1  0.3514886E-002  0.1250000E+03  0.7818608E-02  0.1235069E+00
          4   -1    0    0  501    0  0.00000000000E+00  0.00000000000E+00  0.21912970223E+03  0.21913338244E+03  0.12700000000E+01 0. -1.
         -4   -1    0    0    0  501 -0.00000000000E+00 -0.00000000000E+00 -0.17799737986E+02  0.17844987317E+02  0.12700000000E+01 0. -1.
         25    2    1    2    0    0  0.00000000000E+00  0.00000000000E+00  0.20132996424E+03  0.23697836976E+03  0.12499997292E+03 0.  0.
    9000005    1    3    3    0    0 -0.30636823198E+02  0.52668813244E+02  0.12697736429E+03  0.14084342323E+03  0.10000000000E+01 0.  0.
    9000005    1    3    3    0    0  0.30636823198E+02 -0.52668813244E+02  0.74352599951E+02  0.96134946527E+02  0.10000000000E+01 0.  0.
<mgrwt>
<rscale>  0 0.12499997E+03</rscale>
<asrwt>0</asrwt>
<pdfrwt beam="1">  1        4 0.33716027E-01 0.12499997E+03</pdfrwt>
<pdfrwt beam="2">  1       -4 0.27421849E-02 0.12499997E+03</pdfrwt>
<totfact> 0.84249502E+03</totfact>
</mgrwt>
</event>
<event>
 5    1  0.3514886E-002  0.1250032E+03  0.7818608E-02  0.1235064E+00
          4   -1    0    0  501    0  0.00000000000E+00  0.00000000000E+00  0.10762243036E+03  0.10762992343E+03  0.12700000000E+01 0. -1.
         -4   -1    0    0    0  501 -0.00000000000E+00 -0.00000000000E+00 -0.36277871619E+02  0.36300094617E+02  0.12700000000E+01 0. -1.
         25    2    1    2    0    0  0.00000000000E+00  0.00000000000E+00  0.71344558742E+02  0.14393001804E+03  0.12500321609E+03 0.  0.
    9000005    1    3    3    0    0  0.27130187767E+02 -0.39600602680E+02 -0.10401354496E+02  0.49126805272E+02  0.10000000000E+01 0.  0.
    9000005    1    3    3    0    0 -0.27130187767E+02  0.39600602680E+02  0.81745913238E+02  0.94803212773E+02  0.10000000000E+01 0.  0.
<mgrwt>
<rscale>  0 0.12500322E+03</rscale>
<asrwt>0</asrwt>
<pdfrwt beam="1">  1        4 0.16559583E-01 0.12500322E+03</pdfrwt>
<pdfrwt beam="2">  1       -4 0.55834969E-02 0.12500322E+03</pdfrwt>
<totfact> 0.10052045E+04</totfact>
</mgrwt>
</event>
<event>
 5    1  0.3514886E-002  0.1249998E+03  0.7818608E-02  0.1235070E+00
          4   -1    0    0  501    0  0.00000000000E+00  0.00000000000E+00  0.13213566869E+03  0.13214177175E+03  0.12700000000E+01 0.  1.
         -4   -1    0    0    0  501 -0.00000000000E+00 -0.00000000000E+00 -0.29541896462E+02  0.29569182379E+02  0.12700000000E+01 0.  1.
         25    2    1    2    0    0  0.00000000000E+00  0.00000000000E+00  0.10259377223E+03  0.16171095413E+03  0.12499980234E+03 0.  0.
    9000005    1    3    3    0    0 -0.29997239353E+02 -0.54786903020E+02  0.53818265316E+02  0.82455107743E+02  0.10000000000E+01 0.  0.
    9000005    1    3    3    0    0  0.29997239353E+02  0.54786903020E+02  0.48775506911E+02  0.79255846382E+02  0.10000000000E+01 0.  0.
<mgrwt>
<rscale>  0 0.12499980E+03</rscale>
<asrwt>0</asrwt>
<pdfrwt beam="1">  1        4 0.20331133E-01 0.12499980E+03</pdfrwt>
<pdfrwt beam="2">  1       -4 0.45474755E-02 0.12499980E+03</pdfrwt>
<totfact> 0.97014368E+03</totfact>
</mgrwt>
</event>
<event>
 5    1  0.3514886E-002  0.1250007E+03  0.7818608E-02  0.1235068E+00
          4   -1    0    0  501    0  0.00000000000E+00  0.00000000000E+00  0.17195115615E+03  0.17195584608E+03  0.12700000000E+01 0.  1.
         -4   -1    0    0    0  501 -0.00000000000E+00 -0.00000000000E+00 -0.22694703940E+02  0.22730210886E+02  0.12700000000E+01 0.  1.
         25    2    1    2    0    0  0.00000000000E+00  0.00000000000E+00  0.14925645221E+03  0.19468605697E+03  0.12500068900E+03 0.  0.
    9000005    1    3    3    0    0 -0.58669013053E+02  0.19130533841E+02  0.59268075264E+02  0.85567138337E+02  0.10000000000E+01 0.  0.
    9000005    1    3    3    0    0  0.58669013053E+02 -0.19130533841E+02  0.89988376948E+02  0.10911891863E+03  0.10000000000E+01 0.  0.
<mgrwt>
<rscale>  0 0.12500069E+03</rscale>
<asrwt>0</asrwt>
<pdfrwt beam="1">  1        4 0.26457116E-01 0.12500069E+03</pdfrwt>
<pdfrwt beam="2">  1       -4 0.34945850E-02 0.12500069E+03</pdfrwt>
<totfact> 0.91036884E+03</totfact>
</mgrwt>
</event>
<event>
 5    1  0.3514886E-002  0.1249993E+03  0.7818608E-02  0.1235070E+00
          4   -1    0    0  501    0  0.00000000000E+00  0.00000000000E+00  0.45679157497E+03  0.45679334043E+03  0.12700000000E+01 0. -1.
         -4   -1    0    0    0  501 -0.00000000000E+00 -0.00000000000E+00 -0.85024552667E+01  0.85967811163E+01  0.12700000000E+01 0. -1.
         25    2    1    2    0    0  0.00000000000E+00  0.00000000000E+00  0.44828911970E+03  0.46539012155E+03  0.12499932156E+03 0.  0.
    9000005    1    3    3    0    0  0.38497020095E+01 -0.41092901171E+02  0.49443886504E+02  0.64413854448E+02  0.10000000000E+01 0.  0.
    9000005    1    3    3    0    0 -0.38497020095E+01  0.41092901171E+02  0.39884523320E+03  0.40097626710E+03  0.10000000000E+01 0.  0.
<mgrwt>
<rscale>  0 0.12499932E+03</rscale>
<asrwt>0</asrwt>
<pdfrwt beam="1">  1        4 0.70283032E-01 0.12499932E+03</pdfrwt>
<pdfrwt beam="2">  1       -4 0.13154614E-02 0.12499932E+03</pdfrwt>
<totfact> 0.58654223E+03</totfact>
</mgrwt>
</event>
<event>
 5    1  0.3514886E-002  0.1249800E+03  0.7818608E-02  0.1235100E+00
         -4   -1    0    0    0  501 -0.00000000000E+00  0.00000000000E+00  0.15461127257E+04  0.15461132473E+04  0.12700000000E+01 0. -1.
          4   -1    0    0  501    0  0.00000000000E+00 -0.00000000000E+00 -0.23654859596E+01  0.26848508012E+01  0.12700000000E+01 0. -1.
         25    2    1    2    0    0  0.00000000000E+00  0.00000000000E+00  0.15437472398E+04  0.15487980981E+04  0.12498003229E+03 0.  0.
    9000005    1    3    3    0    0 -0.10658083794E+02  0.32265581455E+02  0.14216566567E+04  0.14220630479E+04  0.10000000000E+01 0.  0.
    9000005    1    3    3    0    0  0.10658083794E+02 -0.32265581455E+02  0.12209058304E+03  0.12673505026E+03  0.10000000000E+01 0.  0.
<mgrwt>
<rscale>  0 0.12498003E+03</rscale>
<asrwt>0</asrwt>
<pdfrwt beam="2">  1        4 0.38852790E-03 0.12498003E+03</pdfrwt>
<pdfrwt beam="1">  1       -4 0.23788790E+00 0.12498003E+03</pdfrwt>
<totfact> 0.16998328E+03</totfact>
</mgrwt>
</event>
<event>
 5    1  0.3514886E-002  0.1250024E+03  0.7818608E-02  0.1235066E+00
         -4   -1    0    0    0  501 -0.00000000000E+00  0.00000000000E+00  0.23582737470E+03  0.23583079434E+03  0.12700000000E+01 0. -1.
          4   -1    0    0  501    0  0.00000000000E+00 -0.00000000000E+00 -0.16536774043E+02  0.16585469416E+02  0.12700000000E+01 0. -1.
         25    2    1    2    0    0  0.00000000000E+00  0.00000000000E+00  0.21929060066E+03  0.25241626375E+03  0.12500241066E+03 0.  0.
    9000005    1    3    3    0    0 -0.59411744488E+02  0.19195430885E+02  0.11505636683E+03  0.13090908104E+03  0.10000000000E+01 0.  0.
    9000005    1    3    3    0    0  0.59411744488E+02 -0.19195430885E+02  0.10423423383E+03  0.12150718272E+03  0.10000000000E+01 0.  0.
<mgrwt>
<rscale>  0 0.12500241E+03</rscale>
<asrwt>0</asrwt>
<pdfrwt beam="2">  1        4 0.25481280E-02 0.12500241E+03</pdfrwt>
<pdfrwt beam="1">  1       -4 0.36285142E-01 0.12500241E+03</pdfrwt>
<totfact> 0.81977850E+03</totfact>
</mgrwt>
</event>
<event>
 4    1  0.3514886E-002  0.1243545E+03  0.7818608E-02  0.1236082E+00
          4   -1    0    0  501    0  0.00000000000E+00  0.00000000000E+00  0.13656652830E+02  0.13715577513E+02  0.12700000000E+01 0.  1.
         -4   -1    0    0    0  501 -0.00000000000E+00 -0.00000000000E+00 -0.28241637288E+03  0.28241922840E+03  0.12700000000E+01 0.  1.
    9000005    1    1    2    0    0  0.30229369433E+02 -0.32771260266E+02 -0.31201698961E+02  0.54427165035E+02  0.10000000000E+01 0.  0.
    9000005    1    1    2    0    0 -0.30229369433E+02  0.32771260266E+02 -0.23755802109E+03  0.24170764088E+03  0.10000000000E+01 0.  0.
<mgrwt>
<rscale>  0 0.12435448E+03</rscale>
<asrwt>0</asrwt>
<pdfrwt beam="1">  1        4 0.21057760E-02 0.12435448E+03</pdfrwt>
<pdfrwt beam="2">  1       -4 0.43453421E-01 0.12435448E+03</pdfrwt>
<totfact> 0.77187230E+03</totfact>
</mgrwt>
</event>
<event>
 5    1  0.3514886E-002  0.1250006E+03  0.7818608E-02  0.1235068E+00
         -4   -1    0    0    0  501 -0.00000000000E+00  0.00000000000E+00  0.35013472032E+02  0.35036497024E+02  0.12700000000E+01 0. -1.
          4   -1    0    0  501    0  0.00000000000E+00 -0.00000000000E+00 -0.11150195467E+03  0.11150918704E+03  0.12700000000E+01 0. -1.
         25    2    1    2    0    0  0.00000000000E+00  0.00000000000E+00 -0.76488482636E+02  0.14654568407E+03  0.12500059817E+03 0.  0.
    9000005    1    3    3    0    0 -0.33885219406E+02  0.52499376565E+02 -0.39353191976E+02  0.73851650980E+02  0.10000000000E+01 0.  0.
    9000005    1    3    3    0    0  0.33885219406E+02 -0.52499376565E+02 -0.37135290661E+02  0.72694033086E+02  0.10000000000E+01 0.  0.
<mgrwt>
<rscale>  0 0.12500060E+03</rscale>
<asrwt>0</asrwt>
<pdfrwt beam="2">  1        4 0.17156474E-01 0.12500060E+03</pdfrwt>
<pdfrwt beam="1">  1       -4 0.53890156E-02 0.12500060E+03</pdfrwt>
<totfact> 0.99995430E+03</totfact>
</mgrwt>
</event>
<event>
 5    1  0.3514886E-002  0.1250021E+03  0.7818608E-02  0.1235066E+00
          4   -1    0    0  501    0  0.00000000000E+00  0.00000000000E+00  0.11576172214E+03  0.11576868839E+03  0.12700000000E+01 0.  1.
         -4   -1    0    0    0  501 -0.00000000000E+00 -0.00000000000E+00 -0.33725066957E+02  0.33748970966E+02  0.12700000000E+01 0.  1.
         25    2    1    2    0    0  0.00000000000E+00  0.00000000000E+00  0.82036655182E+02  0.14951765936E+03  0.12500207065E+03 0.  0.
    9000005    1    3    3    0    0 -0.45348016911E+02 -0.40156108624E+02  0.59409982316E+02  0.84849877409E+02  0.10000000000E+01 0.  0.
    9000005    1    3    3    0    0  0.45348016911E+02  0.40156108624E+02  0.22626672866E+02  0.64667781952E+02  0.10000000000E+01 0.  0.
<mgrwt>
<rscale>  0 0.12500207E+03</rscale>
<asrwt>0</asrwt>
<pdfrwt beam="1">  1        4 0.17811870E-01 0.12500207E+03</pdfrwt>
<pdfrwt beam="2">  1       -4 0.51908465E-02 0.12500207E+03</pdfrwt>
<totfact> 0.99395300E+03</totfact>
</mgrwt>
</event>
<event>
 5    1  0.3514886E-002  0.1249984E+03  0.7818608E-02  0.1235072E+00
          4   -1    0    0  501    0  0.00000000000E+00  0.00000000000E+00  0.11268303171E+03  0.11269018828E+03  0.12700000000E+01 0. -1.
         -4   -1    0    0    0  501 -0.00000000000E+00 -0.00000000000E+00 -0.34645063997E+02  0.34668333669E+02  0.12700000000E+01 0. -1.
         25    2    1    2    0    0  0.00000000000E+00  0.00000000000E+00  0.78037967710E+02  0.14735852195E+03  0.12499843834E+03 0.  0.
    9000005    1    3    3    0    0 -0.58160811427E+01  0.62184702105E+02  0.41488573587E+02  0.74987103651E+02  0.10000000000E+01 0.  0.
    9000005    1    3    3    0    0  0.58160811427E+01 -0.62184702105E+02  0.36549394124E+02  0.72371418298E+02  0.10000000000E+01 0.  0.
<mgrwt>
<rscale>  0 0.12499844E+03</rscale>
<asrwt>0</asrwt>
<pdfrwt beam="1">  1        4 0.17338191E-01 0.12499844E+03</pdfrwt>
<pdfrwt beam="2">  1       -4 0.53323503E-02 0.12499844E+03</pdfrwt>
<totfact> 0.99836377E+03</totfact>
</mgrwt>
</event>
<event>
 5    1  0.3514886E-002  0.1249996E+03  0.7818608E-02  0.1235070E+00
          4   -1    0    0  501    0  0.00000000000E+00  0.00000000000E+00  0.31789373229E+01  0.34232356774E+01  0.12700000000E+01 0. -1.
         -4   -1    0    0    0  501 -0.00000000000E+00 -0.00000000000E+00 -0.11830698791E+04  0.11830705607E+04  0.12700000000E+01 0. -1.
         25    2    1    2    0    0  0.00000000000E+00  0.00000000000E+00 -0.11798909417E+04  0.11864937964E+04  0.12499957797E+03 0.  0.
    9000005    1    3    3    0    0  0.20673741641E+02 -0.53283719425E+02 -0.35006572688E+03  0.35470208836E+03  0.10000000000E+01 0.  0.
    9000005    1    3    3    0    0 -0.20673741641E+02  0.53283719425E+02 -0.82982521486E+03  0.83179170804E+03  0.10000000000E+01 0.  0.
<mgrwt>
<rscale>  0 0.12499958E+03</rscale>
<asrwt>0</asrwt>
<pdfrwt beam="1">  1        4 0.50791284E-03 0.12499958E+03</pdfrwt>
<pdfrwt beam="2">  1       -4 0.18202926E+00 0.12499958E+03</pdfrwt>
<totfact> 0.25069323E+03</totfact>
</mgrwt>
</event>
<event>
 5    1  0.3514886E-002  0.1250019E+03  0.7818608E-02  0.1235066E+00
         -4   -1    0    0    0  501 -0.00000000000E+00  0.00000000000E+00  0.31116805525E+03  0.31117064692E+03  0.12700000000E+01 0.  1.
          4   -1    0    0  501    0  0.00000000000E+00 -0.00000000000E+00 -0.12519122386E+02  0.12583374957E+02  0.12700000000E+01 0.  1.
         25    2    1    2    0    0  0.00000000000E+00  0.00000000000E+00  0.29864893286E+03  0.32375402188E+03  0.12500192632E+03 0.  0.
    9000005    1    3    3    0    0  0.57888745575E+02  0.43067231359E+01  0.20927121610E+03  0.21717526705E+03  0.10000000000E+01 0.  0.
    9000005    1    3    3    0    0 -0.57888745575E+02 -0.43067231359E+01  0.89377716755E+02  0.10657875483E+03  0.10000000000E+01 0.  0.
<mgrwt>
<rscale>  0 0.12500193E+03</rscale>
<asrwt>0</asrwt>
<pdfrwt beam="2">  1        4 0.19311610E-02 0.12500193E+03</pdfrwt>
<pdfrwt beam="1">  1       -4 0.47877143E-01 0.12500193E+03</pdfrwt>
<totfact> 0.72708747E+03</totfact>
</mgrwt>
</event>
<event>
 5    1  0.3514886E-002  0.1249987E+03  0.7818608E-02  0.1235071E+00
          4   -1    0    0  501    0  0.00000000000E+00  0.00000000000E+00  0.63821511498E+03  0.63821637858E+03  0.12700000000E+01 0.  1.
         -4   -1    0    0    0  501 -0.00000000000E+00 -0.00000000000E+00 -0.60532966273E+01  0.61850869079E+01  0.12700000000E+01 0.  1.
         25    2    1    2    0    0  0.00000000000E+00  0.00000000000E+00  0.63216181835E+03  0.64440146549E+03  0.12499873656E+03 0.  0.
    9000005    1    3    3    0    0  0.21936913985E+02 -0.53181858996E+02  0.44189815301E+03  0.44562822617E+03  0.10000000000E+01 0.  0.
    9000005    1    3    3    0    0 -0.21936913985E+02  0.53181858996E+02  0.19026366533E+03  0.19877323932E+03  0.10000000000E+01 0.  0.
<mgrwt>
<rscale>  0 0.12499874E+03</rscale>
<asrwt>0</asrwt>
<pdfrwt beam="1">  1        4 0.98197130E-01 0.12499874E+03</pdfrwt>
<pdfrwt beam="2">  1       -4 0.94151176E-03 0.12499874E+03</pdfrwt>
<totfact> 0.46180860E+03</totfact>
</mgrwt>
</event>
<event>
 5    1  0.3514886E-002  0.1250061E+03  0.7818608E-02  0.1235060E+00
          4   -1    0    0  501    0  0.00000000000E+00  0.00000000000E+00  0.10705498949E+03  0.10706252227E+03  0.12700000000E+01 0.  1.
         -4   -1    0    0    0  501 -0.00000000000E+00 -0.00000000000E+00 -0.36471932944E+02  0.36494037768E+02  0.12700000000E+01 0.  1.
         25    2    1    2    0    0  0.00000000000E+00  0.00000000000E+00  0.70583056549E+02  0.14355656004E+03  0.12500607209E+03 0.  0.
    9000005    1    3    3    0    0  0.31076887833E+02 -0.71861878360E+00  0.97552637979E+02  0.10239046121E+03  0.10000000000E+01 0.  0.
    9000005    1    3    3    0    0 -0.31076887833E+02  0.71861878360E+00 -0.26969581430E+02  0.41166098829E+02  0.10000000000E+01 0.  0.
<mgrwt>
<rscale>  0 0.12500607E+03</rscale>
<asrwt>0</asrwt>
<pdfrwt beam="1">  1        4 0.16472278E-01 0.12500607E+03</pdfrwt>
<pdfrwt beam="2">  1       -4 0.56133465E-02 0.12500607E+03</pdfrwt>
<totfact> 0.10059023E+04</totfact>
</mgrwt>
</event>
<event>
 5    1  0.3514886E-002  0.1250367E+03  0.7818608E-02  0.1235012E+00
          4   -1    0    0  501    0  0.00000000000E+00  0.00000000000E+00  0.19371441213E+03  0.19371857518E+03  0.12700000000E+01 0. -1.
         -4   -1    0    0    0  501 -0.00000000000E+00 -0.00000000000E+00 -0.20152464680E+02  0.20192442464E+02  0.12700000000E+01 0. -1.
         25    2    1    2    0    0  0.00000000000E+00  0.00000000000E+00  0.17356194745E+03  0.21391101764E+03  0.12503669007E+03 0.  0.
    9000005    1    3    3    0    0 -0.98182129828E+01  0.22976582046E+02  0.18480800834E+03  0.18649214615E+03  0.10000000000E+01 0.  0.
    9000005    1    3    3    0    0  0.98182129828E+01 -0.22976582046E+02 -0.11246060883E+02  0.27418871495E+02  0.10000000000E+01 0.  0.
<mgrwt>
<rscale>  0 0.12503669E+03</rscale>
<asrwt>0</asrwt>
<pdfrwt beam="1">  1        4 0.29805611E-01 0.12503669E+03</pdfrwt>
<pdfrwt beam="2">  1       -4 0.31037748E-02 0.12503669E+03</pdfrwt>
<totfact> 0.87769130E+03</totfact>
</mgrwt>
</event>
<event>
 5    1  0.3514886E-002  0.1249909E+03  0.7818608E-02  0.1235084E+00
          4   -1    0    0  501    0  0.00000000000E+00  0.00000000000E+00  0.13530570917E+03  0.13531166925E+03  0.12700000000E+01 0. -1.
         -4   -1    0    0    0  501 -0.00000000000E+00 -0.00000000000E+00 -0.28845028309E+02  0.28872972797E+02  0.12700000000E+01 0. -1.
         25    2    1    2    0    0  0.00000000000E+00  0.00000000000E+00  0.10646068086E+03  0.16418464204E+03  0.12499088012E+03 0.  0.
    9000005    1    3    3    0    0  0.26074836338E+02  0.16473579303E+01 -0.21332360728E+02  0.33744340154E+02  0.10000000000E+01 0.  0.
    9000005    1    3    3    0    0 -0.26074836338E+02 -0.16473579303E+01  0.12779304159E+03  0.13044030189E+03  0.10000000000E+01 0.  0.
<mgrwt>
<rscale>  0 0.12499088E+03</rscale>
<asrwt>0</asrwt>
<pdfrwt beam="1">  1        4 0.20818871E-01 0.12499088E+03</pdfrwt>
<pdfrwt beam="2">  1       -4 0.44403047E-02 0.12499088E+03</pdfrwt>
<totfact> 0.96561815E+03</totfact>
</mgrwt>
</event>
<event>
 5    1  0.3514886E-002  0.1249998E+03  0.7818608E-02  0.1235070E+00
         -4   -1    0    0    0  501 -0.00000000000E+00  0.00000000000E+00  0.17746082579E+03  0.17746537012E+03  0.12700000000E+01 0.  1.
          4   -1    0    0  501    0  0.00000000000E+00 -0.00000000000E+00 -0.21988677357E+02  0.22025322515E+02  0.12700000000E+01 0.  1.
         25    2    1    2    0    0  0.00000000000E+00  0.00000000000E+00  0.15547214844E+03  0.19949069264E+03  0.12499979003E+03 0.  0.
    9000005    1    3    3    0    0 -0.92103132240E+01 -0.51900887844E+02  0.13130567826E+03  0.14149456941E+03  0.10000000000E+01 0.  0.
    9000005    1    3    3    0    0  0.92103132240E+01  0.51900887844E+02  0.24166470181E+02  0.57996123230E+02  0.10000000000E+01 0.  0.
<mgrwt>
<rscale>  0 0.12499979E+03</rscale>
<asrwt>0</asrwt>
<pdfrwt beam="2">  1        4 0.33860419E-02 0.12499979E+03</pdfrwt>
<pdfrwt beam="1">  1       -4 0.27304833E-01 0.12499979E+03</pdfrwt>
<totfact> 0.90221900E+03</totfact>
</mgrwt>
</event>
<event>
 5    1  0.3514886E-002  0.1249956E+03  0.7818608E-02  0.1235076E+00
         -4   -1    0    0    0  501 -0.00000000000E+00  0.00000000000E+00  0.82435383824E+03  0.82435481652E+03  0.12700000000E+01 0.  1.
          4   -1    0    0  501    0  0.00000000000E+00 -0.00000000000E+00 -0.46521290511E+01  0.48223650534E+01  0.12700000000E+01 0.  1.
         25    2    1    2    0    0  0.00000000000E+00  0.00000000000E+00  0.81970170918E+03  0.82917718157E+03  0.12499562551E+03 0.  0.
    9000005    1    3    3    0    0 -0.15253574893E+02 -0.43106271912E+02  0.12730453932E+03  0.13527109061E+03  0.10000000000E+01 0.  0.
    9000005    1    3    3    0    0  0.15253574893E+02  0.43106271912E+02  0.69239716987E+03  0.69390609096E+03  0.10000000000E+01 0.  0.
<mgrwt>
<rscale>  0 0.12499563E+03</rscale>
<asrwt>0</asrwt>
<pdfrwt beam="2">  1        4 0.72888248E-03 0.12499563E+03</pdfrwt>
<pdfrwt beam="1">  1       -4 0.12683684E+00 0.12499563E+03</pdfrwt>
<totfact> 0.36998415E+03</totfact>
</mgrwt>
</event>
<event>
 5    1  0.3514886E-002  0.1249835E+03  0.7818608E-02  0.1235095E+00
         -4   -1    0    0    0  501 -0.00000000000E+00  0.00000000000E+00  0.76601020559E+01  0.77646676366E+01  0.12700000000E+01 0.  1.
          4   -1    0    0  501    0  0.00000000000E+00 -0.00000000000E+00 -0.50625155556E+03  0.50625314854E+03  0.12700000000E+01 0.  1.
         25    2    1    2    0    0  0.00000000000E+00  0.00000000000E+00 -0.49859145351E+03  0.51401781618E+03  0.12498351027E+03 0.  0.
    9000005    1    3    3    0    0  0.55263837291E+02  0.28982435428E+02 -0.23619555970E+03  0.24430189459E+03  0.10000000000E+01 0.  0.
    9000005    1    3    3    0    0 -0.55263837291E+02 -0.28982435428E+02 -0.26239589380E+03  0.26971592159E+03  0.10000000000E+01 0.  0.
<mgrwt>
<rscale>  0 0.12498351E+03</rscale>
<asrwt>0</asrwt>
<pdfrwt beam="2">  1        4 0.77892994E-01 0.12498351E+03</pdfrwt>
<pdfrwt beam="1">  1       -4 0.11866437E-02 0.12498351E+03</pdfrwt>
<totfact> 0.54812801E+03</totfact>
</mgrwt>
</event>
<event>
 5    1  0.3514886E-002  0.1249979E+03  0.7818608E-02  0.1235073E+00
          4   -1    0    0  501    0  0.00000000000E+00  0.00000000000E+00  0.35426653742E+03  0.35426881380E+03  0.12700000000E+01 0. -1.
         -4   -1    0    0    0  501 -0.00000000000E+00 -0.00000000000E+00 -0.10987035923E+02  0.11060192511E+02  0.12700000000E+01 0. -1.
         25    2    1    2    0    0  0.00000000000E+00  0.00000000000E+00  0.34327950149E+03  0.36532900631E+03  0.12499786682E+03 0.  0.
    9000005    1    3    3    0    0  0.36348523730E+02 -0.13916294179E+02  0.31452985419E+03  0.31693044599E+03  0.10000000000E+01 0.  0.
    9000005    1    3    3    0    0 -0.36348523730E+02  0.13916294179E+02  0.28749647304E+02  0.48398560320E+02  0.10000000000E+01 0.  0.
<mgrwt>
<rscale>  0 0.12499787E+03</rscale>
<asrwt>0</asrwt>
<pdfrwt beam="1">  1        4 0.54508345E-01 0.12499787E+03</pdfrwt>
<pdfrwt beam="2">  1       -4 0.16961158E-02 0.12499787E+03</pdfrwt>
<totfact> 0.68073668E+03</totfact>
</mgrwt>
</event>
<event>
 5    1  0.3514886E-002  0.1249985E+03  0.7818608E-02  0.1235072E+00
         -4   -1    0    0    0  501 -0.00000000000E+00  0.00000000000E+00  0.85020631626E+02  0.85030116441E+02  0.12700000000E+01 0.  1.
          4   -1    0    0  501    0  0.00000000000E+00 -0.00000000000E+00 -0.45922806194E+02  0.45940363829E+02  0.12700000000E+01 0.  1.
         25    2    1    2    0    0  0.00000000000E+00  0.00000000000E+00  0.39097825432E+02  0.13097048027E+03  0.12499850699E+03 0.  0.
    9000005    1    3    3    0    0  0.54981249357E+02  0.74816985488E+01 -0.10568836688E+02  0.56494370542E+02  0.10000000000E+01 0.  0.
    9000005    1    3    3    0    0 -0.54981249357E+02 -0.74816985488E+01  0.49666662120E+02  0.74476109728E+02  0.10000000000E+01 0.  0.
<mgrwt>
<rscale>  0 0.12499851E+03</rscale>
<asrwt>0</asrwt>
<pdfrwt beam="2">  1        4 0.70671274E-02 0.12499851E+03</pdfrwt>
<pdfrwt beam="1">  1       -4 0.13082177E-01 0.12499851E+03</pdfrwt>
<totfact> 0.10324070E+04</totfact>
</mgrwt>
</event>
<event>
 5    1  0.3514886E-002  0.1249992E+03  0.7818608E-02  0.1235070E+00
         -4   -1    0    0    0  501 -0.00000000000E+00  0.00000000000E+00  0.46367645420E+02  0.46385034675E+02  0.12700000000E+01 0. -1.
          4   -1    0    0  501    0  0.00000000000E+00 -0.00000000000E+00 -0.84206147031E+02  0.84215723578E+02  0.12700000000E+01 0. -1.
         25    2    1    2    0    0  0.00000000000E+00  0.00000000000E+00 -0.37838501611E+02  0.13060075825E+03  0.12499922341E+03 0.  0.
    9000005    1    3    3    0    0  0.49626947370E+02  0.34246706722E+02 -0.36072344190E+02  0.70270084972E+02  0.10000000000E+01 0.  0.
    9000005    1    3    3    0    0 -0.49626947370E+02 -0.34246706722E+02 -0.17661574208E+01  0.60330673282E+02  0.10000000000E+01 0.  0.
<mgrwt>
<rscale>  0 0.12499922E+03</rscale>
<asrwt>0</asrwt>
<pdfrwt beam="2">  1        4 0.12956866E-01 0.12499922E+03</pdfrwt>
<pdfrwt beam="1">  1       -4 0.71355582E-02 0.12499922E+03</pdfrwt>
<totfact> 0.10331837E+04</totfact>
</mgrwt>
</event>
<event>
 5    1  0.3514886E-002  0.1250110E+03  0.7818608E-02  0.1235052E+00
          4   -1    0    0  501    0  0.00000000000E+00  0.00000000000E+00  0.20950745512E+02  0.20989202879E+02  0.12700000000E+01 0. -1.
         -4   -1    0    0    0  501 -0.00000000000E+00 -0.00000000000E+00 -0.18627040820E+03  0.18627473761E+03  0.12700000000E+01 0. -1.
         25    2    1    2    0    0  0.00000000000E+00  0.00000000000E+00 -0.16531966269E+03  0.20726394049E+03  0.12501100014E+03 0.  0.
    9000005    1    3    3    0    0 -0.56576699738E+02 -0.89924183623E+01 -0.41238852722E+02  0.70593409856E+02  0.10000000000E+01 0.  0.
    9000005    1    3    3    0    0  0.56576699738E+02  0.89924183623E+01 -0.12408080997E+03  0.13667053063E+03  0.10000000000E+01 0.  0.
<mgrwt>
<rscale>  0 0.12501100E+03</rscale>
<asrwt>0</asrwt>
<pdfrwt beam="1">  1        4 0.32264830E-02 0.12501100E+03</pdfrwt>
<pdfrwt beam="2">  1       -4 0.28660276E-01 0.12501100E+03</pdfrwt>
<totfact> 0.88902803E+03</totfact>
</mgrwt>
</event>
<event>
 5    1  0.3514886E-002  0.1250011E+03  0.7818608E-02  0.1235068E+00
          4   -1    0    0  501    0  0.00000000000E+00  0.00000000000E+00  0.15061390750E+02  0.15114840102E+02  0.12700000000E+01 0. -1.
         -4   -1    0    0    0  501 -0.00000000000E+00 -0.00000000000E+00 -0.25884522010E+03  0.25884833565E+03  0.12700000000E+01 0. -1.
         25    2    1    2    0    0  0.00000000000E+00  0.00000000000E+00 -0.24378382935E+03  0.27396317575E+03  0.12500106486E+03 0.  0.
    9000005    1    3    3    0    0  0.56447261171E+02 -0.26139202333E+02 -0.10878471884E+03  0.12531825983E+03  0.10000000000E+01 0.  0.
    9000005    1    3    3    0    0 -0.56447261171E+02  0.26139202333E+02 -0.13499911050E+03  0.14864491592E+03  0.10000000000E+01 0.  0.
<mgrwt>
<rscale>  0 0.12500106E+03</rscale>
<asrwt>0</asrwt>
<pdfrwt beam="1">  1        4 0.23214884E-02 0.12500106E+03</pdfrwt>
<pdfrwt beam="2">  1       -4 0.39826689E-01 0.12500106E+03</pdfrwt>
<totfact> 0.78983545E+03</totfact>
</mgrwt>
</event>
<event>
 5    1  0.3514886E-002  0.1249994E+03  0.7818608E-02  0.1235070E+00
          4   -1    0    0  501    0  0.00000000000E+00  0.00000000000E+00  0.21169039725E+02  0.21207101237E+02  0.12700000000E+01 0. -1.
         -4   -1    0    0    0  501 -0.00000000000E+00 -0.00000000000E+00 -0.18431873233E+03  0.18432310758E+03  0.12700000000E+01 0. -1.
         25    2    1    2    0    0  0.00000000000E+00  0.00000000000E+00 -0.16314969261E+03  0.20553020882E+03  0.12499937815E+03 0.  0.
    9000005    1    3    3    0    0 -0.36116397521E+02  0.50792834514E+02 -0.74057022595E+02  0.96797462795E+02  0.10000000000E+01 0.  0.
    9000005    1    3    3    0    0  0.36116397521E+02 -0.50792834514E+02 -0.89092670010E+02  0.10873274602E+03  0.10000000000E+01 0.  0.
<mgrwt>
<rscale>  0 0.12499938E+03</rscale>
<asrwt>0</asrwt>
<pdfrwt beam="1">  1        4 0.32600398E-02 0.12499938E+03</pdfrwt>
<pdfrwt beam="2">  1       -4 0.28359991E-01 0.12499938E+03</pdfrwt>
<totfact> 0.89212340E+03</totfact>
</mgrwt>
</event>
<event>
 5    1  0.3514886E-002  0.1250033E+03  0.7818608E-02  0.1235064E+00
          4   -1    0    0  501    0  0.00000000000E+00  0.00000000000E+00  0.11872815616E+02  0.11940546497E+02  0.12700000000E+01 0.  1.
         -4   -1    0    0    0  501 -0.00000000000E+00 -0.00000000000E+00 -0.32802040304E+03  0.32802286156E+03  0.12700000000E+01 0.  1.
         25    2    1    2    0    0  0.00000000000E+00  0.00000000000E+00 -0.31614758742E+03  0.33996340806E+03  0.12500328711E+03 0.  0.
    9000005    1    3    3    0    0 -0.70299001890E+01  0.37024888258E+02 -0.29365230289E+03  0.29606238674E+03  0.10000000000E+01 0.  0.
    9000005    1    3    3    0    0  0.70299001890E+01 -0.37024888258E+02 -0.22495284530E+02  0.43901021323E+02  0.10000000000E+01 0.  0.
<mgrwt>
<rscale>  0 0.12500329E+03</rscale>
<asrwt>0</asrwt>
<pdfrwt beam="1">  1        4 0.18319865E-02 0.12500329E+03</pdfrwt>
<pdfrwt beam="2">  1       -4 0.50470070E-01 0.12500329E+03</pdfrwt>
<totfact> 0.70837849E+03</totfact>
</mgrwt>
</event>
<event>
 5    1  0.3514886E-002  0.1249955E+03  0.7818608E-02  0.1235076E+00
          4   -1    0    0  501    0  0.00000000000E+00  0.00000000000E+00  0.58827188505E+02  0.58840895705E+02  0.12700000000E+01 0. -1.
         -4   -1    0    0    0  501 -0.00000000000E+00 -0.00000000000E+00 -0.66369820619E+02  0.66381970361E+02  0.12700000000E+01 0. -1.
         25    2    1    2    0    0  0.00000000000E+00  0.00000000000E+00 -0.75426321146E+01  0.12522286607E+03  0.12499549947E+03 0.  0.
    9000005    1    3    3    0    0 -0.50833941265E+02  0.41486615368E+01  0.32400700709E+02  0.60432659908E+02  0.10000000000E+01 0.  0.
    9000005    1    3    3    0    0  0.50833941265E+02 -0.41486615368E+01 -0.39943332824E+02  0.64790206159E+02  0.10000000000E+01 0.  0.
<mgrwt>
<rscale>  0 0.12499550E+03</rscale>
<asrwt>0</asrwt>
<pdfrwt beam="1">  1        4 0.90523257E-02 0.12499550E+03</pdfrwt>
<pdfrwt beam="2">  1       -4 0.10212731E-01 0.12499550E+03</pdfrwt>
<totfact> 0.10449087E+04</totfact>
</mgrwt>
</event>
<event>
 5    1  0.3514886E-002  0.1250001E+03  0.7818608E-02  0.1235069E+00
          4   -1    0    0  501    0  0.00000000000E+00  0.00000000000E+00  0.36065604626E+02  0.36087958339E+02  0.12700000000E+01 0.  1.
         -4   -1    0    0    0  501 -0.00000000000E+00 -0.00000000000E+00 -0.10825006320E+03  0.10825751282E+03  0.12700000000E+01 0.  1.
         25    2    1    2    0    0  0.00000000000E+00  0.00000000000E+00 -0.72184458572E+02  0.14434547116E+03  0.12500007594E+03 0.  0.
    9000005    1    3    3    0    0 -0.16762560096E+02  0.40074519920E+02 -0.87970584116E+02  0.98116126286E+02  0.10000000000E+01 0.  0.
    9000005    1    3    3    0    0  0.16762560096E+02 -0.40074519920E+02  0.15786125544E+02  0.46229344874E+02  0.10000000000E+01 0.  0.
<mgrwt>
<rscale>  0 0.12500008E+03</rscale>
<asrwt>0</asrwt>
<pdfrwt beam="1">  1        4 0.55508472E-02 0.12500008E+03</pdfrwt>
<pdfrwt beam="2">  1       -4 0.16656148E-01 0.12500008E+03</pdfrwt>
<totfact> 0.10044287E+04</totfact>
</mgrwt>
</event>
<event>
 5    1  0.3514886E-002  0.1249978E+03  0.7818608E-02  0.1235073E+00
          4   -1    0    0  501    0  0.00000000000E+00  0.00000000000E+00  0.31712599100E+02  0.31738018868E+02  0.12700000000E+01 0.  1.
         -4   -1    0    0    0  501 -0.00000000000E+00 -0.00000000000E+00 -0.12309414463E+03  0.12310069595E+03  0.12700000000E+01 0.  1.
         25    2    1    2    0    0  0.00000000000E+00  0.00000000000E+00 -0.91381545534E+02  0.15483871482E+03  0.12499776295E+03 0.  0.
    9000005    1    3    3    0    0  0.19588869051E+02 -0.31729725652E+02 -0.10780809340E+03  0.11407928946E+03  0.10000000000E+01 0.  0.
    9000005    1    3    3    0    0 -0.19588869051E+02  0.31729725652E+02  0.16426547867E+02  0.40759425358E+02  0.10000000000E+01 0.  0.
<mgrwt>
<rscale>  0 0.12499776E+03</rscale>
<asrwt>0</asrwt>
<pdfrwt beam="1">  1        4 0.48813208E-02 0.12499776E+03</pdfrwt>
<pdfrwt beam="2">  1       -4 0.18940020E-01 0.12499776E+03</pdfrwt>
<totfact> 0.98352119E+03</totfact>
</mgrwt>
</event>
<event>
 5    1  0.3514886E-002  0.1250028E+03  0.7818608E-02  0.1235065E+00
         -4   -1    0    0    0  501 -0.00000000000E+00  0.00000000000E+00  0.90793087560E+03  0.90793176383E+03  0.12700000000E+01 0.  1.
          4   -1    0    0  501    0  0.00000000000E+00 -0.00000000000E+00 -0.42079283944E+01  0.43954022993E+01  0.12700000000E+01 0.  1.
         25    2    1    2    0    0  0.00000000000E+00  0.00000000000E+00  0.90372294721E+03  0.91232716613E+03  0.12500277096E+03 0.  0.
    9000005    1    3    3    0    0 -0.47749400214E+02 -0.39731290479E+02  0.40190967779E+03  0.40668288600E+03  0.10000000000E+01 0.  0.
    9000005    1    3    3    0    0  0.47749400214E+02  0.39731290479E+02  0.50181326942E+03  0.50564428013E+03  0.10000000000E+01 0.  0.
<mgrwt>
<rscale>  0 0.12500277E+03</rscale>
<asrwt>0</asrwt>
<pdfrwt beam="2">  1        4 0.66186260E-03 0.12500277E+03</pdfrwt>
<pdfrwt beam="1">  1       -4 0.13969625E+00 0.12500277E+03</pdfrwt>
<totfact> 0.33690219E+03</totfact>
</mgrwt>
</event>
<event>
 5    1  0.3514886E-002  0.1249969E+03  0.7818608E-02  0.1235074E+00
         -4   -1    0    0    0  501 -0.00000000000E+00  0.00000000000E+00  0.41698060760E+03  0.41698254161E+03  0.12700000000E+01 0. -1.
          4   -1    0    0  501    0  0.00000000000E+00 -0.00000000000E+00 -0.93224737989E+01  0.94085821318E+01  0.12700000000E+01 0. -1.
         25    2    1    2    0    0  0.00000000000E+00  0.00000000000E+00  0.40765813380E+03  0.42639112375E+03  0.12499694540E+03 0.  0.
    9000005    1    3    3    0    0  0.34404044832E+02 -0.50504688075E+02  0.24839695392E+03  0.25580541147E+03  0.10000000000E+01 0.  0.
    9000005    1    3    3    0    0 -0.34404044832E+02  0.50504688075E+02  0.15926117988E+03  0.17058571228E+03  0.10000000000E+01 0.  0.
<mgrwt>
<rscale>  0 0.12499695E+03</rscale>
<asrwt>0</asrwt>
<pdfrwt beam="2">  1        4 0.14409994E-02 0.12499695E+03</pdfrwt>
<pdfrwt beam="1">  1       -4 0.64157627E-01 0.12499695E+03</pdfrwt>
<totfact> 0.62068665E+03</totfact>
</mgrwt>
</event>
<event>
 5    1  0.3514886E-002  0.1249986E+03  0.7818608E-02  0.1235072E+00
         -4   -1    0    0    0  501 -0.00000000000E+00  0.00000000000E+00  0.36546339622E+02  0.36568399470E+02  0.12700000000E+01 0. -1.
          4   -1    0    0  501    0  0.00000000000E+00 -0.00000000000E+00 -0.10682432236E+03  0.10683187140E+03  0.12700000000E+01 0. -1.
         25    2    1    2    0    0  0.00000000000E+00  0.00000000000E+00 -0.70277982734E+02  0.14340027087E+03  0.12499857131E+03 0.  0.
    9000005    1    3    3    0    0 -0.57899383168E+02 -0.23507205788E+02 -0.35693242309E+02  0.71971764197E+02  0.10000000000E+01 0.  0.
    9000005    1    3    3    0    0  0.57899383168E+02  0.23507205788E+02 -0.34584740425E+02  0.71428506672E+02  0.10000000000E+01 0.  0.
<mgrwt>
<rscale>  0 0.12499857E+03</rscale>
<asrwt>0</asrwt>
<pdfrwt beam="2">  1        4 0.16436789E-01 0.12499857E+03</pdfrwt>
<pdfrwt beam="1">  1       -4 0.56247915E-02 0.12499857E+03</pdfrwt>
<totfact> 0.10063917E+04</totfact>
</mgrwt>
</event>
<event>
 5    1  0.3514886E-002  0.1250000E+03  0.7818608E-02  0.1235069E+00
          4   -1    0    0  501    0  0.00000000000E+00  0.00000000000E+00  0.34123991305E+02  0.34147616060E+02  0.12700000000E+01 0. -1.
         -4   -1    0    0    0  501 -0.00000000000E+00 -0.00000000000E+00 -0.11440548242E+03  0.11441253125E+03  0.12700000000E+01 0. -1.
         25    2    1    2    0    0  0.00000000000E+00  0.00000000000E+00 -0.80281491115E+02  0.14856014731E+03  0.12499999822E+03 0.  0.
    9000005    1    3    3    0    0  0.59912064980E+02 -0.17347901928E+02 -0.44719816792E+02  0.76754591038E+02  0.10000000000E+01 0.  0.
    9000005    1    3    3    0    0 -0.59912064980E+02  0.17347901928E+02 -0.35561674323E+02  0.71805556276E+02  0.10000000000E+01 0.  0.
<mgrwt>
<rscale>  0 0.12500000E+03</rscale>
<asrwt>0</asrwt>
<pdfrwt beam="1">  1        4 0.52522044E-02 0.12500000E+03</pdfrwt>
<pdfrwt beam="2">  1       -4 0.17603203E-01 0.12500000E+03</pdfrwt>
<totfact> 0.99591493E+03</totfact>
</mgrwt>
</event>
<event>
 5    1  0.3514886E-002  0.1249998E+03  0.7818608E-02  0.1235070E+00
          4   -1    0    0  501    0  0.00000000000E+00  0.00000000000E+00  0.14869308929E+02  0.14923446252E+02  0.12700000000E+01 0.  1.
         -4   -1    0    0    0  501 -0.00000000000E+00 -0.00000000000E+00 -0.26217151260E+03  0.26217458862E+03  0.12700000000E+01 0.  1.
         25    2    1    2    0    0  0.00000000000E+00  0.00000000000E+00 -0.24730220367E+03  0.27709803487E+03  0.12499976396E+03 0.  0.
    9000005    1    3    3    0    0 -0.34122028173E+02 -0.51771129489E+02 -0.14091824654E+03  0.15395945851E+03  0.10000000000E+01 0.  0.
    9000005    1    3    3    0    0  0.34122028173E+02  0.51771129489E+02 -0.10638395712E+03  0.12313857636E+03  0.10000000000E+01 0.  0.
<mgrwt>
<rscale>  0 0.12499976E+03</rscale>
<asrwt>0</asrwt>
<pdfrwt beam="1">  1        4 0.22919872E-02 0.12499976E+03</pdfrwt>
<pdfrwt beam="2">  1       -4 0.40338477E-01 0.12499976E+03</pdfrwt>
<totfact> 0.78564878E+03</totfact>
</mgrwt>
</event>
<event>
 5    1  0.3514886E-002  0.1250001E+03  0.7818608E-02  0.1235069E+00
          4   -1    0    0  501    0  0.00000000000E+00  0.00000000000E+00  0.14342066269E+01  0.19156849033E+01  0.12700000000E+01 0. -1.
         -4   -1    0    0    0  501 -0.00000000000E+00 -0.00000000000E+00 -0.23316853290E+04  0.23316856749E+04  0.12700000000E+01 0. -1.
         25    2    1    2    0    0  0.00000000000E+00  0.00000000000E+00 -0.23302511224E+04  0.23336013598E+04  0.12500005198E+03 0.  0.
    9000005    1    3    3    0    0  0.16563865753E+02 -0.39066861035E+02 -0.30866240686E+03  0.31156710784E+03  0.10000000000E+01 0.  0.
    9000005    1    3    3    0    0 -0.16563865753E+02  0.39066861035E+02 -0.20215887155E+04  0.20220342519E+04  0.10000000000E+01 0.  0.
<mgrwt>
<rscale>  0 0.12500005E+03</rscale>
<asrwt>0</asrwt>
<pdfrwt beam="1">  1        4 0.25771244E-03 0.12500005E+03</pdfrwt>
<pdfrwt beam="2">  1       -4 0.35875529E+00 0.12500005E+03</pdfrwt>
<totfact> 0.61117007E+02</totfact>
</mgrwt>
</event>
<event>
 5    1  0.3514886E-002  0.1249959E+03  0.7818608E-02  0.1235076E+00
          4   -1    0    0  501    0  0.00000000000E+00  0.00000000000E+00  0.16318542163E+02  0.16367886801E+02  0.12700000000E+01 0.  1.
         -4   -1    0    0    0  501 -0.00000000000E+00 -0.00000000000E+00 -0.23894688396E+03  0.23895025895E+03  0.12700000000E+01 0.  1.
         25    2    1    2    0    0  0.00000000000E+00  0.00000000000E+00 -0.22262834180E+03  0.25531814575E+03  0.12499590785E+03 0.  0.
    9000005    1    3    3    0    0 -0.57093018608E+02 -0.27957620600E+00 -0.16320227855E+03  0.17290365716E+03  0.10000000000E+01 0.  0.
    9000005    1    3    3    0    0  0.57093018608E+02  0.27957620600E+00 -0.59426063246E+02  0.82414488590E+02  0.10000000000E+01 0.  0.
<mgrwt>
<rscale>  0 0.12499591E+03</rscale>
<asrwt>0</asrwt>
<pdfrwt beam="1">  1        4 0.25146005E-02 0.12499591E+03</pdfrwt>
<pdfrwt beam="2">  1       -4 0.36765112E-01 0.12499591E+03</pdfrwt>
<totfact> 0.81575049E+03</totfact>
</mgrwt>
</event>
<event>
 5    1  0.3514886E-002  0.1250005E+03  0.7818608E-02  0.1235068E+00
         -4   -1    0    0    0  501 -0.00000000000E+00  0.00000000000E+00  0.31870880813E+02  0.31896174438E+02  0.12700000000E+01 0. -1.
          4   -1    0    0  501    0  0.00000000000E+00 -0.00000000000E+00 -0.12248867724E+03  0.12249526094E+03  0.12700000000E+01 0. -1.
         25    2    1    2    0    0  0.00000000000E+00  0.00000000000E+00 -0.90617796431E+02  0.15439143538E+03  0.12500052115E+03 0.  0.
    9000005    1    3    3    0    0 -0.34979926051E+02  0.42960671982E+02 -0.81022379300E+02  0.98157223428E+02  0.10000000000E+01 0.  0.
    9000005    1    3    3    0    0  0.34979926051E+02 -0.42960671982E+02 -0.95954171302E+01  0.56234211950E+02  0.10000000000E+01 0.  0.
<mgrwt>
<rscale>  0 0.12500052E+03</rscale>
<asrwt>0</asrwt>
<pdfrwt beam="2">  1        4 0.18846864E-01 0.12500052E+03</pdfrwt>
<pdfrwt beam="1">  1       -4 0.49056646E-02 0.12500052E+03</pdfrwt>
<totfact> 0.98433947E+03</totfact>
</mgrwt>
</event>
<event>
 5    1  0.3514886E-002  0.1250098E+03  0.7818608E-02  0.1235054E+00
          4   -1    0    0  501    0  0.00000000000E+00  0.00000000000E+00  0.56774795734E+03  0.56774937777E+03  0.12700000000E+01 0. -1.
         -4   -1    0    0    0  501 -0.00000000000E+00 -0.00000000000E+00 -0.68212983637E+01  0.69385165105E+01  0.12700000000E+01 0. -1.
         25    2    1    2    0    0  0.00000000000E+00  0.00000000000E+00  0.56092665897E+03  0.57468789428E+03  0.12500983596E+03 0.  0.
    9000005    1    3    3    0    0  0.23969681883E+02  0.12039959254E+02  0.53996202699E+03  0.54062879766E+03  0.10000000000E+01 0.  0.
    9000005    1    3    3    0    0 -0.23969681883E+02 -0.12039959254E+02  0.20964631979E+02  0.34059096618E+02  0.10000000000E+01 0.  0.
<mgrwt>
<rscale>  0 0.12500984E+03</rscale>
<asrwt>0</asrwt>
<pdfrwt beam="1">  1        4 0.87354989E-01 0.12500984E+03</pdfrwt>
<pdfrwt beam="2">  1       -4 0.10585563E-02 0.12500984E+03</pdfrwt>
<totfact> 0.50494475E+03</totfact>
</mgrwt>
</event>
<event>
 5    1  0.3514886E-002  0.1249997E+03  0.7818608E-02  0.1235070E+00
          4   -1    0    0  501    0  0.00000000000E+00  0.00000000000E+00  0.17652407629E+03  0.17652864473E+03  0.12700000000E+01 0. -1.
         -4   -1    0    0    0  501 -0.00000000000E+00 -0.00000000000E+00 -0.22105535748E+02  0.22141987505E+02  0.12700000000E+01 0. -1.
         25    2    1    2    0    0  0.00000000000E+00  0.00000000000E+00  0.15441854054E+03  0.19867063223E+03  0.12499973780E+03 0.  0.
    9000005    1    3    3    0    0 -0.44624214203E+02  0.43496944780E+02  0.84652015147E+02  0.10512025669E+03  0.10000000000E+01 0.  0.
    9000005    1    3    3    0    0  0.44624214203E+02 -0.43496944780E+02  0.69766525391E+02  0.93550375539E+02  0.10000000000E+01 0.  0.
<mgrwt>
<rscale>  0 0.12499974E+03</rscale>
<asrwt>0</asrwt>
<pdfrwt beam="1">  1        4 0.27160706E-01 0.12499974E+03</pdfrwt>
<pdfrwt beam="2">  1       -4 0.34040070E-02 0.12499974E+03</pdfrwt>
<totfact> 0.90360685E+03</totfact>
</mgrwt>
</event>
<event>
 5    1  0.3514886E-002  0.1250016E+03  0.7818608E-02  0.1235067E+00
          4   -1    0    0  501    0  0.00000000000E+00  0.00000000000E+00  0.70877397420E+01  0.72006218239E+01  0.12700000000E+01 0. -1.
         -4   -1    0    0    0  501 -0.00000000000E+00 -0.00000000000E+00 -0.54667364239E+03  0.54667511758E+03  0.12700000000E+01 0. -1.
         25    2    1    2    0    0  0.00000000000E+00  0.00000000000E+00 -0.53958590265E+03  0.55387573941E+03  0.12500155346E+03 0.  0.
    9000005    1    3    3    0    0 -0.61799008628E+02 -0.41507998665E+01 -0.30659932266E+03  0.31279464712E+03  0.10000000000E+01 0.  0.
    9000005    1    3    3    0    0  0.61799008628E+02  0.41507998665E+01 -0.23298657998E+03  0.24108109229E+03  0.10000000000E+01 0.  0.
<mgrwt>
<rscale>  0 0.12500155E+03</rscale>
<asrwt>0</asrwt>
<pdfrwt beam="1">  1        4 0.10992186E-02 0.12500155E+03</pdfrwt>
<pdfrwt beam="2">  1       -4 0.84112401E-01 0.12500155E+03</pdfrwt>
<totfact> 0.51913096E+03</totfact>
</mgrwt>
</event>
<event>
 5    1  0.3514886E-002  0.1249984E+03  0.7818608E-02  0.1235072E+00
          4   -1    0    0  501    0  0.00000000000E+00  0.00000000000E+00  0.72226954539E+03  0.72227066194E+03  0.12700000000E+01 0. -1.
         -4   -1    0    0    0  501 -0.00000000000E+00 -0.00000000000E+00 -0.53324653167E+01  0.54816134809E+01  0.12700000000E+01 0. -1.
         25    2    1    2    0    0  0.00000000000E+00  0.00000000000E+00  0.71693708007E+03  0.72775227542E+03  0.12499839037E+03 0.  0.
    9000005    1    3    3    0    0 -0.15932583801E+02 -0.41171513744E+02  0.10096290542E+03  0.11019731867E+03  0.10000000000E+01 0.  0.
    9000005    1    3    3    0    0  0.15932583801E+02  0.41171513744E+02  0.61597417465E+03  0.61755495675E+03  0.10000000000E+01 0.  0.
<mgrwt>
<rscale>  0 0.12499839E+03</rscale>
<asrwt>0</asrwt>
<pdfrwt beam="1">  1        4 0.11112995E+00 0.12499839E+03</pdfrwt>
<pdfrwt beam="2">  1       -4 0.83193814E-03 0.12499839E+03</pdfrwt>
<totfact> 0.41662979E+03</totfact>
</mgrwt>
</event>
<event>
 5    1  0.3514886E-002  0.1250109E+03  0.7818608E-02  0.1235052E+00
         -4   -1    0    0    0  501 -0.00000000000E+00  0.00000000000E+00  0.32910603986E+02  0.32935099131E+02  0.12700000000E+01 0. -1.
          4   -1    0    0  501    0  0.00000000000E+00 -0.00000000000E+00 -0.11864135228E+03  0.11864814946E+03  0.12700000000E+01 0. -1.
         25    2    1    2    0    0  0.00000000000E+00  0.00000000000E+00 -0.85730748295E+02  0.15158324859E+03  0.12501087973E+03 0.  0.
    9000005    1    3    3    0    0  0.50124345777E+02  0.59296598131E+01 -0.87554751506E+02  0.10106653955E+03  0.10000000000E+01 0.  0.
    9000005    1    3    3    0    0 -0.50124345777E+02 -0.59296598131E+01  0.18240032109E+01  0.50516709045E+02  0.10000000000E+01 0.  0.
<mgrwt>
<rscale>  0 0.12501088E+03</rscale>
<asrwt>0</asrwt>
<pdfrwt beam="2">  1        4 0.18254923E-01 0.12501088E+03</pdfrwt>
<pdfrwt beam="1">  1       -4 0.50655770E-02 0.12501088E+03</pdfrwt>
<totfact> 0.98964803E+03</totfact>
</mgrwt>
</event>
<event>
 5    1  0.3514886E-002  0.1249943E+03  0.7818608E-02  0.1235078E+00
         -4   -1    0    0    0  501 -0.00000000000E+00  0.00000000000E+00  0.10608175626E+03  0.10608935815E+03  0.12700000000E+01 0. -1.
          4   -1    0    0  501    0  0.00000000000E+00 -0.00000000000E+00 -0.36799801364E+02  0.36821709364E+02  0.12700000000E+01 0. -1.
         25    2    1    2    0    0  0.00000000000E+00  0.00000000000E+00  0.69281954900E+02  0.14291106751E+03  0.12499433564E+03 0.  0.
    9000005    1    3    3    0    0  0.13115653473E+02  0.54492553087E+02  0.66231892946E+02  0.86770515449E+02  0.10000000000E+01 0.  0.
    9000005    1    3    3    0    0 -0.13115653473E+02 -0.54492553087E+02  0.30500619540E+01  0.56140552063E+02  0.10000000000E+01 0.  0.
<mgrwt>
<rscale>  0 0.12499434E+03</rscale>
<asrwt>0</asrwt>
<pdfrwt beam="2">  1        4 0.56637779E-02 0.12499434E+03</pdfrwt>
<pdfrwt beam="1">  1       -4 0.16322540E-01 0.12499434E+03</pdfrwt>
<totfact> 0.10074890E+04</totfact>
</mgrwt>
</event>
<event>
 5    1  0.3514886E-002  0.1249745E+03  0.7818608E-02  0.1235109E+00
          4   -1    0    0  501    0  0.00000000000E+00  0.00000000000E+00  0.74492592030E+02  0.74503417152E+02  0.12700000000E+01 0. -1.
         -4   -1    0    0    0  501 -0.00000000000E+00 -0.00000000000E+00 -0.52394373481E+02  0.52409763141E+02  0.12700000000E+01 0. -1.
         25    2    1    2    0    0  0.00000000000E+00  0.00000000000E+00  0.22098218549E+02  0.12691318029E+03  0.12497449367E+03 0.  0.
    9000005    1    3    3    0    0 -0.41727836505E+01  0.51418913100E+02  0.46842714827E+02  0.69688999707E+02  0.10000000000E+01 0.  0.
    9000005    1    3    3    0    0  0.41727836505E+01 -0.51418913100E+02 -0.24744496278E+02  0.57224180587E+02  0.10000000000E+01 0.  0.
<mgrwt>
<rscale>  0 0.12497449E+03</rscale>
<asrwt>0</asrwt>
<pdfrwt beam="1">  1        4 0.11462415E-01 0.12497449E+03</pdfrwt>
<pdfrwt beam="2">  1       -4 0.80626894E-02 0.12497449E+03</pdfrwt>
<totfact> 0.10417029E+04</totfact>
</mgrwt>
</event>
<event>
 5    1  0.3514886E-002  0.1250371E+03  0.7818608E-02  0.1235011E+00
          4   -1    0    0  501    0  0.00000000000E+00  0.00000000000E+00  0.58699855180E+02  0.58713592108E+02  0.12700000000E+01 0. -1.
         -4   -1    0    0    0  501 -0.00000000000E+00 -0.00000000000E+00 -0.66558085326E+02  0.66570200707E+02  0.12700000000E+01 0. -1.
         25    2    1    2    0    0  0.00000000000E+00  0.00000000000E+00 -0.78582301454E+01  0.12528379281E+03  0.12503710234E+03 0.  0.
    9000005    1    3    3    0    0  0.48477126467E+02 -0.35531073750E+02  0.13282675849E+02  0.61562313716E+02  0.10000000000E+01 0.  0.
    9000005    1    3    3    0    0 -0.48477126467E+02  0.35531073750E+02 -0.21140905994E+02  0.63721479099E+02  0.10000000000E+01 0.  0.
<mgrwt>
<rscale>  0 0.12503710E+03</rscale>
<asrwt>0</asrwt>
<pdfrwt beam="1">  1        4 0.90327356E-02 0.12503710E+03</pdfrwt>
<pdfrwt beam="2">  1       -4 0.10241694E-01 0.12503710E+03</pdfrwt>
<totfact> 0.10437947E+04</totfact>
</mgrwt>
</event>
<event>
 5    1  0.3514886E-002  0.1249981E+03  0.7818608E-02  0.1235072E+00
          4   -1    0    0  501    0  0.00000000000E+00  0.00000000000E+00  0.44574849070E+03  0.44575029990E+03  0.12700000000E+01 0.  1.
         -4   -1    0    0    0  501 -0.00000000000E+00 -0.00000000000E+00 -0.87152302705E+01  0.88072775968E+01  0.12700000000E+01 0.  1.
         25    2    1    2    0    0  0.00000000000E+00  0.00000000000E+00  0.43703326043E+03  0.45455757750E+03  0.12499808214E+03 0.  0.
    9000005    1    3    3    0    0 -0.40219224162E+02 -0.13427889667E+02  0.51583655407E+02  0.66781492333E+02  0.10000000000E+01 0.  0.
    9000005    1    3    3    0    0  0.40219224162E+02  0.13427889667E+02  0.38544960503E+03  0.38777608517E+03  0.10000000000E+01 0.  0.
<mgrwt>
<rscale>  0 0.12499808E+03</rscale>
<asrwt>0</asrwt>
<pdfrwt beam="1">  1        4 0.68583910E-01 0.12499808E+03</pdfrwt>
<pdfrwt beam="2">  1       -4 0.13480244E-02 0.12499808E+03</pdfrwt>
<totfact> 0.59573510E+03</totfact>
</mgrwt>
</event>
<event>
 5    1  0.3514886E-002  0.1250024E+03  0.7818608E-02  0.1235066E+00
          4   -1    0    0  501    0  0.00000000000E+00  0.00000000000E+00  0.26065042128E+02  0.26095963694E+02  0.12700000000E+01 0. -1.
         -4   -1    0    0    0  501 -0.00000000000E+00 -0.00000000000E+00 -0.14974881446E+03  0.14975419971E+03  0.12700000000E+01 0. -1.
         25    2    1    2    0    0  0.00000000000E+00  0.00000000000E+00 -0.12368377233E+03  0.17585016341E+03  0.12500241771E+03 0.  0.
    9000005    1    3    3    0    0  0.30802737788E+02 -0.17092434310E+02  0.10773295610E+02  0.36851375336E+02  0.10000000000E+01 0.  0.
    9000005    1    3    3    0    0 -0.30802737788E+02  0.17092434310E+02 -0.13445706794E+03  0.13899878807E+03  0.10000000000E+01 0.  0.
<mgrwt>
<rscale>  0 0.12500242E+03</rscale>
<asrwt>0</asrwt>
<pdfrwt beam="1">  1        4 0.40127994E-02 0.12500242E+03</pdfrwt>
<pdfrwt beam="2">  1       -4 0.23041071E-01 0.12500242E+03</pdfrwt>
<totfact> 0.94364248E+03</totfact>
</mgrwt>
</event>
<event>
 5    1  0.3514886E-002  0.1249995E+03  0.7818608E-02  0.1235070E+00
          4   -1    0    0  501    0  0.00000000000E+00  0.00000000000E+00  0.33464393432E+03  0.33464634419E+03  0.12700000000E+01 0.  1.
         -4   -1    0    0    0  501 -0.00000000000E+00 -0.00000000000E+00 -0.11635758252E+02  0.11704860960E+02  0.12700000000E+01 0.  1.
         25    2    1    2    0    0  0.00000000000E+00  0.00000000000E+00  0.32300817607E+03  0.34635120515E+03  0.12499950200E+03 0.  0.
    9000005    1    3    3    0    0 -0.12588761444E+02  0.44418326371E+02  0.44808309973E+02  0.64344768824E+02  0.10000000000E+01 0.  0.
    9000005    1    3    3    0    0  0.12588761444E+02 -0.44418326371E+02  0.27819986610E+03  0.28200643632E+03  0.10000000000E+01 0.  0.
<mgrwt>
<rscale>  0 0.12499950E+03</rscale>
<asrwt>0</asrwt>
<pdfrwt beam="1">  1        4 0.51489178E-01 0.12499950E+03</pdfrwt>
<pdfrwt beam="2">  1       -4 0.17956178E-02 0.12499950E+03</pdfrwt>
<totfact> 0.70128617E+03</totfact>
</mgrwt>
</event>
<event>
 5    1  0.3514886E-002  0.1249983E+03  0.7818608E-02  0.1235072E+00
          4   -1    0    0  501    0  0.00000000000E+00  0.00000000000E+00  0.40654086892E+03  0.40654285260E+03  0.12700000000E+01 0. -1.
         -4   -1    0    0    0  501 -0.00000000000E+00 -0.00000000000E+00 -0.95642553541E+01  0.96482060757E+01  0.12700000000E+01 0. -1.
         25    2    1    2    0    0  0.00000000000E+00  0.00000000000E+00  0.39697661356E+03  0.41619105867E+03  0.12499826241E+03 0.  0.
    9000005    1    3    3    0    0 -0.46255377162E+02 -0.22779171041E+02  0.31605062898E+03  0.32023030872E+03  0.10000000000E+01 0.  0.
    9000005    1    3    3    0    0  0.46255377162E+02  0.22779171041E+02  0.80925984585E+02  0.95960749949E+02  0.10000000000E+01 0.  0.
<mgrwt>
<rscale>  0 0.12499826E+03</rscale>
<asrwt>0</asrwt>
<pdfrwt beam="1">  1        4 0.62551357E-01 0.12499826E+03</pdfrwt>
<pdfrwt beam="2">  1       -4 0.14780343E-02 0.12499826E+03</pdfrwt>
<totfact> 0.63010366E+03</totfact>
</mgrwt>
</event>
<event>
 5    1  0.3514886E-002  0.1250017E+03  0.7818608E-02  0.1235067E+00
         -4   -1    0    0    0  501 -0.00000000000E+00  0.00000000000E+00  0.95104234446E+03  0.95104319242E+03  0.12700000000E+01 0.  1.
          4   -1    0    0  501    0  0.00000000000E+00 -0.00000000000E+00 -0.40084055723E+01  0.42047848021E+01  0.12700000000E+01 0.  1.
         25    2    1    2    0    0  0.00000000000E+00  0.00000000000E+00  0.94703393889E+03  0.95524797722E+03  0.12500166635E+03 0.  0.
    9000005    1    3    3    0    0  0.37540299282E+02 -0.32074227903E+02  0.18078959861E+03  0.18741373784E+03  0.10000000000E+01 0.  0.
    9000005    1    3    3    0    0 -0.37540299282E+02  0.32074227903E+02  0.76624434028E+03  0.76783423938E+03  0.10000000000E+01 0.  0.
<mgrwt>
<rscale>  0 0.12500167E+03</rscale>
<asrwt>0</asrwt>
<pdfrwt beam="2">  1        4 0.63184930E-03 0.12500167E+03</pdfrwt>
<pdfrwt beam="1">  1       -4 0.14632933E+00 0.12500167E+03</pdfrwt>
<totfact> 0.32129216E+03</totfact>
</mgrwt>
</event>
<event>
 5    1  0.3514886E-002  0.1250007E+03  0.7818608E-02  0.1235068E+00
         -4   -1    0    0    0  501 -0.00000000000E+00  0.00000000000E+00  0.16087966204E+03  0.16088467472E+03  0.12700000000E+01 0. -1.
          4   -1    0    0  501    0  0.00000000000E+00 -0.00000000000E+00 -0.24258846692E+02  0.24292067487E+02  0.12700000000E+01 0. -1.
         25    2    1    2    0    0  0.00000000000E+00  0.00000000000E+00  0.13662081535E+03  0.18517674221E+03  0.12500071466E+03 0.  0.
    9000005    1    3    3    0    0 -0.18252032632E+02  0.32759629144E+02 -0.57445266969E+01  0.37951674321E+02  0.10000000000E+01 0.  0.
    9000005    1    3    3    0    0  0.18252032632E+02 -0.32759629144E+02  0.14236534205E+03  0.14722506788E+03  0.10000000000E+01 0.  0.
<mgrwt>
<rscale>  0 0.12500071E+03</rscale>
<asrwt>0</asrwt>
<pdfrwt beam="2">  1        4 0.37350714E-02 0.12500071E+03</pdfrwt>
<pdfrwt beam="1">  1       -4 0.24753658E-01 0.12500071E+03</pdfrwt>
<totfact> 0.92691901E+03</totfact>
</mgrwt>
</event>
<event>
 5    1  0.3514886E-002  0.1250074E+03  0.7818608E-02  0.1235058E+00
          4   -1    0    0  501    0  0.00000000000E+00  0.00000000000E+00  0.12916348039E+02  0.12978634238E+02  0.12700000000E+01 0.  1.
         -4   -1    0    0    0  501 -0.00000000000E+00 -0.00000000000E+00 -0.30167136149E+03  0.30167403475E+03  0.12700000000E+01 0.  1.
         25    2    1    2    0    0  0.00000000000E+00  0.00000000000E+00 -0.28875501345E+03  0.31465266899E+03  0.12500737702E+03 0.  0.
    9000005    1    3    3    0    0 -0.37005470061E+02  0.10424687064E+02 -0.20358794172E+02  0.43515048143E+02  0.10000000000E+01 0.  0.
    9000005    1    3    3    0    0  0.37005470061E+02 -0.10424687064E+02 -0.26839621928E+03  0.27113762085E+03  0.10000000000E+01 0.  0.
<mgrwt>
<rscale>  0 0.12500738E+03</rscale>
<asrwt>0</asrwt>
<pdfrwt beam="1">  1        4 0.19921276E-02 0.12500738E+03</pdfrwt>
<pdfrwt beam="2">  1       -4 0.46415970E-01 0.12500738E+03</pdfrwt>
<totfact> 0.73784597E+03</totfact>
</mgrwt>
</event>
<event>
 5    1  0.3514886E-002  0.1249988E+03  0.7818608E-02  0.1235071E+00
         -4   -1    0    0    0  501 -0.00000000000E+00  0.00000000000E+00  0.66451776755E+02  0.66463911516E+02  0.12700000000E+01 0.  1.
          4   -1    0    0  501    0  0.00000000000E+00 -0.00000000000E+00 -0.58757706995E+02  0.58771430401E+02  0.12700000000E+01 0.  1.
         25    2    1    2    0    0  0.00000000000E+00  0.00000000000E+00  0.76940697601E+01  0.12523534192E+03  0.12499876862E+03 0.  0.
    9000005    1    3    3    0    0 -0.15214334830E+01 -0.44364753228E+02  0.47914674359E+02  0.65325049619E+02  0.10000000000E+01 0.  0.
    9000005    1    3    3    0    0  0.15214334830E+01  0.44364753228E+02 -0.40220604599E+02  0.59910292297E+02  0.10000000000E+01 0.  0.
<mgrwt>
<rscale>  0 0.12499877E+03</rscale>
<asrwt>0</asrwt>
<pdfrwt beam="2">  1        4 0.90416363E-02 0.12499877E+03</pdfrwt>
<pdfrwt beam="1">  1       -4 0.10225339E-01 0.12499877E+03</pdfrwt>
<totfact> 0.10448044E+04</totfact>
</mgrwt>
</event>
<event>
 5    1  0.3514886E-002  0.1249979E+03  0.7818608E-02  0.1235073E+00
          4   -1    0    0  501    0  0.00000000000E+00  0.00000000000E+00  0.45962332162E+02  0.45979874703E+02  0.12700000000E+01 0. -1.
         -4   -1    0    0    0  501 -0.00000000000E+00 -0.00000000000E+00 -0.84946709118E+02  0.84956202187E+02  0.12700000000E+01 0. -1.
         25    2    1    2    0    0  0.00000000000E+00  0.00000000000E+00 -0.38984376956E+02  0.13093607689E+03  0.12499789832E+03 0.  0.
    9000005    1    3    3    0    0 -0.43299833214E+02  0.43469580794E+02 -0.31914686476E+02  0.69166662661E+02  0.10000000000E+01 0.  0.
    9000005    1    3    3    0    0  0.43299833214E+02 -0.43469580794E+02 -0.70696904808E+01  0.61769414230E+02  0.10000000000E+01 0.  0.
<mgrwt>
<rscale>  0 0.12499790E+03</rscale>
<asrwt>0</asrwt>
<pdfrwt beam="1">  1        4 0.70732077E-02 0.12499790E+03</pdfrwt>
<pdfrwt beam="2">  1       -4 0.13070804E-01 0.12499790E+03</pdfrwt>
<totfact> 0.10324949E+04</totfact>
</mgrwt>
</event>
<event>
 5    1  0.3514886E-002  0.1249964E+03  0.7818608E-02  0.1235075E+00
         -4   -1    0    0    0  501 -0.00000000000E+00  0.00000000000E+00  0.63281771919E+02  0.63294514433E+02  0.12700000000E+01 0.  1.
          4   -1    0    0  501    0  0.00000000000E+00 -0.00000000000E+00 -0.61698789733E+02  0.61711859107E+02  0.12700000000E+01 0.  1.
         25    2    1    2    0    0  0.00000000000E+00  0.00000000000E+00  0.15829821868E+01  0.12500637354E+03  0.12499635032E+03 0.  0.
    9000005    1    3    3    0    0  0.51798472967E+02  0.26339755863E+02  0.23775008338E+02  0.62794231917E+02  0.10000000000E+01 0.  0.
    9000005    1    3    3    0    0 -0.51798472967E+02 -0.26339755863E+02 -0.22192026151E+02  0.62212141623E+02  0.10000000000E+01 0.  0.
<mgrwt>
<rscale>  0 0.12499635E+03</rscale>
<asrwt>0</asrwt>
<pdfrwt beam="2">  1        4 0.94941071E-02 0.12499635E+03</pdfrwt>
<pdfrwt beam="1">  1       -4 0.97376427E-02 0.12499635E+03</pdfrwt>
<totfact> 0.10453586E+04</totfact>
</mgrwt>
</event>
<event>
 5    1  0.3514886E-002  0.1250049E+03  0.7818608E-02  0.1235062E+00
         -4   -1    0    0    0  501 -0.00000000000E+00  0.00000000000E+00  0.94480550044E+02  0.94489085278E+02  0.12700000000E+01 0. -1.
          4   -1    0    0  501    0  0.00000000000E+00 -0.00000000000E+00 -0.41327597599E+02  0.41347106590E+02  0.12700000000E+01 0. -1.
         25    2    1    2    0    0  0.00000000000E+00  0.00000000000E+00  0.53152952445E+02  0.13583619187E+03  0.12500493857E+03 0.  0.
    9000005    1    3    3    0    0  0.13789458194E+02 -0.42981096855E+02 -0.20389224962E+02  0.49540330426E+02  0.10000000000E+01 0.  0.
    9000005    1    3    3    0    0 -0.13789458194E+02  0.42981096855E+02  0.73542177407E+02  0.86295861442E+02  0.10000000000E+01 0.  0.
<mgrwt>
<rscale>  0 0.12500494E+03</rscale>
<asrwt>0</asrwt>
<pdfrwt beam="2">  1        4 0.63602492E-02 0.12500494E+03</pdfrwt>
<pdfrwt beam="1">  1       -4 0.14537626E-01 0.12500494E+03</pdfrwt>
<totfact> 0.10219338E+04</totfact>
</mgrwt>
</event>
<event>
 5    1  0.3514886E-002  0.1250014E+03  0.7818608E-02  0.1235067E+00
         -4   -1    0    0    0  501 -0.00000000000E+00  0.00000000000E+00  0.43246454827E+03  0.43246641305E+03  0.12700000000E+01 0.  1.
          4   -1    0    0  501    0  0.00000000000E+00 -0.00000000000E+00 -0.89861987177E+01  0.90754981898E+01  0.12700000000E+01 0.  1.
         25    2    1    2    0    0  0.00000000000E+00  0.00000000000E+00  0.42347834956E+03  0.44154191124E+03  0.12500138734E+03 0.  0.
    9000005    1    3    3    0    0 -0.65418455172E+01 -0.26276743820E+02  0.41068220777E+03  0.41157519214E+03  0.10000000000E+01 0.  0.
    9000005    1    3    3    0    0  0.65418455172E+01  0.26276743820E+02  0.12796141784E+02  0.29966719092E+02  0.10000000000E+01 0.  0.
<mgrwt>
<rscale>  0 0.12500139E+03</rscale>
<asrwt>0</asrwt>
<pdfrwt beam="2">  1        4 0.13895050E-02 0.12500139E+03</pdfrwt>
<pdfrwt beam="1">  1       -4 0.66540010E-01 0.12500139E+03</pdfrwt>
<totfact> 0.60701690E+03</totfact>
</mgrwt>
</event>
<event>
 5    1  0.3514886E-002  0.1249976E+03  0.7818608E-02  0.1235073E+00
          4   -1    0    0  501    0  0.00000000000E+00  0.00000000000E+00  0.76758077323E+02  0.76768582990E+02  0.12700000000E+01 0. -1.
         -4   -1    0    0    0  501 -0.00000000000E+00 -0.00000000000E+00 -0.50866547952E+02  0.50882399713E+02  0.12700000000E+01 0. -1.
         25    2    1    2    0    0  0.00000000000E+00  0.00000000000E+00  0.25891529371E+02  0.12765098270E+03  0.12499760834E+03 0.  0.
    9000005    1    3    3    0    0 -0.45913232128E+02 -0.22005975781E+02 -0.24056119417E+02  0.56320375850E+02  0.10000000000E+01 0.  0.
    9000005    1    3    3    0    0  0.45913232128E+02  0.22005975781E+02  0.49947648788E+02  0.71330606853E+02  0.10000000000E+01 0.  0.
<mgrwt>
<rscale>  0 0.12499761E+03</rscale>
<asrwt>0</asrwt>
<pdfrwt beam="1">  1        4 0.11810962E-01 0.12499761E+03</pdfrwt>
<pdfrwt beam="2">  1       -4 0.78276503E-02 0.12499761E+03</pdfrwt>
<totfact> 0.10395593E+04</totfact>
</mgrwt>
</event>
<event>
 5    1  0.3514886E-002  0.1250155E+03  0.7818608E-02  0.1235045E+00
         -4   -1    0    0    0  501 -0.00000000000E+00  0.00000000000E+00  0.50943106350E+03  0.50943264654E+03  0.12700000000E+01 0.  1.
          4   -1    0    0  501    0  0.00000000000E+00 -0.00000000000E+00 -0.76155873033E+01  0.77207557903E+01  0.12700000000E+01 0.  1.
         25    2    1    2    0    0  0.00000000000E+00  0.00000000000E+00  0.50181547620E+03  0.51715340233E+03  0.12501547660E+03 0.  0.
    9000005    1    3    3    0    0 -0.29821851010E+02 -0.51033687240E+02  0.33491843387E+03  0.34009577677E+03  0.10000000000E+01 0.  0.
    9000005    1    3    3    0    0  0.29821851010E+02  0.51033687240E+02  0.16689704233E+03  0.17705762556E+03  0.10000000000E+01 0.  0.
<mgrwt>
<rscale>  0 0.12501548E+03</rscale>
<asrwt>0</asrwt>
<pdfrwt beam="2">  1        4 0.11798402E-02 0.12501548E+03</pdfrwt>
<pdfrwt beam="1">  1       -4 0.78382236E-01 0.12501548E+03</pdfrwt>
<totfact> 0.54539049E+03</totfact>
</mgrwt>
</event>
<event>
 5    1  0.3514886E-002  0.1249986E+03  0.7818608E-02  0.1235071E+00
         -4   -1    0    0    0  501 -0.00000000000E+00  0.00000000000E+00  0.75297525203E+01  0.76361032613E+01  0.12700000000E+01 0. -1.
          4   -1    0    0  501    0  0.00000000000E+00 -0.00000000000E+00 -0.51501894721E+03  0.51502051307E+03  0.12700000000E+01 0. -1.
         25    2    1    2    0    0  0.00000000000E+00  0.00000000000E+00 -0.50748919469E+03  0.52265661633E+03  0.12499862347E+03 0.  0.
    9000005    1    3    3    0    0 -0.11298769109E+02 -0.61143271926E+02 -0.22763169648E+03  0.23597320002E+03  0.10000000000E+01 0.  0.
    9000005    1    3    3    0    0  0.11298769109E+02  0.61143271926E+02 -0.27985749821E+03  0.28668341631E+03  0.10000000000E+01 0.  0.
<mgrwt>
<rscale>  0 0.12499862E+03</rscale>
<asrwt>0</asrwt>
<pdfrwt beam="2">  1        4 0.79241958E-01 0.12499862E+03</pdfrwt>
<pdfrwt beam="1">  1       -4 0.11667252E-02 0.12499862E+03</pdfrwt>
<totfact> 0.54150016E+03</totfact>
</mgrwt>
</event>
<event>
 5    1  0.3514886E-002  0.1249978E+03  0.7818608E-02  0.1235073E+00
          4   -1    0    0  501    0  0.00000000000E+00  0.00000000000E+00  0.29567627417E+03  0.29567900163E+03  0.12700000000E+01 0. -1.
         -4   -1    0    0    0  501 -0.00000000000E+00 -0.00000000000E+00 -0.13177461692E+02  0.13238519428E+02  0.12700000000E+01 0. -1.
         25    2    1    2    0    0  0.00000000000E+00  0.00000000000E+00  0.28249881247E+03  0.30891752106E+03  0.12499782305E+03 0.  0.
    9000005    1    3    3    0    0  0.47386658504E+01 -0.60733095257E+02  0.10681370490E+03  0.12296800953E+03  0.10000000000E+01 0.  0.
    9000005    1    3    3    0    0 -0.47386658504E+01  0.60733095257E+02  0.17568510757E+03  0.18594951153E+03  0.10000000000E+01 0.  0.
<mgrwt>
<rscale>  0 0.12499782E+03</rscale>
<asrwt>0</asrwt>
<pdfrwt beam="1">  1        4 0.45493562E-01 0.12499782E+03</pdfrwt>
<pdfrwt beam="2">  1       -4 0.20322085E-02 0.12499782E+03</pdfrwt>
<totfact> 0.74497284E+03</totfact>
</mgrwt>
</event>
<event>
 5    1  0.3514886E-002  0.1250038E+03  0.7818608E-02  0.1235063E+00
         -4   -1    0    0    0  501 -0.00000000000E+00  0.00000000000E+00  0.14252779519E+03  0.14253345327E+03  0.12700000000E+01 0.  1.
          4   -1    0    0  501    0  0.00000000000E+00 -0.00000000000E+00 -0.27387681229E+02  0.27417111137E+02  0.12700000000E+01 0.  1.
         25    2    1    2    0    0  0.00000000000E+00  0.00000000000E+00  0.11514011396E+03  0.16995056441E+03  0.12500379394E+03 0.  0.
    9000005    1    3    3    0    0 -0.46860038554E+02  0.33919247247E+02  0.89717578416E+02  0.10675496440E+03  0.10000000000E+01 0.  0.
    9000005    1    3    3    0    0  0.46860038554E+02 -0.33919247247E+02  0.25422535545E+02  0.63195600010E+02  0.10000000000E+01 0.  0.
<mgrwt>
<rscale>  0 0.12500379E+03</rscale>
<asrwt>0</asrwt>
<pdfrwt beam="2">  1        4 0.42161886E-02 0.12500379E+03</pdfrwt>
<pdfrwt beam="1">  1       -4 0.21930052E-01 0.12500379E+03</pdfrwt>
<totfact> 0.95449723E+03</totfact>
</mgrwt>
</event>
<event>
 5    1  0.3514886E-002  0.1250011E+03  0.7818608E-02  0.1235068E+00
          4   -1    0    0  501    0  0.00000000000E+00  0.00000000000E+00  0.54418617259E+02  0.54433434618E+02  0.12700000000E+01 0. -1.
         -4   -1    0    0    0  501 -0.00000000000E+00 -0.00000000000E+00 -0.71752513599E+02  0.71763752046E+02  0.12700000000E+01 0. -1.
         25    2    1    2    0    0  0.00000000000E+00  0.00000000000E+00 -0.17333896340E+02  0.12619718666E+03  0.12500106383E+03 0.  0.
    9000005    1    3    3    0    0 -0.97323884687E+01 -0.54181963283E+02  0.21195000225E+02  0.58996886062E+02  0.10000000000E+01 0.  0.
    9000005    1    3    3    0    0  0.97323884687E+01  0.54181963283E+02 -0.38528896565E+02  0.67200300602E+02  0.10000000000E+01 0.  0.
<mgrwt>
<rscale>  0 0.12500106E+03</rscale>
<asrwt>0</asrwt>
<pdfrwt beam="1">  1        4 0.83740992E-02 0.12500106E+03</pdfrwt>
<pdfrwt beam="2">  1       -4 0.11040853E-01 0.12500106E+03</pdfrwt>
<totfact> 0.10426390E+04</totfact>
</mgrwt>
</event>
<event>
 5    1  0.3514886E-002  0.1250001E+03  0.7818608E-02  0.1235069E+00
          4   -1    0    0  501    0  0.00000000000E+00  0.00000000000E+00  0.51365330321E+02  0.51381028201E+02  0.12700000000E+01 0.  1.
         -4   -1    0    0    0  501 -0.00000000000E+00 -0.00000000000E+00 -0.76015889005E+02  0.76026497231E+02  0.12700000000E+01 0.  1.
         25    2    1    2    0    0  0.00000000000E+00  0.00000000000E+00 -0.24650558684E+02  0.12740752543E+03  0.12500010997E+03 0.  0.
    9000005    1    3    3    0    0 -0.61578057374E+02  0.98183152353E+01 -0.81227149677E+01  0.62890658785E+02  0.10000000000E+01 0.  0.
    9000005    1    3    3    0    0  0.61578057374E+02 -0.98183152353E+01 -0.16527843716E+02  0.64516866647E+02  0.10000000000E+01 0.  0.
<mgrwt>
<rscale>  0 0.12500011E+03</rscale>
<asrwt>0</asrwt>
<pdfrwt beam="1">  1        4 0.79043821E-02 0.12500011E+03</pdfrwt>
<pdfrwt beam="2">  1       -4 0.11696776E-01 0.12500011E+03</pdfrwt>
<totfact> 0.10400278E+04</totfact>
</mgrwt>
</event>
<event>
 5    1  0.3514886E-002  0.1250142E+03  0.7818608E-02  0.1235047E+00
         -4   -1    0    0    0  501 -0.00000000000E+00  0.00000000000E+00  0.26005950070E+03  0.26006260170E+03  0.12700000000E+01 0. -1.
          4   -1    0    0  501    0  0.00000000000E+00 -0.00000000000E+00 -0.14993987534E+02  0.15047676305E+02  0.12700000000E+01 0. -1.
         25    2    1    2    0    0  0.00000000000E+00  0.00000000000E+00  0.24506551316E+03  0.27511027800E+03  0.12501423648E+03 0.  0.
    9000005    1    3    3    0    0  0.43107305233E+02  0.41789908696E+02  0.84321300081E+02  0.10351675169E+03  0.10000000000E+01 0.  0.
    9000005    1    3    3    0    0 -0.43107305233E+02 -0.41789908696E+02  0.16074421308E+03  0.17159352631E+03  0.10000000000E+01 0.  0.
<mgrwt>
<rscale>  0 0.12501424E+03</rscale>
<asrwt>0</asrwt>
<pdfrwt beam="2">  1        4 0.23111359E-02 0.12501424E+03</pdfrwt>
<pdfrwt beam="1">  1       -4 0.40013520E-01 0.12501424E+03</pdfrwt>
<totfact> 0.78805997E+03</totfact>
</mgrwt>
</event>
<event>
 5    1  0.3514886E-002  0.1250027E+03  0.7818608E-02  0.1235065E+00
         -4   -1    0    0    0  501 -0.00000000000E+00  0.00000000000E+00  0.25168031824E+03  0.25168352249E+03  0.12700000000E+01 0.  1.
          4   -1    0    0  501    0  0.00000000000E+00 -0.00000000000E+00 -0.15492070904E+02  0.15544039400E+02  0.12700000000E+01 0.  1.
         25    2    1    2    0    0  0.00000000000E+00  0.00000000000E+00  0.23618824734E+03  0.26722756189E+03  0.12500272657E+03 0.  0.
    9000005    1    3    3    0    0 -0.23973124844E+02 -0.57605975637E+02  0.12557977283E+03  0.14022994861E+03  0.10000000000E+01 0.  0.
    9000005    1    3    3    0    0  0.23973124844E+02  0.57605975637E+02  0.11060847451E+03  0.12699761328E+03  0.10000000000E+01 0.  0.
<mgrwt>
<rscale>  0 0.12500273E+03</rscale>
<asrwt>0</asrwt>
<pdfrwt beam="2">  1        4 0.23876395E-02 0.12500273E+03</pdfrwt>
<pdfrwt beam="1">  1       -4 0.38724295E-01 0.12500273E+03</pdfrwt>
<totfact> 0.79897505E+03</totfact>
</mgrwt>
</event>
<event>
 5    1  0.3514886E-002  0.1249985E+03  0.7818608E-02  0.1235072E+00
          4   -1    0    0  501    0  0.00000000000E+00  0.00000000000E+00  0.83171055936E+03  0.83171152899E+03  0.12700000000E+01 0.  1.
         -4   -1    0    0    0  501 -0.00000000000E+00 -0.00000000000E+00 -0.46096876541E+01  0.47814349591E+01  0.12700000000E+01 0.  1.
         25    2    1    2    0    0  0.00000000000E+00  0.00000000000E+00  0.82710087171E+03  0.83649296395E+03  0.12499850701E+03 0.  0.
    9000005    1    3    3    0    0 -0.55804076237E+02 -0.26916345048E+02  0.46815182654E+03  0.47223481156E+03  0.10000000000E+01 0.  0.
    9000005    1    3    3    0    0  0.55804076237E+02  0.26916345048E+02  0.35894904517E+03  0.36425815239E+03  0.10000000000E+01 0.  0.
<mgrwt>
<rscale>  0 0.12499851E+03</rscale>
<asrwt>0</asrwt>
<pdfrwt beam="1">  1        4 0.12796880E+00 0.12499851E+03</pdfrwt>
<pdfrwt beam="2">  1       -4 0.72246841E-03 0.12499851E+03</pdfrwt>
<totfact> 0.36687693E+03</totfact>
</mgrwt>
</event>
<event>
 5    1  0.3514886E-002  0.1249987E+03  0.7818608E-02  0.1235071E+00
         -4   -1    0    0    0  501 -0.00000000000E+00  0.00000000000E+00  0.20908882452E+02  0.20947416676E+02  0.12700000000E+01 0.  1.
          4   -1    0    0  501    0  0.00000000000E+00 -0.00000000000E+00 -0.18660591629E+03  0.18661023792E+03  0.12700000000E+01 0.  1.
         25    2    1    2    0    0  0.00000000000E+00  0.00000000000E+00 -0.16569703384E+03  0.20755765459E+03  0.12499869182E+03 0.  0.
    9000005    1    3    3    0    0  0.10400635444E+02 -0.56332148157E+02 -0.12431675896E+03  0.13688367577E+03  0.10000000000E+01 0.  0.
    9000005    1    3    3    0    0 -0.10400635444E+02  0.56332148157E+02 -0.41380274881E+02  0.70673978825E+02  0.10000000000E+01 0.  0.
<mgrwt>
<rscale>  0 0.12499869E+03</rscale>
<asrwt>0</asrwt>
<pdfrwt beam="2">  1        4 0.28711898E-01 0.12499869E+03</pdfrwt>
<pdfrwt beam="1">  1       -4 0.32200479E-02 0.12499869E+03</pdfrwt>
<totfact> 0.88878908E+03</totfact>
</mgrwt>
</event>
<event>
 4    1  0.3514886E-002  0.1250745E+03  0.7818608E-02  0.1234953E+00
         -4   -1    0    0    0  501 -0.00000000000E+00  0.00000000000E+00  0.29339994197E+02  0.29367467706E+02  0.12700000000E+01 0.  1.
          4   -1    0    0  501    0  0.00000000000E+00 -0.00000000000E+00 -0.13320327255E+03  0.13320932670E+03  0.12700000000E+01 0.  1.
    9000005    1    1    2    0    0  0.59213106782E+02 -0.78251805413E+01 -0.75986851261E+02  0.96656231200E+02  0.10000000000E+01 0.  0.
    9000005    1    1    2    0    0 -0.59213106782E+02  0.78251805413E+01 -0.27876427096E+02  0.65920563202E+02  0.10000000000E+01 0.  0.
<mgrwt>
<rscale>  0 0.12507451E+03</rscale>
<asrwt>0</asrwt>
<pdfrwt beam="2">  1        4 0.20495390E-01 0.12507451E+03</pdfrwt>
<pdfrwt beam="1">  1       -4 0.45164244E-02 0.12507451E+03</pdfrwt>
<totfact> 0.96686308E+03</totfact>
</mgrwt>
</event>
<event>
 5    1  0.3514886E-002  0.1250088E+03  0.7818608E-02  0.1235056E+00
          4   -1    0    0  501    0  0.00000000000E+00  0.00000000000E+00  0.52934135888E+02  0.52949368666E+02  0.12700000000E+01 0.  1.
         -4   -1    0    0    0  501 -0.00000000000E+00 -0.00000000000E+00 -0.73773551490E+02  0.73784482104E+02  0.12700000000E+01 0.  1.
         25    2    1    2    0    0  0.00000000000E+00  0.00000000000E+00 -0.20839415602E+02  0.12673385077E+03  0.12500875045E+03 0.  0.
    9000005    1    3    3    0    0  0.21078947694E+01  0.62460809730E+02 -0.10450950275E+02  0.63372062725E+02  0.10000000000E+01 0.  0.
    9000005    1    3    3    0    0 -0.21078947694E+01 -0.62460809730E+02 -0.10388465328E+02  0.63361788045E+02  0.10000000000E+01 0.  0.
<mgrwt>
<rscale>  0 0.12500875E+03</rscale>
<asrwt>0</asrwt>
<pdfrwt beam="1">  1        4 0.81457257E-02 0.12500875E+03</pdfrwt>
<pdfrwt beam="2">  1       -4 0.11351790E-01 0.12500875E+03</pdfrwt>
<totfact> 0.10412876E+04</totfact>
</mgrwt>
</event>
<event>
 5    1  0.3514886E-002  0.1250025E+03  0.7818608E-02  0.1235065E+00
         -4   -1    0    0    0  501 -0.00000000000E+00  0.00000000000E+00  0.17736033258E+03  0.17736487948E+03  0.12700000000E+01 0.  1.
          4   -1    0    0  501    0  0.00000000000E+00 -0.00000000000E+00 -0.22002124756E+02  0.22038747555E+02  0.12700000000E+01 0.  1.
         25    2    1    2    0    0  0.00000000000E+00  0.00000000000E+00  0.15535820782E+03  0.19940362703E+03  0.12500253492E+03 0.  0.
    9000005    1    3    3    0    0  0.21406438382E+02 -0.52249149690E+02  0.12039938756E+03  0.13298579538E+03  0.10000000000E+01 0.  0.
    9000005    1    3    3    0    0 -0.21406438382E+02  0.52249149690E+02  0.34958820263E+02  0.66417831655E+02  0.10000000000E+01 0.  0.
<mgrwt>
<rscale>  0 0.12500253E+03</rscale>
<asrwt>0</asrwt>
<pdfrwt beam="2">  1        4 0.33881091E-02 0.12500253E+03</pdfrwt>
<pdfrwt beam="1">  1       -4 0.27289373E-01 0.12500253E+03</pdfrwt>
<totfact> 0.90231067E+03</totfact>
</mgrwt>
</event>
<event>
 5    1  0.3514886E-002  0.1249996E+03  0.7818608E-02  0.1235070E+00
          4   -1    0    0  501    0  0.00000000000E+00  0.00000000000E+00  0.34722682792E+02  0.34745900481E+02  0.12700000000E+01 0. -1.
         -4   -1    0    0    0  501 -0.00000000000E+00 -0.00000000000E+00 -0.11243338042E+03  0.11244055289E+03  0.12700000000E+01 0. -1.
         25    2    1    2    0    0  0.00000000000E+00  0.00000000000E+00 -0.77710697632E+02  0.14718645337E+03  0.12499959811E+03 0.  0.
    9000005    1    3    3    0    0 -0.22521382865E+02  0.51178115991E+02 -0.71715966261E+02  0.90942795532E+02  0.10000000000E+01 0.  0.
    9000005    1    3    3    0    0  0.22521382865E+02 -0.51178115991E+02 -0.59947313709E+01  0.56243657836E+02  0.10000000000E+01 0.  0.
<mgrwt>
<rscale>  0 0.12499960E+03</rscale>
<asrwt>0</asrwt>
<pdfrwt beam="1">  1        4 0.53442890E-02 0.12499960E+03</pdfrwt>
<pdfrwt beam="2">  1       -4 0.17299781E-01 0.12499960E+03</pdfrwt>
<totfact> 0.99868426E+03</totfact>
</mgrwt>
</event>
<event>
 5    1  0.3514886E-002  0.1249892E+03  0.7818608E-02  0.1235086E+00
         -4   -1    0    0    0  501 -0.00000000000E+00  0.00000000000E+00  0.15379904894E+02  0.15432251118E+02  0.12700000000E+01 0. -1.
          4   -1    0    0  501    0  0.00000000000E+00 -0.00000000000E+00 -0.25345484103E+03  0.25345802284E+03  0.12700000000E+01 0. -1.
         25    2    1    2    0    0  0.00000000000E+00  0.00000000000E+00 -0.23807493614E+03  0.26889027396E+03  0.12498921639E+03 0.  0.
    9000005    1    3    3    0    0 -0.50201029437E+02  0.36894280144E+02 -0.10866540009E+03  0.12526172776E+03  0.10000000000E+01 0.  0.
    9000005    1    3    3    0    0  0.50201029437E+02 -0.36894280144E+02 -0.12940953604E+03  0.14362854620E+03  0.10000000000E+01 0.  0.
<mgrwt>
<rscale>  0 0.12498922E+03</rscale>
<asrwt>0</asrwt>
<pdfrwt beam="2">  1        4 0.38997321E-01 0.12498922E+03</pdfrwt>
<pdfrwt beam="1">  1       -4 0.23704108E-02 0.12498922E+03</pdfrwt>
<totfact> 0.79693519E+03</totfact>
</mgrwt>
</event>
<event>
 5    1  0.3514886E-002  0.1249985E+03  0.7818608E-02  0.1235072E+00
         -4   -1    0    0    0  501 -0.00000000000E+00  0.00000000000E+00  0.16010073412E+03  0.16010577118E+03  0.12700000000E+01 0. -1.
          4   -1    0    0  501    0  0.00000000000E+00 -0.00000000000E+00 -0.24376170933E+02  0.24409232052E+02  0.12700000000E+01 0. -1.
         25    2    1    2    0    0  0.00000000000E+00  0.00000000000E+00  0.13572456318E+03  0.18451500323E+03  0.12499851745E+03 0.  0.
    9000005    1    3    3    0    0 -0.23387985715E+02 -0.24381449086E+02 -0.97396655639E+01  0.35175474704E+02  0.10000000000E+01 0.  0.
    9000005    1    3    3    0    0  0.23387985715E+02  0.24381449086E+02  0.14546422875E+03  0.14933952852E+03  0.10000000000E+01 0.  0.
<mgrwt>
<rscale>  0 0.12499852E+03</rscale>
<asrwt>0</asrwt>
<pdfrwt beam="2">  1        4 0.37531108E-02 0.12499852E+03</pdfrwt>
<pdfrwt beam="1">  1       -4 0.24633813E-01 0.12499852E+03</pdfrwt>
<totfact> 0.92813627E+03</totfact>
</mgrwt>
</event>
<event>
 5    1  0.3514886E-002  0.1250001E+03  0.7818608E-02  0.1235069E+00
          4   -1    0    0  501    0  0.00000000000E+00  0.00000000000E+00  0.83467478960E+02  0.83477140248E+02  0.12700000000E+01 0.  1.
         -4   -1    0    0    0  501 -0.00000000000E+00 -0.00000000000E+00 -0.46778733646E+02  0.46795970142E+02  0.12700000000E+01 0.  1.
         25    2    1    2    0    0  0.00000000000E+00  0.00000000000E+00  0.36688745314E+02  0.13027311039E+03  0.12500007703E+03 0.  0.
    9000005    1    3    3    0    0  0.14110750491E+02  0.77806310268E+01 -0.44581494209E+02  0.47414777491E+02  0.10000000000E+01 0.  0.
    9000005    1    3    3    0    0 -0.14110750491E+02 -0.77806310268E+01  0.81270239523E+02  0.82858332899E+02  0.10000000000E+01 0.  0.
<mgrwt>
<rscale>  0 0.12500008E+03</rscale>
<asrwt>0</asrwt>
<pdfrwt beam="1">  1        4 0.12843220E-01 0.12500008E+03</pdfrwt>
<pdfrwt beam="2">  1       -4 0.71987973E-02 0.12500008E+03</pdfrwt>
<totfact> 0.10338651E+04</totfact>
</mgrwt>
</event>
<event>
 5    1  0.3514886E-002  0.1250003E+03  0.7818608E-02  0.1235069E+00
         -4   -1    0    0    0  501 -0.00000000000E+00  0.00000000000E+00  0.11937653076E+03  0.11938328608E+03  0.12700000000E+01 0.  1.
          4   -1    0    0  501    0  0.00000000000E+00 -0.00000000000E+00 -0.32702251779E+02  0.32726902870E+02  0.12700000000E+01 0.  1.
         25    2    1    2    0    0  0.00000000000E+00  0.00000000000E+00  0.86674278977E+02  0.15211018895E+03  0.12500031578E+03 0.  0.
    9000005    1    3    3    0    0 -0.16438697826E+02 -0.57772789037E+02  0.64320577068E+02  0.88011718388E+02  0.10000000000E+01 0.  0.
    9000005    1    3    3    0    0  0.16438697826E+02  0.57772789037E+02  0.22353701909E+02  0.64098470562E+02  0.10000000000E+01 0.  0.
<mgrwt>
<rscale>  0 0.12500032E+03</rscale>
<asrwt>0</asrwt>
<pdfrwt beam="2">  1        4 0.50335315E-02 0.12500032E+03</pdfrwt>
<pdfrwt beam="1">  1       -4 0.18368036E-01 0.12500032E+03</pdfrwt>
<totfact> 0.98884012E+03</totfact>
</mgrwt>
</event>
<event>
 5    1  0.3514886E-002  0.1250028E+03  0.7818608E-02  0.1235065E+00
          4   -1    0    0  501    0  0.00000000000E+00  0.00000000000E+00  0.32130914985E+02  0.32156004071E+02  0.12700000000E+01 0. -1.
         -4   -1    0    0    0  501 -0.00000000000E+00 -0.00000000000E+00 -0.12150252388E+03  0.12150916101E+03  0.12700000000E+01 0. -1.
         25    2    1    2    0    0  0.00000000000E+00  0.00000000000E+00 -0.89371608891E+02  0.15366516508E+03  0.12500279390E+03 0.  0.
    9000005    1    3    3    0    0 -0.36585456023E+02  0.31156120106E+02 -0.93799519865E+02  0.10539710309E+03  0.10000000000E+01 0.  0.
    9000005    1    3    3    0    0  0.36585456023E+02 -0.31156120106E+02  0.44279109740E+01  0.48268061988E+02  0.10000000000E+01 0.  0.
<mgrwt>
<rscale>  0 0.12500279E+03</rscale>
<asrwt>0</asrwt>
<pdfrwt beam="1">  1        4 0.49456582E-02 0.12500279E+03</pdfrwt>
<pdfrwt beam="2">  1       -4 0.18695136E-01 0.12500279E+03</pdfrwt>
<totfact> 0.98571860E+03</totfact>
</mgrwt>
</event>
<event>
 5    1  0.3514886E-002  0.1250004E+03  0.7818608E-02  0.1235069E+00
         -4   -1    0    0    0  501 -0.00000000000E+00  0.00000000000E+00  0.59549186615E+03  0.59549322041E+03  0.12700000000E+01 0.  1.
          4   -1    0    0  501    0  0.00000000000E+00 -0.00000000000E+00 -0.64969001683E+01  0.66198649379E+01  0.12700000000E+01 0.  1.
         25    2    1    2    0    0  0.00000000000E+00  0.00000000000E+00  0.58899496599E+03  0.60211308535E+03  0.12500039037E+03 0.  0.
    9000005    1    3    3    0    0 -0.60824278120E+02 -0.10585249528E+02  0.24788699242E+03  0.25546154569E+03  0.10000000000E+01 0.  0.
    9000005    1    3    3    0    0  0.60824278120E+02  0.10585249528E+02  0.34110797357E+03  0.34665153966E+03  0.10000000000E+01 0.  0.
<mgrwt>
<rscale>  0 0.12500039E+03</rscale>
<asrwt>0</asrwt>
<pdfrwt beam="2">  1        4 0.10090865E-02 0.12500039E+03</pdfrwt>
<pdfrwt beam="1">  1       -4 0.91623662E-01 0.12500039E+03</pdfrwt>
<totfact> 0.48734094E+03</totfact>
</mgrwt>
</event>
<event>
 5    1  0.3514886E-002  0.1250007E+03  0.7818608E-02  0.1235068E+00
          4   -1    0    0  501    0  0.00000000000E+00  0.00000000000E+00  0.10571609278E+03  0.10572372096E+03  0.12700000000E+01 0. -1.
         -4   -1    0    0    0  501 -0.00000000000E+00 -0.00000000000E+00 -0.36930941290E+02  0.36952771541E+02  0.12700000000E+01 0. -1.
         25    2    1    2    0    0  0.00000000000E+00  0.00000000000E+00  0.68785151491E+02  0.14267649250E+03  0.12500073778E+03 0.  0.
    9000005    1    3    3    0    0 -0.60348203034E+01 -0.48663851301E+02  0.78609420508E+02  0.92655439518E+02  0.10000000000E+01 0.  0.
    9000005    1    3    3    0    0  0.60348203034E+01  0.48663851301E+02 -0.98242690172E+01  0.50021052981E+02  0.10000000000E+01 0.  0.
<mgrwt>
<rscale>  0 0.12500074E+03</rscale>
<asrwt>0</asrwt>
<pdfrwt beam="1">  1        4 0.16266280E-01 0.12500074E+03</pdfrwt>
<pdfrwt beam="2">  1       -4 0.56839493E-02 0.12500074E+03</pdfrwt>
<totfact> 0.10078245E+04</totfact>
</mgrwt>
</event>
<event>
 5    1  0.3514886E-002  0.1249995E+03  0.7818608E-02  0.1235070E+00
          4   -1    0    0  501    0  0.00000000000E+00  0.00000000000E+00  0.21586039320E+03  0.21586412915E+03  0.12700000000E+01 0.  1.
         -4   -1    0    0    0  501 -0.00000000000E+00 -0.00000000000E+00 -0.18069860532E+02  0.18114435118E+02  0.12700000000E+01 0.  1.
         25    2    1    2    0    0  0.00000000000E+00  0.00000000000E+00  0.19779053267E+03  0.23397856426E+03  0.12499949489E+03 0.  0.
    9000005    1    3    3    0    0 -0.59549954204E+01  0.39787354796E+02  0.18840588940E+03  0.19265584532E+03  0.10000000000E+01 0.  0.
    9000005    1    3    3    0    0  0.59549954204E+01 -0.39787354796E+02  0.93846432636E+01  0.41322718949E+02  0.10000000000E+01 0.  0.
<mgrwt>
<rscale>  0 0.12499949E+03</rscale>
<asrwt>0</asrwt>
<pdfrwt beam="1">  1        4 0.33213008E-01 0.12499949E+03</pdfrwt>
<pdfrwt beam="2">  1       -4 0.27836947E-02 0.12499949E+03</pdfrwt>
<totfact> 0.84703359E+03</totfact>
</mgrwt>
</event>
<event>
 5    1  0.3514886E-002  0.1250028E+03  0.7818608E-02  0.1235065E+00
         -4   -1    0    0    0  501 -0.00000000000E+00  0.00000000000E+00  0.18252672731E+02  0.18296801956E+02  0.12700000000E+01 0.  1.
          4   -1    0    0  501    0  0.00000000000E+00 -0.00000000000E+00 -0.21371483740E+03  0.21371861086E+03  0.12700000000E+01 0.  1.
         25    2    1    2    0    0  0.00000000000E+00  0.00000000000E+00 -0.19546216467E+03  0.23201541281E+03  0.12500277583E+03 0.  0.
    9000005    1    3    3    0    0  0.49263744129E+02 -0.29791884222E+02 -0.52610698800E+02  0.77995887580E+02  0.10000000000E+01 0.  0.
    9000005    1    3    3    0    0 -0.49263744129E+02  0.29791884222E+02 -0.14285146587E+03  0.15401952523E+03  0.10000000000E+01 0.  0.
<mgrwt>
<rscale>  0 0.12500278E+03</rscale>
<asrwt>0</asrwt>
<pdfrwt beam="2">  1        4 0.32882889E-01 0.12500278E+03</pdfrwt>
<pdfrwt beam="1">  1       -4 0.28117885E-02 0.12500278E+03</pdfrwt>
<totfact> 0.84995824E+03</totfact>
</mgrwt>
</event>
<event>
 5    1  0.3514886E-002  0.1250008E+03  0.7818608E-02  0.1235068E+00
         -4   -1    0    0    0  501 -0.00000000000E+00  0.00000000000E+00  0.10198982714E+03  0.10199773399E+03  0.12700000000E+01 0.  1.
          4   -1    0    0  501    0  0.00000000000E+00 -0.00000000000E+00 -0.38280972535E+02  0.38302033343E+02  0.12700000000E+01 0.  1.
         25    2    1    2    0    0  0.00000000000E+00  0.00000000000E+00  0.63708854604E+02  0.14029976734E+03  0.12500082624E+03 0.  0.
    9000005    1    3    3    0    0 -0.50720644488E+01  0.62281251671E+02  0.30969592878E+02  0.69748088364E+02  0.10000000000E+01 0.  0.
    9000005    1    3    3    0    0  0.50720644488E+01 -0.62281251671E+02  0.32739261726E+02  0.70551678972E+02  0.10000000000E+01 0.  0.
<mgrwt>
<rscale>  0 0.12500083E+03</rscale>
<asrwt>0</asrwt>
<pdfrwt beam="2">  1        4 0.58916086E-02 0.12500083E+03</pdfrwt>
<pdfrwt beam="1">  1       -4 0.15692971E-01 0.12500083E+03</pdfrwt>
<totfact> 0.10127188E+04</totfact>
</mgrwt>
</event>
<event>
 4    1  0.3514886E-002  0.1249248E+03  0.7818608E-02  0.1235187E+00
         -4   -1    0    0    0  501 -0.00000000000E+00  0.00000000000E+00  0.14697427428E+02  0.14752195531E+02  0.12700000000E+01 0.  1.
          4   -1    0    0  501    0  0.00000000000E+00 -0.00000000000E+00 -0.26490835793E+03  0.26491140217E+03  0.12700000000E+01 0.  1.
    9000005    1    1    2    0    0 -0.91071513752E+01  0.60325863029E+02 -0.15500676738E+03  0.16658405653E+03  0.10000000000E+01 0.  0.
    9000005    1    1    2    0    0  0.91071513752E+01 -0.60325863029E+02 -0.95204163122E+02  0.11307954117E+03  0.10000000000E+01 0.  0.
<mgrwt>
<rscale>  0 0.12492485E+03</rscale>
<asrwt>0</asrwt>
<pdfrwt beam="2">  1        4 0.40759576E-01 0.12492485E+03</pdfrwt>
<pdfrwt beam="1">  1       -4 0.22655900E-02 0.12492485E+03</pdfrwt>
<totfact> 0.78353547E+03</totfact>
</mgrwt>
</event>
<event>
 5    1  0.3514886E-002  0.1249940E+03  0.7818608E-02  0.1235079E+00
          4   -1    0    0  501    0  0.00000000000E+00  0.00000000000E+00  0.53963756850E+02  0.53978699071E+02  0.12700000000E+01 0.  1.
         -4   -1    0    0    0  501 -0.00000000000E+00 -0.00000000000E+00 -0.72349086457E+02  0.72360232249E+02  0.12700000000E+01 0.  1.
         25    2    1    2    0    0  0.00000000000E+00  0.00000000000E+00 -0.18385329607E+02  0.12633893132E+03  0.12499402075E+03 0.  0.
    9000005    1    3    3    0    0 -0.71355507857E+01  0.48519762614E+02 -0.48336520420E+02  0.68865830827E+02  0.10000000000E+01 0.  0.
    9000005    1    3    3    0    0  0.71355507857E+01 -0.48519762614E+02  0.29951190813E+02  0.57473100493E+02  0.10000000000E+01 0.  0.
<mgrwt>
<rscale>  0 0.12499402E+03</rscale>
<asrwt>0</asrwt>
<pdfrwt beam="1">  1        4 0.83041232E-02 0.12499402E+03</pdfrwt>
<pdfrwt beam="2">  1       -4 0.11132635E-01 0.12499402E+03</pdfrwt>
<totfact> 0.10424950E+04</totfact>
</mgrwt>
</event>
<event>
 5    1  0.3514886E-002  0.1250069E+03  0.7818608E-02  0.1235058E+00
          4   -1    0    0  501    0  0.00000000000E+00  0.00000000000E+00  0.31772696449E+02  0.31798068175E+02  0.12700000000E+01 0.  1.
         -4   -1    0    0    0  501 -0.00000000000E+00 -0.00000000000E+00 -0.12287949393E+03  0.12288605669E+03  0.12700000000E+01 0.  1.
         25    2    1    2    0    0  0.00000000000E+00  0.00000000000E+00 -0.91106797480E+02  0.15468412486E+03  0.12500691956E+03 0.  0.
    9000005    1    3    3    0    0  0.28289769160E+02  0.22799175367E+02 -0.10847355048E+03  0.11440115642E+03  0.10000000000E+01 0.  0.
    9000005    1    3    3    0    0 -0.28289769160E+02 -0.22799175367E+02  0.17366753002E+02  0.40282968440E+02  0.10000000000E+01 0.  0.
<mgrwt>
<rscale>  0 0.12500692E+03</rscale>
<asrwt>0</asrwt>
<pdfrwt beam="1">  1        4 0.48905637E-02 0.12500692E+03</pdfrwt>
<pdfrwt beam="2">  1       -4 0.18906994E-01 0.12500692E+03</pdfrwt>
<totfact> 0.98362236E+03</totfact>
</mgrwt>
</event>
<event>
 5    1  0.3514886E-002  0.1250009E+03  0.7818608E-02  0.1235068E+00
         -4   -1    0    0    0  501 -0.00000000000E+00  0.00000000000E+00  0.72456100913E+02  0.72467230246E+02  0.12700000000E+01 0. -1.
          4   -1    0    0  501    0  0.00000000000E+00 -0.00000000000E+00 -0.53889967958E+02  0.53904930632E+02  0.12700000000E+01 0. -1.
         25    2    1    2    0    0  0.00000000000E+00  0.00000000000E+00  0.18566132955E+02  0.12637216088E+03  0.12500088700E+03 0.  0.
    9000005    1    3    3    0    0 -0.23928701888E+02  0.24907840206E+02  0.61934348819E+02  0.70921413137E+02  0.10000000000E+01 0.  0.
    9000005    1    3    3    0    0  0.23928701888E+02 -0.24907840206E+02 -0.43368215864E+02  0.55450747740E+02  0.10000000000E+01 0.  0.
<mgrwt>
<rscale>  0 0.12500089E+03</rscale>
<asrwt>0</asrwt>
<pdfrwt beam="2">  1        4 0.82927715E-02 0.12500089E+03</pdfrwt>
<pdfrwt beam="1">  1       -4 0.11149099E-01 0.12500089E+03</pdfrwt>
<totfact> 0.10422609E+04</totfact>
</mgrwt>
</event>
<event>
 4    1  0.3514886E-002  0.1286662E+03  0.7818608E-02  0.1229448E+00
         -4   -1    0    0    0  501 -0.00000000000E+00  0.00000000000E+00  0.98841963406E+02  0.98850122053E+02  0.12700000000E+01 0.  1.
          4   -1    0    0  501    0  0.00000000000E+00 -0.00000000000E+00 -0.41852834854E+02  0.41872099127E+02  0.12700000000E+01 0.  1.
    9000005    1    1    2    0    0  0.15333764354E+02 -0.57596076805E+01 -0.39538939518E+02  0.42809171308E+02  0.10000000000E+01 0.  0.
    9000005    1    1    2    0    0 -0.15333764354E+02  0.57596076805E+01  0.96528068070E+02  0.97913049872E+02  0.10000000000E+01 0.  0.
<mgrwt>
<rscale>  0 0.12866617E+03</rscale>
<asrwt>0</asrwt>
<pdfrwt beam="2">  1        4 0.64410071E-02 0.12866617E+03</pdfrwt>
<pdfrwt beam="1">  1       -4 0.15208565E-01 0.12866617E+03</pdfrwt>
<totfact> 0.93261351E+03</totfact>
</mgrwt>
</event>
<event>
 5    1  0.3514886E-002  0.1250012E+03  0.7818608E-02  0.1235067E+00
         -4   -1    0    0    0  501 -0.00000000000E+00  0.00000000000E+00  0.46571415496E+03  0.46571588659E+03  0.12700000000E+01 0.  1.
          4   -1    0    0  501    0  0.00000000000E+00 -0.00000000000E+00 -0.83379826588E+01  0.84341481383E+01  0.12700000000E+01 0.  1.
         25    2    1    2    0    0  0.00000000000E+00  0.00000000000E+00  0.45737617230E+03  0.47415003473E+03  0.12500116980E+03 0.  0.
    9000005    1    3    3    0    0  0.24761084214E+02  0.15224007101E+02  0.43853072817E+03  0.43949411968E+03  0.10000000000E+01 0.  0.
    9000005    1    3    3    0    0 -0.24761084214E+02 -0.15224007101E+02  0.18845444123E+02  0.34655915049E+02  0.10000000000E+01 0.  0.
<mgrwt>
<rscale>  0 0.12500117E+03</rscale>
<asrwt>0</asrwt>
<pdfrwt beam="2">  1        4 0.12902971E-02 0.12500117E+03</pdfrwt>
<pdfrwt beam="1">  1       -4 0.71655862E-01 0.12500117E+03</pdfrwt>
<totfact> 0.57925817E+03</totfact>
</mgrwt>
</event>
<event>
 5    1  0.3514886E-002  0.1250003E+03  0.7818608E-02  0.1235069E+00
          4   -1    0    0  501    0  0.00000000000E+00  0.00000000000E+00  0.29882168444E+02  0.29909143934E+02  0.12700000000E+01 0. -1.
         -4   -1    0    0    0  501 -0.00000000000E+00 -0.00000000000E+00 -0.13063327873E+03  0.13063945197E+03  0.12700000000E+01 0. -1.
         25    2    1    2    0    0  0.00000000000E+00  0.00000000000E+00 -0.10075111028E+03  0.16054859590E+03  0.12500026169E+03 0.  0.
    9000005    1    3    3    0    0  0.16499354042E+02  0.49972029286E+02 -0.70890010417E+01  0.53110133972E+02  0.10000000000E+01 0.  0.
    9000005    1    3    3    0    0 -0.16499354042E+02 -0.49972029286E+02 -0.93662109240E+02  0.10743846193E+03  0.10000000000E+01 0.  0.
<mgrwt>
<rscale>  0 0.12500026E+03</rscale>
<asrwt>0</asrwt>
<pdfrwt beam="1">  1        4 0.45998066E-02 0.12500026E+03</pdfrwt>
<pdfrwt beam="2">  1       -4 0.20099977E-01 0.12500026E+03</pdfrwt>
<totfact> 0.97236552E+03</totfact>
</mgrwt>
</event>
<event>
 5    1  0.3514886E-002  0.1249980E+03  0.7818608E-02  0.1235072E+00
         -4   -1    0    0    0  501 -0.00000000000E+00  0.00000000000E+00  0.26484936160E+03  0.26485240652E+03  0.12700000000E+01 0. -1.
          4   -1    0    0  501    0  0.00000000000E+00 -0.00000000000E+00 -0.14717996991E+02  0.14772688835E+02  0.12700000000E+01 0. -1.
         25    2    1    2    0    0  0.00000000000E+00  0.00000000000E+00  0.25013136461E+03  0.27962509535E+03  0.12499797755E+03 0.  0.
    9000005    1    3    3    0    0 -0.23504299544E+02 -0.56149449055E+02  0.15669511229E+03  0.16810583256E+03  0.10000000000E+01 0.  0.
    9000005    1    3    3    0    0  0.23504299544E+02  0.56149449055E+02  0.93436252318E+02  0.11151926279E+03  0.10000000000E+01 0.  0.
<mgrwt>
<rscale>  0 0.12499798E+03</rscale>
<asrwt>0</asrwt>
<pdfrwt beam="2">  1        4 0.22687486E-02 0.12499798E+03</pdfrwt>
<pdfrwt beam="1">  1       -4 0.40750496E-01 0.12499798E+03</pdfrwt>
<totfact> 0.78231357E+03</totfact>
</mgrwt>
</event>
<event>
 5    1  0.3514886E-002  0.1250026E+03  0.7818608E-02  0.1235065E+00
          4   -1    0    0  501    0  0.00000000000E+00  0.00000000000E+00  0.23511787012E+02  0.23546061846E+02  0.12700000000E+01 0.  1.
         -4   -1    0    0    0  501 -0.00000000000E+00 -0.00000000000E+00 -0.16598924038E+03  0.16599409876E+03  0.12700000000E+01 0.  1.
         25    2    1    2    0    0  0.00000000000E+00  0.00000000000E+00 -0.14247745337E+03  0.18954016060E+03  0.12500259103E+03 0.  0.
    9000005    1    3    3    0    0  0.69577643206E+01  0.40612488321E+02  0.47495558009E-02  0.41216316120E+02  0.10000000000E+01 0.  0.
    9000005    1    3    3    0    0 -0.69577643206E+01 -0.40612488321E+02 -0.14248220292E+03  0.14832384448E+03  0.10000000000E+01 0.  0.
<mgrwt>
<rscale>  0 0.12500259E+03</rscale>
<asrwt>0</asrwt>
<pdfrwt beam="1">  1        4 0.36202084E-02 0.12500259E+03</pdfrwt>
<pdfrwt beam="2">  1       -4 0.25539816E-01 0.12500259E+03</pdfrwt>
<totfact> 0.91922052E+03</totfact>
</mgrwt>
</event>
<event>
 5    1  0.3514886E-002  0.1249977E+03  0.7818608E-02  0.1235073E+00
         -4   -1    0    0    0  501 -0.00000000000E+00  0.00000000000E+00  0.16275669317E+01  0.20644307005E+01  0.12700000000E+01 0. -1.
          4   -1    0    0  501    0  0.00000000000E+00 -0.00000000000E+00 -0.21155466666E+04  0.21155470478E+04  0.12700000000E+01 0. -1.
         25    2    1    2    0    0  0.00000000000E+00  0.00000000000E+00 -0.21139190996E+04  0.21176114785E+04  0.12499765574E+03 0.  0.
    9000005    1    3    3    0    0 -0.29440918780E+02 -0.53602540439E+02 -0.83927756827E+03  0.84150331945E+03  0.10000000000E+01 0.  0.
    9000005    1    3    3    0    0  0.29440918780E+02  0.53602540439E+02 -0.12746415313E+04  0.12761081590E+04  0.10000000000E+01 0.  0.
<mgrwt>
<rscale>  0 0.12499766E+03</rscale>
<asrwt>0</asrwt>
<pdfrwt beam="2">  1        4 0.32550041E+00 0.12499766E+03</pdfrwt>
<pdfrwt beam="1">  1       -4 0.28403083E-03 0.12499766E+03</pdfrwt>
<totfact> 0.84037984E+02</totfact>
</mgrwt>
</event>
<event>
 4    1  0.3514886E-002  0.1248551E+03  0.7818608E-02  0.1235296E+00
          4   -1    0    0  501    0  0.00000000000E+00  0.00000000000E+00  0.77938667660E+01  0.78966612670E+01  0.12700000000E+01 0.  1.
         -4   -1    0    0    0  501 -0.00000000000E+00 -0.00000000000E+00 -0.49665446289E+03  0.49665608665E+03  0.12700000000E+01 0.  1.
    9000005    1    1    2    0    0  0.47201700561E+02  0.39978565125E+02 -0.27821937479E+03  0.28501457281E+03  0.10000000000E+01 0.  0.
    9000005    1    1    2    0    0 -0.47201700561E+02 -0.39978565125E+02 -0.21064122133E+03  0.21953817511E+03  0.10000000000E+01 0.  0.
<mgrwt>
<rscale>  0 0.12485509E+03</rscale>
<asrwt>0</asrwt>
<pdfrwt beam="1">  1        4 0.12070890E-02 0.12485509E+03</pdfrwt>
<pdfrwt beam="2">  1       -4 0.76416386E-01 0.12485509E+03</pdfrwt>
<totfact> 0.55690094E+03</totfact>
</mgrwt>
</event>
<event>
 5    1  0.3514886E-002  0.1250019E+03  0.7818608E-02  0.1235066E+00
         -4   -1    0    0    0  501 -0.00000000000E+00  0.00000000000E+00  0.90436831541E+02  0.90445748375E+02  0.12700000000E+01 0.  1.
          4   -1    0    0  501    0  0.00000000000E+00 -0.00000000000E+00 -0.43174064881E+02  0.43192739880E+02  0.12700000000E+01 0.  1.
         25    2    1    2    0    0  0.00000000000E+00  0.00000000000E+00  0.47262766660E+02  0.13363848826E+03  0.12500190571E+03 0.  0.
    9000005    1    3    3    0    0  0.17710757059E+02 -0.52418875663E+02 -0.74267797459E+01  0.55835172596E+02  0.10000000000E+01 0.  0.
    9000005    1    3    3    0    0 -0.17710757059E+02  0.52418875663E+02  0.54689546406E+02  0.77803315659E+02  0.10000000000E+01 0.  0.
<mgrwt>
<rscale>  0 0.12500191E+03</rscale>
<asrwt>0</asrwt>
<pdfrwt beam="2">  1        4 0.66442863E-02 0.12500191E+03</pdfrwt>
<pdfrwt beam="1">  1       -4 0.13915481E-01 0.12500191E+03</pdfrwt>
<totfact> 0.10266407E+04</totfact>
</mgrwt>
</event>
<event>
 5    1  0.3514886E-002  0.1249848E+03  0.7818608E-02  0.1235093E+00
         -4   -1    0    0    0  501 -0.00000000000E+00  0.00000000000E+00  0.65707154365E+03  0.65707277098E+03  0.12700000000E+01 0.  1.
          4   -1    0    0  501    0  0.00000000000E+00 -0.00000000000E+00 -0.58743985737E+01  0.60101130274E+01  0.12700000000E+01 0.  1.
         25    2    1    2    0    0  0.00000000000E+00  0.00000000000E+00  0.65119714507E+03  0.66308288401E+03  0.12498475635E+03 0.  0.
    9000005    1    3    3    0    0 -0.41991394720E+01 -0.60415429919E+02  0.40721079441E+03  0.41169076748E+03  0.10000000000E+01 0.  0.
    9000005    1    3    3    0    0  0.41991394720E+01  0.60415429919E+02  0.24398635066E+03  0.25139211653E+03  0.10000000000E+01 0.  0.
<mgrwt>
<rscale>  0 0.12498476E+03</rscale>
<asrwt>0</asrwt>
<pdfrwt beam="2">  1        4 0.91428826E-03 0.12498476E+03</pdfrwt>
<pdfrwt beam="1">  1       -4 0.10109839E+00 0.12498476E+03</pdfrwt>
<totfact> 0.45123438E+03</totfact>
</mgrwt>
</event>
<event>
 5    1  0.3514886E-002  0.1250032E+03  0.7818608E-02  0.1235064E+00
          4   -1    0    0  501    0  0.00000000000E+00  0.00000000000E+00  0.21243493925E+04  0.21243497721E+04  0.12700000000E+01 0. -1.
         -4   -1    0    0    0  501 -0.00000000000E+00 -0.00000000000E+00 -0.16191896701E+01  0.20578326433E+01  0.12700000000E+01 0. -1.
         25    2    1    2    0    0  0.00000000000E+00  0.00000000000E+00  0.21227302028E+04  0.21264076047E+04  0.12500315035E+03 0.  0.
    9000005    1    3    3    0    0 -0.49942652051E+02  0.32304332990E+01  0.42470923772E+03  0.42764896913E+03  0.10000000000E+01 0.  0.
    9000005    1    3    3    0    0  0.49942652051E+02 -0.32304332990E+01  0.16980209651E+04  0.16987586356E+04  0.10000000000E+01 0.  0.
<mgrwt>
<rscale>  0 0.12500315E+03</rscale>
<asrwt>0</asrwt>
<pdfrwt beam="1">  1        4 0.32685684E+00 0.12500315E+03</pdfrwt>
<pdfrwt beam="2">  1       -4 0.28287700E-03 0.12500315E+03</pdfrwt>
<totfact> 0.82996698E+02</totfact>
</mgrwt>
</event>
<event>
 5    1  0.3514886E-002  0.1250037E+03  0.7818608E-02  0.1235064E+00
          4   -1    0    0  501    0  0.00000000000E+00  0.00000000000E+00  0.18693231362E+03  0.18693662770E+03  0.12700000000E+01 0.  1.
         -4   -1    0    0    0  501 -0.00000000000E+00 -0.00000000000E+00 -0.20873978961E+02  0.20912577499E+02  0.12700000000E+01 0.  1.
         25    2    1    2    0    0  0.00000000000E+00  0.00000000000E+00  0.16605833466E+03  0.20784920520E+03  0.12500368631E+03 0.  0.
    9000005    1    3    3    0    0  0.30820468471E+02 -0.11937163284E+02  0.17121865923E+03  0.17438241429E+03  0.10000000000E+01 0.  0.
    9000005    1    3    3    0    0 -0.30820468471E+02  0.11937163284E+02 -0.51603245728E+01  0.33466790909E+02  0.10000000000E+01 0.  0.
<mgrwt>
<rscale>  0 0.12500369E+03</rscale>
<asrwt>0</asrwt>
<pdfrwt beam="1">  1        4 0.28762118E-01 0.12500369E+03</pdfrwt>
<pdfrwt beam="2">  1       -4 0.32146824E-02 0.12500369E+03</pdfrwt>
<totfact> 0.88821021E+03</totfact>
</mgrwt>
</event>
<event>
 5    1  0.3514886E-002  0.1249998E+03  0.7818608E-02  0.1235070E+00
          4   -1    0    0  501    0  0.00000000000E+00  0.00000000000E+00  0.13805004576E+02  0.13863298718E+02  0.12700000000E+01 0. -1.
         -4   -1    0    0    0  501 -0.00000000000E+00 -0.00000000000E+00 -0.28230207849E+03  0.28230493517E+03  0.12700000000E+01 0. -1.
         25    2    1    2    0    0  0.00000000000E+00  0.00000000000E+00 -0.26849707392E+03  0.29616823389E+03  0.12499977625E+03 0.  0.
    9000005    1    3    3    0    0  0.28889719530E+02  0.46237627864E+02 -0.20660888857E+03  0.21368380135E+03  0.10000000000E+01 0.  0.
    9000005    1    3    3    0    0 -0.28889719530E+02 -0.46237627864E+02 -0.61888185351E+02  0.82484432538E+02  0.10000000000E+01 0.  0.
<mgrwt>
<rscale>  0 0.12499978E+03</rscale>
<asrwt>0</asrwt>
<pdfrwt beam="1">  1        4 0.21285510E-02 0.12499978E+03</pdfrwt>
<pdfrwt beam="2">  1       -4 0.43435789E-01 0.12499978E+03</pdfrwt>
<totfact> 0.76082396E+03</totfact>
</mgrwt>
</event>
<event>
 5    1  0.3514886E-002  0.1249961E+03  0.7818608E-02  0.1235075E+00
         -4   -1    0    0    0  501 -0.00000000000E+00  0.00000000000E+00  0.23480436608E+01  0.26694960260E+01  0.12700000000E+01 0.  1.
          4   -1    0    0  501    0  0.00000000000E+00 -0.00000000000E+00 -0.15566189433E+04  0.15566194614E+04  0.12700000000E+01 0.  1.
         25    2    1    2    0    0  0.00000000000E+00  0.00000000000E+00 -0.15542708997E+04  0.15592889574E+04  0.12499609281E+03 0.  0.
    9000005    1    3    3    0    0 -0.38489540176E+02 -0.19863032106E+02 -0.13390540947E+04  0.13397547736E+04  0.10000000000E+01 0.  0.
    9000005    1    3    3    0    0  0.38489540176E+02  0.19863032106E+02 -0.21521680497E+03  0.21953418387E+03  0.10000000000E+01 0.  0.
<mgrwt>
<rscale>  0 0.12499609E+03</rscale>
<asrwt>0</asrwt>
<pdfrwt beam="2">  1        4 0.23950383E+00 0.12499609E+03</pdfrwt>
<pdfrwt beam="1">  1       -4 0.38600569E-03 0.12499609E+03</pdfrwt>
<totfact> 0.16795499E+03</totfact>
</mgrwt>
</event>
<event>
 5    1  0.3514886E-002  0.1249968E+03  0.7818608E-02  0.1235074E+00
          4   -1    0    0  501    0  0.00000000000E+00  0.00000000000E+00  0.28658758182E+02  0.28686884120E+02  0.12700000000E+01 0.  1.
         -4   -1    0    0    0  501 -0.00000000000E+00 -0.00000000000E+00 -0.13619731188E+03  0.13620323294E+03  0.12700000000E+01 0.  1.
         25    2    1    2    0    0  0.00000000000E+00  0.00000000000E+00 -0.10753855370E+03  0.16489011706E+03  0.12499684065E+03 0.  0.
    9000005    1    3    3    0    0  0.32201603849E+01 -0.24633359042E+01 -0.13603010332E+03  0.13609418234E+03  0.10000000000E+01 0.  0.
    9000005    1    3    3    0    0 -0.32201603849E+01  0.24633359042E+01  0.28491549623E+02  0.28795934723E+02  0.10000000000E+01 0.  0.
<mgrwt>
<rscale>  0 0.12499684E+03</rscale>
<asrwt>0</asrwt>
<pdfrwt beam="1">  1        4 0.44116588E-02 0.12499684E+03</pdfrwt>
<pdfrwt beam="2">  1       -4 0.20956051E-01 0.12499684E+03</pdfrwt>
<totfact> 0.96415049E+03</totfact>
</mgrwt>
</event>
<event>
 5    1  0.3514886E-002  0.1249999E+03  0.7818608E-02  0.1235070E+00
          4   -1    0    0  501    0  0.00000000000E+00  0.00000000000E+00  0.15452469533E+04  0.15452474752E+04  0.12700000000E+01 0.  1.
         -4   -1    0    0    0  501 -0.00000000000E+00 -0.00000000000E+00 -0.23678426300E+01  0.26869273753E+01  0.12700000000E+01 0.  1.
         25    2    1    2    0    0  0.00000000000E+00  0.00000000000E+00  0.15428791106E+04  0.15479344025E+04  0.12499985802E+03 0.  0.
    9000005    1    3    3    0    0 -0.61565025332E+02 -0.13814218353E+01  0.63975440380E+03  0.64271211118E+03  0.10000000000E+01 0.  0.
    9000005    1    3    3    0    0  0.61565025332E+02  0.13814218353E+01  0.90312470684E+03  0.90522229136E+03  0.10000000000E+01 0.  0.
<mgrwt>
<rscale>  0 0.12499986E+03</rscale>
<asrwt>0</asrwt>
<pdfrwt beam="1">  1        4 0.23775510E+00 0.12499986E+03</pdfrwt>
<pdfrwt beam="2">  1       -4 0.38886825E-03 0.12499986E+03</pdfrwt>
<totfact> 0.17007196E+03</totfact>
</mgrwt>
</event>
<event>
 5    1  0.3514886E-002  0.1249996E+03  0.7818608E-02  0.1235070E+00
          4   -1    0    0  501    0  0.00000000000E+00  0.00000000000E+00  0.73643164331E+01  0.74730219140E+01  0.12700000000E+01 0.  1.
         -4   -1    0    0    0  501 -0.00000000000E+00 -0.00000000000E+00 -0.52643000584E+03  0.52643153776E+03  0.12700000000E+01 0.  1.
         25    2    1    2    0    0  0.00000000000E+00  0.00000000000E+00 -0.51906568940E+03  0.53390455967E+03  0.12499955569E+03 0.  0.
    9000005    1    3    3    0    0  0.27386565758E+02 -0.49257513750E+02 -0.14421730908E+03  0.15484172204E+03  0.10000000000E+01 0.  0.
    9000005    1    3    3    0    0 -0.27386565758E+02  0.49257513750E+02 -0.37484838032E+03  0.37906283763E+03  0.10000000000E+01 0.  0.
<mgrwt>
<rscale>  0 0.12499956E+03</rscale>
<asrwt>0</asrwt>
<pdfrwt beam="1">  1        4 0.11414520E-02 0.12499956E+03</pdfrwt>
<pdfrwt beam="2">  1       -4 0.80997682E-01 0.12499956E+03</pdfrwt>
<totfact> 0.53327050E+03</totfact>
</mgrwt>
</event>
<event>
 5    1  0.3514886E-002  0.1249842E+03  0.7818608E-02  0.1235094E+00
          4   -1    0    0  501    0  0.00000000000E+00  0.00000000000E+00  0.16843004021E+03  0.16843482818E+03  0.12700000000E+01 0.  1.
         -4   -1    0    0    0  501 -0.00000000000E+00 -0.00000000000E+00 -0.23163740087E+02  0.23198529152E+02  0.12700000000E+01 0.  1.
         25    2    1    2    0    0  0.00000000000E+00  0.00000000000E+00  0.14526630012E+03  0.19163335733E+03  0.12498418177E+03 0.  0.
    9000005    1    3    3    0    0 -0.96918642644E+01  0.44111911387E+02  0.13883857508E+03  0.14600322904E+03  0.10000000000E+01 0.  0.
    9000005    1    3    3    0    0  0.96918642644E+01 -0.44111911387E+02  0.64277250407E+01  0.45630128296E+02  0.10000000000E+01 0.  0.
<mgrwt>
<rscale>  0 0.12498418E+03</rscale>
<asrwt>0</asrwt>
<pdfrwt beam="1">  1        4 0.25915358E-01 0.12498418E+03</pdfrwt>
<pdfrwt beam="2">  1       -4 0.35666967E-02 0.12498418E+03</pdfrwt>
<totfact> 0.91596336E+03</totfact>
</mgrwt>
</event>
<event>
 5    1  0.3514886E-002  0.1249838E+03  0.7818608E-02  0.1235095E+00
         -4   -1    0    0    0  501 -0.00000000000E+00  0.00000000000E+00  0.60027065382E+02  0.60040498652E+02  0.12700000000E+01 0. -1.
          4   -1    0    0  501    0  0.00000000000E+00 -0.00000000000E+00 -0.65031018076E+02  0.65043417899E+02  0.12700000000E+01 0. -1.
         25    2    1    2    0    0  0.00000000000E+00  0.00000000000E+00 -0.50039526945E+01  0.12508391655E+03  0.12498378550E+03 0.  0.
    9000005    1    3    3    0    0 -0.27216222541E+02  0.16339934172E+02 -0.56364425313E+02  0.64696712892E+02  0.10000000000E+01 0.  0.
    9000005    1    3    3    0    0  0.27216222541E+02 -0.16339934172E+02  0.51360472618E+02  0.60387203659E+02  0.10000000000E+01 0.  0.
<mgrwt>
<rscale>  0 0.12498379E+03</rscale>
<asrwt>0</asrwt>
<pdfrwt beam="2">  1        4 0.10006759E-01 0.12498379E+03</pdfrwt>
<pdfrwt beam="1">  1       -4 0.92369203E-02 0.12498379E+03</pdfrwt>
<totfact> 0.10454871E+04</totfact>
</mgrwt>
</event>
<event>
 5    1  0.3514886E-002  0.1249999E+03  0.7818608E-02  0.1235069E+00
          4   -1    0    0  501    0  0.00000000000E+00  0.00000000000E+00  0.94808782858E+02  0.94817288545E+02  0.12700000000E+01 0. -1.
         -4   -1    0    0    0  501 -0.00000000000E+00 -0.00000000000E+00 -0.41181162409E+02  0.41200740738E+02  0.12700000000E+01 0. -1.
         25    2    1    2    0    0  0.00000000000E+00  0.00000000000E+00  0.53627620450E+02  0.13601802928E+03  0.12499993046E+03 0.  0.
    9000005    1    3    3    0    0 -0.62207834926E+02  0.58669321386E+01  0.27907401104E+02  0.68440183045E+02  0.10000000000E+01 0.  0.
    9000005    1    3    3    0    0  0.62207834926E+02 -0.58669321386E+01  0.25720219345E+02  0.67577846237E+02  0.10000000000E+01 0.  0.
<mgrwt>
<rscale>  0 0.12499993E+03</rscale>
<asrwt>0</asrwt>
<pdfrwt beam="1">  1        4 0.14588127E-01 0.12499993E+03</pdfrwt>
<pdfrwt beam="2">  1       -4 0.63377238E-02 0.12499993E+03</pdfrwt>
<totfact> 0.10216674E+04</totfact>
</mgrwt>
</event>
<event>
 5    1  0.3514886E-002  0.1249914E+03  0.7818608E-02  0.1235083E+00
         -4   -1    0    0    0  501 -0.00000000000E+00  0.00000000000E+00  0.85891649187E+01  0.86825488194E+01  0.12700000000E+01 0. -1.
          4   -1    0    0  501    0  0.00000000000E+00 -0.00000000000E+00 -0.45217259963E+03  0.45217438313E+03  0.12700000000E+01 0. -1.
         25    2    1    2    0    0  0.00000000000E+00  0.00000000000E+00 -0.44358343471E+03  0.46085693195E+03  0.12499139239E+03 0.  0.
    9000005    1    3    3    0    0 -0.46637320088E+02  0.41277338238E+02 -0.20304402033E+03  0.21238345620E+03  0.10000000000E+01 0.  0.
    9000005    1    3    3    0    0  0.46637320088E+02 -0.41277338238E+02 -0.24053941438E+03  0.24847347574E+03  0.10000000000E+01 0.  0.
<mgrwt>
<rscale>  0 0.12499139E+03</rscale>
<asrwt>0</asrwt>
<pdfrwt beam="2">  1        4 0.69572318E-01 0.12499139E+03</pdfrwt>
<pdfrwt beam="1">  1       -4 0.13287309E-02 0.12499139E+03</pdfrwt>
<totfact> 0.59045863E+03</totfact>
</mgrwt>
</event>
<event>
 5    1  0.3514886E-002  0.1250017E+03  0.7818608E-02  0.1235067E+00
          4   -1    0    0  501    0  0.00000000000E+00  0.00000000000E+00  0.38561533998E+02  0.38582441657E+02  0.12700000000E+01 0. -1.
         -4   -1    0    0    0  501 -0.00000000000E+00 -0.00000000000E+00 -0.10124951350E+03  0.10125747817E+03  0.12700000000E+01 0. -1.
         25    2    1    2    0    0  0.00000000000E+00  0.00000000000E+00 -0.62687979506E+02  0.13983991982E+03  0.12500168160E+03 0.  0.
    9000005    1    3    3    0    0 -0.18214830282E+02 -0.59769163741E+02 -0.32580714232E+02  0.70474363540E+02  0.10000000000E+01 0.  0.
    9000005    1    3    3    0    0  0.18214830282E+02  0.59769163741E+02 -0.30107265275E+02  0.69365556285E+02  0.10000000000E+01 0.  0.
<mgrwt>
<rscale>  0 0.12500168E+03</rscale>
<asrwt>0</asrwt>
<pdfrwt beam="1">  1        4 0.59347647E-02 0.12500168E+03</pdfrwt>
<pdfrwt beam="2">  1       -4 0.15579069E-01 0.12500168E+03</pdfrwt>
<totfact> 0.10136521E+04</totfact>
</mgrwt>
</event>
<event>
 5    1  0.3514886E-002  0.1249983E+03  0.7818608E-02  0.1235072E+00
         -4   -1    0    0    0  501 -0.00000000000E+00  0.00000000000E+00  0.86732048061E+02  0.86741345740E+02  0.12700000000E+01 0. -1.
          4   -1    0    0  501    0  0.00000000000E+00 -0.00000000000E+00 -0.45016263605E+02  0.45034174678E+02  0.12700000000E+01 0. -1.
         25    2    1    2    0    0  0.00000000000E+00  0.00000000000E+00  0.41715784456E+02  0.13177552042E+03  0.12499832442E+03 0.  0.
    9000005    1    3    3    0    0 -0.80093729161E+01 -0.23774565440E+02  0.81195339887E+02  0.84988606506E+02  0.10000000000E+01 0.  0.
    9000005    1    3    3    0    0  0.80093729161E+01  0.23774565440E+02 -0.39479555431E+02  0.46786913912E+02  0.10000000000E+01 0.  0.
<mgrwt>
<rscale>  0 0.12499832E+03</rscale>
<asrwt>0</asrwt>
<pdfrwt beam="2">  1        4 0.69276721E-02 0.12499832E+03</pdfrwt>
<pdfrwt beam="1">  1       -4 0.13345485E-01 0.12499832E+03</pdfrwt>
<totfact> 0.10306882E+04</totfact>
</mgrwt>
</event>
<event>
 5    1  0.3514886E-002  0.1249995E+03  0.7818608E-02  0.1235070E+00
          4   -1    0    0  501    0  0.00000000000E+00  0.00000000000E+00  0.36432996673E+02  0.36455125107E+02  0.12700000000E+01 0. -1.
         -4   -1    0    0    0  501 -0.00000000000E+00 -0.00000000000E+00 -0.10715812275E+03  0.10716564828E+03  0.12700000000E+01 0. -1.
         25    2    1    2    0    0  0.00000000000E+00  0.00000000000E+00 -0.70725126074E+02  0.14362077338E+03  0.12499953236E+03 0.  0.
    9000005    1    3    3    0    0 -0.48140121408E+01  0.47078710828E+02 -0.82254651981E+02  0.94902094280E+02  0.10000000000E+01 0.  0.
    9000005    1    3    3    0    0  0.48140121408E+01 -0.47078710828E+02  0.11529525907E+02  0.48718679105E+02  0.10000000000E+01 0.  0.
<mgrwt>
<rscale>  0 0.12499953E+03</rscale>
<asrwt>0</asrwt>
<pdfrwt beam="1">  1        4 0.56073575E-02 0.12499953E+03</pdfrwt>
<pdfrwt beam="2">  1       -4 0.16488146E-01 0.12499953E+03</pdfrwt>
<totfact> 0.10059193E+04</totfact>
</mgrwt>
</event>
<event>
 5    1  0.3514886E-002  0.1249964E+03  0.7818608E-02  0.1235075E+00
         -4   -1    0    0    0  501 -0.00000000000E+00  0.00000000000E+00  0.32655177645E+02  0.32679864244E+02  0.12700000000E+01 0.  1.
          4   -1    0    0  501    0  0.00000000000E+00 -0.00000000000E+00 -0.11954091958E+03  0.11954766562E+03  0.12700000000E+01 0.  1.
         25    2    1    2    0    0  0.00000000000E+00  0.00000000000E+00 -0.86885741938E+02  0.15222752986E+03  0.12499635473E+03 0.  0.
    9000005    1    3    3    0    0  0.60270526342E+02 -0.16506463607E+02 -0.43260243205E+02  0.76009527880E+02  0.10000000000E+01 0.  0.
    9000005    1    3    3    0    0 -0.60270526342E+02  0.16506463607E+02 -0.43625498734E+02  0.76218001982E+02  0.10000000000E+01 0.  0.
<mgrwt>
<rscale>  0 0.12499635E+03</rscale>
<asrwt>0</asrwt>
<pdfrwt beam="2">  1        4 0.18393328E-01 0.12499635E+03</pdfrwt>
<pdfrwt beam="1">  1       -4 0.50262915E-02 0.12499635E+03</pdfrwt>
<totfact> 0.98869622E+03</totfact>
</mgrwt>
</event>
<event>
 5    1  0.3514886E-002  0.1249975E+03  0.7818608E-02  0.1235073E+00
         -4   -1    0    0    0  501 -0.00000000000E+00  0.00000000000E+00  0.87980463876E+03  0.87980555539E+03  0.12700000000E+01 0. -1.
          4   -1    0    0  501    0  0.00000000000E+00 -0.00000000000E+00 -0.43479693236E+01  0.45296508959E+01  0.12700000000E+01 0. -1.
         25    2    1    2    0    0  0.00000000000E+00  0.00000000000E+00  0.87545666944E+03  0.88433520628E+03  0.12499750799E+03 0.  0.
    9000005    1    3    3    0    0 -0.27681810966E+02  0.29928307264E+02  0.10265439343E+03  0.11045773275E+03  0.10000000000E+01 0.  0.
    9000005    1    3    3    0    0  0.27681810966E+02 -0.29928307264E+02  0.77280227601E+03  0.77387747353E+03  0.10000000000E+01 0.  0.
<mgrwt>
<rscale>  0 0.12499751E+03</rscale>
<asrwt>0</asrwt>
<pdfrwt beam="2">  1        4 0.68296386E-03 0.12499751E+03</pdfrwt>
<pdfrwt beam="1">  1       -4 0.13536871E+00 0.12499751E+03</pdfrwt>
<totfact> 0.34763833E+03</totfact>
</mgrwt>
</event>
<event>
 5    1  0.3514886E-002  0.1250031E+03  0.7818608E-02  0.1235064E+00
          4   -1    0    0  501    0  0.00000000000E+00  0.00000000000E+00  0.19586638500E+03  0.19587050231E+03  0.12700000000E+01 0.  1.
         -4   -1    0    0    0  501 -0.00000000000E+00 -0.00000000000E+00 -0.19919895231E+02  0.19960338825E+02  0.12700000000E+01 0.  1.
         25    2    1    2    0    0  0.00000000000E+00  0.00000000000E+00  0.17594648977E+03  0.21583084113E+03  0.12500313884E+03 0.  0.
    9000005    1    3    3    0    0  0.48942766996E+02 -0.12005349362E+02  0.15178574286E+03  0.15993572019E+03  0.10000000000E+01 0.  0.
    9000005    1    3    3    0    0 -0.48942766996E+02  0.12005349362E+02  0.24160746909E+02  0.55895120947E+02  0.10000000000E+01 0.  0.
<mgrwt>
<rscale>  0 0.12500314E+03</rscale>
<asrwt>0</asrwt>
<pdfrwt beam="1">  1        4 0.30136718E-01 0.12500314E+03</pdfrwt>
<pdfrwt beam="2">  1       -4 0.30680270E-02 0.12500314E+03</pdfrwt>
<totfact> 0.87526255E+03</totfact>
</mgrwt>
</event>
<event>
 5    1  0.3514886E-002  0.1249850E+03  0.7818608E-02  0.1235093E+00
          4   -1    0    0  501    0  0.00000000000E+00  0.00000000000E+00  0.55655647823E+03  0.55655792723E+03  0.12700000000E+01 0.  1.
         -4   -1    0    0    0  501 -0.00000000000E+00 -0.00000000000E+00 -0.69579802750E+01  0.70729335857E+01  0.12700000000E+01 0.  1.
         25    2    1    2    0    0  0.00000000000E+00  0.00000000000E+00  0.54959849796E+03  0.56363086082E+03  0.12498495232E+03 0.  0.
    9000005    1    3    3    0    0  0.30846812454E+02  0.19959752436E+02  0.46880102503E+02  0.59570643497E+02  0.10000000000E+01 0.  0.
    9000005    1    3    3    0    0 -0.30846812454E+02 -0.19959752436E+02  0.50271839546E+03  0.50406021732E+03  0.10000000000E+01 0.  0.
<mgrwt>
<rscale>  0 0.12498495E+03</rscale>
<asrwt>0</asrwt>
<pdfrwt beam="1">  1        4 0.85633051E-01 0.12498495E+03</pdfrwt>
<pdfrwt beam="2">  1       -4 0.10794122E-02 0.12498495E+03</pdfrwt>
<totfact> 0.51263788E+03</totfact>
</mgrwt>
</event>
<event>
 5    1  0.3514886E-002  0.1249982E+03  0.7818608E-02  0.1235072E+00
         -4   -1    0    0    0  501 -0.00000000000E+00  0.00000000000E+00  0.19431200291E+02  0.19472658903E+02  0.12700000000E+01 0. -1.
          4   -1    0    0  501    0  0.00000000000E+00 -0.00000000000E+00 -0.20076643695E+03  0.20077045377E+03  0.12700000000E+01 0. -1.
         25    2    1    2    0    0  0.00000000000E+00  0.00000000000E+00 -0.18133523666E+03  0.22024311267E+03  0.12499824248E+03 0.  0.
    9000005    1    3    3    0    0 -0.75435105703E+01  0.36700876546E+02 -0.17878867469E+03  0.18267525581E+03  0.10000000000E+01 0.  0.
    9000005    1    3    3    0    0  0.75435105703E+01 -0.36700876546E+02 -0.25465619758E+01  0.37567856858E+02  0.10000000000E+01 0.  0.
<mgrwt>
<rscale>  0 0.12499824E+03</rscale>
<asrwt>0</asrwt>
<pdfrwt beam="2">  1        4 0.30890641E-01 0.12499824E+03</pdfrwt>
<pdfrwt beam="1">  1       -4 0.29929137E-02 0.12499824E+03</pdfrwt>
<totfact> 0.86833304E+03</totfact>
</mgrwt>
</event>
<event>
 5    1  0.3514886E-002  0.1249986E+03  0.7818608E-02  0.1235071E+00
          4   -1    0    0  501    0  0.00000000000E+00  0.00000000000E+00  0.19802271471E+03  0.19802678718E+03  0.12700000000E+01 0.  1.
         -4   -1    0    0    0  501 -0.00000000000E+00 -0.00000000000E+00 -0.19701118206E+02  0.19742009993E+02  0.12700000000E+01 0.  1.
         25    2    1    2    0    0  0.00000000000E+00  0.00000000000E+00  0.17832159650E+03  0.21776879717E+03  0.12499862896E+03 0.  0.
    9000005    1    3    3    0    0  0.30924719132E+02  0.44994378768E+02  0.14212767709E+03  0.15225672060E+03  0.10000000000E+01 0.  0.
    9000005    1    3    3    0    0 -0.30924719132E+02 -0.44994378768E+02  0.36193919415E+02  0.65512076572E+02  0.10000000000E+01 0.  0.
<mgrwt>
<rscale>  0 0.12499863E+03</rscale>
<asrwt>0</asrwt>
<pdfrwt beam="1">  1        4 0.30468494E-01 0.12499863E+03</pdfrwt>
<pdfrwt beam="2">  1       -4 0.30343999E-02 0.12499863E+03</pdfrwt>
<totfact> 0.87225313E+03</totfact>
</mgrwt>
</event>
<event>
 5    1  0.3514886E-002  0.1249969E+03  0.7818608E-02  0.1235074E+00
         -4   -1    0    0    0  501 -0.00000000000E+00  0.00000000000E+00  0.27381202475E+02  0.27410639339E+02  0.12700000000E+01 0.  1.
          4   -1    0    0  501    0  0.00000000000E+00 -0.00000000000E+00 -0.14254576877E+03  0.14255142614E+03  0.12700000000E+01 0.  1.
         25    2    1    2    0    0  0.00000000000E+00  0.00000000000E+00 -0.11516456630E+03  0.16996206548E+03  0.12499690545E+03 0.  0.
    9000005    1    3    3    0    0 -0.46444221389E+02 -0.36515170336E+02 -0.29894716414E+02  0.66220219227E+02  0.10000000000E+01 0.  0.
    9000005    1    3    3    0    0  0.46444221389E+02  0.36515170336E+02 -0.85269849885E+02  0.10374184626E+03  0.10000000000E+01 0.  0.
<mgrwt>
<rscale>  0 0.12499691E+03</rscale>
<asrwt>0</asrwt>
<pdfrwt beam="2">  1        4 0.21932817E-01 0.12499691E+03</pdfrwt>
<pdfrwt beam="1">  1       -4 0.42151923E-02 0.12499691E+03</pdfrwt>
<totfact> 0.95462338E+03</totfact>
</mgrwt>
</event>
<event>
 5    1  0.3514886E-002  0.1250074E+03  0.7818608E-02  0.1235058E+00
          4   -1    0    0  501    0  0.00000000000E+00  0.00000000000E+00  0.70111313270E+02  0.70122814750E+02  0.12700000000E+01 0. -1.
         -4   -1    0    0    0  501 -0.00000000000E+00 -0.00000000000E+00 -0.55698254537E+02  0.55712731565E+02  0.12700000000E+01 0. -1.
         25    2    1    2    0    0  0.00000000000E+00  0.00000000000E+00  0.14413058734E+02  0.12583554631E+03  0.12500739360E+03 0.  0.
    9000005    1    3    3    0    0 -0.17106570028E+02  0.59865157169E+02  0.17632729610E+01  0.62294308830E+02  0.10000000000E+01 0.  0.
    9000005    1    3    3    0    0  0.17106570028E+02 -0.59865157169E+02  0.12649785772E+02  0.63541237485E+02  0.10000000000E+01 0.  0.
<mgrwt>
<rscale>  0 0.12500739E+03</rscale>
<asrwt>0</asrwt>
<pdfrwt beam="1">  1        4 0.10788354E-01 0.12500739E+03</pdfrwt>
<pdfrwt beam="2">  1       -4 0.85709606E-02 0.12500739E+03</pdfrwt>
<totfact> 0.10432824E+04</totfact>
</mgrwt>
</event>
<event>
 5    1  0.3514886E-002  0.1249733E+03  0.7818608E-02  0.1235111E+00
         -4   -1    0    0    0  501 -0.00000000000E+00  0.00000000000E+00  0.15076689208E+03  0.15077224097E+03  0.12700000000E+01 0.  1.
          4   -1    0    0  501    0  0.00000000000E+00 -0.00000000000E+00 -0.25876749697E+02  0.25907895995E+02  0.12700000000E+01 0.  1.
         25    2    1    2    0    0  0.00000000000E+00  0.00000000000E+00  0.12489014238E+03  0.17668013697E+03  0.12497328968E+03 0.  0.
    9000005    1    3    3    0    0  0.51985985256E+02 -0.88802066773E+01  0.15086150410E+02  0.54863400075E+02  0.10000000000E+01 0.  0.
    9000005    1    3    3    0    0 -0.51985985256E+02  0.88802066773E+01  0.10980399197E+03  0.12181673689E+03  0.10000000000E+01 0.  0.
<mgrwt>
<rscale>  0 0.12497329E+03</rscale>
<asrwt>0</asrwt>
<pdfrwt beam="2">  1        4 0.39838457E-02 0.12497329E+03</pdfrwt>
<pdfrwt beam="1">  1       -4 0.23197714E-01 0.12497329E+03</pdfrwt>
<totfact> 0.94274493E+03</totfact>
</mgrwt>
</event>
<event>
 5    1  0.3514886E-002  0.1250016E+03  0.7818608E-02  0.1235067E+00
          4   -1    0    0  501    0  0.00000000000E+00  0.00000000000E+00  0.13565395240E+03  0.13565989718E+03  0.12700000000E+01 0.  1.
         -4   -1    0    0    0  501 -0.00000000000E+00 -0.00000000000E+00 -0.28775862732E+02  0.28803874322E+02  0.12700000000E+01 0.  1.
         25    2    1    2    0    0  0.00000000000E+00  0.00000000000E+00  0.10687808967E+03  0.16446377150E+03  0.12500162433E+03 0.  0.
    9000005    1    3    3    0    0  0.27805118711E+02  0.24738214576E+02  0.11948955809E+03  0.12515533700E+03  0.10000000000E+01 0.  0.
    9000005    1    3    3    0    0 -0.27805118711E+02 -0.24738214576E+02 -0.12611468422E+02  0.39308434498E+02  0.10000000000E+01 0.  0.
<mgrwt>
<rscale>  0 0.12500162E+03</rscale>
<asrwt>0</asrwt>
<pdfrwt beam="1">  1        4 0.20872451E-01 0.12500162E+03</pdfrwt>
<pdfrwt beam="2">  1       -4 0.44296678E-02 0.12500162E+03</pdfrwt>
<totfact> 0.96485521E+03</totfact>
</mgrwt>
</event>
<event>
 5    1  0.3514886E-002  0.1250013E+03  0.7818608E-02  0.1235067E+00
          4   -1    0    0  501    0  0.00000000000E+00  0.00000000000E+00  0.13245090877E+02  0.13305838280E+02  0.12700000000E+01 0. -1.
         -4   -1    0    0    0  501 -0.00000000000E+00 -0.00000000000E+00 -0.29418978537E+03  0.29419252661E+03  0.12700000000E+01 0. -1.
         25    2    1    2    0    0  0.00000000000E+00  0.00000000000E+00 -0.28094469449E+03  0.30749836489E+03  0.12500129219E+03 0.  0.
    9000005    1    3    3    0    0  0.41213317202E+02 -0.46819696107E+02 -0.14990696629E+03  0.16236908573E+03  0.10000000000E+01 0.  0.
    9000005    1    3    3    0    0 -0.41213317202E+02  0.46819696107E+02 -0.13103772820E+03  0.14512927916E+03  0.10000000000E+01 0.  0.
<mgrwt>
<rscale>  0 0.12500129E+03</rscale>
<asrwt>0</asrwt>
<pdfrwt beam="1">  1        4 0.20425903E-02 0.12500129E+03</pdfrwt>
<pdfrwt beam="2">  1       -4 0.45264846E-01 0.12500129E+03</pdfrwt>
<totfact> 0.74665644E+03</totfact>
</mgrwt>
</event>
<event>
 4    1  0.3514886E-002  0.1253678E+03  0.7818608E-02  0.1234496E+00
         -4   -1    0    0    0  501 -0.00000000000E+00  0.00000000000E+00  0.19526940326E+03  0.19527353316E+03  0.12700000000E+01 0. -1.
          4   -1    0    0  501    0  0.00000000000E+00 -0.00000000000E+00 -0.20097927890E+02  0.20138013941E+02  0.12700000000E+01 0. -1.
    9000005    1    1    2    0    0  0.43609879291E+02  0.41154296469E+02  0.11892999318E+03  0.13319474827E+03  0.10000000000E+01 0.  0.
    9000005    1    1    2    0    0 -0.43609879291E+02 -0.41154296469E+02  0.56241482197E+02  0.82216798827E+02  0.10000000000E+01 0.  0.
<mgrwt>
<rscale>  0 0.12536781E+03</rscale>
<asrwt>0</asrwt>
<pdfrwt beam="2">  1        4 0.30953902E-02 0.12536781E+03</pdfrwt>
<pdfrwt beam="1">  1       -4 0.30044848E-01 0.12536781E+03</pdfrwt>
<totfact> 0.86883547E+03</totfact>
</mgrwt>
</event>
<event>
 4    1  0.3514886E-002  0.1251308E+03  0.7818608E-02  0.1234865E+00
          4   -1    0    0  501    0  0.00000000000E+00  0.00000000000E+00  0.15780242611E+03  0.15780753653E+03  0.12700000000E+01 0.  1.
         -4   -1    0    0    0  501 -0.00000000000E+00 -0.00000000000E+00 -0.24784133263E+02  0.24816650894E+02  0.12700000000E+01 0.  1.
    9000005    1    1    2    0    0 -0.30809399523E+02 -0.54411699062E+02  0.63747782205E+02  0.89300794117E+02  0.10000000000E+01 0.  0.
    9000005    1    1    2    0    0  0.30809399523E+02  0.54411699062E+02  0.69270510638E+02  0.93323393304E+02  0.10000000000E+01 0.  0.
<mgrwt>
<rscale>  0 0.12513084E+03</rscale>
<asrwt>0</asrwt>
<pdfrwt beam="1">  1        4 0.24280192E-01 0.12513084E+03</pdfrwt>
<pdfrwt beam="2">  1       -4 0.38158378E-02 0.12513084E+03</pdfrwt>
<totfact> 0.92874091E+03</totfact>
</mgrwt>
</event>
<event>
 5    1  0.3514886E-002  0.1249999E+03  0.7818608E-02  0.1235069E+00
         -4   -1    0    0    0  501 -0.00000000000E+00  0.00000000000E+00  0.14675769967E+02  0.14730618593E+02  0.12700000000E+01 0.  1.
          4   -1    0    0  501    0  0.00000000000E+00 -0.00000000000E+00 -0.26561692664E+03  0.26561996276E+03  0.12700000000E+01 0.  1.
         25    2    1    2    0    0  0.00000000000E+00  0.00000000000E+00 -0.25094115667E+03  0.28035058135E+03  0.12499993741E+03 0.  0.
    9000005    1    3    3    0    0 -0.21364196829E+02  0.58375978381E+02 -0.11109870235E+03  0.12731105774E+03  0.10000000000E+01 0.  0.
    9000005    1    3    3    0    0  0.21364196829E+02 -0.58375978381E+02 -0.13984245432E+03  0.15303952361E+03  0.10000000000E+01 0.  0.
<mgrwt>
<rscale>  0 0.12499994E+03</rscale>
<asrwt>0</asrwt>
<pdfrwt beam="2">  1        4 0.40868592E-01 0.12499994E+03</pdfrwt>
<pdfrwt beam="1">  1       -4 0.22622636E-02 0.12499994E+03</pdfrwt>
<totfact> 0.78131754E+03</totfact>
</mgrwt>
</event>
<event>
 4    1  0.3514886E-002  0.1250669E+03  0.7818608E-02  0.1234965E+00
         -4   -1    0    0    0  501 -0.00000000000E+00  0.00000000000E+00  0.11524952468E+02  0.11594715580E+02  0.12700000000E+01 0.  1.
          4   -1    0    0  501    0  0.00000000000E+00 -0.00000000000E+00 -0.33820667878E+03  0.33820906326E+03  0.12700000000E+01 0.  1.
    9000005    1    1    2    0    0  0.22263965474E+02 -0.30172736270E+02 -0.23400404539E+02  0.44211504218E+02  0.10000000000E+01 0.  0.
    9000005    1    1    2    0    0 -0.22263965474E+02  0.30172736270E+02 -0.30328132177E+03  0.30559227462E+03  0.10000000000E+01 0.  0.
<mgrwt>
<rscale>  0 0.12506692E+03</rscale>
<asrwt>0</asrwt>
<pdfrwt beam="2">  1        4 0.52037339E-01 0.12506692E+03</pdfrwt>
<pdfrwt beam="1">  1       -4 0.17786197E-02 0.12506692E+03</pdfrwt>
<totfact> 0.69642966E+03</totfact>
</mgrwt>
</event>
<event>
 5    1  0.3514886E-002  0.1249957E+03  0.7818608E-02  0.1235076E+00
          4   -1    0    0  501    0  0.00000000000E+00  0.00000000000E+00  0.37667730647E+03  0.37667944742E+03  0.12700000000E+01 0.  1.
         -4   -1    0    0    0  501 -0.00000000000E+00 -0.00000000000E+00 -0.10328512992E+02  0.10406300045E+02  0.12700000000E+01 0.  1.
         25    2    1    2    0    0  0.00000000000E+00  0.00000000000E+00  0.36634879348E+03  0.38708574746E+03  0.12499574956E+03 0.  0.
    9000005    1    3    3    0    0  0.50607748177E+02 -0.30730338663E+01  0.70050487316E+02  0.86479237311E+02  0.10000000000E+01 0.  0.
    9000005    1    3    3    0    0 -0.50607748177E+02  0.30730338663E+01  0.29629830616E+03  0.30060651015E+03  0.10000000000E+01 0.  0.
<mgrwt>
<rscale>  0 0.12499575E+03</rscale>
<asrwt>0</asrwt>
<pdfrwt beam="1">  1        4 0.57956504E-01 0.12499575E+03</pdfrwt>
<pdfrwt beam="2">  1       -4 0.15951503E-02 0.12499575E+03</pdfrwt>
<totfact> 0.65834676E+03</totfact>
</mgrwt>
</event>
<event>
 5    1  0.3514886E-002  0.1250005E+03  0.7818608E-02  0.1235069E+00
          4   -1    0    0  501    0  0.00000000000E+00  0.00000000000E+00  0.19917019912E+03  0.19917424813E+03  0.12700000000E+01 0. -1.
         -4   -1    0    0    0  501 -0.00000000000E+00 -0.00000000000E+00 -0.19587961253E+02  0.19629088773E+02  0.12700000000E+01 0. -1.
         25    2    1    2    0    0  0.00000000000E+00  0.00000000000E+00  0.17958223787E+03  0.21880333690E+03  0.12500048032E+03 0.  0.
    9000005    1    3    3    0    0  0.10634030135E+02 -0.44432290663E+02  0.15157329613E+02  0.48146190831E+02  0.10000000000E+01 0.  0.
    9000005    1    3    3    0    0 -0.10634030135E+02  0.44432290663E+02  0.16442490825E+03  0.17065714607E+03  0.10000000000E+01 0.  0.
<mgrwt>
<rscale>  0 0.12500048E+03</rscale>
<asrwt>0</asrwt>
<pdfrwt beam="1">  1        4 0.30645045E-01 0.12500048E+03</pdfrwt>
<pdfrwt beam="2">  1       -4 0.30170075E-02 0.12500048E+03</pdfrwt>
<totfact> 0.87057125E+03</totfact>
</mgrwt>
</event>
<event>
 5    1  0.3514886E-002  0.1249987E+03  0.7818608E-02  0.1235071E+00
         -4   -1    0    0    0  501 -0.00000000000E+00  0.00000000000E+00  0.61537124931E+02  0.61550228633E+02  0.12700000000E+01 0. -1.
          4   -1    0    0  501    0  0.00000000000E+00 -0.00000000000E+00 -0.63450389009E+02  0.63463097666E+02  0.12700000000E+01 0. -1.
         25    2    1    2    0    0  0.00000000000E+00  0.00000000000E+00 -0.19132640774E+01  0.12501332630E+03  0.12499868469E+03 0.  0.
    9000005    1    3    3    0    0  0.12411260193E+01  0.39345206800E+02 -0.49496656470E+02  0.63249543031E+02  0.10000000000E+01 0.  0.
    9000005    1    3    3    0    0 -0.12411260193E+01 -0.39345206800E+02  0.47583392393E+02  0.61763783268E+02  0.10000000000E+01 0.  0.
<mgrwt>
<rscale>  0 0.12499868E+03</rscale>
<asrwt>0</asrwt>
<pdfrwt beam="2">  1        4 0.97635838E-02 0.12499868E+03</pdfrwt>
<pdfrwt beam="1">  1       -4 0.94692356E-02 0.12499868E+03</pdfrwt>
<totfact> 0.10452884E+04</totfact>
</mgrwt>
</event>
<event>
 5    1  0.3514886E-002  0.1250009E+03  0.7818608E-02  0.1235068E+00
         -4   -1    0    0    0  501 -0.00000000000E+00  0.00000000000E+00  0.12655412629E+03  0.12656049850E+03  0.12700000000E+01 0.  1.
          4   -1    0    0  501    0  0.00000000000E+00 -0.00000000000E+00 -0.30846466972E+02  0.30872599901E+02  0.12700000000E+01 0.  1.
         25    2    1    2    0    0  0.00000000000E+00  0.00000000000E+00  0.95707659317E+02  0.15743309840E+03  0.12500089768E+03 0.  0.
    9000005    1    3    3    0    0 -0.15819612786E+02 -0.52755003141E+02  0.85044165187E+02  0.10132551770E+03  0.10000000000E+01 0.  0.
    9000005    1    3    3    0    0  0.15819612786E+02  0.52755003141E+02  0.10663494130E+02  0.56107580701E+02  0.10000000000E+01 0.  0.
<mgrwt>
<rscale>  0 0.12500090E+03</rscale>
<asrwt>0</asrwt>
<pdfrwt beam="2">  1        4 0.47481108E-02 0.12500090E+03</pdfrwt>
<pdfrwt beam="1">  1       -4 0.19472365E-01 0.12500090E+03</pdfrwt>
<totfact> 0.97837984E+03</totfact>
</mgrwt>
</event>
<event>
 5    1  0.3514886E-002  0.1249845E+03  0.7818608E-02  0.1235093E+00
         -4   -1    0    0    0  501 -0.00000000000E+00  0.00000000000E+00  0.36164938361E+01  0.38330050439E+01  0.12700000000E+01 0.  1.
          4   -1    0    0  501    0  0.00000000000E+00 -0.00000000000E+00 -0.10482520233E+04  0.10482527926E+04  0.12700000000E+01 0.  1.
         25    2    1    2    0    0  0.00000000000E+00  0.00000000000E+00 -0.10446355294E+04  0.10520857976E+04  0.12498454402E+03 0.  0.
    9000005    1    3    3    0    0  0.23983546312E+02  0.25314834594E+02 -0.95876151510E+03  0.95939600488E+03  0.10000000000E+01 0.  0.
    9000005    1    3    3    0    0 -0.23983546312E+02 -0.25314834594E+02 -0.85874014327E+02  0.92689792755E+02  0.10000000000E+01 0.  0.
<mgrwt>
<rscale>  0 0.12498454E+03</rscale>
<asrwt>0</asrwt>
<pdfrwt beam="2">  1        4 0.16128602E+00 0.12498454E+03</pdfrwt>
<pdfrwt beam="1">  1       -4 0.57309839E-03 0.12498454E+03</pdfrwt>
<totfact> 0.28939531E+03</totfact>
</mgrwt>
</event>
<event>
 5    1  0.3514886E-002  0.1250018E+03  0.7818608E-02  0.1235066E+00
          4   -1    0    0  501    0  0.00000000000E+00  0.00000000000E+00  0.10870495631E+03  0.10871237476E+03  0.12700000000E+01 0.  1.
         -4   -1    0    0    0  501 -0.00000000000E+00 -0.00000000000E+00 -0.35915594768E+02  0.35938041788E+02  0.12700000000E+01 0.  1.
         25    2    1    2    0    0  0.00000000000E+00  0.00000000000E+00  0.72789361542E+02  0.14465041655E+03  0.12500180740E+03 0.  0.
    9000005    1    3    3    0    0  0.49858076520E+02 -0.36101929094E+02  0.23921417724E+02  0.66048552630E+02  0.10000000000E+01 0.  0.
    9000005    1    3    3    0    0 -0.49858076520E+02  0.36101929094E+02  0.48867943818E+02  0.78601863919E+02  0.10000000000E+01 0.  0.
<mgrwt>
<rscale>  0 0.12500181E+03</rscale>
<asrwt>0</asrwt>
<pdfrwt beam="1">  1        4 0.16726137E-01 0.12500181E+03</pdfrwt>
<pdfrwt beam="2">  1       -4 0.55277735E-02 0.12500181E+03</pdfrwt>
<totfact> 0.10037687E+04</totfact>
</mgrwt>
</event>
<event>
 5    1  0.3514886E-002  0.1249998E+03  0.7818608E-02  0.1235070E+00
          4   -1    0    0  501    0  0.00000000000E+00  0.00000000000E+00  0.48659501534E+01  0.50289532604E+01  0.12700000000E+01 0. -1.
         -4   -1    0    0    0  501 -0.00000000000E+00 -0.00000000000E+00 -0.78938199683E+03  0.78938301845E+03  0.12700000000E+01 0. -1.
         25    2    1    2    0    0  0.00000000000E+00  0.00000000000E+00 -0.78451604668E+03  0.79441197172E+03  0.12499981322E+03 0.  0.
    9000005    1    3    3    0    0 -0.38594875838E+02 -0.47028076796E+02 -0.30147857093E+03  0.30755736567E+03  0.10000000000E+01 0.  0.
    9000005    1    3    3    0    0  0.38594875838E+02  0.47028076796E+02 -0.48303747575E+03  0.48685460604E+03  0.10000000000E+01 0.  0.
<mgrwt>
<rscale>  0 0.12499981E+03</rscale>
<asrwt>0</asrwt>
<pdfrwt beam="1">  1        4 0.76122563E-03 0.12499981E+03</pdfrwt>
<pdfrwt beam="2">  1       -4 0.12145590E+00 0.12499981E+03</pdfrwt>
<totfact> 0.38515596E+03</totfact>
</mgrwt>
</event>
<event>
 5    1  0.3514886E-002  0.1249992E+03  0.7818608E-02  0.1235071E+00
          4   -1    0    0  501    0  0.00000000000E+00  0.00000000000E+00  0.16661700297E+02  0.16710031621E+02  0.12700000000E+01 0.  1.
         -4   -1    0    0    0  501 -0.00000000000E+00 -0.00000000000E+00 -0.23405232260E+03  0.23405576817E+03  0.12700000000E+01 0.  1.
         25    2    1    2    0    0  0.00000000000E+00  0.00000000000E+00 -0.21739062230E+03  0.25076579979E+03  0.12499921472E+03 0.  0.
    9000005    1    3    3    0    0 -0.11147403714E+01  0.56248570054E+02 -0.16327028059E+03  0.17269432186E+03  0.10000000000E+01 0.  0.
    9000005    1    3    3    0    0  0.11147403714E+01 -0.56248570054E+02 -0.54120341714E+02  0.78071477931E+02  0.10000000000E+01 0.  0.
<mgrwt>
<rscale>  0 0.12499921E+03</rscale>
<asrwt>0</asrwt>
<pdfrwt beam="1">  1        4 0.25673215E-02 0.12499921E+03</pdfrwt>
<pdfrwt beam="2">  1       -4 0.36012030E-01 0.12499921E+03</pdfrwt>
<totfact> 0.82221111E+03</totfact>
</mgrwt>
</event>
<event>
 5    1  0.3514886E-002  0.1249988E+03  0.7818608E-02  0.1235071E+00
         -4   -1    0    0    0  501 -0.00000000000E+00  0.00000000000E+00  0.55161472888E+01  0.56604576593E+01  0.12700000000E+01 0.  1.
          4   -1    0    0  501    0  0.00000000000E+00 -0.00000000000E+00 -0.69884598729E+03  0.69884714126E+03  0.12700000000E+01 0.  1.
         25    2    1    2    0    0  0.00000000000E+00  0.00000000000E+00 -0.69332984000E+03  0.70450759892E+03  0.12499875961E+03 0.  0.
    9000005    1    3    3    0    0 -0.10170609953E+02  0.37651314389E+02 -0.71468300213E+02  0.81423465397E+02  0.10000000000E+01 0.  0.
    9000005    1    3    3    0    0  0.10170609953E+02 -0.37651314389E+02 -0.62186153978E+03  0.62308413352E+03  0.10000000000E+01 0.  0.
<mgrwt>
<rscale>  0 0.12499876E+03</rscale>
<asrwt>0</asrwt>
<pdfrwt beam="2">  1        4 0.10752589E+00 0.12499876E+03</pdfrwt>
<pdfrwt beam="1">  1       -4 0.85982816E-03 0.12499876E+03</pdfrwt>
<totfact> 0.42850995E+03</totfact>
</mgrwt>
</event>
<event>
 5    1  0.3514886E-002  0.1250171E+03  0.7818608E-02  0.1235043E+00
         -4   -1    0    0    0  501 -0.00000000000E+00  0.00000000000E+00  0.42934625860E+02  0.42953404961E+02  0.12700000000E+01 0. -1.
          4   -1    0    0  501    0  0.00000000000E+00 -0.00000000000E+00 -0.90963131581E+02  0.90971996829E+02  0.12700000000E+01 0. -1.
         25    2    1    2    0    0  0.00000000000E+00  0.00000000000E+00 -0.48028505721E+02  0.13392540179E+03  0.12501710236E+03 0.  0.
    9000005    1    3    3    0    0 -0.50528045426E+02  0.22448078104E+02  0.72054703094E+01  0.55766642247E+02  0.10000000000E+01 0.  0.
    9000005    1    3    3    0    0  0.50528045426E+02 -0.22448078104E+02 -0.55233976031E+02  0.78158759543E+02  0.10000000000E+01 0.  0.
<mgrwt>
<rscale>  0 0.12501710E+03</rscale>
<asrwt>0</asrwt>
<pdfrwt beam="2">  1        4 0.13996454E-01 0.12501710E+03</pdfrwt>
<pdfrwt beam="1">  1       -4 0.66074536E-02 0.12501710E+03</pdfrwt>
<totfact> 0.10256814E+04</totfact>
</mgrwt>
</event>
<event>
 5    1  0.3514886E-002  0.1249959E+03  0.7818608E-02  0.1235076E+00
         -4   -1    0    0    0  501 -0.00000000000E+00  0.00000000000E+00  0.74340776111E+02  0.74351623337E+02  0.12700000000E+01 0. -1.
          4   -1    0    0  501    0  0.00000000000E+00 -0.00000000000E+00 -0.52519390409E+02  0.52534743446E+02  0.12700000000E+01 0. -1.
         25    2    1    2    0    0  0.00000000000E+00  0.00000000000E+00  0.21821385702E+02  0.12688636678E+03  0.12499590874E+03 0.  0.
    9000005    1    3    3    0    0 -0.49839670736E+02 -0.21237864772E+02  0.42525815583E+02  0.68880219731E+02  0.10000000000E+01 0.  0.
    9000005    1    3    3    0    0  0.49839670736E+02  0.21237864772E+02 -0.20704429881E+02  0.58006147052E+02  0.10000000000E+01 0.  0.
<mgrwt>
<rscale>  0 0.12499591E+03</rscale>
<asrwt>0</asrwt>
<pdfrwt beam="2">  1        4 0.80819216E-02 0.12499591E+03</pdfrwt>
<pdfrwt beam="1">  1       -4 0.11439058E-01 0.12499591E+03</pdfrwt>
<totfact> 0.10412577E+04</totfact>
</mgrwt>
</event>
<event>
 5    1  0.3514886E-002  0.1250000E+03  0.7818608E-02  0.1235069E+00
         -4   -1    0    0    0  501 -0.00000000000E+00  0.00000000000E+00  0.41902648138E+03  0.41902840595E+03  0.12700000000E+01 0.  1.
          4   -1    0    0  501    0  0.00000000000E+00 -0.00000000000E+00 -0.92770009265E+01  0.93635274438E+01  0.12700000000E+01 0.  1.
         25    2    1    2    0    0  0.00000000000E+00  0.00000000000E+00  0.40974948045E+03  0.42839193339E+03  0.12500004748E+03 0.  0.
    9000005    1    3    3    0    0 -0.48003139166E+02 -0.19324089384E+02  0.32494829562E+03  0.32904424722E+03  0.10000000000E+01 0.  0.
    9000005    1    3    3    0    0  0.48003139166E+02  0.19324089384E+02  0.84801184826E+02  0.99347686174E+02  0.10000000000E+01 0.  0.
<mgrwt>
<rscale>  0 0.12500005E+03</rscale>
<asrwt>0</asrwt>
<pdfrwt beam="2">  1        4 0.14340347E-02 0.12500005E+03</pdfrwt>
<pdfrwt beam="1">  1       -4 0.64472422E-01 0.12500005E+03</pdfrwt>
<totfact> 0.61881954E+03</totfact>
</mgrwt>
</event>
<event>
 5    1  0.3514886E-002  0.1249996E+03  0.7818608E-02  0.1235070E+00
          4   -1    0    0  501    0  0.00000000000E+00  0.00000000000E+00  0.78820765237E+02  0.78830996014E+02  0.12700000000E+01 0.  1.
         -4   -1    0    0    0  501 -0.00000000000E+00 -0.00000000000E+00 -0.49536729610E+02  0.49553006775E+02  0.12700000000E+01 0.  1.
         25    2    1    2    0    0  0.00000000000E+00  0.00000000000E+00  0.29284035627E+02  0.12838400279E+03  0.12499958972E+03 0.  0.
    9000005    1    3    3    0    0 -0.32589731565E+02  0.23367652461E+02  0.63867616428E+02  0.75420224166E+02  0.10000000000E+01 0.  0.
    9000005    1    3    3    0    0  0.32589731565E+02 -0.23367652461E+02 -0.34583580802E+02  0.52963778623E+02  0.10000000000E+01 0.  0.
<mgrwt>
<rscale>  0 0.12499959E+03</rscale>
<asrwt>0</asrwt>
<pdfrwt beam="1">  1        4 0.12128310E-01 0.12499959E+03</pdfrwt>
<pdfrwt beam="2">  1       -4 0.76230745E-02 0.12499959E+03</pdfrwt>
<totfact> 0.10379299E+04</totfact>
</mgrwt>
</event>
<event>
 5    1  0.3514886E-002  0.1250012E+03  0.7818608E-02  0.1235067E+00
          4   -1    0    0  501    0  0.00000000000E+00  0.00000000000E+00  0.21060420745E+03  0.21060803663E+03  0.12700000000E+01 0.  1.
         -4   -1    0    0    0  501 -0.00000000000E+00 -0.00000000000E+00 -0.18522438833E+02  0.18565926864E+02  0.12700000000E+01 0.  1.
         25    2    1    2    0    0  0.00000000000E+00  0.00000000000E+00  0.19208176861E+03  0.22917396350E+03  0.12500119884E+03 0.  0.
    9000005    1    3    3    0    0  0.12184810631E+02  0.71962418208E+01  0.20763704986E+03  0.20812111853E+03  0.10000000000E+01 0.  0.
    9000005    1    3    3    0    0 -0.12184810631E+02 -0.71962418208E+01 -0.15555281244E+02  0.21052844963E+02  0.10000000000E+01 0.  0.
<mgrwt>
<rscale>  0 0.12500120E+03</rscale>
<asrwt>0</asrwt>
<pdfrwt beam="1">  1        4 0.32404288E-01 0.12500120E+03</pdfrwt>
<pdfrwt beam="2">  1       -4 0.28532457E-02 0.12500120E+03</pdfrwt>
<totfact> 0.85434310E+03</totfact>
</mgrwt>
</event>
<event>
 5    1  0.3514886E-002  0.1249996E+03  0.7818608E-02  0.1235070E+00
         -4   -1    0    0    0  501 -0.00000000000E+00  0.00000000000E+00  0.94166002537E+01  0.95018556260E+01  0.12700000000E+01 0. -1.
          4   -1    0    0  501    0  0.00000000000E+00 -0.00000000000E+00 -0.41286794509E+03  0.41286989838E+03  0.12700000000E+01 0. -1.
         25    2    1    2    0    0  0.00000000000E+00  0.00000000000E+00 -0.40345134484E+03  0.42237175400E+03  0.12499964371E+03 0.  0.
    9000005    1    3    3    0    0  0.45863999189E+01 -0.13919142614E+02 -0.40699580504E+03  0.40726080455E+03  0.10000000000E+01 0.  0.
    9000005    1    3    3    0    0 -0.45863999189E+01  0.13919142614E+02  0.35444602054E+01  0.15110949457E+02  0.10000000000E+01 0.  0.
<mgrwt>
<rscale>  0 0.12499964E+03</rscale>
<asrwt>0</asrwt>
<pdfrwt beam="2">  1        4 0.63524840E-01 0.12499964E+03</pdfrwt>
<pdfrwt beam="1">  1       -4 0.14554164E-02 0.12499964E+03</pdfrwt>
<totfact> 0.62434081E+03</totfact>
</mgrwt>
</event>
<event>
 5    1  0.3514886E-002  0.1249987E+03  0.7818608E-02  0.1235071E+00
         -4   -1    0    0    0  501 -0.00000000000E+00  0.00000000000E+00  0.19187543500E+03  0.19187963794E+03  0.12700000000E+01 0. -1.
          4   -1    0    0  501    0  0.00000000000E+00 -0.00000000000E+00 -0.20333593824E+02  0.20373216187E+02  0.12700000000E+01 0. -1.
         25    2    1    2    0    0  0.00000000000E+00  0.00000000000E+00  0.17154184118E+03  0.21225285413E+03  0.12499868324E+03 0.  0.
    9000005    1    3    3    0    0 -0.22219005397E+02  0.58403388310E+02  0.84537371439E+02  0.10512947796E+03  0.10000000000E+01 0.  0.
    9000005    1    3    3    0    0  0.22219005397E+02 -0.58403388310E+02  0.87004469739E+02  0.10712337617E+03  0.10000000000E+01 0.  0.
<mgrwt>
<rscale>  0 0.12499868E+03</rscale>
<asrwt>0</asrwt>
<pdfrwt beam="2">  1        4 0.31316165E-02 0.12499868E+03</pdfrwt>
<pdfrwt beam="1">  1       -4 0.29522668E-01 0.12499868E+03</pdfrwt>
<totfact> 0.88111871E+03</totfact>
</mgrwt>
</event>
<event>
 5    1  0.3514886E-002  0.1250024E+03  0.7818608E-02  0.1235065E+00
         -4   -1    0    0    0  501 -0.00000000000E+00  0.00000000000E+00  0.12970238623E+02  0.13032267260E+02  0.12700000000E+01 0.  1.
          4   -1    0    0  501    0  0.00000000000E+00 -0.00000000000E+00 -0.30040014197E+03  0.30040282654E+03  0.12700000000E+01 0.  1.
         25    2    1    2    0    0  0.00000000000E+00  0.00000000000E+00 -0.28742990334E+03  0.31343509380E+03  0.12500243473E+03 0.  0.
    9000005    1    3    3    0    0  0.25508369745E+02  0.14671903572E+02 -0.28195293830E+03  0.28348615680E+03  0.10000000000E+01 0.  0.
    9000005    1    3    3    0    0 -0.25508369745E+02 -0.14671903572E+02 -0.54769650460E+01  0.29948937002E+02  0.10000000000E+01 0.  0.
<mgrwt>
<rscale>  0 0.12500243E+03</rscale>
<asrwt>0</asrwt>
<pdfrwt beam="2">  1        4 0.46220379E-01 0.12500243E+03</pdfrwt>
<pdfrwt beam="1">  1       -4 0.20003995E-02 0.12500243E+03</pdfrwt>
<totfact> 0.73939807E+03</totfact>
</mgrwt>
</event>
<event>
 5    1  0.3514886E-002  0.1249991E+03  0.7818608E-02  0.1235071E+00
         -4   -1    0    0    0  501 -0.00000000000E+00  0.00000000000E+00  0.65746328443E+02  0.65758593383E+02  0.12700000000E+01 0.  1.
          4   -1    0    0  501    0  0.00000000000E+00 -0.00000000000E+00 -0.59388536461E+02  0.59402114129E+02  0.12700000000E+01 0.  1.
         25    2    1    2    0    0  0.00000000000E+00  0.00000000000E+00  0.63577919821E+01  0.12516070751E+03  0.12499912474E+03 0.  0.
    9000005    1    3    3    0    0  0.10377486720E+02  0.54144117382E+02  0.32643412944E+02  0.64077063653E+02  0.10000000000E+01 0.  0.
    9000005    1    3    3    0    0 -0.10377486720E+02 -0.54144117382E+02 -0.26285620962E+02  0.61083643859E+02  0.10000000000E+01 0.  0.
<mgrwt>
<rscale>  0 0.12499912E+03</rscale>
<asrwt>0</asrwt>
<pdfrwt beam="2">  1        4 0.91386858E-02 0.12499912E+03</pdfrwt>
<pdfrwt beam="1">  1       -4 0.10116808E-01 0.12499912E+03</pdfrwt>
<totfact> 0.10449580E+04</totfact>
</mgrwt>
</event>
<event>
 5    1  0.3514886E-002  0.1250114E+03  0.7818608E-02  0.1235051E+00
         -4   -1    0    0    0  501 -0.00000000000E+00  0.00000000000E+00  0.28023352758E+04  0.28023355636E+04  0.12700000000E+01 0.  1.
          4   -1    0    0  501    0  0.00000000000E+00 -0.00000000000E+00 -0.11046142913E+01  0.16831734113E+01  0.12700000000E+01 0.  1.
         25    2    1    2    0    0  0.00000000000E+00  0.00000000000E+00  0.28012306615E+04  0.28040187370E+04  0.12501143312E+03 0.  0.
    9000005    1    3    3    0    0 -0.61572359357E+02 -0.98317219855E+01  0.13050662485E+04  0.13065552920E+04  0.10000000000E+01 0.  0.
    9000005    1    3    3    0    0  0.61572359357E+02  0.98317219855E+01  0.14961644130E+04  0.14974634450E+04  0.10000000000E+01 0.  0.
<mgrwt>
<rscale>  0 0.12501143E+03</rscale>
<asrwt>0</asrwt>
<pdfrwt beam="2">  1        4 0.21446707E-03 0.12501143E+03</pdfrwt>
<pdfrwt beam="1">  1       -4 0.43117359E+00 0.12501143E+03</pdfrwt>
<totfact> 0.26960502E+02</totfact>
</mgrwt>
</event>
<event>
 5    1  0.3514886E-002  0.1250010E+03  0.7818608E-02  0.1235068E+00
          4   -1    0    0  501    0  0.00000000000E+00  0.00000000000E+00  0.96212568461E+01  0.97047144883E+01  0.12700000000E+01 0.  1.
         -4   -1    0    0    0  501 -0.00000000000E+00 -0.00000000000E+00 -0.40417093838E+03  0.40417293370E+03  0.12700000000E+01 0.  1.
         25    2    1    2    0    0  0.00000000000E+00  0.00000000000E+00 -0.39454968154E+03  0.41387764819E+03  0.12500102586E+03 0.  0.
    9000005    1    3    3    0    0 -0.57065886348E+02 -0.25607248105E+01 -0.28118364866E+03  0.28692911489E+03  0.10000000000E+01 0.  0.
    9000005    1    3    3    0    0  0.57065886348E+02  0.25607248105E+01 -0.11336603287E+03  0.12694853329E+03  0.10000000000E+01 0.  0.
<mgrwt>
<rscale>  0 0.12500103E+03</rscale>
<asrwt>0</asrwt>
<pdfrwt beam="1">  1        4 0.14867670E-02 0.12500103E+03</pdfrwt>
<pdfrwt beam="2">  1       -4 0.62186704E-01 0.12500103E+03</pdfrwt>
<totfact> 0.63223655E+03</totfact>
</mgrwt>
</event>
<event>
 5    1  0.3514886E-002  0.1249905E+03  0.7818608E-02  0.1235084E+00
          4   -1    0    0  501    0  0.00000000000E+00  0.00000000000E+00  0.19707821161E+03  0.19708230359E+03  0.12700000000E+01 0.  1.
         -4   -1    0    0    0  501 -0.00000000000E+00 -0.00000000000E+00 -0.19793148290E+02  0.19833850338E+02  0.12700000000E+01 0.  1.
         25    2    1    2    0    0  0.00000000000E+00  0.00000000000E+00  0.17728506332E+03  0.21691615393E+03  0.12499049629E+03 0.  0.
    9000005    1    3    3    0    0 -0.45724167110E+02  0.67811372796E+01  0.16161393319E+03  0.16809743211E+03  0.10000000000E+01 0.  0.
    9000005    1    3    3    0    0  0.45724167110E+02 -0.67811372796E+01  0.15671130122E+02  0.48818721819E+02  0.10000000000E+01 0.  0.
<mgrwt>
<rscale>  0 0.12499050E+03</rscale>
<asrwt>0</asrwt>
<pdfrwt beam="1">  1        4 0.30323170E-01 0.12499050E+03</pdfrwt>
<pdfrwt beam="2">  1       -4 0.30485455E-02 0.12499050E+03</pdfrwt>
<totfact> 0.87377245E+03</totfact>
</mgrwt>
</event>
<event>
 5    1  0.3514886E-002  0.1250004E+03  0.7818608E-02  0.1235069E+00
         -4   -1    0    0    0  501 -0.00000000000E+00  0.00000000000E+00  0.11960332147E+02  0.12027570206E+02  0.12700000000E+01 0. -1.
          4   -1    0    0  501    0  0.00000000000E+00 -0.00000000000E+00 -0.32561873925E+03  0.32562121591E+03  0.12700000000E+01 0. -1.
         25    2    1    2    0    0  0.00000000000E+00  0.00000000000E+00 -0.31365840710E+03  0.33764878612E+03  0.12500042568E+03 0.  0.
    9000005    1    3    3    0    0 -0.53862073423E+02 -0.13736635224E+02 -0.79693644074E+02  0.97169413945E+02  0.10000000000E+01 0.  0.
    9000005    1    3    3    0    0  0.53862073423E+02  0.13736635224E+02 -0.23396476303E+03  0.24047937217E+03  0.10000000000E+01 0.  0.
<mgrwt>
<rscale>  0 0.12500043E+03</rscale>
<asrwt>0</asrwt>
<pdfrwt beam="2">  1        4 0.50100547E-01 0.12500043E+03</pdfrwt>
<pdfrwt beam="1">  1       -4 0.18454140E-02 0.12500043E+03</pdfrwt>
<totfact> 0.71104393E+03</totfact>
</mgrwt>
</event>
<event>
 5    1  0.3514886E-002  0.1250000E+03  0.7818608E-02  0.1235069E+00
         -4   -1    0    0    0  501 -0.00000000000E+00  0.00000000000E+00  0.13287254131E+02  0.13347809646E+02  0.12700000000E+01 0. -1.
          4   -1    0    0  501    0  0.00000000000E+00 -0.00000000000E+00 -0.29325459714E+03  0.29325734713E+03  0.12700000000E+01 0. -1.
         25    2    1    2    0    0  0.00000000000E+00  0.00000000000E+00 -0.27996734301E+03  0.30660515677E+03  0.12500003603E+03 0.  0.
    9000005    1    3    3    0    0  0.37354280869E+02 -0.43704121433E+02 -0.20005872524E+03  0.20815831973E+03  0.10000000000E+01 0.  0.
    9000005    1    3    3    0    0 -0.37354280869E+02  0.43704121433E+02 -0.79908617774E+02  0.98446837044E+02  0.10000000000E+01 0.  0.
<mgrwt>
<rscale>  0 0.12500004E+03</rscale>
<asrwt>0</asrwt>
<pdfrwt beam="2">  1        4 0.45120957E-01 0.12500004E+03</pdfrwt>
<pdfrwt beam="1">  1       -4 0.20490628E-02 0.12500004E+03</pdfrwt>
<totfact> 0.74777642E+03</totfact>
</mgrwt>
</event>
<event>
 5    1  0.3514886E-002  0.1249999E+03  0.7818608E-02  0.1235069E+00
         -4   -1    0    0    0  501 -0.00000000000E+00  0.00000000000E+00  0.10573974442E+03  0.10574737089E+03  0.12700000000E+01 0. -1.
          4   -1    0    0  501    0  0.00000000000E+00 -0.00000000000E+00 -0.36922200883E+02  0.36944036298E+02  0.12700000000E+01 0. -1.
         25    2    1    2    0    0  0.00000000000E+00  0.00000000000E+00  0.68817543537E+02  0.14269140719E+03  0.12499993355E+03 0.  0.
    9000005    1    3    3    0    0  0.26679050437E+02  0.49466062515E+01  0.98670072908E+02  0.10233779328E+03  0.10000000000E+01 0.  0.
    9000005    1    3    3    0    0 -0.26679050437E+02 -0.49466062515E+01 -0.29852529371E+02  0.40353613908E+02  0.10000000000E+01 0.  0.
<mgrwt>
<rscale>  0 0.12499993E+03</rscale>
<asrwt>0</asrwt>
<pdfrwt beam="2">  1        4 0.56826050E-02 0.12499993E+03</pdfrwt>
<pdfrwt beam="1">  1       -4 0.16269919E-01 0.12499993E+03</pdfrwt>
<totfact> 0.10078122E+04</totfact>
</mgrwt>
</event>
<event>
 5    1  0.3514886E-002  0.1249887E+03  0.7818608E-02  0.1235087E+00
         -4   -1    0    0    0  501 -0.00000000000E+00  0.00000000000E+00  0.18828172234E+03  0.18828600550E+03  0.12700000000E+01 0.  1.
          4   -1    0    0  501    0  0.00000000000E+00 -0.00000000000E+00 -0.20719129489E+02  0.20758015965E+02  0.12700000000E+01 0.  1.
         25    2    1    2    0    0  0.00000000000E+00  0.00000000000E+00  0.16756259285E+03  0.20904402146E+03  0.12498872104E+03 0.  0.
    9000005    1    3    3    0    0 -0.60037290782E+02 -0.17319406055E+02  0.84328351344E+02  0.10496051139E+03  0.10000000000E+01 0.  0.
    9000005    1    3    3    0    0  0.60037290782E+02  0.17319406055E+02  0.83234241506E+02  0.10408351008E+03  0.10000000000E+01 0.  0.
<mgrwt>
<rscale>  0 0.12498872E+03</rscale>
<asrwt>0</asrwt>
<pdfrwt beam="2">  1        4 0.31908791E-02 0.12498872E+03</pdfrwt>
<pdfrwt beam="1">  1       -4 0.28969740E-01 0.12498872E+03</pdfrwt>
<totfact> 0.88654597E+03</totfact>
</mgrwt>
</event>
<event>
 5    1  0.3514886E-002  0.1249924E+03  0.7818608E-02  0.1235081E+00
          4   -1    0    0  501    0  0.00000000000E+00  0.00000000000E+00  0.16324766026E+03  0.16325260022E+03  0.12700000000E+01 0.  1.
         -4   -1    0    0    0  501 -0.00000000000E+00 -0.00000000000E+00 -0.23903289777E+02  0.23937004035E+02  0.12700000000E+01 0.  1.
         25    2    1    2    0    0  0.00000000000E+00  0.00000000000E+00  0.13934437048E+03  0.18718960426E+03  0.12499237720E+03 0.  0.
    9000005    1    3    3    0    0 -0.37138918408E+02 -0.22225054926E+02  0.13717297970E+03  0.14384254825E+03  0.10000000000E+01 0.  0.
    9000005    1    3    3    0    0  0.37138918408E+02  0.22225054926E+02  0.21713907851E+01  0.43347056013E+02  0.10000000000E+01 0.  0.
<mgrwt>
<rscale>  0 0.12499238E+03</rscale>
<asrwt>0</asrwt>
<pdfrwt beam="1">  1        4 0.25117999E-01 0.12499238E+03</pdfrwt>
<pdfrwt beam="2">  1       -4 0.36804024E-02 0.12499238E+03</pdfrwt>
<totfact> 0.92354398E+03</totfact>
</mgrwt>
</event>
<event>
 5    1  0.3514886E-002  0.1250067E+03  0.7818608E-02  0.1235059E+00
         -4   -1    0    0    0  501 -0.00000000000E+00  0.00000000000E+00  0.23310782790E+02  0.23345352734E+02  0.12700000000E+01 0. -1.
          4   -1    0    0  501    0  0.00000000000E+00 -0.00000000000E+00 -0.16742954668E+03  0.16743436327E+03  0.12700000000E+01 0. -1.
         25    2    1    2    0    0  0.00000000000E+00  0.00000000000E+00 -0.14411876389E+03  0.19077971600E+03  0.12500672754E+03 0.  0.
    9000005    1    3    3    0    0  0.18329090121E+02  0.54261477610E+02 -0.33893071752E+02  0.66558273790E+02  0.10000000000E+01 0.  0.
    9000005    1    3    3    0    0 -0.18329090121E+02 -0.54261477610E+02 -0.11022569214E+03  0.12422144221E+03  0.10000000000E+01 0.  0.
<mgrwt>
<rscale>  0 0.12500673E+03</rscale>
<asrwt>0</asrwt>
<pdfrwt beam="2">  1        4 0.25761421E-01 0.12500673E+03</pdfrwt>
<pdfrwt beam="1">  1       -4 0.35893041E-02 0.12500673E+03</pdfrwt>
<totfact> 0.91698006E+03</totfact>
</mgrwt>
</event>
<event>
 4    1  0.3514886E-002  0.1248788E+03  0.7818608E-02  0.1235259E+00
         -4   -1    0    0    0  501 -0.00000000000E+00  0.00000000000E+00  0.16665106813E+02  0.16713428286E+02  0.12700000000E+01 0. -1.
          4   -1    0    0  501    0  0.00000000000E+00 -0.00000000000E+00 -0.23355386479E+03  0.23355731772E+03  0.12700000000E+01 0. -1.
    9000005    1    1    2    0    0 -0.53104273544E+02 -0.98506422581E+01 -0.17120146043E+03  0.17952169527E+03  0.10000000000E+01 0.  0.
    9000005    1    1    2    0    0  0.53104273544E+02  0.98506422581E+01 -0.45687297552E+02  0.70749050729E+02  0.10000000000E+01 0.  0.
<mgrwt>
<rscale>  0 0.12487879E+03</rscale>
<asrwt>0</asrwt>
<pdfrwt beam="2">  1        4 0.35935344E-01 0.12487879E+03</pdfrwt>
<pdfrwt beam="1">  1       -4 0.25678454E-02 0.12487879E+03</pdfrwt>
<totfact> 0.82513695E+03</totfact>
</mgrwt>
</event>
<event>
 5    1  0.3514886E-002  0.1249997E+03  0.7818608E-02  0.1235070E+00
         -4   -1    0    0    0  501 -0.00000000000E+00  0.00000000000E+00  0.32414518845E+02  0.32439388588E+02  0.12700000000E+01 0. -1.
          4   -1    0    0  501    0  0.00000000000E+00 -0.00000000000E+00 -0.12043432802E+03  0.12044102401E+03  0.12700000000E+01 0. -1.
         25    2    1    2    0    0  0.00000000000E+00  0.00000000000E+00 -0.88019809171E+02  0.15288041260E+03  0.12499973500E+03 0.  0.
    9000005    1    3    3    0    0  0.25400662904E+02 -0.74696992320E+01  0.25221875767E+02  0.36580501634E+02  0.10000000000E+01 0.  0.
    9000005    1    3    3    0    0 -0.25400662904E+02  0.74696992320E+01 -0.11324168494E+03  0.11629991096E+03  0.10000000000E+01 0.  0.
<mgrwt>
<rscale>  0 0.12499973E+03</rscale>
<asrwt>0</asrwt>
<pdfrwt beam="2">  1        4 0.18530786E-01 0.12499973E+03</pdfrwt>
<pdfrwt beam="1">  1       -4 0.49892773E-02 0.12499973E+03</pdfrwt>
<totfact> 0.98733188E+03</totfact>
</mgrwt>
</event>
<event>
 5    1  0.3514886E-002  0.1250049E+03  0.7818608E-02  0.1235062E+00
         -4   -1    0    0    0  501 -0.00000000000E+00  0.00000000000E+00  0.92755453631E+01  0.93620853330E+01  0.12700000000E+01 0.  1.
          4   -1    0    0  501    0  0.00000000000E+00 -0.00000000000E+00 -0.41912386067E+03  0.41912578479E+03  0.12700000000E+01 0.  1.
         25    2    1    2    0    0  0.00000000000E+00  0.00000000000E+00 -0.40984831530E+03  0.42848787013E+03  0.12500485306E+03 0.  0.
    9000005    1    3    3    0    0  0.31365563122E+02  0.24951796846E+02 -0.36928429745E+03  0.37145428125E+03  0.10000000000E+01 0.  0.
    9000005    1    3    3    0    0 -0.31365563122E+02 -0.24951796846E+02 -0.40564017851E+02  0.57033588876E+02  0.10000000000E+01 0.  0.
<mgrwt>
<rscale>  0 0.12500485E+03</rscale>
<asrwt>0</asrwt>
<pdfrwt beam="2">  1        4 0.64487384E-01 0.12500485E+03</pdfrwt>
<pdfrwt beam="1">  1       -4 0.14338122E-02 0.12500485E+03</pdfrwt>
<totfact> 0.61866682E+03</totfact>
</mgrwt>
</event>
<event>
 5    1  0.3514886E-002  0.1250003E+03  0.7818608E-02  0.1235069E+00
          4   -1    0    0  501    0  0.00000000000E+00  0.00000000000E+00  0.78209686440E+02  0.78219997143E+02  0.12700000000E+01 0.  1.
         -4   -1    0    0    0  501 -0.00000000000E+00 -0.00000000000E+00 -0.49924437288E+02  0.49940588088E+02  0.12700000000E+01 0.  1.
         25    2    1    2    0    0  0.00000000000E+00  0.00000000000E+00  0.28285249152E+02  0.12816058523E+03  0.12500032115E+03 0.  0.
    9000005    1    3    3    0    0 -0.37157514109E+01 -0.59963468007E+02 -0.34923985535E+01  0.60188214391E+02  0.10000000000E+01 0.  0.
    9000005    1    3    3    0    0  0.37157514109E+01  0.59963468007E+02  0.31777647705E+02  0.67972370840E+02  0.10000000000E+01 0.  0.
<mgrwt>
<rscale>  0 0.12500032E+03</rscale>
<asrwt>0</asrwt>
<pdfrwt beam="1">  1        4 0.12034295E-01 0.12500032E+03</pdfrwt>
<pdfrwt beam="2">  1       -4 0.76827182E-02 0.12500032E+03</pdfrwt>
<totfact> 0.10383946E+04</totfact>
</mgrwt>
</event>
<event>
 5    1  0.3514886E-002  0.1249997E+03  0.7818608E-02  0.1235070E+00
         -4   -1    0    0    0  501 -0.00000000000E+00  0.00000000000E+00  0.41693570235E+02  0.41712908061E+02  0.12700000000E+01 0.  1.
          4   -1    0    0  501    0  0.00000000000E+00 -0.00000000000E+00 -0.93643678392E+02  0.93652289897E+02  0.12700000000E+01 0.  1.
         25    2    1    2    0    0  0.00000000000E+00  0.00000000000E+00 -0.51950108158E+02  0.13536519796E+03  0.12499969232E+03 0.  0.
    9000005    1    3    3    0    0  0.19282682794E+02 -0.45593337080E+01 -0.90157128466E+02  0.92314230716E+02  0.10000000000E+01 0.  0.
    9000005    1    3    3    0    0 -0.19282682794E+02  0.45593337080E+01  0.38207020308E+02  0.43050967241E+02  0.10000000000E+01 0.  0.
<mgrwt>
<rscale>  0 0.12499969E+03</rscale>
<asrwt>0</asrwt>
<pdfrwt beam="2">  1        4 0.14408870E-01 0.12499969E+03</pdfrwt>
<pdfrwt beam="1">  1       -4 0.64165454E-02 0.12499969E+03</pdfrwt>
<totfact> 0.10230450E+04</totfact>
</mgrwt>
</event>
<event>
 5    1  0.3514886E-002  0.1250002E+03  0.7818608E-02  0.1235069E+00
          4   -1    0    0  501    0  0.00000000000E+00  0.00000000000E+00  0.13159954858E+04  0.13159960986E+04  0.12700000000E+01 0. -1.
         -4   -1    0    0    0  501 -0.00000000000E+00 -0.00000000000E+00 -0.28318090390E+01  0.31035531948E+01  0.12700000000E+01 0. -1.
         25    2    1    2    0    0  0.00000000000E+00  0.00000000000E+00  0.13131636768E+04  0.13190996518E+04  0.12500019766E+03 0.  0.
    9000005    1    3    3    0    0  0.15247548685E+02 -0.48180708466E+02  0.26864779747E+03  0.27336149600E+03  0.10000000000E+01 0.  0.
    9000005    1    3    3    0    0 -0.15247548685E+02  0.48180708466E+02  0.10445158793E+04  0.10457381558E+04  0.10000000000E+01 0.  0.
<mgrwt>
<rscale>  0 0.12500020E+03</rscale>
<asrwt>0</asrwt>
<pdfrwt beam="1">  1        4 0.20248234E+00 0.12500020E+03</pdfrwt>
<pdfrwt beam="2">  1       -4 0.45661224E-03 0.12500020E+03</pdfrwt>
<totfact> 0.21782000E+03</totfact>
</mgrwt>
</event>
<event>
 5    1  0.3514886E-002  0.1250007E+03  0.7818608E-02  0.1235068E+00
         -4   -1    0    0    0  501 -0.00000000000E+00  0.00000000000E+00  0.79892029241E+02  0.79902122852E+02  0.12700000000E+01 0.  1.
          4   -1    0    0  501    0  0.00000000000E+00 -0.00000000000E+00 -0.48873224989E+02  0.48889723060E+02  0.12700000000E+01 0.  1.
         25    2    1    2    0    0  0.00000000000E+00  0.00000000000E+00  0.31018804252E+02  0.12879184591E+03  0.12500069342E+03 0.  0.
    9000005    1    3    3    0    0  0.11957289467E+01  0.46760588287E+02 -0.27187898146E+02  0.54112514174E+02  0.10000000000E+01 0.  0.
    9000005    1    3    3    0    0 -0.11957289467E+01 -0.46760588287E+02  0.58206702398E+02  0.74679331737E+02  0.10000000000E+01 0.  0.
<mgrwt>
<rscale>  0 0.12500069E+03</rscale>
<asrwt>0</asrwt>
<pdfrwt beam="2">  1        4 0.75210031E-02 0.12500069E+03</pdfrwt>
<pdfrwt beam="1">  1       -4 0.12293127E-01 0.12500069E+03</pdfrwt>
<totfact> 0.10370259E+04</totfact>
</mgrwt>
</event>
<event>
 5    1  0.3514886E-002  0.1249994E+03  0.7818608E-02  0.1235070E+00
          4   -1    0    0  501    0  0.00000000000E+00  0.00000000000E+00  0.41053673270E+01  0.42973178716E+01  0.12700000000E+01 0. -1.
         -4   -1    0    0    0  501 -0.00000000000E+00 -0.00000000000E+00 -0.92956147446E+03  0.92956234202E+03  0.12700000000E+01 0. -1.
         25    2    1    2    0    0  0.00000000000E+00  0.00000000000E+00 -0.92545610713E+03  0.93385965989E+03  0.12499943257E+03 0.  0.
    9000005    1    3    3    0    0  0.67015006767E+01  0.49855273123E+02 -0.18572381651E+03  0.19241827977E+03  0.10000000000E+01 0.  0.
    9000005    1    3    3    0    0 -0.67015006767E+01 -0.49855273123E+02 -0.73973229062E+03  0.74144138012E+03  0.10000000000E+01 0.  0.
<mgrwt>
<rscale>  0 0.12499943E+03</rscale>
<asrwt>0</asrwt>
<pdfrwt beam="1">  1        4 0.64642787E-03 0.12499943E+03</pdfrwt>
<pdfrwt beam="2">  1       -4 0.14302413E+00 0.12499943E+03</pdfrwt>
<totfact> 0.32896484E+03</totfact>
</mgrwt>
</event>
<event>
 5    1  0.3514886E-002  0.1249995E+03  0.7818608E-02  0.1235070E+00
         -4   -1    0    0    0  501 -0.00000000000E+00  0.00000000000E+00  0.10590027140E+02  0.10665907126E+02  0.12700000000E+01 0. -1.
          4   -1    0    0  501    0  0.00000000000E+00 -0.00000000000E+00 -0.36746454269E+03  0.36746673732E+03  0.12700000000E+01 0. -1.
         25    2    1    2    0    0  0.00000000000E+00  0.00000000000E+00 -0.35687451555E+03  0.37813264445E+03  0.12499950778E+03 0.  0.
    9000005    1    3    3    0    0 -0.38024347765E+02  0.47283956235E+02 -0.13320298748E+03  0.14637506418E+03  0.10000000000E+01 0.  0.
    9000005    1    3    3    0    0  0.38024347765E+02 -0.47283956235E+02 -0.22367152807E+03  0.23175758026E+03  0.10000000000E+01 0.  0.
<mgrwt>
<rscale>  0 0.12499951E+03</rscale>
<asrwt>0</asrwt>
<pdfrwt beam="2">  1        4 0.56539003E-01 0.12499951E+03</pdfrwt>
<pdfrwt beam="1">  1       -4 0.16352410E-02 0.12499951E+03</pdfrwt>
<totfact> 0.66737337E+03</totfact>
</mgrwt>
</event>
<event>
 5    1  0.3514886E-002  0.1250030E+03  0.7818608E-02  0.1235065E+00
         -4   -1    0    0    0  501 -0.00000000000E+00  0.00000000000E+00  0.34687953319E+02  0.34711194238E+02  0.12700000000E+01 0. -1.
          4   -1    0    0  501    0  0.00000000000E+00 -0.00000000000E+00 -0.11255201915E+03  0.11255918406E+03  0.12700000000E+01 0. -1.
         25    2    1    2    0    0  0.00000000000E+00  0.00000000000E+00 -0.77864065834E+02  0.14727037829E+03  0.12500300626E+03 0.  0.
    9000005    1    3    3    0    0 -0.37717698080E+02  0.49350019024E+02 -0.47042253225E+02  0.77923184705E+02  0.10000000000E+01 0.  0.
    9000005    1    3    3    0    0  0.37717698080E+02 -0.49350019024E+02 -0.30821812608E+02  0.69347193588E+02  0.10000000000E+01 0.  0.
<mgrwt>
<rscale>  0 0.12500301E+03</rscale>
<asrwt>0</asrwt>
<pdfrwt beam="2">  1        4 0.17318034E-01 0.12500301E+03</pdfrwt>
<pdfrwt beam="1">  1       -4 0.53389471E-02 0.12500301E+03</pdfrwt>
<totfact> 0.99843859E+03</totfact>
</mgrwt>
</event>
<event>
 5    1  0.3514886E-002  0.1250022E+03  0.7818608E-02  0.1235066E+00
         -4   -1    0    0    0  501 -0.00000000000E+00  0.00000000000E+00  0.60417463445E+02  0.60430809933E+02  0.12700000000E+01 0. -1.
          4   -1    0    0  501    0  0.00000000000E+00 -0.00000000000E+00 -0.64629850309E+02  0.64642327085E+02  0.12700000000E+01 0. -1.
         25    2    1    2    0    0  0.00000000000E+00  0.00000000000E+00 -0.42123868634E+01  0.12507313702E+03  0.12500218158E+03 0.  0.
    9000005    1    3    3    0    0 -0.41845974404E+02 -0.82022445351E+01 -0.47816082549E+02  0.64076049656E+02  0.10000000000E+01 0.  0.
    9000005    1    3    3    0    0  0.41845974404E+02  0.82022445351E+01  0.43603695685E+02  0.60997087362E+02  0.10000000000E+01 0.  0.
<mgrwt>
<rscale>  0 0.12500218E+03</rscale>
<asrwt>0</asrwt>
<pdfrwt beam="2">  1        4 0.99450403E-02 0.12500218E+03</pdfrwt>
<pdfrwt beam="1">  1       -4 0.92969808E-02 0.12500218E+03</pdfrwt>
<totfact> 0.10450759E+04</totfact>
</mgrwt>
</event>
<event>
 5    1  0.3514886E-002  0.1249965E+03  0.7818608E-02  0.1235075E+00
         -4   -1    0    0    0  501 -0.00000000000E+00  0.00000000000E+00  0.13545260319E+01  0.18567823704E+01  0.12700000000E+01 0.  1.
          4   -1    0    0  501    0  0.00000000000E+00 -0.00000000000E+00 -0.24321692901E+04  0.24321696217E+04  0.12700000000E+01 0.  1.
         25    2    1    2    0    0  0.00000000000E+00  0.00000000000E+00 -0.24308147641E+04  0.24340264040E+04  0.12499647349E+03 0.  0.
    9000005    1    3    3    0    0 -0.30581213644E+02  0.44373508174E+02 -0.59937505426E+03  0.60179371426E+03  0.10000000000E+01 0.  0.
    9000005    1    3    3    0    0  0.30581213644E+02 -0.44373508174E+02 -0.18314397098E+04  0.18322326898E+04  0.10000000000E+01 0.  0.
<mgrwt>
<rscale>  0 0.12499647E+03</rscale>
<asrwt>0</asrwt>
<pdfrwt beam="2">  1        4 0.37421560E+00 0.12499647E+03</pdfrwt>
<pdfrwt beam="1">  1       -4 0.24705118E-03 0.12499647E+03</pdfrwt>
<totfact> 0.52091810E+02</totfact>
</mgrwt>
</event>
<event>
 5    1  0.3514886E-002  0.1250012E+03  0.7818608E-02  0.1235067E+00
          4   -1    0    0  501    0  0.00000000000E+00  0.00000000000E+00  0.22697919716E+02  0.22733421639E+02  0.12700000000E+01 0. -1.
         -4   -1    0    0    0  501 -0.00000000000E+00 -0.00000000000E+00 -0.17192816384E+03  0.17193285440E+03  0.12700000000E+01 0. -1.
         25    2    1    2    0    0  0.00000000000E+00  0.00000000000E+00 -0.14923024412E+03  0.19466627604E+03  0.12500117305E+03 0.  0.
    9000005    1    3    3    0    0  0.46122849846E+02 -0.26291504132E+02 -0.23276521735E+02  0.57977210450E+02  0.10000000000E+01 0.  0.
    9000005    1    3    3    0    0 -0.46122849846E+02  0.26291504132E+02 -0.12595372239E+03  0.13668906559E+03  0.10000000000E+01 0.  0.
<mgrwt>
<rscale>  0 0.12500117E+03</rscale>
<asrwt>0</asrwt>
<pdfrwt beam="1">  1        4 0.34950795E-02 0.12500117E+03</pdfrwt>
<pdfrwt beam="2">  1       -4 0.26453578E-01 0.12500117E+03</pdfrwt>
<totfact> 0.91039287E+03</totfact>
</mgrwt>
</event>
<event>
 4    1  0.3514886E-002  0.1251024E+03  0.7818608E-02  0.1234909E+00
         -4   -1    0    0    0  501 -0.00000000000E+00  0.00000000000E+00  0.88752105846E+03  0.88752196711E+03  0.12700000000E+01 0.  1.
          4   -1    0    0  501    0  0.00000000000E+00 -0.00000000000E+00 -0.43161267078E+01  0.44990943264E+01  0.12700000000E+01 0.  1.
    9000005    1    1    2    0    0  0.48381676255E+02  0.38463678788E+02  0.50977614840E+03  0.51351043092E+03  0.10000000000E+01 0.  0.
    9000005    1    1    2    0    0 -0.48381676255E+02 -0.38463678788E+02  0.37342878335E+03  0.37851063052E+03  0.10000000000E+01 0.  0.
<mgrwt>
<rscale>  0 0.12510245E+03</rscale>
<asrwt>0</asrwt>
<pdfrwt beam="2">  1        4 0.67816385E-03 0.12510245E+03</pdfrwt>
<pdfrwt beam="1">  1       -4 0.13655584E+00 0.12510245E+03</pdfrwt>
<totfact> 0.34389677E+03</totfact>
</mgrwt>
</event>
<event>
 5    1  0.3514886E-002  0.1250005E+03  0.7818608E-02  0.1235069E+00
          4   -1    0    0  501    0  0.00000000000E+00  0.00000000000E+00  0.13498614014E+03  0.13499211433E+03  0.12700000000E+01 0.  1.
         -4   -1    0    0    0  501 -0.00000000000E+00 -0.00000000000E+00 -0.28917821296E+02  0.28945695509E+02  0.12700000000E+01 0.  1.
         25    2    1    2    0    0  0.00000000000E+00  0.00000000000E+00  0.10606831885E+03  0.16393780983E+03  0.12500046892E+03 0.  0.
    9000005    1    3    3    0    0  0.33563247051E+02  0.40987480315E+02  0.95601574661E+01  0.53841078239E+02  0.10000000000E+01 0.  0.
    9000005    1    3    3    0    0 -0.33563247051E+02 -0.40987480315E+02  0.96508161379E+02  0.11009673160E+03  0.10000000000E+01 0.  0.
<mgrwt>
<rscale>  0 0.12500047E+03</rscale>
<asrwt>0</asrwt>
<pdfrwt beam="1">  1        4 0.20769702E-01 0.12500047E+03</pdfrwt>
<pdfrwt beam="2">  1       -4 0.44514993E-02 0.12500047E+03</pdfrwt>
<totfact> 0.96587915E+03</totfact>
</mgrwt>
</event>
<event>
 5    1  0.3514886E-002  0.1249993E+03  0.7818608E-02  0.1235070E+00
         -4   -1    0    0    0  501 -0.00000000000E+00  0.00000000000E+00  0.96791288055E+02  0.96799619541E+02  0.12700000000E+01 0.  1.
          4   -1    0    0  501    0  0.00000000000E+00 -0.00000000000E+00 -0.40336919681E+02  0.40356907579E+02  0.12700000000E+01 0.  1.
         25    2    1    2    0    0  0.00000000000E+00  0.00000000000E+00  0.56454368374E+02  0.13715652712E+03  0.12499926889E+03 0.  0.
    9000005    1    3    3    0    0 -0.78336195660E+01  0.95961274989E+01  0.95435982313E+02  0.96241768368E+02  0.10000000000E+01 0.  0.
    9000005    1    3    3    0    0  0.78336195660E+01 -0.95961274989E+01 -0.38981613939E+02  0.40914758753E+02  0.10000000000E+01 0.  0.
<mgrwt>
<rscale>  0 0.12499927E+03</rscale>
<asrwt>0</asrwt>
<pdfrwt beam="2">  1        4 0.62078585E-02 0.12499927E+03</pdfrwt>
<pdfrwt beam="1">  1       -4 0.14893146E-01 0.12499927E+03</pdfrwt>
<totfact> 0.10192982E+04</totfact>
</mgrwt>
</event>
<event>
 5    1  0.3514886E-002  0.1250067E+03  0.7818608E-02  0.1235059E+00
         -4   -1    0    0    0  501 -0.00000000000E+00  0.00000000000E+00  0.60446549299E+01  0.61766296005E+01  0.12700000000E+01 0. -1.
          4   -1    0    0  501    0  0.00000000000E+00 -0.00000000000E+00 -0.63918971564E+03  0.63919097732E+03  0.12700000000E+01 0. -1.
         25    2    1    2    0    0  0.00000000000E+00  0.00000000000E+00 -0.63314506071E+03  0.64536760692E+03  0.12500672043E+03 0.  0.
    9000005    1    3    3    0    0 -0.14804271052E+01 -0.81092712824E+01 -0.63639600426E+03  0.63645017572E+03  0.10000000000E+01 0.  0.
    9000005    1    3    3    0    0  0.14804271052E+01  0.81092712824E+01  0.32509435447E+01  0.89174311927E+01  0.10000000000E+01 0.  0.
<mgrwt>
<rscale>  0 0.12500672E+03</rscale>
<asrwt>0</asrwt>
<pdfrwt beam="2">  1        4 0.98347076E-01 0.12500672E+03</pdfrwt>
<pdfrwt beam="1">  1       -4 0.94019636E-03 0.12500672E+03</pdfrwt>
<totfact> 0.46116738E+03</totfact>
</mgrwt>
</event>
<event>
 5    1  0.3514886E-002  0.1249972E+03  0.7818608E-02  0.1235074E+00
         -4   -1    0    0    0  501 -0.00000000000E+00  0.00000000000E+00  0.36280958799E+01  0.38439536566E+01  0.12700000000E+01 0.  1.
          4   -1    0    0  501    0  0.00000000000E+00 -0.00000000000E+00 -0.10453005960E+04  0.10453013675E+04  0.12700000000E+01 0.  1.
         25    2    1    2    0    0  0.00000000000E+00  0.00000000000E+00 -0.10416725002E+04  0.10491453212E+04  0.12499722957E+03 0.  0.
    9000005    1    3    3    0    0 -0.52595488171E+01 -0.62268805523E+02 -0.52000303077E+03  0.52374537612E+03  0.10000000000E+01 0.  0.
    9000005    1    3    3    0    0  0.52595488171E+01  0.62268805523E+02 -0.52166946938E+03  0.52539994507E+03  0.10000000000E+01 0.  0.
<mgrwt>
<rscale>  0 0.12499723E+03</rscale>
<asrwt>0</asrwt>
<pdfrwt beam="2">  1        4 0.16083191E+00 0.12499723E+03</pdfrwt>
<pdfrwt beam="1">  1       -4 0.57483322E-03 0.12499723E+03</pdfrwt>
<totfact> 0.29023268E+03</totfact>
</mgrwt>
</event>
<event>
 5    1  0.3514886E-002  0.1250036E+03  0.7818608E-02  0.1235064E+00
          4   -1    0    0  501    0  0.00000000000E+00  0.00000000000E+00  0.67322727327E+02  0.67334705129E+02  0.12700000000E+01 0. -1.
         -4   -1    0    0    0  501 -0.00000000000E+00 -0.00000000000E+00 -0.58001961525E+02  0.58015863699E+02  0.12700000000E+01 0. -1.
         25    2    1    2    0    0  0.00000000000E+00  0.00000000000E+00  0.93207658019E+01  0.12535056883E+03  0.12500355367E+03 0.  0.
    9000005    1    3    3    0    0  0.19230243416E+02 -0.55630789247E+02  0.25715937104E+02  0.64240924613E+02  0.10000000000E+01 0.  0.
    9000005    1    3    3    0    0 -0.19230243416E+02  0.55630789247E+02 -0.16395171302E+02  0.61109644215E+02  0.10000000000E+01 0.  0.
<mgrwt>
<rscale>  0 0.12500355E+03</rscale>
<asrwt>0</asrwt>
<pdfrwt beam="1">  1        4 0.10359333E-01 0.12500355E+03</pdfrwt>
<pdfrwt beam="2">  1       -4 0.89253694E-02 0.12500355E+03</pdfrwt>
<totfact> 0.10444414E+04</totfact>
</mgrwt>
</event>
<event>
 5    1  0.3514886E-002  0.1249713E+03  0.7818608E-02  0.1235114E+00
          4   -1    0    0  501    0  0.00000000000E+00  0.00000000000E+00  0.83067681633E+02  0.83077389415E+02  0.12700000000E+01 0.  1.
         -4   -1    0    0    0  501 -0.00000000000E+00 -0.00000000000E+00 -0.46982262322E+02  0.46999424176E+02  0.12700000000E+01 0.  1.
         25    2    1    2    0    0  0.00000000000E+00  0.00000000000E+00  0.36085419311E+02  0.13007681359E+03  0.12497127649E+03 0.  0.
    9000005    1    3    3    0    0  0.59238524043E+02  0.19542044766E+02  0.21702127157E+02  0.66053588605E+02  0.10000000000E+01 0.  0.
    9000005    1    3    3    0    0 -0.59238524043E+02 -0.19542044766E+02  0.14383292155E+02  0.64023224986E+02  0.10000000000E+01 0.  0.
<mgrwt>
<rscale>  0 0.12497128E+03</rscale>
<asrwt>0</asrwt>
<pdfrwt beam="1">  1        4 0.12781710E-01 0.12497128E+03</pdfrwt>
<pdfrwt beam="2">  1       -4 0.72301073E-02 0.12497128E+03</pdfrwt>
<totfact> 0.10349573E+04</totfact>
</mgrwt>
</event>
<event>
 5    1  0.3514886E-002  0.1249990E+03  0.7818608E-02  0.1235071E+00
          4   -1    0    0  501    0  0.00000000000E+00  0.00000000000E+00  0.13455141711E+02  0.13514945004E+02  0.12700000000E+01 0.  1.
         -4   -1    0    0    0  501 -0.00000000000E+00 -0.00000000000E+00 -0.28960701204E+03  0.28960979666E+03  0.12700000000E+01 0.  1.
         25    2    1    2    0    0  0.00000000000E+00  0.00000000000E+00 -0.27615187033E+03  0.30312474166E+03  0.12499901409E+03 0.  0.
    9000005    1    3    3    0    0 -0.45061713150E+02  0.42940461543E+02 -0.12462918792E+03  0.13931215206E+03  0.10000000000E+01 0.  0.
    9000005    1    3    3    0    0  0.45061713150E+02 -0.42940461543E+02 -0.15152268240E+03  0.16381258960E+03  0.10000000000E+01 0.  0.
<mgrwt>
<rscale>  0 0.12499901E+03</rscale>
<asrwt>0</asrwt>
<pdfrwt beam="1">  1        4 0.20748365E-02 0.12499901E+03</pdfrwt>
<pdfrwt beam="2">  1       -4 0.44559735E-01 0.12499901E+03</pdfrwt>
<totfact> 0.75210189E+03</totfact>
</mgrwt>
</event>
<event>
 5    1  0.3514886E-002  0.1249986E+03  0.7818608E-02  0.1235072E+00
          4   -1    0    0  501    0  0.00000000000E+00  0.00000000000E+00  0.63096494165E+02  0.63109274088E+02  0.12700000000E+01 0. -1.
         -4   -1    0    0    0  501 -0.00000000000E+00 -0.00000000000E+00 -0.61882171916E+02  0.61895202569E+02  0.12700000000E+01 0. -1.
         25    2    1    2    0    0  0.00000000000E+00  0.00000000000E+00  0.12143222490E+01  0.12500447666E+03  0.12499857841E+03 0.  0.
    9000005    1    3    3    0    0 -0.15634717492E+02 -0.40715925480E+02 -0.44149058550E+02  0.62067466112E+02  0.10000000000E+01 0.  0.
    9000005    1    3    3    0    0  0.15634717492E+02  0.40715925480E+02  0.45363380799E+02  0.62937010544E+02  0.10000000000E+01 0.  0.
<mgrwt>
<rscale>  0 0.12499858E+03</rscale>
<asrwt>0</asrwt>
<pdfrwt beam="1">  1        4 0.97091384E-02 0.12499858E+03</pdfrwt>
<pdfrwt beam="2">  1       -4 0.95223196E-02 0.12499858E+03</pdfrwt>
<totfact> 0.10453101E+04</totfact>
</mgrwt>
</event>
<event>
 5    1  0.3514886E-002  0.1250014E+03  0.7818608E-02  0.1235067E+00
         -4   -1    0    0    0  501 -0.00000000000E+00  0.00000000000E+00  0.32845621767E+02  0.32870165336E+02  0.12700000000E+01 0.  1.
          4   -1    0    0  501    0  0.00000000000E+00 -0.00000000000E+00 -0.11885793506E+03  0.11886471985E+03  0.12700000000E+01 0.  1.
         25    2    1    2    0    0  0.00000000000E+00  0.00000000000E+00 -0.86012313291E+02  0.15173488519E+03  0.12500142938E+03 0.  0.
    9000005    1    3    3    0    0  0.10769980088E+02  0.61441466627E+02 -0.47595312728E+02  0.78468847870E+02  0.10000000000E+01 0.  0.
    9000005    1    3    3    0    0 -0.10769980088E+02 -0.61441466627E+02 -0.38417000563E+02  0.73266037321E+02  0.10000000000E+01 0.  0.
<mgrwt>
<rscale>  0 0.12500143E+03</rscale>
<asrwt>0</asrwt>
<pdfrwt beam="2">  1        4 0.18288246E-01 0.12500143E+03</pdfrwt>
<pdfrwt beam="1">  1       -4 0.50555825E-02 0.12500143E+03</pdfrwt>
<totfact> 0.98955810E+03</totfact>
</mgrwt>
</event>
<event>
 5    1  0.3514886E-002  0.1249927E+03  0.7818608E-02  0.1235081E+00
          4   -1    0    0  501    0  0.00000000000E+00  0.00000000000E+00  0.39223640220E+02  0.39244195139E+02  0.12700000000E+01 0.  1.
         -4   -1    0    0    0  501 -0.00000000000E+00 -0.00000000000E+00 -0.99526846070E+02  0.99534948579E+02  0.12700000000E+01 0.  1.
         25    2    1    2    0    0  0.00000000000E+00  0.00000000000E+00 -0.60303205850E+02  0.13877914372E+03  0.12499269617E+03 0.  0.
    9000005    1    3    3    0    0 -0.27748106100E+02  0.55413647441E+02 -0.21257858692E+02  0.65525004930E+02  0.10000000000E+01 0.  0.
    9000005    1    3    3    0    0  0.27748106100E+02 -0.55413647441E+02 -0.39045347159E+02  0.73254138788E+02  0.10000000000E+01 0.  0.
<mgrwt>
<rscale>  0 0.12499270E+03</rscale>
<asrwt>0</asrwt>
<pdfrwt beam="1">  1        4 0.60366106E-02 0.12499270E+03</pdfrwt>
<pdfrwt beam="2">  1       -4 0.15314027E-01 0.12499270E+03</pdfrwt>
<totfact> 0.10160624E+04</totfact>
</mgrwt>
</event>
<event>
 5    1  0.3514886E-002  0.1249918E+03  0.7818608E-02  0.1235082E+00
          4   -1    0    0  501    0  0.00000000000E+00  0.00000000000E+00  0.28391529648E+02  0.28419920051E+02  0.12700000000E+01 0.  1.
         -4   -1    0    0    0  501 -0.00000000000E+00 -0.00000000000E+00 -0.13746686876E+03  0.13747273513E+03  0.12700000000E+01 0.  1.
         25    2    1    2    0    0  0.00000000000E+00  0.00000000000E+00 -0.10907533911E+03  0.16589265519E+03  0.12499177350E+03 0.  0.
    9000005    1    3    3    0    0 -0.13760062598E+02 -0.36425579990E+02 -0.11940336034E+03  0.12559587836E+03  0.10000000000E+01 0.  0.
    9000005    1    3    3    0    0  0.13760062598E+02  0.36425579990E+02  0.10328021230E+02  0.40296776829E+02  0.10000000000E+01 0.  0.
<mgrwt>
<rscale>  0 0.12499177E+03</rscale>
<asrwt>0</asrwt>
<pdfrwt beam="1">  1        4 0.43705629E-02 0.12499177E+03</pdfrwt>
<pdfrwt beam="2">  1       -4 0.21151384E-01 0.12499177E+03</pdfrwt>
<totfact> 0.96236387E+03</totfact>
</mgrwt>
</event>
<event>
 5    1  0.3514886E-002  0.1250005E+03  0.7818608E-02  0.1235069E+00
         -4   -1    0    0    0  501 -0.00000000000E+00  0.00000000000E+00  0.78744096767E+02  0.78754337504E+02  0.12700000000E+01 0.  1.
          4   -1    0    0  501    0  0.00000000000E+00 -0.00000000000E+00 -0.49585691945E+02  0.49601953043E+02  0.12700000000E+01 0.  1.
         25    2    1    2    0    0  0.00000000000E+00  0.00000000000E+00  0.29158404822E+02  0.12835629055E+03  0.12500049900E+03 0.  0.
    9000005    1    3    3    0    0 -0.97759141892E+01 -0.43628816162E+01  0.77800565557E+02  0.78539997678E+02  0.10000000000E+01 0.  0.
    9000005    1    3    3    0    0  0.97759141892E+01  0.43628816162E+01 -0.48642160735E+02  0.49816292869E+02  0.10000000000E+01 0.  0.
<mgrwt>
<rscale>  0 0.12500050E+03</rscale>
<asrwt>0</asrwt>
<pdfrwt beam="2">  1        4 0.76306067E-02 0.12500050E+03</pdfrwt>
<pdfrwt beam="1">  1       -4 0.12116515E-01 0.12500050E+03</pdfrwt>
<totfact> 0.10379683E+04</totfact>
</mgrwt>
</event>
<event>
 5    1  0.3514886E-002  0.1250076E+03  0.7818608E-02  0.1235057E+00
         -4   -1    0    0    0  501 -0.00000000000E+00  0.00000000000E+00  0.49994285534E+03  0.49994446842E+03  0.12700000000E+01 0.  1.
          4   -1    0    0  501    0  0.00000000000E+00 -0.00000000000E+00 -0.77611023834E+01  0.78643251590E+01  0.12700000000E+01 0.  1.
         25    2    1    2    0    0  0.00000000000E+00  0.00000000000E+00  0.49218175296E+03  0.50780879358E+03  0.12500757135E+03 0.  0.
    9000005    1    3    3    0    0  0.56523455153E+02 -0.11117037019E+01  0.35430065983E+03  0.35878418920E+03  0.10000000000E+01 0.  0.
    9000005    1    3    3    0    0 -0.56523455153E+02  0.11117037019E+01  0.13788109313E+03  0.14902460438E+03  0.10000000000E+01 0.  0.
<mgrwt>
<rscale>  0 0.12500757E+03</rscale>
<asrwt>0</asrwt>
<pdfrwt beam="2">  1        4 0.12020799E-02 0.12500757E+03</pdfrwt>
<pdfrwt beam="1">  1       -4 0.76922356E-01 0.12500757E+03</pdfrwt>
<totfact> 0.55254348E+03</totfact>
</mgrwt>
</event>
<event>
 5    1  0.3514886E-002  0.1249941E+03  0.7818608E-02  0.1235079E+00
          4   -1    0    0  501    0  0.00000000000E+00  0.00000000000E+00  0.75256591233E+02  0.75267306475E+02  0.12700000000E+01 0.  1.
         -4   -1    0    0    0  501 -0.00000000000E+00 -0.00000000000E+00 -0.51878633361E+02  0.51894175969E+02  0.12700000000E+01 0.  1.
         25    2    1    2    0    0  0.00000000000E+00  0.00000000000E+00  0.23377957871E+02  0.12716148244E+03  0.12499405467E+03 0.  0.
    9000005    1    3    3    0    0  0.24001564235E+02 -0.50734570279E+02 -0.16261168592E+02  0.58442256212E+02  0.10000000000E+01 0.  0.
    9000005    1    3    3    0    0 -0.24001564235E+02  0.50734570279E+02  0.39639126464E+02  0.68719226232E+02  0.10000000000E+01 0.  0.
<mgrwt>
<rscale>  0 0.12499405E+03</rscale>
<asrwt>0</asrwt>
<pdfrwt beam="1">  1        4 0.11579957E-01 0.12499405E+03</pdfrwt>
<pdfrwt beam="2">  1       -4 0.79833480E-02 0.12499405E+03</pdfrwt>
<totfact> 0.10407036E+04</totfact>
</mgrwt>
</event>
<event>
 5    1  0.3514886E-002  0.1249555E+03  0.7818608E-02  0.1235139E+00
          4   -1    0    0  501    0  0.00000000000E+00  0.00000000000E+00  0.31873016169E+02  0.31898308101E+02  0.12700000000E+01 0.  1.
         -4   -1    0    0    0  501 -0.00000000000E+00 -0.00000000000E+00 -0.12239219886E+03  0.12239878774E+03  0.12700000000E+01 0.  1.
         25    2    1    2    0    0  0.00000000000E+00  0.00000000000E+00 -0.90519182688E+02  0.15429709584E+03  0.12495547748E+03 0.  0.
    9000005    1    3    3    0    0 -0.56620333704E+02  0.21219809707E+02 -0.64639734730E+02  0.88518008443E+02  0.10000000000E+01 0.  0.
    9000005    1    3    3    0    0  0.56620333704E+02 -0.21219809707E+02 -0.25879447958E+02  0.65779087402E+02  0.10000000000E+01 0.  0.
<mgrwt>
<rscale>  0 0.12495548E+03</rscale>
<asrwt>0</asrwt>
<pdfrwt beam="1">  1        4 0.49059934E-02 0.12495548E+03</pdfrwt>
<pdfrwt beam="2">  1       -4 0.18832021E-01 0.12495548E+03</pdfrwt>
<totfact> 0.98552319E+03</totfact>
</mgrwt>
</event>
<event>
 5    1  0.3514886E-002  0.1249964E+03  0.7818608E-02  0.1235075E+00
         -4   -1    0    0    0  501 -0.00000000000E+00  0.00000000000E+00  0.24981458354E+03  0.24981781172E+03  0.12700000000E+01 0.  1.
          4   -1    0    0  501    0  0.00000000000E+00 -0.00000000000E+00 -0.15606582504E+02  0.15658170948E+02  0.12700000000E+01 0.  1.
         25    2    1    2    0    0  0.00000000000E+00  0.00000000000E+00  0.23420800104E+03  0.26547598267E+03  0.12499643843E+03 0.  0.
    9000005    1    3    3    0    0 -0.38278832628E+02 -0.49096532692E+02  0.12859820182E+03  0.14287839606E+03  0.10000000000E+01 0.  0.
    9000005    1    3    3    0    0  0.38278832628E+02  0.49096532692E+02  0.10560979922E+03  0.12259758660E+03  0.10000000000E+01 0.  0.
<mgrwt>
<rscale>  0 0.12499644E+03</rscale>
<asrwt>0</asrwt>
<pdfrwt beam="2">  1        4 0.24052293E-02 0.12499644E+03</pdfrwt>
<pdfrwt beam="1">  1       -4 0.38437231E-01 0.12499644E+03</pdfrwt>
<totfact> 0.80150023E+03</totfact>
</mgrwt>
</event>
<event>
 5    1  0.3514886E-002  0.1249929E+03  0.7818608E-02  0.1235080E+00
         -4   -1    0    0    0  501 -0.00000000000E+00  0.00000000000E+00  0.85563139994E+02  0.85572564679E+02  0.12700000000E+01 0.  1.
          4   -1    0    0  501    0  0.00000000000E+00 -0.00000000000E+00 -0.45627465853E+02  0.45645137092E+02  0.12700000000E+01 0.  1.
         25    2    1    2    0    0  0.00000000000E+00  0.00000000000E+00  0.39935674141E+02  0.13121770177E+03  0.12499290855E+03 0.  0.
    9000005    1    3    3    0    0  0.22178613633E+02 -0.52873300567E+02  0.46051329335E+02  0.73547275606E+02  0.10000000000E+01 0.  0.
    9000005    1    3    3    0    0 -0.22178613633E+02  0.52873300567E+02 -0.61156551939E+01  0.57670426165E+02  0.10000000000E+01 0.  0.
<mgrwt>
<rscale>  0 0.12499291E+03</rscale>
<asrwt>0</asrwt>
<pdfrwt beam="2">  1        4 0.70216946E-02 0.12499291E+03</pdfrwt>
<pdfrwt beam="1">  1       -4 0.13165644E-01 0.12499291E+03</pdfrwt>
<totfact> 0.10320075E+04</totfact>
</mgrwt>
</event>
<event>
 5    1  0.3514886E-002  0.1249980E+03  0.7818608E-02  0.1235072E+00
         -4   -1    0    0    0  501 -0.00000000000E+00  0.00000000000E+00  0.30467125896E+02  0.30493583921E+02  0.12700000000E+01 0. -1.
          4   -1    0    0  501    0  0.00000000000E+00 -0.00000000000E+00 -0.12812251556E+03  0.12812880977E+03  0.12700000000E+01 0. -1.
         25    2    1    2    0    0  0.00000000000E+00  0.00000000000E+00 -0.97655389667E+02  0.15862239369E+03  0.12499795458E+03 0.  0.
    9000005    1    3    3    0    0  0.25383771342E+02 -0.48262337300E+02 -0.87558875995E+02  0.10315592961E+03  0.10000000000E+01 0.  0.
    9000005    1    3    3    0    0 -0.25383771342E+02  0.48262337300E+02 -0.10096513671E+02  0.55466464080E+02  0.10000000000E+01 0.  0.
<mgrwt>
<rscale>  0 0.12499795E+03</rscale>
<asrwt>0</asrwt>
<pdfrwt beam="2">  1        4 0.19713675E-01 0.12499795E+03</pdfrwt>
<pdfrwt beam="1">  1       -4 0.46897696E-02 0.12499795E+03</pdfrwt>
<totfact> 0.97613524E+03</totfact>
</mgrwt>
</event>
<event>
 5    1  0.3514886E-002  0.1250024E+03  0.7818608E-02  0.1235066E+00
          4   -1    0    0  501    0  0.00000000000E+00  0.00000000000E+00  0.61184553052E+03  0.61184684858E+03  0.12700000000E+01 0. -1.
         -4   -1    0    0    0  501 -0.00000000000E+00 -0.00000000000E+00 -0.63201250173E+01  0.64464626141E+01  0.12700000000E+01 0. -1.
         25    2    1    2    0    0  0.00000000000E+00  0.00000000000E+00  0.60552540550E+03  0.61829331119E+03  0.12500240781E+03 0.  0.
    9000005    1    3    3    0    0 -0.42220263399E+02 -0.41121576536E+02  0.19997277238E+03  0.20847936203E+03  0.10000000000E+01 0.  0.
    9000005    1    3    3    0    0  0.42220263399E+02  0.41121576536E+02  0.40555263312E+03  0.40981394916E+03  0.10000000000E+01 0.  0.
<mgrwt>
<rscale>  0 0.12500241E+03</rscale>
<asrwt>0</asrwt>
<pdfrwt beam="1">  1        4 0.94139875E-01 0.12500241E+03</pdfrwt>
<pdfrwt beam="2">  1       -4 0.98214687E-03 0.12500241E+03</pdfrwt>
<totfact> 0.47730366E+03</totfact>
</mgrwt>
</event>
<event>
 5    1  0.3514886E-002  0.1250017E+03  0.7818608E-02  0.1235067E+00
         -4   -1    0    0    0  501 -0.00000000000E+00  0.00000000000E+00  0.52482960941E+02  0.52498324631E+02  0.12700000000E+01 0.  1.
          4   -1    0    0  501    0  0.00000000000E+00 -0.00000000000E+00 -0.74399226948E+02  0.74410065653E+02  0.12700000000E+01 0.  1.
         25    2    1    2    0    0  0.00000000000E+00  0.00000000000E+00 -0.21916266008E+02  0.12690839028E+03  0.12500166722E+03 0.  0.
    9000005    1    3    3    0    0  0.46824284268E+02 -0.40581398483E+02 -0.27107549160E+01  0.62029925781E+02  0.10000000000E+01 0.  0.
    9000005    1    3    3    0    0 -0.46824284268E+02  0.40581398483E+02 -0.19205511092E+02  0.64878464504E+02  0.10000000000E+01 0.  0.
<mgrwt>
<rscale>  0 0.12500167E+03</rscale>
<asrwt>0</asrwt>
<pdfrwt beam="2">  1        4 0.11448050E-01 0.12500167E+03</pdfrwt>
<pdfrwt beam="1">  1       -4 0.80763172E-02 0.12500167E+03</pdfrwt>
<totfact> 0.10410745E+04</totfact>
</mgrwt>
</event>
<event>
 5    1  0.3514886E-002  0.1249984E+03  0.7818608E-02  0.1235072E+00
         -4   -1    0    0    0  501 -0.00000000000E+00  0.00000000000E+00  0.55683917726E+03  0.55684062552E+03  0.12700000000E+01 0. -1.
          4   -1    0    0  501    0  0.00000000000E+00 -0.00000000000E+00 -0.69559074735E+01  0.70708944823E+01  0.12700000000E+01 0. -1.
         25    2    1    2    0    0  0.00000000000E+00  0.00000000000E+00  0.54988326978E+03  0.56391152000E+03  0.12499836800E+03 0.  0.
    9000005    1    3    3    0    0 -0.16628810581E+02  0.36825223892E+02  0.49000269151E+03  0.49166681009E+03  0.10000000000E+01 0.  0.
    9000005    1    3    3    0    0  0.16628810581E+02 -0.36825223892E+02  0.59880578276E+02  0.72244709914E+02  0.10000000000E+01 0.  0.
<mgrwt>
<rscale>  0 0.12499837E+03</rscale>
<asrwt>0</asrwt>
<pdfrwt beam="2">  1        4 0.10790955E-02 0.12499837E+03</pdfrwt>
<pdfrwt beam="1">  1       -4 0.85676573E-01 0.12499837E+03</pdfrwt>
<totfact> 0.51229658E+03</totfact>
</mgrwt>
</event>
<event>
 5    1  0.3514886E-002  0.1250003E+03  0.7818608E-02  0.1235069E+00
         -4   -1    0    0    0  501 -0.00000000000E+00  0.00000000000E+00  0.40266859712E+03  0.40267059988E+03  0.12700000000E+01 0.  1.
          4   -1    0    0  501    0  0.00000000000E+00 -0.00000000000E+00 -0.96573534146E+01  0.97405017825E+01  0.12700000000E+01 0.  1.
         25    2    1    2    0    0  0.00000000000E+00  0.00000000000E+00  0.39301124370E+03  0.41241110166E+03  0.12500031638E+03 0.  0.
    9000005    1    3    3    0    0  0.50818171949E+02  0.32653739624E+02  0.24934733095E+03  0.25656158084E+03  0.10000000000E+01 0.  0.
    9000005    1    3    3    0    0 -0.50818171949E+02 -0.32653739624E+02  0.14366391275E+03  0.15584952082E+03  0.10000000000E+01 0.  0.
<mgrwt>
<rscale>  0 0.12500032E+03</rscale>
<asrwt>0</asrwt>
<pdfrwt beam="2">  1        4 0.14922970E-02 0.12500032E+03</pdfrwt>
<pdfrwt beam="1">  1       -4 0.61955557E-01 0.12500032E+03</pdfrwt>
<totfact> 0.63362899E+03</totfact>
</mgrwt>
</event>
<event>
 5    1  0.3514886E-002  0.1250023E+03  0.7818608E-02  0.1235066E+00
         -4   -1    0    0    0  501 -0.00000000000E+00  0.00000000000E+00  0.71037546871E+02  0.71048898411E+02  0.12700000000E+01 0.  1.
          4   -1    0    0  501    0  0.00000000000E+00 -0.00000000000E+00 -0.54967472762E+02  0.54982142209E+02  0.12700000000E+01 0.  1.
         25    2    1    2    0    0  0.00000000000E+00  0.00000000000E+00  0.16070074109E+02  0.12603104062E+03  0.12500230365E+03 0.  0.
    9000005    1    3    3    0    0  0.54573920776E+02  0.30430493131E+02  0.69939509275E+01  0.62882772606E+02  0.10000000000E+01 0.  0.
    9000005    1    3    3    0    0 -0.54573920776E+02 -0.30430493131E+02  0.90761231812E+01  0.63148268013E+02  0.10000000000E+01 0.  0.
<mgrwt>
<rscale>  0 0.12500230E+03</rscale>
<asrwt>0</asrwt>
<pdfrwt beam="2">  1        4 0.84585358E-02 0.12500230E+03</pdfrwt>
<pdfrwt beam="1">  1       -4 0.10930855E-01 0.12500230E+03</pdfrwt>
<totfact> 0.10429735E+04</totfact>
</mgrwt>
</event>
<event>
 5    1  0.3514886E-002  0.1249984E+03  0.7818608E-02  0.1235072E+00
          4   -1    0    0  501    0  0.00000000000E+00  0.00000000000E+00  0.48110812537E+02  0.48127571962E+02  0.12700000000E+01 0. -1.
         -4   -1    0    0    0  501 -0.00000000000E+00 -0.00000000000E+00 -0.81154868092E+02  0.81164804657E+02  0.12700000000E+01 0. -1.
         25    2    1    2    0    0  0.00000000000E+00  0.00000000000E+00 -0.33044055555E+02  0.12929237662E+03  0.12499843617E+03 0.  0.
    9000005    1    3    3    0    0  0.59731770310E+02  0.96469580807E+01 -0.32685877109E+02  0.68777283655E+02  0.10000000000E+01 0.  0.
    9000005    1    3    3    0    0 -0.59731770310E+02 -0.96469580807E+01 -0.35817844654E+00  0.60515092964E+02  0.10000000000E+01 0.  0.
<mgrwt>
<rscale>  0 0.12499844E+03</rscale>
<asrwt>0</asrwt>
<pdfrwt beam="1">  1        4 0.74037170E-02 0.12499844E+03</pdfrwt>
<pdfrwt beam="2">  1       -4 0.12487418E-01 0.12499844E+03</pdfrwt>
<totfact> 0.10360034E+04</totfact>
</mgrwt>
</event>
<event>
 5    1  0.3514886E-002  0.1250035E+03  0.7818608E-02  0.1235064E+00
          4   -1    0    0  501    0  0.00000000000E+00  0.00000000000E+00  0.11566315988E+03  0.11567013207E+03  0.12700000000E+01 0.  1.
         -4   -1    0    0    0  501 -0.00000000000E+00 -0.00000000000E+00 -0.33754581262E+02  0.33778464384E+02  0.12700000000E+01 0.  1.
         25    2    1    2    0    0  0.00000000000E+00  0.00000000000E+00  0.81908578620E+02  0.14944859646E+03  0.12500347088E+03 0.  0.
    9000005    1    3    3    0    0 -0.24978852495E+02  0.25926356943E+02  0.10202539181E+03  0.10819565439E+03  0.10000000000E+01 0.  0.
    9000005    1    3    3    0    0  0.24978852495E+02 -0.25926356943E+02 -0.20116813186E+02  0.41252942065E+02  0.10000000000E+01 0.  0.
<mgrwt>
<rscale>  0 0.12500347E+03</rscale>
<asrwt>0</asrwt>
<pdfrwt beam="1">  1        4 0.17796706E-01 0.12500347E+03</pdfrwt>
<pdfrwt beam="2">  1       -4 0.51953861E-02 0.12500347E+03</pdfrwt>
<totfact> 0.99405960E+03</totfact>
</mgrwt>
</event>
<event>
 5    1  0.3514886E-002  0.1249998E+03  0.7818608E-02  0.1235070E+00
          4   -1    0    0  501    0  0.00000000000E+00  0.00000000000E+00  0.24946286482E+02  0.24978593019E+02  0.12700000000E+01 0. -1.
         -4   -1    0    0    0  501 -0.00000000000E+00 -0.00000000000E+00 -0.15644976018E+03  0.15645491478E+03  0.12700000000E+01 0. -1.
         25    2    1    2    0    0  0.00000000000E+00  0.00000000000E+00 -0.13150347370E+03  0.18143350780E+03  0.12499981664E+03 0.  0.
    9000005    1    3    3    0    0  0.42475675879E+02 -0.39340029513E+02 -0.99897324806E+02  0.11546556399E+03  0.10000000000E+01 0.  0.
    9000005    1    3    3    0    0 -0.42475675879E+02  0.39340029513E+02 -0.31606148890E+02  0.65967943815E+02  0.10000000000E+01 0.  0.
<mgrwt>
<rscale>  0 0.12499982E+03</rscale>
<asrwt>0</asrwt>
<pdfrwt beam="1">  1        4 0.38407720E-02 0.12499982E+03</pdfrwt>
<pdfrwt beam="2">  1       -4 0.24072075E-01 0.12499982E+03</pdfrwt>
<totfact> 0.93359986E+03</totfact>
</mgrwt>
</event>
<event>
 5    1  0.3514886E-002  0.1250002E+03  0.7818608E-02  0.1235069E+00
         -4   -1    0    0    0  501 -0.00000000000E+00  0.00000000000E+00  0.51221377137E+01  0.52772336274E+01  0.12700000000E+01 0.  1.
          4   -1    0    0  501    0  0.00000000000E+00 -0.00000000000E+00 -0.75109390804E+03  0.75109498174E+03  0.12700000000E+01 0.  1.
         25    2    1    2    0    0  0.00000000000E+00  0.00000000000E+00 -0.74597177033E+03  0.75637221537E+03  0.12500018422E+03 0.  0.
    9000005    1    3    3    0    0 -0.48273773787E+02 -0.13325449488E+02 -0.14679482152E+03  0.15510526898E+03  0.10000000000E+01 0.  0.
    9000005    1    3    3    0    0  0.48273773787E+02  0.13325449488E+02 -0.59917694880E+03  0.60126694639E+03  0.10000000000E+01 0.  0.
<mgrwt>
<rscale>  0 0.12500018E+03</rscale>
<asrwt>0</asrwt>
<pdfrwt beam="2">  1        4 0.11556484E+00 0.12500018E+03</pdfrwt>
<pdfrwt beam="1">  1       -4 0.80003483E-03 0.12500018E+03</pdfrwt>
<totfact> 0.40271056E+03</totfact>
</mgrwt>
</event>
<event>
 5    1  0.3514886E-002  0.1250027E+03  0.7818608E-02  0.1235065E+00
         -4   -1    0    0    0  501 -0.00000000000E+00  0.00000000000E+00  0.14228454158E+02  0.14285020396E+02  0.12700000000E+01 0.  1.
          4   -1    0    0  501    0  0.00000000000E+00 -0.00000000000E+00 -0.27394708799E+03  0.27395003179E+03  0.12700000000E+01 0.  1.
         25    2    1    2    0    0  0.00000000000E+00  0.00000000000E+00 -0.25971863383E+03  0.28823505219E+03  0.12500270617E+03 0.  0.
    9000005    1    3    3    0    0 -0.69018423887E+01 -0.60432772005E+02 -0.96791442276E+02  0.11432120826E+03  0.10000000000E+01 0.  0.
    9000005    1    3    3    0    0  0.69018423887E+01  0.60432772005E+02 -0.16292719156E+03  0.17391384393E+03  0.10000000000E+01 0.  0.
<mgrwt>
<rscale>  0 0.12500271E+03</rscale>
<asrwt>0</asrwt>
<pdfrwt beam="2">  1        4 0.42150280E-01 0.12500271E+03</pdfrwt>
<pdfrwt beam="1">  1       -4 0.21935708E-02 0.12500271E+03</pdfrwt>
<totfact> 0.77094082E+03</totfact>
</mgrwt>
</event>
<event>
 5    1  0.3514886E-002  0.1249982E+03  0.7818608E-02  0.1235072E+00
          4   -1    0    0  501    0  0.00000000000E+00  0.00000000000E+00  0.17801206508E+03  0.17801659534E+03  0.12700000000E+01 0. -1.
         -4   -1    0    0    0  501 -0.00000000000E+00 -0.00000000000E+00 -0.21919926562E+02  0.21956686464E+02  0.12700000000E+01 0. -1.
         25    2    1    2    0    0  0.00000000000E+00  0.00000000000E+00  0.15609213852E+03  0.19997328180E+03  0.12499823089E+03 0.  0.
    9000005    1    3    3    0    0 -0.38503410342E+02 -0.48219752271E+02  0.93841483628E+02  0.11231598803E+03  0.10000000000E+01 0.  0.
    9000005    1    3    3    0    0  0.38503410342E+02  0.48219752271E+02  0.62250654893E+02  0.87657293773E+02  0.10000000000E+01 0.  0.
<mgrwt>
<rscale>  0 0.12499823E+03</rscale>
<asrwt>0</asrwt>
<pdfrwt beam="1">  1        4 0.27389647E-01 0.12499823E+03</pdfrwt>
<pdfrwt beam="2">  1       -4 0.33754727E-02 0.12499823E+03</pdfrwt>
<totfact> 0.90143582E+03</totfact>
</mgrwt>
</event>
<event>
 5    1  0.3514886E-002  0.1250356E+03  0.7818608E-02  0.1235014E+00
         -4   -1    0    0    0  501 -0.00000000000E+00  0.00000000000E+00  0.25302008146E+02  0.25333861060E+02  0.12700000000E+01 0. -1.
          4   -1    0    0  501    0  0.00000000000E+00 -0.00000000000E+00 -0.15434139161E+03  0.15434661663E+03  0.12700000000E+01 0. -1.
         25    2    1    2    0    0  0.00000000000E+00  0.00000000000E+00 -0.12903938347E+03  0.17968047769E+03  0.12503564123E+03 0.  0.
    9000005    1    3    3    0    0  0.22163287862E+02 -0.42250910043E+02 -0.12255749664E+03  0.13152068549E+03  0.10000000000E+01 0.  0.
    9000005    1    3    3    0    0 -0.22163287862E+02  0.42250910043E+02 -0.64818868286E+01  0.48159792204E+02  0.10000000000E+01 0.  0.
<mgrwt>
<rscale>  0 0.12503564E+03</rscale>
<asrwt>0</asrwt>
<pdfrwt beam="2">  1        4 0.23747681E-01 0.12503564E+03</pdfrwt>
<pdfrwt beam="1">  1       -4 0.38954689E-02 0.12503564E+03</pdfrwt>
<totfact> 0.93599728E+03</totfact>
</mgrwt>
</event>
<event>
 5    1  0.3514886E-002  0.1249996E+03  0.7818608E-02  0.1235070E+00
          4   -1    0    0  501    0  0.00000000000E+00  0.00000000000E+00  0.15001823975E+03  0.15002361534E+03  0.12700000000E+01 0. -1.
         -4   -1    0    0    0  501 -0.00000000000E+00 -0.00000000000E+00 -0.26016993172E+02  0.26047971777E+02  0.12700000000E+01 0. -1.
         25    2    1    2    0    0  0.00000000000E+00  0.00000000000E+00  0.12400124658E+03  0.17607158711E+03  0.12499957854E+03 0.  0.
    9000005    1    3    3    0    0 -0.61049663917E+01 -0.57907838575E+00  0.14960029942E+03  0.14972927414E+03  0.10000000000E+01 0.  0.
    9000005    1    3    3    0    0  0.61049663917E+01  0.57907838575E+00 -0.25599052843E+02  0.26342312975E+02  0.10000000000E+01 0.  0.
<mgrwt>
<rscale>  0 0.12499958E+03</rscale>
<asrwt>0</asrwt>
<pdfrwt beam="1">  1        4 0.23082526E-01 0.12499958E+03</pdfrwt>
<pdfrwt beam="2">  1       -4 0.40054108E-02 0.12499958E+03</pdfrwt>
<totfact> 0.94329839E+03</totfact>
</mgrwt>
</event>
<event>
 5    1  0.3514886E-002  0.1250004E+03  0.7818608E-02  0.1235069E+00
          4   -1    0    0  501    0  0.00000000000E+00  0.00000000000E+00  0.41788933485E+02  0.41808227203E+02  0.12700000000E+01 0. -1.
         -4   -1    0    0    0  501 -0.00000000000E+00 -0.00000000000E+00 -0.93431080587E+02  0.93439711684E+02  0.12700000000E+01 0. -1.
         25    2    1    2    0    0  0.00000000000E+00  0.00000000000E+00 -0.51642147102E+02  0.13524793889E+03  0.12500037446E+03 0.  0.
    9000005    1    3    3    0    0 -0.19012365076E+02  0.59528470840E+02 -0.26259959768E+02  0.67791550752E+02  0.10000000000E+01 0.  0.
    9000005    1    3    3    0    0  0.19012365076E+02 -0.59528470840E+02 -0.25382187334E+02  0.67456388135E+02  0.10000000000E+01 0.  0.
<mgrwt>
<rscale>  0 0.12500037E+03</rscale>
<asrwt>0</asrwt>
<pdfrwt beam="1">  1        4 0.64312148E-02 0.12500037E+03</pdfrwt>
<pdfrwt beam="2">  1       -4 0.14376160E-01 0.12500037E+03</pdfrwt>
<totfact> 0.10232761E+04</totfact>
</mgrwt>
</event>
<event>
 5    1  0.3514886E-002  0.1249951E+03  0.7818608E-02  0.1235077E+00
         -4   -1    0    0    0  501 -0.00000000000E+00  0.00000000000E+00  0.24751227259E+03  0.24751553079E+03  0.12700000000E+01 0.  1.
          4   -1    0    0  501    0  0.00000000000E+00 -0.00000000000E+00 -0.15751894422E+02  0.15803008507E+02  0.12700000000E+01 0.  1.
         25    2    1    2    0    0  0.00000000000E+00  0.00000000000E+00  0.23176037817E+03  0.26331853930E+03  0.12499512090E+03 0.  0.
    9000005    1    3    3    0    0 -0.18921408577E+02  0.59239301810E+02  0.10295734037E+03  0.12028519659E+03  0.10000000000E+01 0.  0.
    9000005    1    3    3    0    0  0.18921408577E+02 -0.59239301810E+02  0.12880303780E+03  0.14303334271E+03  0.10000000000E+01 0.  0.
<mgrwt>
<rscale>  0 0.12499512E+03</rscale>
<asrwt>0</asrwt>
<pdfrwt beam="2">  1        4 0.24275510E-02 0.12499512E+03</pdfrwt>
<pdfrwt beam="1">  1       -4 0.38082992E-01 0.12499512E+03</pdfrwt>
<totfact> 0.80451331E+03</totfact>
</mgrwt>
</event>
<event>
 5    1  0.3514886E-002  0.1250065E+03  0.7818608E-02  0.1235059E+00
          4   -1    0    0  501    0  0.00000000000E+00  0.00000000000E+00  0.58544525380E+03  0.58544663129E+03  0.12700000000E+01 0. -1.
         -4   -1    0    0    0  501 -0.00000000000E+00 -0.00000000000E+00 -0.66111425991E+01  0.67320209793E+01  0.12700000000E+01 0. -1.
         25    2    1    2    0    0  0.00000000000E+00  0.00000000000E+00  0.57883411120E+03  0.59217865227E+03  0.12500651152E+03 0.  0.
    9000005    1    3    3    0    0  0.35252606801E+02 -0.30559345342E+02  0.92436994268E+02  0.10354814235E+03  0.10000000000E+01 0.  0.
    9000005    1    3    3    0    0 -0.35252606801E+02  0.30559345342E+02  0.48639711693E+03  0.48863050993E+03  0.10000000000E+01 0.  0.
<mgrwt>
<rscale>  0 0.12500651E+03</rscale>
<asrwt>0</asrwt>
<pdfrwt beam="1">  1        4 0.90077927E-01 0.12500651E+03</pdfrwt>
<pdfrwt beam="2">  1       -4 0.10265029E-02 0.12500651E+03</pdfrwt>
<totfact> 0.49358009E+03</totfact>
</mgrwt>
</event>
<event>
 5    1  0.3514886E-002  0.1250016E+03  0.7818608E-02  0.1235067E+00
         -4   -1    0    0    0  501 -0.00000000000E+00  0.00000000000E+00  0.62056913791E+03  0.62057043744E+03  0.12700000000E+01 0. -1.
          4   -1    0    0  501    0  0.00000000000E+00 -0.00000000000E+00 -0.62294093556E+01  0.63575499148E+01  0.12700000000E+01 0. -1.
         25    2    1    2    0    0  0.00000000000E+00  0.00000000000E+00  0.61433972855E+03  0.62692798736E+03  0.12500159699E+03 0.  0.
    9000005    1    3    3    0    0  0.32390285460E+02 -0.21685697900E+02  0.55215105485E+03  0.55352613981E+03  0.10000000000E+01 0.  0.
    9000005    1    3    3    0    0 -0.32390285460E+02  0.21685697900E+02  0.62188673708E+02  0.73401847546E+02  0.10000000000E+01 0.  0.
<mgrwt>
<rscale>  0 0.12500160E+03</rscale>
<asrwt>0</asrwt>
<pdfrwt beam="2">  1        4 0.96832750E-03 0.12500160E+03</pdfrwt>
<pdfrwt beam="1">  1       -4 0.95482142E-01 0.12500160E+03</pdfrwt>
<totfact> 0.47209134E+03</totfact>
</mgrwt>
</event>
<event>
 5    1  0.3514886E-002  0.1249973E+03  0.7818608E-02  0.1235073E+00
         -4   -1    0    0    0  501 -0.00000000000E+00  0.00000000000E+00  0.13429171223E+02  0.13489089655E+02  0.12700000000E+01 0. -1.
          4   -1    0    0  501    0  0.00000000000E+00 -0.00000000000E+00 -0.29015683080E+03  0.29015961015E+03  0.12700000000E+01 0. -1.
         25    2    1    2    0    0  0.00000000000E+00  0.00000000000E+00 -0.27672765958E+03  0.30364869980E+03  0.12499734123E+03 0.  0.
    9000005    1    3    3    0    0 -0.99945682207E+01  0.50030929638E+02 -0.50705625007E+02  0.71937790637E+02  0.10000000000E+01 0.  0.
    9000005    1    3    3    0    0  0.99945682207E+01 -0.50030929638E+02 -0.22602203457E+03  0.23171090917E+03  0.10000000000E+01 0.  0.
<mgrwt>
<rscale>  0 0.12499734E+03</rscale>
<asrwt>0</asrwt>
<pdfrwt beam="2">  1        4 0.44644330E-01 0.12499734E+03</pdfrwt>
<pdfrwt beam="1">  1       -4 0.20708495E-02 0.12499734E+03</pdfrwt>
<totfact> 0.75147857E+03</totfact>
</mgrwt>
</event>
<event>
 5    1  0.3514886E-002  0.1249988E+03  0.7818608E-02  0.1235071E+00
          4   -1    0    0  501    0  0.00000000000E+00  0.00000000000E+00  0.17416804341E+03  0.17417267364E+03  0.12700000000E+01 0.  1.
         -4   -1    0    0    0  501 -0.00000000000E+00 -0.00000000000E+00 -0.22404698893E+02  0.22440664707E+02  0.12700000000E+01 0.  1.
         25    2    1    2    0    0  0.00000000000E+00  0.00000000000E+00  0.15176334451E+03  0.19661333835E+03  0.12499876831E+03 0.  0.
    9000005    1    3    3    0    0  0.32482987227E+01 -0.60576577604E+02  0.52282606064E+02  0.80090849013E+02  0.10000000000E+01 0.  0.
    9000005    1    3    3    0    0 -0.32482987227E+01  0.60576577604E+02  0.99480738449E+02  0.11652248934E+03  0.10000000000E+01 0.  0.
<mgrwt>
<rscale>  0 0.12499877E+03</rscale>
<asrwt>0</asrwt>
<pdfrwt beam="1">  1        4 0.26798206E-01 0.12499877E+03</pdfrwt>
<pdfrwt beam="2">  1       -4 0.34499995E-02 0.12499877E+03</pdfrwt>
<totfact> 0.90711679E+03</totfact>
</mgrwt>
</event>
<event>
 5    1  0.3514886E-002  0.1249995E+03  0.7818608E-02  0.1235070E+00
         -4   -1    0    0    0  501 -0.00000000000E+00  0.00000000000E+00  0.80482182149E+03  0.80482282351E+03  0.12700000000E+01 0.  1.
          4   -1    0    0  501    0  0.00000000000E+00 -0.00000000000E+00 -0.47694149907E+01  0.49356072933E+01  0.12700000000E+01 0.  1.
         25    2    1    2    0    0  0.00000000000E+00  0.00000000000E+00  0.80005240650E+03  0.80975843080E+03  0.12499945246E+03 0.  0.
    9000005    1    3    3    0    0  0.62400833679E+02  0.29960503725E+01  0.41001049642E+03  0.41474383363E+03  0.10000000000E+01 0.  0.
    9000005    1    3    3    0    0 -0.62400833679E+02 -0.29960503725E+01  0.39004191008E+03  0.39501459717E+03  0.10000000000E+01 0.  0.
<mgrwt>
<rscale>  0 0.12499945E+03</rscale>
<asrwt>0</asrwt>
<pdfrwt beam="2">  1        4 0.74661718E-03 0.12499945E+03</pdfrwt>
<pdfrwt beam="1">  1       -4 0.12383162E+00 0.12499945E+03</pdfrwt>
<totfact> 0.37833228E+03</totfact>
</mgrwt>
</event>
<event>
 5    1  0.3514886E-002  0.1250013E+03  0.7818608E-02  0.1235067E+00
         -4   -1    0    0    0  501 -0.00000000000E+00  0.00000000000E+00  0.47602118619E+02  0.47619057078E+02  0.12700000000E+01 0.  1.
          4   -1    0    0  501    0  0.00000000000E+00 -0.00000000000E+00 -0.82025638209E+02  0.82035469302E+02  0.12700000000E+01 0.  1.
         25    2    1    2    0    0  0.00000000000E+00  0.00000000000E+00 -0.34423519591E+02  0.12965452638E+03  0.12500127003E+03 0.  0.
    9000005    1    3    3    0    0 -0.39560138209E+02 -0.35583770180E+01 -0.67253602106E+02  0.78113466049E+02  0.10000000000E+01 0.  0.
    9000005    1    3    3    0    0  0.39560138209E+02  0.35583770180E+01  0.32830082515E+02  0.51541060331E+02  0.10000000000E+01 0.  0.
<mgrwt>
<rscale>  0 0.12500127E+03</rscale>
<asrwt>0</asrwt>
<pdfrwt beam="2">  1        4 0.12621388E-01 0.12500127E+03</pdfrwt>
<pdfrwt beam="1">  1       -4 0.73254621E-02 0.12500127E+03</pdfrwt>
<totfact> 0.10351607E+04</totfact>
</mgrwt>
</event>
<event>
 5    1  0.3514886E-002  0.1250022E+03  0.7818608E-02  0.1235066E+00
         -4   -1    0    0    0  501 -0.00000000000E+00  0.00000000000E+00  0.19621374690E+03  0.19621785692E+03  0.12700000000E+01 0.  1.
          4   -1    0    0  501    0  0.00000000000E+00 -0.00000000000E+00 -0.19884251933E+02  0.19924767877E+02  0.12700000000E+01 0.  1.
         25    2    1    2    0    0  0.00000000000E+00  0.00000000000E+00  0.17632949497E+03  0.21614262479E+03  0.12500217381E+03 0.  0.
    9000005    1    3    3    0    0  0.10921981104E+02 -0.18725591604E+02 -0.13183109832E+02  0.25391570196E+02  0.10000000000E+01 0.  0.
    9000005    1    3    3    0    0 -0.10921981104E+02  0.18725591604E+02  0.18951260480E+03  0.19075105460E+03  0.10000000000E+01 0.  0.
<mgrwt>
<rscale>  0 0.12500217E+03</rscale>
<asrwt>0</asrwt>
<pdfrwt beam="2">  1        4 0.30625486E-02 0.12500217E+03</pdfrwt>
<pdfrwt beam="1">  1       -4 0.30190162E-01 0.12500217E+03</pdfrwt>
<totfact> 0.87478184E+03</totfact>
</mgrwt>
</event>
<event>
 5    1  0.3514886E-002  0.1249779E+03  0.7818608E-02  0.1235104E+00
         -4   -1    0    0    0  501 -0.00000000000E+00  0.00000000000E+00  0.58176023500E+03  0.58176162122E+03  0.12700000000E+01 0. -1.
          4   -1    0    0  501    0  0.00000000000E+00 -0.00000000000E+00 -0.66506793052E+01  0.67708518830E+01  0.12700000000E+01 0. -1.
         25    2    1    2    0    0  0.00000000000E+00  0.00000000000E+00  0.57510955569E+03  0.58853247310E+03  0.12497788143E+03 0.  0.
    9000005    1    3    3    0    0 -0.49172161761E+02 -0.68712557082E+01  0.10893470911E+03  0.11972003382E+03  0.10000000000E+01 0.  0.
    9000005    1    3    3    0    0  0.49172161761E+02  0.68712557082E+01  0.46617484658E+03  0.46881243929E+03  0.10000000000E+01 0.  0.
<mgrwt>
<rscale>  0 0.12497788E+03</rscale>
<asrwt>0</asrwt>
<pdfrwt beam="2">  1        4 0.10325320E-02 0.12497788E+03</pdfrwt>
<pdfrwt beam="1">  1       -4 0.89510939E-01 0.12497788E+03</pdfrwt>
<totfact> 0.49623632E+03</totfact>
</mgrwt>
</event>
<event>
 5    1  0.3514886E-002  0.1250005E+03  0.7818608E-02  0.1235068E+00
         -4   -1    0    0    0  501 -0.00000000000E+00  0.00000000000E+00  0.12330831799E+02  0.12396060376E+02  0.12700000000E+01 0. -1.
          4   -1    0    0  501    0  0.00000000000E+00 -0.00000000000E+00 -0.31588767362E+03  0.31589022657E+03  0.12700000000E+01 0. -1.
         25    2    1    2    0    0  0.00000000000E+00  0.00000000000E+00 -0.30355684182E+03  0.32828628695E+03  0.12500051993E+03 0.  0.
    9000005    1    3    3    0    0  0.34797806230E+02  0.38617689718E+02 -0.24287167783E+03  0.24837444549E+03  0.10000000000E+01 0.  0.
    9000005    1    3    3    0    0 -0.34797806230E+02 -0.38617689718E+02 -0.60685163985E+02  0.79911841460E+02  0.10000000000E+01 0.  0.
<mgrwt>
<rscale>  0 0.12500052E+03</rscale>
<asrwt>0</asrwt>
<pdfrwt beam="2">  1        4 0.48603311E-01 0.12500052E+03</pdfrwt>
<pdfrwt beam="1">  1       -4 0.19022653E-02 0.12500052E+03</pdfrwt>
<totfact> 0.72180472E+03</totfact>
</mgrwt>
</event>
<event>
 5    1  0.3514886E-002  0.1250009E+03  0.7818608E-02  0.1235068E+00
          4   -1    0    0  501    0  0.00000000000E+00  0.00000000000E+00  0.25455306560E+02  0.25486967887E+02  0.12700000000E+01 0. -1.
         -4   -1    0    0    0  501 -0.00000000000E+00 -0.00000000000E+00 -0.15332777361E+03  0.15333303316E+03  0.12700000000E+01 0. -1.
         25    2    1    2    0    0  0.00000000000E+00  0.00000000000E+00 -0.12787246704E+03  0.17882000105E+03  0.12500089979E+03 0.  0.
    9000005    1    3    3    0    0  0.49554924353E+02 -0.37097723274E+02 -0.76190178814E+02  0.98172679231E+02  0.10000000000E+01 0.  0.
    9000005    1    3    3    0    0 -0.49554924353E+02  0.37097723274E+02 -0.51682288231E+02  0.80647321818E+02  0.10000000000E+01 0.  0.
<mgrwt>
<rscale>  0 0.12500090E+03</rscale>
<asrwt>0</asrwt>
<pdfrwt beam="1">  1        4 0.39190412E-02 0.12500090E+03</pdfrwt>
<pdfrwt beam="2">  1       -4 0.23591728E-01 0.12500090E+03</pdfrwt>
<totfact> 0.93827946E+03</totfact>
</mgrwt>
</event>
<event>
 5    1  0.3514886E-002  0.1250007E+03  0.7818608E-02  0.1235068E+00
          4   -1    0    0  501    0  0.00000000000E+00  0.00000000000E+00  0.31884730247E+02  0.31910012895E+02  0.12700000000E+01 0.  1.
         -4   -1    0    0    0  501 -0.00000000000E+00 -0.00000000000E+00 -0.12243592618E+03  0.12244251271E+03  0.12700000000E+01 0.  1.
         25    2    1    2    0    0  0.00000000000E+00  0.00000000000E+00 -0.90551195933E+02  0.15435252561E+03  0.12500073230E+03 0.  0.
    9000005    1    3    3    0    0 -0.56938532750E+02  0.22334998364E+02 -0.29440735354E+02  0.67886711231E+02  0.10000000000E+01 0.  0.
    9000005    1    3    3    0    0  0.56938532750E+02 -0.22334998364E+02 -0.61110460579E+02  0.86465814377E+02  0.10000000000E+01 0.  0.
<mgrwt>
<rscale>  0 0.12500073E+03</rscale>
<asrwt>0</asrwt>
<pdfrwt beam="1">  1        4 0.49077946E-02 0.12500073E+03</pdfrwt>
<pdfrwt beam="2">  1       -4 0.18838748E-01 0.12500073E+03</pdfrwt>
<totfact> 0.98441135E+03</totfact>
</mgrwt>
</event>
<event>
 5    1  0.3514886E-002  0.1249993E+03  0.7818608E-02  0.1235070E+00
         -4   -1    0    0    0  501 -0.00000000000E+00  0.00000000000E+00  0.14690168383E+04  0.14690173873E+04  0.12700000000E+01 0.  1.
          4   -1    0    0  501    0  0.00000000000E+00 -0.00000000000E+00 -0.25068388908E+01  0.28101852651E+01  0.12700000000E+01 0.  1.
         25    2    1    2    0    0  0.00000000000E+00  0.00000000000E+00  0.14665099994E+04  0.14718275726E+04  0.12499929966E+03 0.  0.
    9000005    1    3    3    0    0  0.17665159835E+02  0.44319661852E+02  0.25803064457E+03  0.26240637156E+03  0.10000000000E+01 0.  0.
    9000005    1    3    3    0    0 -0.17665159835E+02 -0.44319661852E+02  0.12084793549E+04  0.12094212010E+04  0.10000000000E+01 0.  0.
<mgrwt>
<rscale>  0 0.12499930E+03</rscale>
<asrwt>0</asrwt>
<pdfrwt beam="2">  1        4 0.40904361E-03 0.12499930E+03</pdfrwt>
<pdfrwt beam="1">  1       -4 0.22602623E+00 0.12499930E+03</pdfrwt>
<totfact> 0.18490304E+03</totfact>
</mgrwt>
</event>
<event>
 5    1  0.3514886E-002  0.1249996E+03  0.7818608E-02  0.1235070E+00
          4   -1    0    0  501    0  0.00000000000E+00  0.00000000000E+00  0.13602640645E+03  0.13603233495E+03  0.12700000000E+01 0.  1.
         -4   -1    0    0    0  501 -0.00000000000E+00 -0.00000000000E+00 -0.28696059468E+02  0.28724148882E+02  0.12700000000E+01 0.  1.
         25    2    1    2    0    0  0.00000000000E+00  0.00000000000E+00  0.10733034699E+03  0.16475648383E+03  0.12499958233E+03 0.  0.
    9000005    1    3    3    0    0 -0.42539850534E+02 -0.38060835519E+02  0.20139930565E+02  0.60538276215E+02  0.10000000000E+01 0.  0.
    9000005    1    3    3    0    0  0.42539850534E+02  0.38060835519E+02  0.87190416421E+02  0.10421820762E+03  0.10000000000E+01 0.  0.
<mgrwt>
<rscale>  0 0.12499958E+03</rscale>
<asrwt>0</asrwt>
<pdfrwt beam="1">  1        4 0.20929755E-01 0.12499958E+03</pdfrwt>
<pdfrwt beam="2">  1       -4 0.44173953E-02 0.12499958E+03</pdfrwt>
<totfact> 0.96434436E+03</totfact>
</mgrwt>
</event>
<event>
 5    1  0.3514886E-002  0.1249951E+03  0.7818608E-02  0.1235077E+00
          4   -1    0    0  501    0  0.00000000000E+00  0.00000000000E+00  0.18550430348E+02  0.18593852912E+02  0.12700000000E+01 0. -1.
         -4   -1    0    0    0  501 -0.00000000000E+00 -0.00000000000E+00 -0.21026665156E+03  0.21027048689E+03  0.12700000000E+01 0. -1.
         25    2    1    2    0    0  0.00000000000E+00  0.00000000000E+00 -0.19171622121E+03  0.22886433980E+03  0.12499510614E+03 0.  0.
    9000005    1    3    3    0    0 -0.11239173251E+02  0.84193949415E+00 -0.20839924359E+03  0.20870618728E+03  0.10000000000E+01 0.  0.
    9000005    1    3    3    0    0  0.11239173251E+02 -0.84193949415E+00  0.16683022383E+02  0.20158152527E+02  0.10000000000E+01 0.  0.
<mgrwt>
<rscale>  0 0.12499511E+03</rscale>
<asrwt>0</asrwt>
<pdfrwt beam="1">  1        4 0.28575477E-02 0.12499511E+03</pdfrwt>
<pdfrwt beam="2">  1       -4 0.32352349E-01 0.12499511E+03</pdfrwt>
<totfact> 0.85493620E+03</totfact>
</mgrwt>
</event>
<event>
 5    1  0.3514886E-002  0.1249969E+03  0.7818608E-02  0.1235074E+00
          4   -1    0    0  501    0  0.00000000000E+00  0.00000000000E+00  0.20817117030E+02  0.20855820805E+02  0.12700000000E+01 0. -1.
         -4   -1    0    0    0  501 -0.00000000000E+00 -0.00000000000E+00 -0.18742159922E+03  0.18742590204E+03  0.12700000000E+01 0. -1.
         25    2    1    2    0    0  0.00000000000E+00  0.00000000000E+00 -0.16660448219E+03  0.20828172284E+03  0.12499689030E+03 0.  0.
    9000005    1    3    3    0    0  0.27288886736E+02 -0.52440764519E+02 -0.11705607417E+03  0.13114054149E+03  0.10000000000E+01 0.  0.
    9000005    1    3    3    0    0 -0.27288886736E+02  0.52440764519E+02 -0.49548408017E+02  0.77141181347E+02  0.10000000000E+01 0.  0.
<mgrwt>
<rscale>  0 0.12499689E+03</rscale>
<asrwt>0</asrwt>
<pdfrwt beam="1">  1        4 0.32059417E-02 0.12499689E+03</pdfrwt>
<pdfrwt beam="2">  1       -4 0.28837399E-01 0.12499689E+03</pdfrwt>
<totfact> 0.88763441E+03</totfact>
</mgrwt>
</event>
<event>
 5    1  0.3514886E-002  0.1249942E+03  0.7818608E-02  0.1235078E+00
         -4   -1    0    0    0  501 -0.00000000000E+00  0.00000000000E+00  0.42416684911E+03  0.42416875036E+03  0.12700000000E+01 0. -1.
          4   -1    0    0  501    0  0.00000000000E+00 -0.00000000000E+00 -0.91626566122E+01  0.92502527637E+01  0.12700000000E+01 0. -1.
         25    2    1    2    0    0  0.00000000000E+00  0.00000000000E+00  0.41500419249E+03  0.43341900312E+03  0.12499420979E+03 0.  0.
    9000005    1    3    3    0    0 -0.21894070099E+01  0.53028151260E+02  0.93120958356E+02  0.10718811135E+03  0.10000000000E+01 0.  0.
    9000005    1    3    3    0    0  0.21894070099E+01 -0.53028151260E+02  0.32188323414E+03  0.32623089177E+03  0.10000000000E+01 0.  0.
<mgrwt>
<rscale>  0 0.12499421E+03</rscale>
<asrwt>0</asrwt>
<pdfrwt beam="2">  1        4 0.14165239E-02 0.12499421E+03</pdfrwt>
<pdfrwt beam="1">  1       -4 0.65263324E-01 0.12499421E+03</pdfrwt>
<totfact> 0.61435137E+03</totfact>
</mgrwt>
</event>
<event>
 5    1  0.3514886E-002  0.1249970E+03  0.7818608E-02  0.1235074E+00
         -4   -1    0    0    0  501 -0.00000000000E+00  0.00000000000E+00  0.10490141188E+03  0.10490909930E+03  0.12700000000E+01 0. -1.
          4   -1    0    0  501    0  0.00000000000E+00 -0.00000000000E+00 -0.37215693476E+02  0.37237356793E+02  0.12700000000E+01 0. -1.
         25    2    1    2    0    0  0.00000000000E+00  0.00000000000E+00  0.67685718406E+02  0.14214645609E+03  0.12499703397E+03 0.  0.
    9000005    1    3    3    0    0 -0.54842818742E+02  0.14519904007E+02  0.63638814213E+02  0.85261134489E+02  0.10000000000E+01 0.  0.
    9000005    1    3    3    0    0  0.54842818742E+02 -0.14519904007E+02  0.40469041934E+01  0.56885321600E+02  0.10000000000E+01 0.  0.
<mgrwt>
<rscale>  0 0.12499703E+03</rscale>
<asrwt>0</asrwt>
<pdfrwt beam="2">  1        4 0.57277491E-02 0.12499703E+03</pdfrwt>
<pdfrwt beam="1">  1       -4 0.16140936E-01 0.12499703E+03</pdfrwt>
<totfact> 0.10089966E+04</totfact>
</mgrwt>
</event>
<event>
 5    1  0.3514886E-002  0.1249941E+03  0.7818608E-02  0.1235078E+00
          4   -1    0    0  501    0  0.00000000000E+00  0.00000000000E+00  0.13771639998E+03  0.13772225573E+03  0.12700000000E+01 0. -1.
         -4   -1    0    0    0  501 -0.00000000000E+00 -0.00000000000E+00 -0.28341102592E+02  0.28369543460E+02  0.12700000000E+01 0. -1.
         25    2    1    2    0    0  0.00000000000E+00  0.00000000000E+00  0.10937529739E+03  0.16609179919E+03  0.12499412018E+03 0.  0.
    9000005    1    3    3    0    0  0.45075761596E+02  0.29402513144E+01  0.11206357174E+03  0.12082927407E+03  0.10000000000E+01 0.  0.
    9000005    1    3    3    0    0 -0.45075761596E+02 -0.29402513144E+01 -0.26882743527E+01  0.45262525120E+02  0.10000000000E+01 0.  0.
<mgrwt>
<rscale>  0 0.12499412E+03</rscale>
<asrwt>0</asrwt>
<pdfrwt beam="1">  1        4 0.21189776E-01 0.12499412E+03</pdfrwt>
<pdfrwt beam="2">  1       -4 0.43628079E-02 0.12499412E+03</pdfrwt>
<totfact> 0.96193726E+03</totfact>
</mgrwt>
</event>
<event>
 5    1  0.3514886E-002  0.1249986E+03  0.7818608E-02  0.1235071E+00
          4   -1    0    0  501    0  0.00000000000E+00  0.00000000000E+00  0.24212769688E+02  0.24246053617E+02  0.12700000000E+01 0.  1.
         -4   -1    0    0    0  501 -0.00000000000E+00 -0.00000000000E+00 -0.16117991022E+03  0.16118491356E+03  0.12700000000E+01 0.  1.
         25    2    1    2    0    0  0.00000000000E+00  0.00000000000E+00 -0.13696714053E+03  0.18543096718E+03  0.12499858400E+03 0.  0.
    9000005    1    3    3    0    0  0.18134973522E+02 -0.43320183321E+02 -0.73251297927E+01  0.47541277581E+02  0.10000000000E+01 0.  0.
    9000005    1    3    3    0    0 -0.18134973522E+02  0.43320183321E+02 -0.12964201074E+03  0.13788968959E+03  0.10000000000E+01 0.  0.
<mgrwt>
<rscale>  0 0.12499858E+03</rscale>
<asrwt>0</asrwt>
<pdfrwt beam="1">  1        4 0.37279868E-02 0.12499858E+03</pdfrwt>
<pdfrwt beam="2">  1       -4 0.24799854E-01 0.12499858E+03</pdfrwt>
<totfact> 0.92651386E+03</totfact>
</mgrwt>
</event>
<event>
 5    1  0.3514886E-002  0.1250100E+03  0.7818608E-02  0.1235054E+00
         -4   -1    0    0    0  501 -0.00000000000E+00  0.00000000000E+00  0.26394438761E+03  0.26394744297E+03  0.12700000000E+01 0. -1.
          4   -1    0    0  501    0  0.00000000000E+00 -0.00000000000E+00 -0.14771504635E+02  0.14825999095E+02  0.12700000000E+01 0. -1.
         25    2    1    2    0    0  0.00000000000E+00  0.00000000000E+00  0.24917288298E+03  0.27877344207E+03  0.12501002516E+03 0.  0.
    9000005    1    3    3    0    0 -0.15324045495E+02  0.34709549219E+02  0.23533275518E+03  0.23837383421E+03  0.10000000000E+01 0.  0.
    9000005    1    3    3    0    0  0.15324045495E+02 -0.34709549219E+02  0.13840127798E+02  0.40399607854E+02  0.10000000000E+01 0.  0.
<mgrwt>
<rscale>  0 0.12501003E+03</rscale>
<asrwt>0</asrwt>
<pdfrwt beam="2">  1        4 0.22769663E-02 0.12501003E+03</pdfrwt>
<pdfrwt beam="1">  1       -4 0.40611252E-01 0.12501003E+03</pdfrwt>
<totfact> 0.78323565E+03</totfact>
</mgrwt>
</event>
<event>
 5    1  0.3514886E-002  0.1250018E+03  0.7818608E-02  0.1235066E+00
         -4   -1    0    0    0  501 -0.00000000000E+00  0.00000000000E+00  0.29143899983E+03  0.29144176695E+03  0.12700000000E+01 0.  1.
          4   -1    0    0  501    0  0.00000000000E+00 -0.00000000000E+00 -0.13370789216E+02  0.13430968106E+02  0.12700000000E+01 0.  1.
         25    2    1    2    0    0  0.00000000000E+00  0.00000000000E+00  0.27806821061E+03  0.30487273505E+03  0.12500181929E+03 0.  0.
    9000005    1    3    3    0    0 -0.60323720500E+02 -0.10596847908E+02  0.16931235171E+03  0.18005253923E+03  0.10000000000E+01 0.  0.
    9000005    1    3    3    0    0  0.60323720500E+02  0.10596847908E+02  0.10875585890E+03  0.12482019582E+03  0.10000000000E+01 0.  0.
<mgrwt>
<rscale>  0 0.12500182E+03</rscale>
<asrwt>0</asrwt>
<pdfrwt beam="2">  1        4 0.20618865E-02 0.12500182E+03</pdfrwt>
<pdfrwt beam="1">  1       -4 0.44841611E-01 0.12500182E+03</pdfrwt>
<totfact> 0.74988620E+03</totfact>
</mgrwt>
</event>
<event>
 5    1  0.3514886E-002  0.1250070E+03  0.7818608E-02  0.1235058E+00
         -4   -1    0    0    0  501 -0.00000000000E+00  0.00000000000E+00  0.87855227621E+02  0.87864406448E+02  0.12700000000E+01 0. -1.
          4   -1    0    0  501    0  0.00000000000E+00 -0.00000000000E+00 -0.44446767439E+02  0.44464907914E+02  0.12700000000E+01 0. -1.
         25    2    1    2    0    0  0.00000000000E+00  0.00000000000E+00  0.43408460182E+02  0.13232931436E+03  0.12500701190E+03 0.  0.
    9000005    1    3    3    0    0  0.16278932364E+02  0.20152296437E+02  0.81908866244E+02  0.85913800172E+02  0.10000000000E+01 0.  0.
    9000005    1    3    3    0    0 -0.16278932364E+02 -0.20152296437E+02 -0.38500406062E+02  0.46415514190E+02  0.10000000000E+01 0.  0.
<mgrwt>
<rscale>  0 0.12500701E+03</rscale>
<asrwt>0</asrwt>
<pdfrwt beam="2">  1        4 0.68400658E-02 0.12500701E+03</pdfrwt>
<pdfrwt beam="1">  1       -4 0.13518290E-01 0.12500701E+03</pdfrwt>
<totfact> 0.10293046E+04</totfact>
</mgrwt>
</event>
<event>
 5    1  0.3514886E-002  0.1250030E+03  0.7818608E-02  0.1235065E+00
          4   -1    0    0  501    0  0.00000000000E+00  0.00000000000E+00  0.95314719175E+01  0.96157088617E+01  0.12700000000E+01 0.  1.
         -4   -1    0    0    0  501 -0.00000000000E+00 -0.00000000000E+00 -0.40795770951E+03  0.40795968630E+03  0.12700000000E+01 0.  1.
         25    2    1    2    0    0  0.00000000000E+00  0.00000000000E+00 -0.39842623759E+03  0.41757539516E+03  0.12500297534E+03 0.  0.
    9000005    1    3    3    0    0  0.16079691066E+02 -0.54706725149E+02 -0.11378098365E+03  0.12727330624E+03  0.10000000000E+01 0.  0.
    9000005    1    3    3    0    0 -0.16079691066E+02  0.54706725149E+02 -0.28464525394E+03  0.29030208892E+03  0.10000000000E+01 0.  0.
<mgrwt>
<rscale>  0 0.12500298E+03</rscale>
<asrwt>0</asrwt>
<pdfrwt beam="1">  1        4 0.14730124E-02 0.12500298E+03</pdfrwt>
<pdfrwt beam="2">  1       -4 0.62769343E-01 0.12500298E+03</pdfrwt>
<totfact> 0.62874463E+03</totfact>
</mgrwt>
</event>
<event>
 5    1  0.3514886E-002  0.1250046E+03  0.7818608E-02  0.1235062E+00
          4   -1    0    0  501    0  0.00000000000E+00  0.00000000000E+00  0.12030294118E+04  0.12030300822E+04  0.12700000000E+01 0. -1.
         -4   -1    0    0    0  501 -0.00000000000E+00 -0.00000000000E+00 -0.31223790772E+01  0.33707790051E+01  0.12700000000E+01 0. -1.
         25    2    1    2    0    0  0.00000000000E+00  0.00000000000E+00  0.11999070327E+04  0.12064008612E+04  0.12500460238E+03 0.  0.
    9000005    1    3    3    0    0 -0.14345069950E+02  0.51138871844E+02  0.28212349912E+03  0.28708123240E+03  0.10000000000E+01 0.  0.
    9000005    1    3    3    0    0  0.14345069950E+02 -0.51138871844E+02  0.91778353361E+03  0.91931962875E+03  0.10000000000E+01 0.  0.
<mgrwt>
<rscale>  0 0.12500460E+03</rscale>
<asrwt>0</asrwt>
<pdfrwt beam="1">  1        4 0.18510054E+00 0.12500460E+03</pdfrwt>
<pdfrwt beam="2">  1       -4 0.49952544E-03 0.12500460E+03</pdfrwt>
<totfact> 0.24543366E+03</totfact>
</mgrwt>
</event>
<event>
 5    1  0.3514886E-002  0.1249907E+03  0.7818608E-02  0.1235084E+00
         -4   -1    0    0    0  501 -0.00000000000E+00  0.00000000000E+00  0.24755721310E+02  0.24788276213E+02  0.12700000000E+01 0.  1.
          4   -1    0    0  501    0  0.00000000000E+00 -0.00000000000E+00 -0.15762957207E+03  0.15763468810E+03  0.12700000000E+01 0.  1.
         25    2    1    2    0    0  0.00000000000E+00  0.00000000000E+00 -0.13287385076E+03  0.18242296431E+03  0.12499071042E+03 0.  0.
    9000005    1    3    3    0    0 -0.59916997700E+02  0.11812521656E+02 -0.85748998558E+02  0.10527807481E+03  0.10000000000E+01 0.  0.
    9000005    1    3    3    0    0  0.59916997700E+02 -0.11812521656E+02 -0.47124852201E+02  0.77144889501E+02  0.10000000000E+01 0.  0.
<mgrwt>
<rscale>  0 0.12499071E+03</rscale>
<asrwt>0</asrwt>
<pdfrwt beam="2">  1        4 0.24253600E-01 0.12499071E+03</pdfrwt>
<pdfrwt beam="1">  1       -4 0.38114704E-02 0.12499071E+03</pdfrwt>
<totfact> 0.93202078E+03</totfact>
</mgrwt>
</event>
<event>
 5    1  0.3514886E-002  0.1250006E+03  0.7818608E-02  0.1235068E+00
          4   -1    0    0  501    0  0.00000000000E+00  0.00000000000E+00  0.25912527953E+02  0.25943631297E+02  0.12700000000E+01 0. -1.
         -4   -1    0    0    0  501 -0.00000000000E+00 -0.00000000000E+00 -0.15062489019E+03  0.15063024412E+03  0.12700000000E+01 0. -1.
         25    2    1    2    0    0  0.00000000000E+00  0.00000000000E+00 -0.12471236224E+03  0.17657387542E+03  0.12500064074E+03 0.  0.
    9000005    1    3    3    0    0  0.11600952186E+02  0.48235539902E+02 -0.86772426889E+01  0.50374040358E+02  0.10000000000E+01 0.  0.
    9000005    1    3    3    0    0 -0.11600952186E+02 -0.48235539902E+02 -0.11603511955E+03  0.12619983506E+03  0.10000000000E+01 0.  0.
<mgrwt>
<rscale>  0 0.12500064E+03</rscale>
<asrwt>0</asrwt>
<pdfrwt beam="1">  1        4 0.39893473E-02 0.12500064E+03</pdfrwt>
<pdfrwt beam="2">  1       -4 0.23175864E-01 0.12500064E+03</pdfrwt>
<totfact> 0.94236023E+03</totfact>
</mgrwt>
</event>
<event>
 5    1  0.3514886E-002  0.1250048E+03  0.7818608E-02  0.1235062E+00
          4   -1    0    0  501    0  0.00000000000E+00  0.00000000000E+00  0.10843958631E+02  0.10918073950E+02  0.12700000000E+01 0. -1.
         -4   -1    0    0    0  501 -0.00000000000E+00 -0.00000000000E+00 -0.35894885794E+03  0.35895110463E+03  0.12700000000E+01 0. -1.
         25    2    1    2    0    0  0.00000000000E+00  0.00000000000E+00 -0.34810489931E+03  0.36986917858E+03  0.12500475328E+03 0.  0.
    9000005    1    3    3    0    0  0.53203485573E+02 -0.32537708866E+02 -0.18597393884E+03  0.19615458013E+03  0.10000000000E+01 0.  0.
    9000005    1    3    3    0    0 -0.53203485573E+02  0.32537708866E+02 -0.16213096047E+03  0.17371459846E+03  0.10000000000E+01 0.  0.
<mgrwt>
<rscale>  0 0.12500475E+03</rscale>
<asrwt>0</asrwt>
<pdfrwt beam="1">  1        4 0.16741756E-02 0.12500475E+03</pdfrwt>
<pdfrwt beam="2">  1       -4 0.55228766E-01 0.12500475E+03</pdfrwt>
<totfact> 0.67585527E+03</totfact>
</mgrwt>
</event>
<event>
 5    1  0.3514886E-002  0.1250021E+03  0.7818608E-02  0.1235066E+00
         -4   -1    0    0    0  501 -0.00000000000E+00  0.00000000000E+00  0.65887897156E+02  0.65900135748E+02  0.12700000000E+01 0. -1.
          4   -1    0    0  501    0  0.00000000000E+00 -0.00000000000E+00 -0.59263772290E+02  0.59277378535E+02  0.12700000000E+01 0. -1.
         25    2    1    2    0    0  0.00000000000E+00  0.00000000000E+00  0.66241248655E+01  0.12517751428E+03  0.12500212419E+03 0.  0.
    9000005    1    3    3    0    0  0.61586633284E+02  0.98198857729E+01  0.73225795821E+01  0.62800985085E+02  0.10000000000E+01 0.  0.
    9000005    1    3    3    0    0 -0.61586633284E+02 -0.98198857729E+01 -0.69845471654E+00  0.62376529199E+02  0.10000000000E+01 0.  0.
<mgrwt>
<rscale>  0 0.12500212E+03</rscale>
<asrwt>0</asrwt>
<pdfrwt beam="2">  1        4 0.91194915E-02 0.12500212E+03</pdfrwt>
<pdfrwt beam="1">  1       -4 0.10138588E-01 0.12500212E+03</pdfrwt>
<totfact> 0.10448507E+04</totfact>
</mgrwt>
</event>
<event>
 5    1  0.3514886E-002  0.1249977E+03  0.7818608E-02  0.1235073E+00
          4   -1    0    0  501    0  0.00000000000E+00  0.00000000000E+00  0.10001549680E+02  0.10081859749E+02  0.12700000000E+01 0.  1.
         -4   -1    0    0    0  501 -0.00000000000E+00 -0.00000000000E+00 -0.38890714890E+03  0.38890922253E+03  0.12700000000E+01 0.  1.
         25    2    1    2    0    0  0.00000000000E+00  0.00000000000E+00 -0.37890559922E+03  0.39899108228E+03  0.12499772244E+03 0.  0.
    9000005    1    3    3    0    0 -0.56289435887E+01  0.62034904102E+02 -0.17346310537E+03  0.18431077901E+03  0.10000000000E+01 0.  0.
    9000005    1    3    3    0    0  0.56289435887E+01 -0.62034904102E+02 -0.20544249385E+03  0.21468030327E+03  0.10000000000E+01 0.  0.
<mgrwt>
<rscale>  0 0.12499772E+03</rscale>
<asrwt>0</asrwt>
<pdfrwt beam="1">  1        4 0.15450375E-02 0.12499772E+03</pdfrwt>
<pdfrwt beam="2">  1       -4 0.59838194E-01 0.12499772E+03</pdfrwt>
<totfact> 0.64654290E+03</totfact>
</mgrwt>
</event>
<event>
 5    1  0.3514886E-002  0.1249951E+03  0.7818608E-02  0.1235077E+00
          4   -1    0    0  501    0  0.00000000000E+00  0.00000000000E+00  0.40884436917E+02  0.40904157271E+02  0.12700000000E+01 0.  1.
         -4   -1    0    0    0  501 -0.00000000000E+00 -0.00000000000E+00 -0.95489244363E+02  0.95497689443E+02  0.12700000000E+01 0.  1.
         25    2    1    2    0    0  0.00000000000E+00  0.00000000000E+00 -0.54604807446E+02  0.13640184671E+03  0.12499511507E+03 0.  0.
    9000005    1    3    3    0    0 -0.93616685744E+01  0.18597028042E+02 -0.91598253760E+02  0.93940036100E+02  0.10000000000E+01 0.  0.
    9000005    1    3    3    0    0  0.93616685744E+01 -0.18597028042E+02  0.36993446314E+02  0.42461810615E+02  0.10000000000E+01 0.  0.
<mgrwt>
<rscale>  0 0.12499512E+03</rscale>
<asrwt>0</asrwt>
<pdfrwt beam="1">  1        4 0.62920800E-02 0.12499512E+03</pdfrwt>
<pdfrwt beam="2">  1       -4 0.14692819E-01 0.12499512E+03</pdfrwt>
<totfact> 0.10209732E+04</totfact>
</mgrwt>
</event>
<event>
 5    1  0.3514886E-002  0.1250008E+03  0.7818608E-02  0.1235068E+00
         -4   -1    0    0    0  501 -0.00000000000E+00  0.00000000000E+00  0.97568029310E+01  0.98391109067E+01  0.12700000000E+01 0. -1.
          4   -1    0    0  501    0  0.00000000000E+00 -0.00000000000E+00 -0.39860204390E+03  0.39860406709E+03  0.12700000000E+01 0. -1.
         25    2    1    2    0    0  0.00000000000E+00  0.00000000000E+00 -0.38884524097E+03  0.40844317800E+03  0.12500083291E+03 0.  0.
    9000005    1    3    3    0    0  0.39836446875E+02  0.45222517636E+02 -0.14040624860E+03  0.15279703284E+03  0.10000000000E+01 0.  0.
    9000005    1    3    3    0    0 -0.39836446875E+02 -0.45222517636E+02 -0.24843899237E+03  0.25564614516E+03  0.10000000000E+01 0.  0.
<mgrwt>
<rscale>  0 0.12500083E+03</rscale>
<asrwt>0</asrwt>
<pdfrwt beam="2">  1        4 0.61329866E-01 0.12500083E+03</pdfrwt>
<pdfrwt beam="1">  1       -4 0.15075339E-02 0.12500083E+03</pdfrwt>
<totfact> 0.63738651E+03</totfact>
</mgrwt>
</event>
<event>
 5    1  0.3514886E-002  0.1250021E+03  0.7818608E-02  0.1235066E+00
         -4   -1    0    0    0  501 -0.00000000000E+00  0.00000000000E+00  0.14369517760E+02  0.14425530862E+02  0.12700000000E+01 0.  1.
          4   -1    0    0  501    0  0.00000000000E+00 -0.00000000000E+00 -0.27126581675E+03  0.27126878964E+03  0.12700000000E+01 0.  1.
         25    2    1    2    0    0  0.00000000000E+00  0.00000000000E+00 -0.25689629899E+03  0.28569432051E+03  0.12500214533E+03 0.  0.
    9000005    1    3    3    0    0 -0.50266550580E+02  0.36850646959E+02 -0.13884355054E+03  0.15219470364E+03  0.10000000000E+01 0.  0.
    9000005    1    3    3    0    0  0.50266550580E+02 -0.36850646959E+02 -0.11805274844E+03  0.13349961686E+03  0.10000000000E+01 0.  0.
<mgrwt>
<rscale>  0 0.12500215E+03</rscale>
<asrwt>0</asrwt>
<pdfrwt beam="2">  1        4 0.41737736E-01 0.12500215E+03</pdfrwt>
<pdfrwt beam="1">  1       -4 0.22152326E-02 0.12500215E+03</pdfrwt>
<totfact> 0.77425399E+03</totfact>
</mgrwt>
</event>
<event>
 5    1  0.3514886E-002  0.1250138E+03  0.7818608E-02  0.1235048E+00
         -4   -1    0    0    0  501 -0.00000000000E+00  0.00000000000E+00  0.32431618195E+02  0.32456474836E+02  0.12700000000E+01 0. -1.
          4   -1    0    0  501    0  0.00000000000E+00 -0.00000000000E+00 -0.12039798595E+03  0.12040468396E+03  0.12700000000E+01 0. -1.
         25    2    1    2    0    0  0.00000000000E+00  0.00000000000E+00 -0.87966367751E+02  0.15286115880E+03  0.12501380729E+03 0.  0.
    9000005    1    3    3    0    0  0.19959378729E+02  0.35600673533E+02  0.13892347729E+02  0.43125190790E+02  0.10000000000E+01 0.  0.
    9000005    1    3    3    0    0 -0.19959378729E+02 -0.35600673533E+02 -0.10185871548E+03  0.10973596801E+03  0.10000000000E+01 0.  0.
<mgrwt>
<rscale>  0 0.12501381E+03</rscale>
<asrwt>0</asrwt>
<pdfrwt beam="2">  1        4 0.18525194E-01 0.12501381E+03</pdfrwt>
<pdfrwt beam="1">  1       -4 0.49919071E-02 0.12501381E+03</pdfrwt>
<totfact> 0.98705731E+03</totfact>
</mgrwt>
</event>
<event>
 5    1  0.3514886E-002  0.1250005E+03  0.7818608E-02  0.1235069E+00
         -4   -1    0    0    0  501 -0.00000000000E+00  0.00000000000E+00  0.44307772177E+02  0.44325969536E+02  0.12700000000E+01 0.  1.
          4   -1    0    0  501    0  0.00000000000E+00 -0.00000000000E+00 -0.88121534668E+02  0.88130685758E+02  0.12700000000E+01 0.  1.
         25    2    1    2    0    0  0.00000000000E+00  0.00000000000E+00 -0.43813762490E+02  0.13245665529E+03  0.12500047899E+03 0.  0.
    9000005    1    3    3    0    0 -0.48283114873E+02 -0.11101980626E+02 -0.62267787440E+02  0.79578832036E+02  0.10000000000E+01 0.  0.
    9000005    1    3    3    0    0  0.48283114873E+02  0.11101980626E+02  0.18454024949E+02  0.52877823258E+02  0.10000000000E+01 0.  0.
<mgrwt>
<rscale>  0 0.12500048E+03</rscale>
<asrwt>0</asrwt>
<pdfrwt beam="2">  1        4 0.13559263E-01 0.12500048E+03</pdfrwt>
<pdfrwt beam="1">  1       -4 0.68186841E-02 0.12500048E+03</pdfrwt>
<totfact> 0.10291850E+04</totfact>
</mgrwt>
</event>
<event>
 5    1  0.3514886E-002  0.1250014E+03  0.7818608E-02  0.1235067E+00
          4   -1    0    0  501    0  0.00000000000E+00  0.00000000000E+00  0.25767595696E+02  0.25798873773E+02  0.12700000000E+01 0.  1.
         -4   -1    0    0    0  501 -0.00000000000E+00 -0.00000000000E+00 -0.15147283249E+03  0.15147815645E+03  0.12700000000E+01 0.  1.
         25    2    1    2    0    0  0.00000000000E+00  0.00000000000E+00 -0.12570523680E+03  0.17727703023E+03  0.12500135555E+03 0.  0.
    9000005    1    3    3    0    0  0.17659972457E+02  0.65235391571E+01  0.21657202646E+02  0.28713509307E+02  0.10000000000E+01 0.  0.
    9000005    1    3    3    0    0 -0.17659972457E+02 -0.65235391571E+01 -0.14736243944E+03  0.14856352092E+03  0.10000000000E+01 0.  0.
<mgrwt>
<rscale>  0 0.12500136E+03</rscale>
<asrwt>0</asrwt>
<pdfrwt beam="1">  1        4 0.39670611E-02 0.12500136E+03</pdfrwt>
<pdfrwt beam="2">  1       -4 0.23306328E-01 0.12500136E+03</pdfrwt>
<totfact> 0.94106594E+03</totfact>
</mgrwt>
</event>
<event>
 5    1  0.3514886E-002  0.1250001E+03  0.7818608E-02  0.1235069E+00
         -4   -1    0    0    0  501 -0.00000000000E+00  0.00000000000E+00  0.26248209250E+02  0.26278915290E+02  0.12700000000E+01 0. -1.
          4   -1    0    0  501    0  0.00000000000E+00 -0.00000000000E+00 -0.14869940862E+03  0.14870483188E+03  0.12700000000E+01 0. -1.
         25    2    1    2    0    0  0.00000000000E+00  0.00000000000E+00 -0.12245119937E+03  0.17498374717E+03  0.12500006218E+03 0.  0.
    9000005    1    3    3    0    0  0.94954870176E+01  0.87511694906E+01 -0.14681826727E+03  0.14738843525E+03  0.10000000000E+01 0.  0.
    9000005    1    3    3    0    0 -0.94954870176E+01 -0.87511694906E+01  0.24367067907E+02  0.27595311912E+02  0.10000000000E+01 0.  0.
<mgrwt>
<rscale>  0 0.12500006E+03</rscale>
<asrwt>0</asrwt>
<pdfrwt beam="2">  1        4 0.22879611E-01 0.12500006E+03</pdfrwt>
<pdfrwt beam="1">  1       -4 0.40409653E-02 0.12500006E+03</pdfrwt>
<totfact> 0.94527686E+03</totfact>
</mgrwt>
</event>
<event>
 5    1  0.3514886E-002  0.1249976E+03  0.7818608E-02  0.1235073E+00
         -4   -1    0    0    0  501 -0.00000000000E+00  0.00000000000E+00  0.27879094035E+02  0.27908005736E+02  0.12700000000E+01 0. -1.
          4   -1    0    0  501    0  0.00000000000E+00 -0.00000000000E+00 -0.14000412036E+03  0.14000988043E+03  0.12700000000E+01 0. -1.
         25    2    1    2    0    0  0.00000000000E+00  0.00000000000E+00 -0.11212502633E+03  0.16791788617E+03  0.12499757984E+03 0.  0.
    9000005    1    3    3    0    0  0.22013151536E+02  0.33112112271E+02  0.86999710710E+01  0.40714620424E+02  0.10000000000E+01 0.  0.
    9000005    1    3    3    0    0 -0.22013151536E+02 -0.33112112271E+02 -0.12082499740E+03  0.12720326574E+03  0.10000000000E+01 0.  0.
<mgrwt>
<rscale>  0 0.12499758E+03</rscale>
<asrwt>0</asrwt>
<pdfrwt beam="2">  1        4 0.21541762E-01 0.12499758E+03</pdfrwt>
<pdfrwt beam="1">  1       -4 0.42917585E-02 0.12499758E+03</pdfrwt>
<totfact> 0.95842836E+03</totfact>
</mgrwt>
</event>
<event>
 5    1  0.3514886E-002  0.1249998E+03  0.7818608E-02  0.1235070E+00
          4   -1    0    0  501    0  0.00000000000E+00  0.00000000000E+00  0.92008081550E+02  0.92016846123E+02  0.12700000000E+01 0. -1.
         -4   -1    0    0    0  501 -0.00000000000E+00 -0.00000000000E+00 -0.42435071280E+02  0.42454071354E+02  0.12700000000E+01 0. -1.
         25    2    1    2    0    0  0.00000000000E+00  0.00000000000E+00  0.49573010271E+02  0.13447091748E+03  0.12499977720E+03 0.  0.
    9000005    1    3    3    0    0  0.42286457933E+02 -0.41371558040E+02  0.46448922532E+02  0.75221358294E+02  0.10000000000E+01 0.  0.
    9000005    1    3    3    0    0 -0.42286457933E+02  0.41371558040E+02  0.31240877390E+01  0.59249559183E+02  0.10000000000E+01 0.  0.
<mgrwt>
<rscale>  0 0.12499978E+03</rscale>
<asrwt>0</asrwt>
<pdfrwt beam="1">  1        4 0.14157225E-01 0.12499978E+03</pdfrwt>
<pdfrwt beam="2">  1       -4 0.65306083E-02 0.12499978E+03</pdfrwt>
<totfact> 0.10249286E+04</totfact>
</mgrwt>
</event>
<event>
 5    1  0.3514886E-002  0.1249960E+03  0.7818608E-02  0.1235075E+00
         -4   -1    0    0    0  501 -0.00000000000E+00  0.00000000000E+00  0.78184250879E+01  0.79209008866E+01  0.12700000000E+01 0.  1.
          4   -1    0    0  501    0  0.00000000000E+00 -0.00000000000E+00 -0.49623334721E+03  0.49623497235E+03  0.12700000000E+01 0.  1.
         25    2    1    2    0    0  0.00000000000E+00  0.00000000000E+00 -0.48841492212E+03  0.50415587324E+03  0.12499603341E+03 0.  0.
    9000005    1    3    3    0    0  0.26287902216E+02 -0.53036741726E+02 -0.16343392162E+03  0.17382634009E+03  0.10000000000E+01 0.  0.
    9000005    1    3    3    0    0 -0.26287902216E+02  0.53036741726E+02 -0.32498100051E+03  0.33032953314E+03  0.10000000000E+01 0.  0.
<mgrwt>
<rscale>  0 0.12499603E+03</rscale>
<asrwt>0</asrwt>
<pdfrwt beam="2">  1        4 0.76351575E-01 0.12499603E+03</pdfrwt>
<pdfrwt beam="1">  1       -4 0.12108428E-02 0.12499603E+03</pdfrwt>
<totfact> 0.55548212E+03</totfact>
</mgrwt>
</event>
<event>
 5    1  0.3514886E-002  0.1249990E+03  0.7818608E-02  0.1235071E+00
         -4   -1    0    0    0  501 -0.00000000000E+00  0.00000000000E+00  0.51121868296E+03  0.51122026046E+03  0.12700000000E+01 0.  1.
          4   -1    0    0  501    0  0.00000000000E+00 -0.00000000000E+00 -0.75865572499E+01  0.76921226528E+01  0.12700000000E+01 0.  1.
         25    2    1    2    0    0  0.00000000000E+00  0.00000000000E+00  0.50363212571E+03  0.51891238312E+03  0.12499897321E+03 0.  0.
    9000005    1    3    3    0    0  0.20530956822E+02 -0.58718924591E+02  0.22699347430E+03  0.23536454633E+03  0.10000000000E+01 0.  0.
    9000005    1    3    3    0    0 -0.20530956822E+02  0.58718924591E+02  0.27663865141E+03  0.28354783679E+03  0.10000000000E+01 0.  0.
<mgrwt>
<rscale>  0 0.12499897E+03</rscale>
<asrwt>0</asrwt>
<pdfrwt beam="2">  1        4 0.11754041E-02 0.12499897E+03</pdfrwt>
<pdfrwt beam="1">  1       -4 0.78657289E-01 0.12499897E+03</pdfrwt>
<totfact> 0.54427504E+03</totfact>
</mgrwt>
</event>
<event>
 5    1  0.3514886E-002  0.1250008E+03  0.7818608E-02  0.1235068E+00
          4   -1    0    0  501    0  0.00000000000E+00  0.00000000000E+00  0.44670440888E+01  0.46440696476E+01  0.12700000000E+01 0.  1.
         -4   -1    0    0    0  501 -0.00000000000E+00 -0.00000000000E+00 -0.85730262987E+03  0.85730357055E+03  0.12700000000E+01 0.  1.
         25    2    1    2    0    0  0.00000000000E+00  0.00000000000E+00 -0.85283558578E+03  0.86194764020E+03  0.12500079228E+03 0.  0.
    9000005    1    3    3    0    0 -0.16400568214E+02 -0.20721669543E+02 -0.81691063940E+03  0.81733858284E+03  0.10000000000E+01 0.  0.
    9000005    1    3    3    0    0  0.16400568214E+02  0.20721669543E+02 -0.35924946376E+02  0.44609057360E+02  0.10000000000E+01 0.  0.
<mgrwt>
<rscale>  0 0.12500079E+03</rscale>
<asrwt>0</asrwt>
<pdfrwt beam="1">  1        4 0.70092794E-03 0.12500079E+03</pdfrwt>
<pdfrwt beam="2">  1       -4 0.13190627E+00 0.12500079E+03</pdfrwt>
<totfact> 0.35642759E+03</totfact>
</mgrwt>
</event>
<event>
 5    1  0.3514886E-002  0.1250014E+03  0.7818608E-02  0.1235067E+00
          4   -1    0    0  501    0  0.00000000000E+00  0.00000000000E+00  0.59681610093E+01  0.61017903793E+01  0.12700000000E+01 0.  1.
         -4   -1    0    0    0  501 -0.00000000000E+00 -0.00000000000E+00 -0.64714859543E+03  0.64714984159E+03  0.12700000000E+01 0.  1.
         25    2    1    2    0    0  0.00000000000E+00  0.00000000000E+00 -0.64118043442E+03  0.65325163197E+03  0.12500138073E+03 0.  0.
    9000005    1    3    3    0    0 -0.12909490522E+02 -0.57684016261E+02 -0.42656707898E+03  0.43064437015E+03  0.10000000000E+01 0.  0.
    9000005    1    3    3    0    0  0.12909490522E+02  0.57684016261E+02 -0.21461335545E+03  0.22260726182E+03  0.10000000000E+01 0.  0.
<mgrwt>
<rscale>  0 0.12500138E+03</rscale>
<asrwt>0</asrwt>
<pdfrwt beam="1">  1        4 0.92855417E-03 0.12500138E+03</pdfrwt>
<pdfrwt beam="2">  1       -4 0.99571643E-01 0.12500138E+03</pdfrwt>
<totfact> 0.45668385E+03</totfact>
</mgrwt>
</event>
<event>
 5    1  0.3514886E-002  0.1250059E+03  0.7818608E-02  0.1235060E+00
         -4   -1    0    0    0  501 -0.00000000000E+00  0.00000000000E+00  0.48232692073E+02  0.48249409163E+02  0.12700000000E+01 0. -1.
          4   -1    0    0  501    0  0.00000000000E+00 -0.00000000000E+00 -0.80959508087E+02  0.80969468627E+02  0.12700000000E+01 0. -1.
         25    2    1    2    0    0  0.00000000000E+00  0.00000000000E+00 -0.32726816014E+02  0.12921887779E+03  0.12500589542E+03 0.  0.
    9000005    1    3    3    0    0  0.30994635073E+02  0.45865955416E+02  0.13618684005E+02  0.57015978668E+02  0.10000000000E+01 0.  0.
    9000005    1    3    3    0    0 -0.30994635073E+02 -0.45865955416E+02 -0.46345500019E+02  0.72202899121E+02  0.10000000000E+01 0.  0.
<mgrwt>
<rscale>  0 0.12500590E+03</rscale>
<asrwt>0</asrwt>
<pdfrwt beam="2">  1        4 0.12457361E-01 0.12500590E+03</pdfrwt>
<pdfrwt beam="1">  1       -4 0.74224663E-02 0.12500590E+03</pdfrwt>
<totfact> 0.10359867E+04</totfact>
</mgrwt>
</event>
<event>
 5    1  0.3514886E-002  0.1249977E+03  0.7818608E-02  0.1235073E+00
          4   -1    0    0  501    0  0.00000000000E+00  0.00000000000E+00  0.62449027678E+02  0.62461940075E+02  0.12700000000E+01 0.  1.
         -4   -1    0    0    0  501 -0.00000000000E+00 -0.00000000000E+00 -0.62522848815E+02  0.62535745970E+02  0.12700000000E+01 0.  1.
         25    2    1    2    0    0  0.00000000000E+00  0.00000000000E+00 -0.73821137492E-01  0.12499768604E+03  0.12499766425E+03 0.  0.
    9000005    1    3    3    0    0 -0.21461919990E+02  0.51170406753E+02 -0.28778514002E+02  0.62515817239E+02  0.10000000000E+01 0.  0.
    9000005    1    3    3    0    0  0.21461919990E+02 -0.51170406753E+02  0.28704692864E+02  0.62481868805E+02  0.10000000000E+01 0.  0.
<mgrwt>
<rscale>  0 0.12499766E+03</rscale>
<asrwt>0</asrwt>
<pdfrwt beam="1">  1        4 0.96095281E-02 0.12499766E+03</pdfrwt>
<pdfrwt beam="2">  1       -4 0.96208852E-02 0.12499766E+03</pdfrwt>
<totfact> 0.10453465E+04</totfact>
</mgrwt>
</event>
<event>
 5    1  0.3514886E-002  0.1249999E+03  0.7818608E-02  0.1235069E+00
          4   -1    0    0  501    0  0.00000000000E+00  0.00000000000E+00  0.12911224196E+03  0.12911848793E+03  0.12700000000E+01 0. -1.
         -4   -1    0    0    0  501 -0.00000000000E+00 -0.00000000000E+00 -0.30234341920E+02  0.30261003476E+02  0.12700000000E+01 0. -1.
         25    2    1    2    0    0  0.00000000000E+00  0.00000000000E+00  0.98877900043E+02  0.15937949140E+03  0.12499993265E+03 0.  0.
    9000005    1    3    3    0    0  0.25102323199E+02 -0.41475742430E+02  0.99716183064E+02  0.11088138259E+03  0.10000000000E+01 0.  0.
    9000005    1    3    3    0    0 -0.25102323199E+02  0.41475742430E+02 -0.83828302094E+00  0.48498108814E+02  0.10000000000E+01 0.  0.
<mgrwt>
<rscale>  0 0.12499993E+03</rscale>
<asrwt>0</asrwt>
<pdfrwt beam="1">  1        4 0.19865953E-01 0.12499993E+03</pdfrwt>
<pdfrwt beam="2">  1       -4 0.46539686E-02 0.12499993E+03</pdfrwt>
<totfact> 0.97462695E+03</totfact>
</mgrwt>
</event>
<event>
 5    1  0.3514886E-002  0.1250016E+03  0.7818608E-02  0.1235067E+00
         -4   -1    0    0    0  501 -0.00000000000E+00  0.00000000000E+00  0.35117990446E+02  0.35140946956E+02  0.12700000000E+01 0. -1.
          4   -1    0    0  501    0  0.00000000000E+00 -0.00000000000E+00 -0.11117209791E+03  0.11117935174E+03  0.12700000000E+01 0. -1.
         25    2    1    2    0    0  0.00000000000E+00  0.00000000000E+00 -0.76054107460E+02  0.14632029869E+03  0.12500161018E+03 0.  0.
    9000005    1    3    3    0    0 -0.17616343942E+02  0.10215389506E+02 -0.10718511358E+03  0.10910700404E+03  0.10000000000E+01 0.  0.
    9000005    1    3    3    0    0  0.17616343942E+02 -0.10215389506E+02  0.31131006124E+02  0.37213294653E+02  0.10000000000E+01 0.  0.
<mgrwt>
<rscale>  0 0.12500161E+03</rscale>
<asrwt>0</asrwt>
<pdfrwt beam="2">  1        4 0.17105723E-01 0.12500161E+03</pdfrwt>
<pdfrwt beam="1">  1       -4 0.54050917E-02 0.12500161E+03</pdfrwt>
<totfact> 0.10003869E+04</totfact>
</mgrwt>
</event>
<event>
 5    1  0.3514886E-002  0.1250026E+03  0.7818608E-02  0.1235065E+00
         -4   -1    0    0    0  501 -0.00000000000E+00  0.00000000000E+00  0.18719819995E+02  0.18762850547E+02  0.12700000000E+01 0.  1.
          4   -1    0    0  501    0  0.00000000000E+00 -0.00000000000E+00 -0.20839320060E+03  0.20839707041E+03  0.12700000000E+01 0.  1.
         25    2    1    2    0    0  0.00000000000E+00  0.00000000000E+00 -0.18967338060E+03  0.22715992096E+03  0.12500255349E+03 0.  0.
    9000005    1    3    3    0    0 -0.38276568792E+02 -0.40531968994E+02 -0.43518549036E+02  0.70730476735E+02  0.10000000000E+01 0.  0.
    9000005    1    3    3    0    0  0.38276568792E+02  0.40531968994E+02 -0.14615483157E+03  0.15642944422E+03  0.10000000000E+01 0.  0.
<mgrwt>
<rscale>  0 0.12500255E+03</rscale>
<asrwt>0</asrwt>
<pdfrwt beam="2">  1        4 0.32064099E-01 0.12500255E+03</pdfrwt>
<pdfrwt beam="1">  1       -4 0.28835802E-02 0.12500255E+03</pdfrwt>
<totfact> 0.85742724E+03</totfact>
</mgrwt>
</event>
<event>
 5    1  0.3514886E-002  0.1249973E+03  0.7818608E-02  0.1235073E+00
          4   -1    0    0  501    0  0.00000000000E+00  0.00000000000E+00  0.61519473517E+02  0.61532580978E+02  0.12700000000E+01 0. -1.
         -4   -1    0    0    0  501 -0.00000000000E+00 -0.00000000000E+00 -0.63467232186E+02  0.63479937472E+02  0.12700000000E+01 0. -1.
         25    2    1    2    0    0  0.00000000000E+00  0.00000000000E+00 -0.19477586690E+01  0.12501251845E+03  0.12499734399E+03 0.  0.
    9000005    1    3    3    0    0 -0.57981232288E+02 -0.20974498372E+02 -0.11140305043E+02  0.62664657312E+02  0.10000000000E+01 0.  0.
    9000005    1    3    3    0    0  0.57981232288E+02  0.20974498372E+02  0.91925463744E+01  0.62347861138E+02  0.10000000000E+01 0.  0.
<mgrwt>
<rscale>  0 0.12499734E+03</rscale>
<asrwt>0</asrwt>
<pdfrwt beam="1">  1        4 0.94665200E-02 0.12499734E+03</pdfrwt>
<pdfrwt beam="2">  1       -4 0.97661751E-02 0.12499734E+03</pdfrwt>
<totfact> 0.10453218E+04</totfact>
</mgrwt>
</event>
<event>
 5    1  0.3514886E-002  0.1250031E+03  0.7818608E-02  0.1235064E+00
         -4   -1    0    0    0  501 -0.00000000000E+00  0.00000000000E+00  0.60787180566E+03  0.60787313234E+03  0.12700000000E+01 0. -1.
          4   -1    0    0  501    0  0.00000000000E+00 -0.00000000000E+00 -0.63623319782E+01  0.64878477326E+01  0.12700000000E+01 0. -1.
         25    2    1    2    0    0  0.00000000000E+00  0.00000000000E+00  0.60150947369E+03  0.61436098007E+03  0.12500306757E+03 0.  0.
    9000005    1    3    3    0    0  0.59095288408E+02  0.17406497118E+02  0.35234866819E+03  0.35769515404E+03  0.10000000000E+01 0.  0.
    9000005    1    3    3    0    0 -0.59095288408E+02 -0.17406497118E+02  0.24916080550E+03  0.25666582603E+03  0.10000000000E+01 0.  0.
<mgrwt>
<rscale>  0 0.12500307E+03</rscale>
<asrwt>0</asrwt>
<pdfrwt beam="2">  1        4 0.98857721E-03 0.12500307E+03</pdfrwt>
<pdfrwt beam="1">  1       -4 0.93528516E-01 0.12500307E+03</pdfrwt>
<totfact> 0.47970239E+03</totfact>
</mgrwt>
</event>
<event>
 5    1  0.3514886E-002  0.1250004E+03  0.7818608E-02  0.1235069E+00
         -4   -1    0    0    0  501 -0.00000000000E+00  0.00000000000E+00  0.22999504483E+02  0.23034541594E+02  0.12700000000E+01 0.  1.
          4   -1    0    0  501    0  0.00000000000E+00 -0.00000000000E+00 -0.16967509392E+03  0.16967984676E+03  0.12700000000E+01 0.  1.
         25    2    1    2    0    0  0.00000000000E+00  0.00000000000E+00 -0.14667558944E+03  0.19271438836E+03  0.12500042777E+03 0.  0.
    9000005    1    3    3    0    0  0.54015366849E+02 -0.12861976527E+02 -0.11754446421E+03  0.13000304366E+03  0.10000000000E+01 0.  0.
    9000005    1    3    3    0    0 -0.54015366849E+02  0.12861976527E+02 -0.29131125233E+02  0.62711344694E+02  0.10000000000E+01 0.  0.
<mgrwt>
<rscale>  0 0.12500043E+03</rscale>
<asrwt>0</asrwt>
<pdfrwt beam="2">  1        4 0.26106921E-01 0.12500043E+03</pdfrwt>
<pdfrwt beam="1">  1       -4 0.35414462E-02 0.12500043E+03</pdfrwt>
<totfact> 0.91376279E+03</totfact>
</mgrwt>
</event>
<event>
 5    1  0.3514886E-002  0.1249980E+03  0.7818608E-02  0.1235072E+00
          4   -1    0    0  501    0  0.00000000000E+00  0.00000000000E+00  0.27440368279E+02  0.27469741740E+02  0.12700000000E+01 0. -1.
         -4   -1    0    0    0  501 -0.00000000000E+00 -0.00000000000E+00 -0.14224127570E+03  0.14224694518E+03  0.12700000000E+01 0. -1.
         25    2    1    2    0    0  0.00000000000E+00  0.00000000000E+00 -0.11480090742E+03  0.16971668692E+03  0.12499802188E+03 0.  0.
    9000005    1    3    3    0    0  0.50032510924E+02  0.14702146860E+02 -0.10647109757E+02  0.53233130828E+02  0.10000000000E+01 0.  0.
    9000005    1    3    3    0    0 -0.50032510924E+02 -0.14702146860E+02 -0.10415379767E+03  0.11648355609E+03  0.10000000000E+01 0.  0.
<mgrwt>
<rscale>  0 0.12499802E+03</rscale>
<asrwt>0</asrwt>
<pdfrwt beam="1">  1        4 0.42242908E-02 0.12499802E+03</pdfrwt>
<pdfrwt beam="2">  1       -4 0.21885968E-01 0.12499802E+03</pdfrwt>
<totfact> 0.95505709E+03</totfact>
</mgrwt>
</event>
<event>
 5    1  0.3514886E-002  0.1250007E+03  0.7818608E-02  0.1235068E+00
          4   -1    0    0  501    0  0.00000000000E+00  0.00000000000E+00  0.23741573913E+02  0.23775517489E+02  0.12700000000E+01 0. -1.
         -4   -1    0    0    0  501 -0.00000000000E+00 -0.00000000000E+00 -0.16437999309E+03  0.16438489902E+03  0.12700000000E+01 0. -1.
         25    2    1    2    0    0  0.00000000000E+00  0.00000000000E+00 -0.14063841917E+03  0.18816041651E+03  0.12500070958E+03 0.  0.
    9000005    1    3    3    0    0  0.40228156488E+02 -0.40739812753E+02 -0.10801897909E+03  0.12225848339E+03  0.10000000000E+01 0.  0.
    9000005    1    3    3    0    0 -0.40228156488E+02  0.40739812753E+02 -0.32619440083E+02  0.65901933120E+02  0.10000000000E+01 0.  0.
<mgrwt>
<rscale>  0 0.12500071E+03</rscale>
<asrwt>0</asrwt>
<pdfrwt beam="1">  1        4 0.36555384E-02 0.12500071E+03</pdfrwt>
<pdfrwt beam="2">  1       -4 0.25292217E-01 0.12500071E+03</pdfrwt>
<totfact> 0.92166920E+03</totfact>
</mgrwt>
</event>
<event>
 5    1  0.3514886E-002  0.1249998E+03  0.7818608E-02  0.1235070E+00
          4   -1    0    0  501    0  0.00000000000E+00  0.00000000000E+00  0.74472245739E+03  0.74472354027E+03  0.12700000000E+01 0. -1.
         -4   -1    0    0    0  501 -0.00000000000E+00 -0.00000000000E+00 -0.51672456447E+01  0.53210269265E+01  0.12700000000E+01 0. -1.
         25    2    1    2    0    0  0.00000000000E+00  0.00000000000E+00  0.73955521174E+03  0.75004456720E+03  0.12499976628E+03 0.  0.
    9000005    1    3    3    0    0 -0.48537113778E+02 -0.13150402901E+02  0.14716065608E+03  0.15551862656E+03  0.10000000000E+01 0.  0.
    9000005    1    3    3    0    0  0.48537113778E+02  0.13150402901E+02  0.59239455566E+03  0.59452594063E+03  0.10000000000E+01 0.  0.
<mgrwt>
<rscale>  0 0.12499977E+03</rscale>
<asrwt>0</asrwt>
<pdfrwt beam="1">  1        4 0.11458467E+00 0.12499977E+03</pdfrwt>
<pdfrwt beam="2">  1       -4 0.80687302E-03 0.12499977E+03</pdfrwt>
<totfact> 0.40572189E+03</totfact>
</mgrwt>
</event>
<event>
 5    1  0.3514886E-002  0.1250001E+03  0.7818608E-02  0.1235069E+00
          4   -1    0    0  501    0  0.00000000000E+00  0.00000000000E+00  0.93651240305E+02  0.93659851114E+02  0.12700000000E+01 0.  1.
         -4   -1    0    0    0  501 -0.00000000000E+00 -0.00000000000E+00 -0.41690476357E+02  0.41709815618E+02  0.12700000000E+01 0.  1.
         25    2    1    2    0    0  0.00000000000E+00  0.00000000000E+00  0.51960763948E+02  0.13536966673E+03  0.12500010272E+03 0.  0.
    9000005    1    3    3    0    0 -0.78132959809E+01  0.53781346334E+02 -0.74297565393E+01  0.54860569536E+02  0.10000000000E+01 0.  0.
    9000005    1    3    3    0    0  0.78132959809E+01 -0.53781346334E+02  0.59390520487E+02  0.80509097196E+02  0.10000000000E+01 0.  0.
<mgrwt>
<rscale>  0 0.12500010E+03</rscale>
<asrwt>0</asrwt>
<pdfrwt beam="1">  1        4 0.14410033E-01 0.12500010E+03</pdfrwt>
<pdfrwt beam="2">  1       -4 0.64160695E-02 0.12500010E+03</pdfrwt>
<totfact> 0.10230261E+04</totfact>
</mgrwt>
</event>
<event>
 5    1  0.3514886E-002  0.1249996E+03  0.7818608E-02  0.1235070E+00
         -4   -1    0    0    0  501 -0.00000000000E+00  0.00000000000E+00  0.15494270474E+02  0.15546231618E+02  0.12700000000E+01 0.  1.
          4   -1    0    0  501    0  0.00000000000E+00 -0.00000000000E+00 -0.25163220331E+03  0.25163540817E+03  0.12700000000E+01 0.  1.
         25    2    1    2    0    0  0.00000000000E+00  0.00000000000E+00 -0.23613793284E+03  0.26718163978E+03  0.12499962125E+03 0.  0.
    9000005    1    3    3    0    0  0.45441749623E+02 -0.23651894122E+02 -0.41571153150E+02  0.65981250962E+02  0.10000000000E+01 0.  0.
    9000005    1    3    3    0    0 -0.45441749623E+02  0.23651894122E+02 -0.19456677969E+03  0.20120038882E+03  0.10000000000E+01 0.  0.
<mgrwt>
<rscale>  0 0.12499962E+03</rscale>
<asrwt>0</asrwt>
<pdfrwt beam="2">  1        4 0.38716887E-01 0.12499962E+03</pdfrwt>
<pdfrwt beam="1">  1       -4 0.23879776E-02 0.12499962E+03</pdfrwt>
<totfact> 0.79909340E+03</totfact>
</mgrwt>
</event>
<event>
 5    1  0.3514886E-002  0.1249970E+03  0.7818608E-02  0.1235074E+00
         -4   -1    0    0    0  501 -0.00000000000E+00  0.00000000000E+00  0.27350640196E+02  0.27380109918E+02  0.12700000000E+01 0. -1.
          4   -1    0    0  501    0  0.00000000000E+00 -0.00000000000E+00 -0.14270519229E+03  0.14271084334E+03  0.12700000000E+01 0. -1.
         25    2    1    2    0    0  0.00000000000E+00  0.00000000000E+00 -0.11535455209E+03  0.17009095326E+03  0.12499703873E+03 0.  0.
    9000005    1    3    3    0    0  0.22780909229E+02  0.46874433079E+02 -0.10459651726E+03  0.11686579365E+03  0.10000000000E+01 0.  0.
    9000005    1    3    3    0    0 -0.22780909229E+02 -0.46874433079E+02 -0.10758034831E+02  0.53225159607E+02  0.10000000000E+01 0.  0.
<mgrwt>
<rscale>  0 0.12499704E+03</rscale>
<asrwt>0</asrwt>
<pdfrwt beam="2">  1        4 0.21957346E-01 0.12499704E+03</pdfrwt>
<pdfrwt beam="1">  1       -4 0.42104925E-02 0.12499704E+03</pdfrwt>
<totfact> 0.95438030E+03</totfact>
</mgrwt>
</event>
<event>
 5    1  0.3514886E-002  0.1250036E+03  0.7818608E-02  0.1235064E+00
          4   -1    0    0  501    0  0.00000000000E+00  0.00000000000E+00  0.11647168869E+03  0.11647861249E+03  0.12700000000E+01 0. -1.
         -4   -1    0    0    0  501 -0.00000000000E+00 -0.00000000000E+00 -0.33520201153E+02  0.33544251151E+02  0.12700000000E+01 0. -1.
         25    2    1    2    0    0  0.00000000000E+00  0.00000000000E+00  0.82951487539E+02  0.15002286364E+03  0.12500364126E+03 0.  0.
    9000005    1    3    3    0    0 -0.33165411842E+02 -0.13335947873E+02 -0.20044986530E+02  0.40995042789E+02  0.10000000000E+01 0.  0.
    9000005    1    3    3    0    0  0.33165411842E+02  0.13335947873E+02  0.10299647407E+03  0.10902782085E+03  0.10000000000E+01 0.  0.
<mgrwt>
<rscale>  0 0.12500364E+03</rscale>
<asrwt>0</asrwt>
<pdfrwt beam="1">  1        4 0.17921104E-01 0.12500364E+03</pdfrwt>
<pdfrwt beam="2">  1       -4 0.51593367E-02 0.12500364E+03</pdfrwt>
<totfact> 0.99291004E+03</totfact>
</mgrwt>
</event>
<event>
 5    1  0.3514886E-002  0.1250010E+03  0.7818608E-02  0.1235068E+00
         -4   -1    0    0    0  501 -0.00000000000E+00  0.00000000000E+00  0.13916238559E+02  0.13974068686E+02  0.12700000000E+01 0.  1.
          4   -1    0    0  501    0  0.00000000000E+00 -0.00000000000E+00 -0.28006047779E+03  0.28006335733E+03  0.12700000000E+01 0.  1.
         25    2    1    2    0    0  0.00000000000E+00  0.00000000000E+00 -0.26614423923E+03  0.29403742602E+03  0.12500100729E+03 0.  0.
    9000005    1    3    3    0    0 -0.21942760986E+01  0.51122364120E+02 -0.21745973400E+03  0.22340108969E+03  0.10000000000E+01 0.  0.
    9000005    1    3    3    0    0  0.21942760986E+01 -0.51122364120E+02 -0.48684505224E+02  0.70636336327E+02  0.10000000000E+01 0.  0.
<mgrwt>
<rscale>  0 0.12500101E+03</rscale>
<asrwt>0</asrwt>
<pdfrwt beam="2">  1        4 0.43090893E-01 0.12500101E+03</pdfrwt>
<pdfrwt beam="1">  1       -4 0.21456300E-02 0.12500101E+03</pdfrwt>
<totfact> 0.76351206E+03</totfact>
</mgrwt>
</event>
<event>
 5    1  0.3514886E-002  0.1250031E+03  0.7818608E-02  0.1235064E+00
         -4   -1    0    0    0  501 -0.00000000000E+00  0.00000000000E+00  0.14352242684E+04  0.14352248303E+04  0.12700000000E+01 0. -1.
          4   -1    0    0  501    0  0.00000000000E+00 -0.00000000000E+00 -0.25730970987E+01  0.28694474519E+01  0.12700000000E+01 0. -1.
         25    2    1    2    0    0  0.00000000000E+00  0.00000000000E+00  0.14326511713E+04  0.14380942777E+04  0.12500309223E+03 0.  0.
    9000005    1    3    3    0    0  0.15969100372E+02 -0.67091921034E+01  0.25538191755E+02  0.30874336649E+02  0.10000000000E+01 0.  0.
    9000005    1    3    3    0    0 -0.15969100372E+02  0.67091921034E+01  0.14071129795E+04  0.14072199411E+04  0.10000000000E+01 0.  0.
<mgrwt>
<rscale>  0 0.12500309E+03</rscale>
<asrwt>0</asrwt>
<pdfrwt beam="2">  1        4 0.41870190E-03 0.12500309E+03</pdfrwt>
<pdfrwt beam="1">  1       -4 0.22082583E+00 0.12500309E+03</pdfrwt>
<totfact> 0.19176721E+03</totfact>
</mgrwt>
</event>
<event>
 5    1  0.3514886E-002  0.1249966E+03  0.7818608E-02  0.1235075E+00
         -4   -1    0    0    0  501 -0.00000000000E+00  0.00000000000E+00  0.58721378774E+02  0.58735110667E+02  0.12700000000E+01 0.  1.
          4   -1    0    0  501    0  0.00000000000E+00 -0.00000000000E+00 -0.66490550240E+02  0.66502677925E+02  0.12700000000E+01 0.  1.
         25    2    1    2    0    0  0.00000000000E+00  0.00000000000E+00 -0.77691714661E+01  0.12523778859E+03  0.12499657462E+03 0.  0.
    9000005    1    3    3    0    0 -0.46265224459E+01 -0.25067626209E+02 -0.61049445220E+02  0.66165137009E+02  0.10000000000E+01 0.  0.
    9000005    1    3    3    0    0  0.46265224459E+01  0.25067626209E+02  0.53280273754E+02  0.59072651583E+02  0.10000000000E+01 0.  0.
<mgrwt>
<rscale>  0 0.12499657E+03</rscale>
<asrwt>0</asrwt>
<pdfrwt beam="2">  1        4 0.10231305E-01 0.12499657E+03</pdfrwt>
<pdfrwt beam="1">  1       -4 0.90360474E-02 0.12499657E+03</pdfrwt>
<totfact> 0.10448509E+04</totfact>
</mgrwt>
</event>
<event>
 5    1  0.3514886E-002  0.1250009E+03  0.7818608E-02  0.1235068E+00
          4   -1    0    0  501    0  0.00000000000E+00  0.00000000000E+00  0.20971033348E+03  0.20971417899E+03  0.12700000000E+01 0.  1.
         -4   -1    0    0    0  501 -0.00000000000E+00 -0.00000000000E+00 -0.18601476721E+02  0.18644780401E+02  0.12700000000E+01 0.  1.
         25    2    1    2    0    0  0.00000000000E+00  0.00000000000E+00  0.19110885676E+03  0.22835895939E+03  0.12500087680E+03 0.  0.
    9000005    1    3    3    0    0  0.42362319508E+00 -0.21508178991E+02 -0.11632902832E+02  0.24476634744E+02  0.10000000000E+01 0.  0.
    9000005    1    3    3    0    0 -0.42362319508E+00  0.21508178991E+02  0.20274175959E+03  0.20388232465E+03  0.10000000000E+01 0.  0.
<mgrwt>
<rscale>  0 0.12500088E+03</rscale>
<asrwt>0</asrwt>
<pdfrwt beam="1">  1        4 0.32266755E-01 0.12500088E+03</pdfrwt>
<pdfrwt beam="2">  1       -4 0.28653925E-02 0.12500088E+03</pdfrwt>
<totfact> 0.85560544E+03</totfact>
</mgrwt>
</event>
<event>
 5    1  0.3514886E-002  0.1249996E+03  0.7818608E-02  0.1235070E+00
         -4   -1    0    0    0  501 -0.00000000000E+00  0.00000000000E+00  0.97315111781E+02  0.97323398425E+02  0.12700000000E+01 0.  1.
          4   -1    0    0  501    0  0.00000000000E+00 -0.00000000000E+00 -0.40119919856E+02  0.40140015811E+02  0.12700000000E+01 0.  1.
         25    2    1    2    0    0  0.00000000000E+00  0.00000000000E+00  0.57195191925E+02  0.13746341424E+03  0.12499960110E+03 0.  0.
    9000005    1    3    3    0    0  0.14602011326E+02 -0.59980270378E+02  0.17914342598E+02  0.64286664559E+02  0.10000000000E+01 0.  0.
    9000005    1    3    3    0    0 -0.14602011326E+02  0.59980270378E+02  0.39280849327E+02  0.73176749677E+02  0.10000000000E+01 0.  0.
<mgrwt>
<rscale>  0 0.12499960E+03</rscale>
<asrwt>0</asrwt>
<pdfrwt beam="2">  1        4 0.61744787E-02 0.12499960E+03</pdfrwt>
<pdfrwt beam="1">  1       -4 0.14973739E-01 0.12499960E+03</pdfrwt>
<totfact> 0.10186497E+04</totfact>
</mgrwt>
</event>
<event>
 5    1  0.3514886E-002  0.1249987E+03  0.7818608E-02  0.1235071E+00
         -4   -1    0    0    0  501 -0.00000000000E+00  0.00000000000E+00  0.69045839521E+02  0.69057518455E+02  0.12700000000E+01 0.  1.
          4   -1    0    0  501    0  0.00000000000E+00 -0.00000000000E+00 -0.56549977919E+02  0.56564236958E+02  0.12700000000E+01 0.  1.
         25    2    1    2    0    0  0.00000000000E+00  0.00000000000E+00  0.12495861602E+02  0.12562175541E+03  0.12499871550E+03 0.  0.
    9000005    1    3    3    0    0  0.26911811023E+02  0.53584603266E+02 -0.11435637770E+02  0.61051855754E+02  0.10000000000E+01 0.  0.
    9000005    1    3    3    0    0 -0.26911811023E+02 -0.53584603266E+02  0.23931499373E+02  0.64569899659E+02  0.10000000000E+01 0.  0.
<mgrwt>
<rscale>  0 0.12499872E+03</rscale>
<asrwt>0</asrwt>
<pdfrwt beam="2">  1        4 0.87019919E-02 0.12499872E+03</pdfrwt>
<pdfrwt beam="1">  1       -4 0.10624432E-01 0.12499872E+03</pdfrwt>
<totfact> 0.10439570E+04</totfact>
</mgrwt>
</event>
<event>
 5    1  0.3514886E-002  0.1249987E+03  0.7818608E-02  0.1235071E+00
         -4   -1    0    0    0  501 -0.00000000000E+00  0.00000000000E+00  0.55909049788E+03  0.55909194031E+03  0.12700000000E+01 0.  1.
          4   -1    0    0  501    0  0.00000000000E+00 -0.00000000000E+00 -0.69274697376E+01  0.70429210534E+01  0.12700000000E+01 0.  1.
         25    2    1    2    0    0  0.00000000000E+00  0.00000000000E+00  0.55216302814E+03  0.56613486137E+03  0.12499868641E+03 0.  0.
    9000005    1    3    3    0    0 -0.49275130496E+02 -0.22004937699E+02  0.41879659175E+03  0.42226039481E+03  0.10000000000E+01 0.  0.
    9000005    1    3    3    0    0  0.49275130496E+02  0.22004937699E+02  0.13336643640E+03  0.14387446655E+03  0.10000000000E+01 0.  0.
<mgrwt>
<rscale>  0 0.12499869E+03</rscale>
<asrwt>0</asrwt>
<pdfrwt beam="2">  1        4 0.10747567E-02 0.12499869E+03</pdfrwt>
<pdfrwt beam="1">  1       -4 0.86022894E-01 0.12499869E+03</pdfrwt>
<totfact> 0.51078995E+03</totfact>
</mgrwt>
</event>
<event>
 5    1  0.3514886E-002  0.1250004E+03  0.7818608E-02  0.1235069E+00
          4   -1    0    0  501    0  0.00000000000E+00  0.00000000000E+00  0.59925489665E+01  0.61256463427E+01  0.12700000000E+01 0.  1.
         -4   -1    0    0    0  501 -0.00000000000E+00 -0.00000000000E+00 -0.64456185953E+03  0.64456311068E+03  0.12700000000E+01 0.  1.
         25    2    1    2    0    0  0.00000000000E+00  0.00000000000E+00 -0.63856931056E+03  0.65068875703E+03  0.12500037653E+03 0.  0.
    9000005    1    3    3    0    0  0.24773524322E+01  0.84727095507E+00  0.57324403752E+01  0.63809102643E+01  0.10000000000E+01 0.  0.
    9000005    1    3    3    0    0 -0.24773524322E+01 -0.84727095507E+00 -0.64430175093E+03  0.64430784676E+03  0.10000000000E+01 0.  0.
<mgrwt>
<rscale>  0 0.12500038E+03</rscale>
<asrwt>0</asrwt>
<pdfrwt beam="1">  1        4 0.93226562E-03 0.12500038E+03</pdfrwt>
<pdfrwt beam="2">  1       -4 0.99173643E-01 0.12500038E+03</pdfrwt>
<totfact> 0.45816176E+03</totfact>
</mgrwt>
</event>
<event>
 5    1  0.3514886E-002  0.1250079E+03  0.7818608E-02  0.1235057E+00
         -4   -1    0    0    0  501 -0.00000000000E+00  0.00000000000E+00  0.49870839769E+01  0.51462517032E+01  0.12700000000E+01 0.  1.
          4   -1    0    0  501    0  0.00000000000E+00 -0.00000000000E+00 -0.77090817681E+03  0.77090922291E+03  0.12700000000E+01 0.  1.
         25    2    1    2    0    0  0.00000000000E+00  0.00000000000E+00 -0.76592109283E+03  0.77605547462E+03  0.12500791669E+03 0.  0.
    9000005    1    3    3    0    0  0.45520544808E+02 -0.33240062520E+02 -0.21537502163E+03  0.22263068454E+03  0.10000000000E+01 0.  0.
    9000005    1    3    3    0    0 -0.45520544808E+02  0.33240062520E+02 -0.55054607120E+03  0.55342479007E+03  0.10000000000E+01 0.  0.
<mgrwt>
<rscale>  0 0.12500792E+03</rscale>
<asrwt>0</asrwt>
<pdfrwt beam="2">  1        4 0.11861349E+00 0.12500792E+03</pdfrwt>
<pdfrwt beam="1">  1       -4 0.77956844E-03 0.12500792E+03</pdfrwt>
<totfact> 0.39349485E+03</totfact>
</mgrwt>
</event>
<event>
 5    1  0.3514886E-002  0.1249949E+03  0.7818608E-02  0.1235077E+00
          4   -1    0    0  501    0  0.00000000000E+00  0.00000000000E+00  0.99988873717E+01  0.10079218654E+02  0.12700000000E+01 0.  1.
         -4   -1    0    0    0  501 -0.00000000000E+00 -0.00000000000E+00 -0.38899243264E+03  0.38899450581E+03  0.12700000000E+01 0.  1.
         25    2    1    2    0    0  0.00000000000E+00  0.00000000000E+00 -0.37899354527E+03  0.39907372446E+03  0.12499492071E+03 0.  0.
    9000005    1    3    3    0    0 -0.64102900359E+01 -0.30980674983E+02 -0.17443889574E+02  0.36141158313E+02  0.10000000000E+01 0.  0.
    9000005    1    3    3    0    0  0.64102900359E+01  0.30980674983E+02 -0.36154965569E+03  0.36293256615E+03  0.10000000000E+01 0.  0.
<mgrwt>
<rscale>  0 0.12499492E+03</rscale>
<asrwt>0</asrwt>
<pdfrwt beam="1">  1        4 0.15446295E-02 0.12499492E+03</pdfrwt>
<pdfrwt beam="2">  1       -4 0.59851317E-01 0.12499492E+03</pdfrwt>
<totfact> 0.64650232E+03</totfact>
</mgrwt>
</event>
<event>
 5    1  0.3514886E-002  0.1250007E+03  0.7818608E-02  0.1235068E+00
         -4   -1    0    0    0  501 -0.00000000000E+00  0.00000000000E+00  0.47723269520E+01  0.49384212596E+01  0.12700000000E+01 0.  1.
          4   -1    0    0  501    0  0.00000000000E+00 -0.00000000000E+00 -0.80436365563E+03  0.80436465823E+03  0.12700000000E+01 0.  1.
         25    2    1    2    0    0  0.00000000000E+00  0.00000000000E+00 -0.79959132868E+03  0.80930307949E+03  0.12500072625E+03 0.  0.
    9000005    1    3    3    0    0 -0.46163496685E+02 -0.36666597237E+02 -0.26557307793E+03  0.27203964325E+03  0.10000000000E+01 0.  0.
    9000005    1    3    3    0    0  0.46163496685E+02  0.36666597237E+02 -0.53401825075E+03  0.53726343624E+03  0.10000000000E+01 0.  0.
<mgrwt>
<rscale>  0 0.12500073E+03</rscale>
<asrwt>0</asrwt>
<pdfrwt beam="2">  1        4 0.12376100E+00 0.12500073E+03</pdfrwt>
<pdfrwt beam="1">  1       -4 0.74705839E-03 0.12500073E+03</pdfrwt>
<totfact> 0.37852200E+03</totfact>
</mgrwt>
</event>
<event>
 5    1  0.3514886E-002  0.1249995E+03  0.7818608E-02  0.1235070E+00
         -4   -1    0    0    0  501 -0.00000000000E+00  0.00000000000E+00  0.94022697566E+01  0.94876539026E+01  0.12700000000E+01 0.  1.
          4   -1    0    0  501    0  0.00000000000E+00 -0.00000000000E+00 -0.41349038167E+03  0.41349233202E+03  0.12700000000E+01 0.  1.
         25    2    1    2    0    0  0.00000000000E+00  0.00000000000E+00 -0.40408811192E+03  0.42297998592E+03  0.12499946518E+03 0.  0.
    9000005    1    3    3    0    0  0.48765836994E+02 -0.30608568176E+02 -0.11983482918E+03  0.13295253886E+03  0.10000000000E+01 0.  0.
    9000005    1    3    3    0    0 -0.48765836994E+02  0.30608568176E+02 -0.28425328274E+03  0.29002744706E+03  0.10000000000E+01 0.  0.
<mgrwt>
<rscale>  0 0.12499947E+03</rscale>
<asrwt>0</asrwt>
<pdfrwt beam="2">  1        4 0.63620609E-01 0.12499947E+03</pdfrwt>
<pdfrwt beam="1">  1       -4 0.14532214E-02 0.12499947E+03</pdfrwt>
<totfact> 0.62378250E+03</totfact>
</mgrwt>
</event>
<event>
 5    1  0.3514886E-002  0.1249958E+03  0.7818608E-02  0.1235076E+00
         -4   -1    0    0    0  501 -0.00000000000E+00  0.00000000000E+00  0.34745606143E+03  0.34745838243E+03  0.12700000000E+01 0.  1.
          4   -1    0    0  501    0  0.00000000000E+00 -0.00000000000E+00 -0.11203434788E+02  0.11275187406E+02  0.12700000000E+01 0.  1.
         25    2    1    2    0    0  0.00000000000E+00  0.00000000000E+00  0.33625262664E+03  0.35873356984E+03  0.12499578076E+03 0.  0.
    9000005    1    3    3    0    0 -0.21872116182E+02  0.53076671588E+02  0.23897806830E+03  0.24577843612E+03  0.10000000000E+01 0.  0.
    9000005    1    3    3    0    0  0.21872116182E+02 -0.53076671588E+02  0.97274558337E+02  0.11295513372E+03  0.10000000000E+01 0.  0.
<mgrwt>
<rscale>  0 0.12499578E+03</rscale>
<asrwt>0</asrwt>
<pdfrwt beam="2">  1        4 0.17293037E-02 0.12499578E+03</pdfrwt>
<pdfrwt beam="1">  1       -4 0.53460464E-01 0.12499578E+03</pdfrwt>
<totfact> 0.68780749E+03</totfact>
</mgrwt>
</event>
<event>
 5    1  0.3514886E-002  0.1250019E+03  0.7818608E-02  0.1235066E+00
          4   -1    0    0  501    0  0.00000000000E+00  0.00000000000E+00  0.95028843219E+01  0.95873724469E+01  0.12700000000E+01 0.  1.
         -4   -1    0    0    0  501 -0.00000000000E+00 -0.00000000000E+00 -0.40916736193E+03  0.40916933288E+03  0.12700000000E+01 0.  1.
         25    2    1    2    0    0  0.00000000000E+00  0.00000000000E+00 -0.39966447761E+03  0.41875670533E+03  0.12500193436E+03 0.  0.
    9000005    1    3    3    0    0 -0.59048784598E+02 -0.18711647229E+02 -0.17210883464E+03  0.18291893195E+03  0.10000000000E+01 0.  0.
    9000005    1    3    3    0    0  0.59048784598E+02  0.18711647229E+02 -0.22755564297E+03  0.23583777338E+03  0.10000000000E+01 0.  0.
<mgrwt>
<rscale>  0 0.12500193E+03</rscale>
<asrwt>0</asrwt>
<pdfrwt beam="1">  1        4 0.14686332E-02 0.12500193E+03</pdfrwt>
<pdfrwt beam="2">  1       -4 0.62955462E-01 0.12500193E+03</pdfrwt>
<totfact> 0.62765848E+03</totfact>
</mgrwt>
</event>
<event>
 5    1  0.3514886E-002  0.1250096E+03  0.7818608E-02  0.1235054E+00
          4   -1    0    0  501    0  0.00000000000E+00  0.00000000000E+00  0.13882031459E+02  0.13940003495E+02  0.12700000000E+01 0. -1.
         -4   -1    0    0    0  501 -0.00000000000E+00 -0.00000000000E+00 -0.28078623130E+03  0.28078910339E+03  0.12700000000E+01 0. -1.
         25    2    1    2    0    0  0.00000000000E+00  0.00000000000E+00 -0.26690419984E+03  0.29472910689E+03  0.12500957786E+03 0.  0.
    9000005    1    3    3    0    0  0.21380535651E+02 -0.35036920082E+02 -0.24456571372E+03  0.24798810737E+03  0.10000000000E+01 0.  0.
    9000005    1    3    3    0    0 -0.21380535651E+02  0.35036920082E+02 -0.22338486121E+02  0.46740999516E+02  0.10000000000E+01 0.  0.
<mgrwt>
<rscale>  0 0.12500958E+03</rscale>
<asrwt>0</asrwt>
<pdfrwt beam="1">  1        4 0.21403777E-02 0.12500958E+03</pdfrwt>
<pdfrwt beam="2">  1       -4 0.43202558E-01 0.12500958E+03</pdfrwt>
<totfact> 0.76248586E+03</totfact>
</mgrwt>
</event>
<event>
 5    1  0.3514886E-002  0.1249961E+03  0.7818608E-02  0.1235075E+00
         -4   -1    0    0    0  501 -0.00000000000E+00  0.00000000000E+00  0.69832326953E+02  0.69843874375E+02  0.12700000000E+01 0.  1.
          4   -1    0    0  501    0  0.00000000000E+00 -0.00000000000E+00 -0.55910679351E+02  0.55925101390E+02  0.12700000000E+01 0.  1.
         25    2    1    2    0    0  0.00000000000E+00  0.00000000000E+00  0.13921647602E+02  0.12576897577E+03  0.12499609191E+03 0.  0.
    9000005    1    3    3    0    0  0.61197613724E+02  0.11329770905E+02  0.13141618721E+01  0.62259446317E+02  0.10000000000E+01 0.  0.
    9000005    1    3    3    0    0 -0.61197613724E+02 -0.11329770905E+02  0.12607485730E+02  0.63509529448E+02  0.10000000000E+01 0.  0.
<mgrwt>
<rscale>  0 0.12499609E+03</rscale>
<asrwt>0</asrwt>
<pdfrwt beam="2">  1        4 0.86036406E-02 0.12499609E+03</pdfrwt>
<pdfrwt beam="1">  1       -4 0.10745433E-01 0.12499609E+03</pdfrwt>
<totfact> 0.10436947E+04</totfact>
</mgrwt>
</event>
<event>
 5    1  0.3514886E-002  0.1249975E+03  0.7818608E-02  0.1235073E+00
         -4   -1    0    0    0  501 -0.00000000000E+00  0.00000000000E+00  0.26117937979E+02  0.26148796995E+02  0.12700000000E+01 0.  1.
          4   -1    0    0  501    0  0.00000000000E+00 -0.00000000000E+00 -0.14943418899E+03  0.14943958559E+03  0.12700000000E+01 0.  1.
         25    2    1    2    0    0  0.00000000000E+00  0.00000000000E+00 -0.12331625101E+03  0.17558838258E+03  0.12499752931E+03 0.  0.
    9000005    1    3    3    0    0 -0.34258191987E+02  0.51208294223E+02 -0.46979993046E+02  0.77485694564E+02  0.10000000000E+01 0.  0.
    9000005    1    3    3    0    0  0.34258191987E+02 -0.51208294223E+02 -0.76336257968E+02  0.98102688016E+02  0.10000000000E+01 0.  0.
<mgrwt>
<rscale>  0 0.12499753E+03</rscale>
<asrwt>0</asrwt>
<pdfrwt beam="2">  1        4 0.22992664E-01 0.12499753E+03</pdfrwt>
<pdfrwt beam="1">  1       -4 0.40209333E-02 0.12499753E+03</pdfrwt>
<totfact> 0.94422423E+03</totfact>
</mgrwt>
</event>
<event>
 5    1  0.3514886E-002  0.1249929E+03  0.7818608E-02  0.1235080E+00
          4   -1    0    0  501    0  0.00000000000E+00  0.00000000000E+00  0.49399224051E+02  0.49415546509E+02  0.12700000000E+01 0. -1.
         -4   -1    0    0    0  501 -0.00000000000E+00 -0.00000000000E+00 -0.79031646443E+02  0.79041849925E+02  0.12700000000E+01 0. -1.
         25    2    1    2    0    0  0.00000000000E+00  0.00000000000E+00 -0.29632422393E+02  0.12845739643E+03  0.12499288876E+03 0.  0.
    9000005    1    3    3    0    0  0.26999359003E+02  0.36178460245E+02 -0.59222167000E+02  0.74472219226E+02  0.10000000000E+01 0.  0.
    9000005    1    3    3    0    0 -0.26999359003E+02 -0.36178460245E+02  0.29589744607E+02  0.53985177208E+02  0.10000000000E+01 0.  0.
<mgrwt>
<rscale>  0 0.12499289E+03</rscale>
<asrwt>0</asrwt>
<pdfrwt beam="1">  1        4 0.76019211E-02 0.12499289E+03</pdfrwt>
<pdfrwt beam="2">  1       -4 0.12160755E-01 0.12499289E+03</pdfrwt>
<totfact> 0.10379288E+04</totfact>
</mgrwt>
</event>
<event>
 5    1  0.3514886E-002  0.1250044E+03  0.7818608E-02  0.1235062E+00
          4   -1    0    0  501    0  0.00000000000E+00  0.00000000000E+00  0.55865318527E+01  0.57290695703E+01  0.12700000000E+01 0. -1.
         -4   -1    0    0    0  501 -0.00000000000E+00 -0.00000000000E+00 -0.69032416993E+03  0.69032533815E+03  0.12700000000E+01 0. -1.
         25    2    1    2    0    0  0.00000000000E+00  0.00000000000E+00 -0.68473763808E+03  0.69605440772E+03  0.12500442194E+03 0.  0.
    9000005    1    3    3    0    0  0.54421108942E+02 -0.64938503174E+01 -0.50957358434E+03  0.51251347792E+03  0.10000000000E+01 0.  0.
    9000005    1    3    3    0    0 -0.54421108942E+02  0.64938503174E+01 -0.17516405374E+03  0.18354092980E+03  0.10000000000E+01 0.  0.
<mgrwt>
<rscale>  0 0.12500442E+03</rscale>
<asrwt>0</asrwt>
<pdfrwt beam="1">  1        4 0.87052129E-03 0.12500442E+03</pdfrwt>
<pdfrwt beam="2">  1       -4 0.10621471E+00 0.12500442E+03</pdfrwt>
<totfact> 0.43291624E+03</totfact>
</mgrwt>
</event>
<event>
 5    1  0.3514886E-002  0.1250061E+03  0.7818608E-02  0.1235060E+00
          4   -1    0    0  501    0  0.00000000000E+00  0.00000000000E+00  0.27397208810E+03  0.27397503164E+03  0.12700000000E+01 0. -1.
         -4   -1    0    0    0  501 -0.00000000000E+00 -0.00000000000E+00 -0.14227921962E+02  0.14284490308E+02  0.12700000000E+01 0. -1.
         25    2    1    2    0    0  0.00000000000E+00  0.00000000000E+00  0.25974416614E+03  0.28825952194E+03  0.12500608044E+03 0.  0.
    9000005    1    3    3    0    0  0.30704881601E+02  0.54430646562E+02  0.13075016002E+03  0.14492097634E+03  0.10000000000E+01 0.  0.
    9000005    1    3    3    0    0 -0.30704881601E+02 -0.54430646562E+02  0.12899400612E+03  0.14333854560E+03  0.10000000000E+01 0.  0.
<mgrwt>
<rscale>  0 0.12500608E+03</rscale>
<asrwt>0</asrwt>
<pdfrwt beam="1">  1        4 0.42154130E-01 0.12500608E+03</pdfrwt>
<pdfrwt beam="2">  1       -4 0.21934889E-02 0.12500608E+03</pdfrwt>
<totfact> 0.77085130E+03</totfact>
</mgrwt>
</event>
<event>
 5    1  0.3514886E-002  0.1249980E+03  0.7818608E-02  0.1235072E+00
         -4   -1    0    0    0  501 -0.00000000000E+00  0.00000000000E+00  0.15633567911E+03  0.15634083748E+03  0.12700000000E+01 0.  1.
          4   -1    0    0  501    0  0.00000000000E+00 -0.00000000000E+00 -0.24963795516E+02  0.24996079424E+02  0.12700000000E+01 0.  1.
         25    2    1    2    0    0  0.00000000000E+00  0.00000000000E+00  0.13137188360E+03  0.18133691690E+03  0.12499802251E+03 0.  0.
    9000005    1    3    3    0    0 -0.50043109760E+02  0.34098849091E+02  0.43301491961E+02  0.74451753168E+02  0.10000000000E+01 0.  0.
    9000005    1    3    3    0    0  0.50043109760E+02 -0.34098849091E+02  0.88070391634E+02  0.10688516373E+03  0.10000000000E+01 0.  0.
<mgrwt>
<rscale>  0 0.12499802E+03</rscale>
<asrwt>0</asrwt>
<pdfrwt beam="2">  1        4 0.38434641E-02 0.12499802E+03</pdfrwt>
<pdfrwt beam="1">  1       -4 0.24054523E-01 0.12499802E+03</pdfrwt>
<totfact> 0.93381045E+03</totfact>
</mgrwt>
</event>
<event>
 5    1  0.3514886E-002  0.1250155E+03  0.7818608E-02  0.1235045E+00
         -4   -1    0    0    0  501 -0.00000000000E+00  0.00000000000E+00  0.22551952715E+03  0.22552310308E+03  0.12700000000E+01 0.  1.
          4   -1    0    0  501    0  0.00000000000E+00 -0.00000000000E+00 -0.17298424851E+02  0.17344982050E+02  0.12700000000E+01 0.  1.
         25    2    1    2    0    0  0.00000000000E+00  0.00000000000E+00  0.20822110230E+03  0.24286808513E+03  0.12501551638E+03 0.  0.
    9000005    1    3    3    0    0 -0.47541335066E+02 -0.34702679213E+02  0.14494271108E+03  0.15644118377E+03  0.10000000000E+01 0.  0.
    9000005    1    3    3    0    0  0.47541335066E+02  0.34702679213E+02  0.63278391218E+02  0.86426901365E+02  0.10000000000E+01 0.  0.
<mgrwt>
<rscale>  0 0.12501552E+03</rscale>
<asrwt>0</asrwt>
<pdfrwt beam="2">  1        4 0.26651528E-02 0.12501552E+03</pdfrwt>
<pdfrwt beam="1">  1       -4 0.34699165E-01 0.12501552E+03</pdfrwt>
<totfact> 0.83343238E+03</totfact>
</mgrwt>
</event>
<event>
 5    1  0.3514886E-002  0.1249938E+03  0.7818608E-02  0.1235079E+00
         -4   -1    0    0    0  501 -0.00000000000E+00  0.00000000000E+00  0.97814887555E+01  0.98635907394E+01  0.12700000000E+01 0. -1.
          4   -1    0    0  501    0  0.00000000000E+00 -0.00000000000E+00 -0.39755991020E+03  0.39756193869E+03  0.12700000000E+01 0. -1.
         25    2    1    2    0    0  0.00000000000E+00  0.00000000000E+00 -0.38777842144E+03  0.40742552943E+03  0.12499383143E+03 0.  0.
    9000005    1    3    3    0    0  0.52492502386E+02  0.31915460415E+02 -0.23116886874E+03  0.23919470165E+03  0.10000000000E+01 0.  0.
    9000005    1    3    3    0    0 -0.52492502386E+02 -0.31915460415E+02 -0.15660955270E+03  0.16823082779E+03  0.10000000000E+01 0.  0.
<mgrwt>
<rscale>  0 0.12499383E+03</rscale>
<asrwt>0</asrwt>
<pdfrwt beam="2">  1        4 0.61169522E-01 0.12499383E+03</pdfrwt>
<pdfrwt beam="1">  1       -4 0.15113163E-02 0.12499383E+03</pdfrwt>
<totfact> 0.63845639E+03</totfact>
</mgrwt>
</event>
<event>
 5    1  0.3514886E-002  0.1249988E+03  0.7818608E-02  0.1235071E+00
         -4   -1    0    0    0  501 -0.00000000000E+00  0.00000000000E+00  0.24839070648E+03  0.24839395316E+03  0.12700000000E+01 0. -1.
          4   -1    0    0  501    0  0.00000000000E+00 -0.00000000000E+00 -0.15696932758E+02  0.15748225233E+02  0.12700000000E+01 0. -1.
         25    2    1    2    0    0  0.00000000000E+00  0.00000000000E+00  0.23269377372E+03  0.26414217839E+03  0.12499879230E+03 0.  0.
    9000005    1    3    3    0    0 -0.13660381173E+02 -0.47883442953E+02  0.19613767866E+03  0.20236209901E+03  0.10000000000E+01 0.  0.
    9000005    1    3    3    0    0  0.13660381173E+02  0.47883442953E+02  0.36556095059E+02  0.61780079385E+02  0.10000000000E+01 0.  0.
<mgrwt>
<rscale>  0 0.12499879E+03</rscale>
<asrwt>0</asrwt>
<pdfrwt beam="2">  1        4 0.24191083E-02 0.12499879E+03</pdfrwt>
<pdfrwt beam="1">  1       -4 0.38218147E-01 0.12499879E+03</pdfrwt>
<totfact> 0.80330417E+03</totfact>
</mgrwt>
</event>
<event>
 5    1  0.3514886E-002  0.1249606E+03  0.7818608E-02  0.1235131E+00
          4   -1    0    0  501    0  0.00000000000E+00  0.00000000000E+00  0.18348363897E+03  0.18348803413E+03  0.12700000000E+01 0. -1.
         -4   -1    0    0    0  501 -0.00000000000E+00 -0.00000000000E+00 -0.21252336371E+02  0.21290248970E+02  0.12700000000E+01 0. -1.
         25    2    1    2    0    0  0.00000000000E+00  0.00000000000E+00  0.16223130260E+03  0.20477828310E+03  0.12496059254E+03 0.  0.
    9000005    1    3    3    0    0  0.12157609740E+02  0.44732598444E+02  0.14974698990E+03  0.15676088103E+03  0.10000000000E+01 0.  0.
    9000005    1    3    3    0    0 -0.12157609740E+02 -0.44732598444E+02  0.12484312702E+02  0.48017402072E+02  0.10000000000E+01 0.  0.
<mgrwt>
<rscale>  0 0.12496059E+03</rscale>
<asrwt>0</asrwt>
<pdfrwt beam="1">  1        4 0.28231506E-01 0.12496059E+03</pdfrwt>
<pdfrwt beam="2">  1       -4 0.32728448E-02 0.12496059E+03</pdfrwt>
<totfact> 0.89414610E+03</totfact>
</mgrwt>
</event>
<event>
 5    1  0.3514886E-002  0.1249946E+03  0.7818608E-02  0.1235078E+00
         -4   -1    0    0    0  501 -0.00000000000E+00  0.00000000000E+00  0.30858974132E+01  0.33370140612E+01  0.12700000000E+01 0. -1.
          4   -1    0    0  501    0  0.00000000000E+00 -0.00000000000E+00 -0.12159922844E+04  0.12159929476E+04  0.12700000000E+01 0. -1.
         25    2    1    2    0    0  0.00000000000E+00  0.00000000000E+00 -0.12129063870E+04  0.12193299617E+04  0.12499460716E+03 0.  0.
    9000005    1    3    3    0    0  0.44089324706E+02  0.38024225399E+02 -0.38503208114E+03  0.38941034113E+03  0.10000000000E+01 0.  0.
    9000005    1    3    3    0    0 -0.44089324706E+02 -0.38024225399E+02 -0.82787430588E+03  0.82991962057E+03  0.10000000000E+01 0.  0.
<mgrwt>
<rscale>  0 0.12499461E+03</rscale>
<asrwt>0</asrwt>
<pdfrwt beam="2">  1        4 0.18709474E+00 0.12499461E+03</pdfrwt>
<pdfrwt beam="1">  1       -4 0.49412210E-03 0.12499461E+03</pdfrwt>
<totfact> 0.24215237E+03</totfact>
</mgrwt>
</event>
<event>
 5    1  0.3514886E-002  0.1250039E+03  0.7818608E-02  0.1235063E+00
         -4   -1    0    0    0  501 -0.00000000000E+00  0.00000000000E+00  0.53665193265E+02  0.53680218593E+02  0.12700000000E+01 0. -1.
          4   -1    0    0  501    0  0.00000000000E+00 -0.00000000000E+00 -0.72763089442E+02  0.72774171828E+02  0.12700000000E+01 0. -1.
         25    2    1    2    0    0  0.00000000000E+00  0.00000000000E+00 -0.19097896177E+02  0.12645439042E+03  0.12500393281E+03 0.  0.
    9000005    1    3    3    0    0  0.42646296053E+02  0.12019928430E+02 -0.54131977055E+02  0.69960390124E+02  0.10000000000E+01 0.  0.
    9000005    1    3    3    0    0 -0.42646296053E+02 -0.12019928430E+02  0.35034080877E+02  0.56494000296E+02  0.10000000000E+01 0.  0.
<mgrwt>
<rscale>  0 0.12500393E+03</rscale>
<asrwt>0</asrwt>
<pdfrwt beam="2">  1        4 0.11196330E-01 0.12500393E+03</pdfrwt>
<pdfrwt beam="1">  1       -4 0.82581918E-02 0.12500393E+03</pdfrwt>
<totfact> 0.10420098E+04</totfact>
</mgrwt>
</event>
<event>
 5    1  0.3514886E-002  0.1249591E+03  0.7818608E-02  0.1235133E+00
         -4   -1    0    0    0  501 -0.00000000000E+00  0.00000000000E+00  0.10555569930E+03  0.10556333906E+03  0.12700000000E+01 0. -1.
          4   -1    0    0  501    0  0.00000000000E+00 -0.00000000000E+00 -0.36962448816E+02  0.36984260470E+02  0.12700000000E+01 0. -1.
         25    2    1    2    0    0  0.00000000000E+00  0.00000000000E+00  0.68593250481E+02  0.14254759953E+03  0.12495912980E+03 0.  0.
    9000005    1    3    3    0    0 -0.75836465072E+01 -0.59569340448E+02  0.14647890123E+02  0.61818918632E+02  0.10000000000E+01 0.  0.
    9000005    1    3    3    0    0  0.75836465072E+01  0.59569340448E+02  0.53945360358E+02  0.80728680900E+02  0.10000000000E+01 0.  0.
<mgrwt>
<rscale>  0 0.12495913E+03</rscale>
<asrwt>0</asrwt>
<pdfrwt beam="2">  1        4 0.56887961E-02 0.12495913E+03</pdfrwt>
<pdfrwt beam="1">  1       -4 0.16241604E-01 0.12495913E+03</pdfrwt>
<totfact> 0.10090341E+04</totfact>
</mgrwt>
</event>
<event>
 5    1  0.3514886E-002  0.1250005E+03  0.7818608E-02  0.1235069E+00
          4   -1    0    0  501    0  0.00000000000E+00  0.00000000000E+00  0.49436477228E+01  0.51041701390E+01  0.12700000000E+01 0.  1.
         -4   -1    0    0    0  501 -0.00000000000E+00 -0.00000000000E+00 -0.77737680056E+03  0.77737783796E+03  0.12700000000E+01 0.  1.
         25    2    1    2    0    0  0.00000000000E+00  0.00000000000E+00 -0.77243315284E+03  0.78248200810E+03  0.12500046958E+03 0.  0.
    9000005    1    3    3    0    0  0.13420154421E+02  0.51736233901E+02 -0.58891734941E+03  0.59133863638E+03  0.10000000000E+01 0.  0.
    9000005    1    3    3    0    0 -0.13420154421E+02 -0.51736233901E+02 -0.18351580343E+03  0.19114337172E+03  0.10000000000E+01 0.  0.
<mgrwt>
<rscale>  0 0.12500047E+03</rscale>
<asrwt>0</asrwt>
<pdfrwt beam="1">  1        4 0.77298948E-03 0.12500047E+03</pdfrwt>
<pdfrwt beam="2">  1       -4 0.11960876E+00 0.12500047E+03</pdfrwt>
<totfact> 0.39058466E+03</totfact>
</mgrwt>
</event>
<event>
 5    1  0.3514886E-002  0.1250000E+03  0.7818608E-02  0.1235069E+00
         -4   -1    0    0    0  501 -0.00000000000E+00  0.00000000000E+00  0.62267092169E+02  0.62280042287E+02  0.12700000000E+01 0. -1.
          4   -1    0    0  501    0  0.00000000000E+00 -0.00000000000E+00 -0.62707826460E+02  0.62720685578E+02  0.12700000000E+01 0. -1.
         25    2    1    2    0    0  0.00000000000E+00  0.00000000000E+00 -0.44073429043E+00  0.12500072786E+03  0.12499995088E+03 0.  0.
    9000005    1    3    3    0    0  0.17018501942E+02 -0.51067680277E+02  0.31524271463E+02  0.62388436978E+02  0.10000000000E+01 0.  0.
    9000005    1    3    3    0    0 -0.17018501942E+02  0.51067680277E+02 -0.31965005753E+02  0.62612290887E+02  0.10000000000E+01 0.  0.
<mgrwt>
<rscale>  0 0.12499995E+03</rscale>
<asrwt>0</asrwt>
<pdfrwt beam="2">  1        4 0.96493433E-02 0.12499995E+03</pdfrwt>
<pdfrwt beam="1">  1       -4 0.95815380E-02 0.12499995E+03</pdfrwt>
<totfact> 0.10452858E+04</totfact>
</mgrwt>
</event>
<event>
 5    1  0.3514886E-002  0.1249965E+03  0.7818608E-02  0.1235075E+00
          4   -1    0    0  501    0  0.00000000000E+00  0.00000000000E+00  0.18214917032E+03  0.18215359768E+03  0.12700000000E+01 0.  1.
         -4   -1    0    0    0  501 -0.00000000000E+00 -0.00000000000E+00 -0.21420633707E+02  0.21458248959E+02  0.12700000000E+01 0.  1.
         25    2    1    2    0    0  0.00000000000E+00  0.00000000000E+00  0.16072853661E+03  0.20361184664E+03  0.12499648639E+03 0.  0.
    9000005    1    3    3    0    0  0.43163999807E+02 -0.31433017420E+02  0.27483504975E+02  0.60062538318E+02  0.10000000000E+01 0.  0.
    9000005    1    3    3    0    0 -0.43163999807E+02  0.31433017420E+02  0.13324503164E+03  0.14354930832E+03  0.10000000000E+01 0.  0.
<mgrwt>
<rscale>  0 0.12499649E+03</rscale>
<asrwt>0</asrwt>
<pdfrwt beam="1">  1        4 0.28026184E-01 0.12499649E+03</pdfrwt>
<pdfrwt beam="2">  1       -4 0.32987161E-02 0.12499649E+03</pdfrwt>
<totfact> 0.89536930E+03</totfact>
</mgrwt>
</event>
<event>
 5    1  0.3514886E-002  0.1250036E+03  0.7818608E-02  0.1235064E+00
          4   -1    0    0  501    0  0.00000000000E+00  0.00000000000E+00  0.25619819823E+01  0.28594845125E+01  0.12700000000E+01 0.  1.
         -4   -1    0    0    0  501 -0.00000000000E+00 -0.00000000000E+00 -0.14408155278E+04  0.14408160875E+04  0.12700000000E+01 0.  1.
         25    2    1    2    0    0  0.00000000000E+00  0.00000000000E+00 -0.14382535458E+04  0.14436755720E+04  0.12500358083E+03 0.  0.
    9000005    1    3    3    0    0  0.37313511080E+02 -0.21819077686E+02 -0.12403859407E+04  0.12411392557E+04  0.10000000000E+01 0.  0.
    9000005    1    3    3    0    0 -0.37313511080E+02  0.21819077686E+02 -0.19786760512E+03  0.20253631629E+03  0.10000000000E+01 0.  0.
<mgrwt>
<rscale>  0 0.12500358E+03</rscale>
<asrwt>0</asrwt>
<pdfrwt beam="1">  1        4 0.41708009E-03 0.12500358E+03</pdfrwt>
<pdfrwt beam="2">  1       -4 0.22168624E+00 0.12500358E+03</pdfrwt>
<totfact> 0.19061233E+03</totfact>
</mgrwt>
</event>
<event>
 5    1  0.3514886E-002  0.1249999E+03  0.7818608E-02  0.1235069E+00
          4   -1    0    0  501    0  0.00000000000E+00  0.00000000000E+00  0.51819181871E+02  0.51834742305E+02  0.12700000000E+01 0.  1.
         -4   -1    0    0    0  501 -0.00000000000E+00 -0.00000000000E+00 -0.75349958186E+02  0.75360660152E+02  0.12700000000E+01 0.  1.
         25    2    1    2    0    0  0.00000000000E+00  0.00000000000E+00 -0.23530776315E+02  0.12719540246E+03  0.12499989189E+03 0.  0.
    9000005    1    3    3    0    0 -0.45074881822E+02 -0.42278706833E+02 -0.21202395254E+02  0.65343519857E+02  0.10000000000E+01 0.  0.
    9000005    1    3    3    0    0  0.45074881822E+02  0.42278706833E+02 -0.23283810606E+01  0.61851882600E+02  0.10000000000E+01 0.  0.
<mgrwt>
<rscale>  0 0.12499989E+03</rscale>
<asrwt>0</asrwt>
<pdfrwt beam="1">  1        4 0.79742020E-02 0.12499989E+03</pdfrwt>
<pdfrwt beam="2">  1       -4 0.11594321E-01 0.12499989E+03</pdfrwt>
<totfact> 0.10404929E+04</totfact>
</mgrwt>
</event>
<event>
 5    1  0.3514886E-002  0.1249975E+03  0.7818608E-02  0.1235073E+00
          4   -1    0    0  501    0  0.00000000000E+00  0.00000000000E+00  0.30877309903E+01  0.33387097311E+01  0.12700000000E+01 0.  1.
         -4   -1    0    0    0  501 -0.00000000000E+00 -0.00000000000E+00 -0.12153809071E+04  0.12153815707E+04  0.12700000000E+01 0.  1.
         25    2    1    2    0    0  0.00000000000E+00  0.00000000000E+00 -0.12122931761E+04  0.12187202804E+04  0.12499750773E+03 0.  0.
    9000005    1    3    3    0    0  0.24641482776E+02  0.40382636981E+02 -0.10042427253E+04  0.10053568577E+04  0.10000000000E+01 0.  0.
    9000005    1    3    3    0    0 -0.24641482776E+02 -0.40382636981E+02 -0.20805045084E+03  0.21336342268E+03  0.10000000000E+01 0.  0.
<mgrwt>
<rscale>  0 0.12499751E+03</rscale>
<asrwt>0</asrwt>
<pdfrwt beam="1">  1        4 0.49439361E-03 0.12499751E+03</pdfrwt>
<pdfrwt beam="2">  1       -4 0.18700067E+00 0.12499751E+03</pdfrwt>
<totfact> 0.24229323E+03</totfact>
</mgrwt>
</event>
<event>
 5    1  0.3514886E-002  0.1249974E+03  0.7818608E-02  0.1235073E+00
          4   -1    0    0  501    0  0.00000000000E+00  0.00000000000E+00  0.70161021168E+03  0.70161136110E+03  0.12700000000E+01 0. -1.
         -4   -1    0    0    0  501 -0.00000000000E+00 -0.00000000000E+00 -0.54937213728E+01  0.56386057250E+01  0.12700000000E+01 0. -1.
         25    2    1    2    0    0  0.00000000000E+00  0.00000000000E+00  0.69611649031E+03  0.70724996683E+03  0.12499738999E+03 0.  0.
    9000005    1    3    3    0    0  0.33534511247E+02  0.67137468161E+01  0.52130077653E+02  0.62355295180E+02  0.10000000000E+01 0.  0.
    9000005    1    3    3    0    0 -0.33534511247E+02 -0.67137468161E+01  0.64398641265E+03  0.64489467165E+03  0.10000000000E+01 0.  0.
<mgrwt>
<rscale>  0 0.12499739E+03</rscale>
<asrwt>0</asrwt>
<pdfrwt beam="1">  1        4 0.10795118E+00 0.12499739E+03</pdfrwt>
<pdfrwt beam="2">  1       -4 0.85642198E-03 0.12499739E+03</pdfrwt>
<totfact> 0.42709202E+03</totfact>
</mgrwt>
</event>
<event>
 5    1  0.3514886E-002  0.1249974E+03  0.7818608E-02  0.1235073E+00
         -4   -1    0    0    0  501 -0.00000000000E+00  0.00000000000E+00  0.15945200933E+03  0.15945706688E+03  0.12700000000E+01 0. -1.
          4   -1    0    0  501    0  0.00000000000E+00 -0.00000000000E+00 -0.24475054007E+02  0.24507981733E+02  0.12700000000E+01 0. -1.
         25    2    1    2    0    0  0.00000000000E+00  0.00000000000E+00  0.13497695532E+03  0.18396504862E+03  0.12499744255E+03 0.  0.
    9000005    1    3    3    0    0 -0.10048926858E+02  0.61669393003E+02  0.68956689320E+02  0.93059765562E+02  0.10000000000E+01 0.  0.
    9000005    1    3    3    0    0  0.10048926858E+02 -0.61669393003E+02  0.66020266002E+02  0.90905283056E+02  0.10000000000E+01 0.  0.
<mgrwt>
<rscale>  0 0.12499744E+03</rscale>
<asrwt>0</asrwt>
<pdfrwt beam="2">  1        4 0.37683151E-02 0.12499744E+03</pdfrwt>
<pdfrwt beam="1">  1       -4 0.24533999E-01 0.12499744E+03</pdfrwt>
<totfact> 0.92913438E+03</totfact>
</mgrwt>
</event>
<event>
 5    1  0.3514886E-002  0.1250013E+03  0.7818608E-02  0.1235067E+00
          4   -1    0    0  501    0  0.00000000000E+00  0.00000000000E+00  0.81080615257E+02  0.81090560921E+02  0.12700000000E+01 0. -1.
         -4   -1    0    0    0  501 -0.00000000000E+00 -0.00000000000E+00 -0.48157107817E+02  0.48173851137E+02  0.12700000000E+01 0. -1.
         25    2    1    2    0    0  0.00000000000E+00  0.00000000000E+00  0.32923507440E+02  0.12926441206E+03  0.12500132352E+03 0.  0.
    9000005    1    3    3    0    0  0.45106244734E+02 -0.22093534431E+01 -0.28207223125E+02  0.53255065422E+02  0.10000000000E+01 0.  0.
    9000005    1    3    3    0    0 -0.45106244734E+02  0.22093534431E+01  0.61130730565E+02  0.76009346636E+02  0.10000000000E+01 0.  0.
<mgrwt>
<rscale>  0 0.12500132E+03</rscale>
<asrwt>0</asrwt>
<pdfrwt beam="1">  1        4 0.12475994E-01 0.12500132E+03</pdfrwt>
<pdfrwt beam="2">  1       -4 0.74108389E-02 0.12500132E+03</pdfrwt>
<totfact> 0.10359959E+04</totfact>
</mgrwt>
</event>
<event>
 5    1  0.3514886E-002  0.1250013E+03  0.7818608E-02  0.1235067E+00
         -4   -1    0    0    0  501 -0.00000000000E+00  0.00000000000E+00  0.15192975879E+03  0.15193506674E+03  0.12700000000E+01 0. -1.
          4   -1    0    0  501    0  0.00000000000E+00 -0.00000000000E+00 -0.25689999320E+02  0.25721371757E+02  0.12700000000E+01 0. -1.
         25    2    1    2    0    0  0.00000000000E+00  0.00000000000E+00  0.12623975947E+03  0.17765643850E+03  0.12500133307E+03 0.  0.
    9000005    1    3    3    0    0 -0.33187869163E+00  0.58545028480E+02  0.32056750266E+02  0.66755267514E+02  0.10000000000E+01 0.  0.
    9000005    1    3    3    0    0  0.33187869163E+00 -0.58545028480E+02  0.94183009200E+02  0.11090117098E+03  0.10000000000E+01 0.  0.
<mgrwt>
<rscale>  0 0.12500133E+03</rscale>
<asrwt>0</asrwt>
<pdfrwt beam="2">  1        4 0.39551291E-02 0.12500133E+03</pdfrwt>
<pdfrwt beam="1">  1       -4 0.23376631E-01 0.12500133E+03</pdfrwt>
<totfact> 0.94037749E+03</totfact>
</mgrwt>
</event>
<event>
 5    1  0.3514886E-002  0.1249944E+03  0.7818608E-02  0.1235078E+00
          4   -1    0    0  501    0  0.00000000000E+00  0.00000000000E+00  0.12701562749E+02  0.12764897033E+02  0.12700000000E+01 0.  1.
         -4   -1    0    0    0  501 -0.00000000000E+00 -0.00000000000E+00 -0.30668376332E+03  0.30668639289E+03  0.12700000000E+01 0.  1.
         25    2    1    2    0    0  0.00000000000E+00  0.00000000000E+00 -0.29398220057E+03  0.31945128992E+03  0.12499436940E+03 0.  0.
    9000005    1    3    3    0    0 -0.33888171251E+02 -0.46130645432E+02 -0.82921683638E+02  0.10076433008E+03  0.10000000000E+01 0.  0.
    9000005    1    3    3    0    0  0.33888171251E+02  0.46130645432E+02 -0.21106051693E+03  0.21868695985E+03  0.10000000000E+01 0.  0.
<mgrwt>
<rscale>  0 0.12499437E+03</rscale>
<asrwt>0</asrwt>
<pdfrwt beam="1">  1        4 0.19591610E-02 0.12499437E+03</pdfrwt>
<pdfrwt beam="2">  1       -4 0.47187186E-01 0.12499437E+03</pdfrwt>
<totfact> 0.73230577E+03</totfact>
</mgrwt>
</event>
<event>
 5    1  0.3514886E-002  0.1250037E+03  0.7818608E-02  0.1235063E+00
          4   -1    0    0  501    0  0.00000000000E+00  0.00000000000E+00  0.18505840745E+03  0.18506276521E+03  0.12700000000E+01 0.  1.
         -4   -1    0    0    0  501 -0.00000000000E+00 -0.00000000000E+00 -0.21085749848E+02  0.21123961434E+02  0.12700000000E+01 0.  1.
         25    2    1    2    0    0  0.00000000000E+00  0.00000000000E+00  0.16397265760E+03  0.20618672665E+03  0.12500373516E+03 0.  0.
    9000005    1    3    3    0    0  0.27640500453E+02  0.56048002394E+02  0.82527420323E+02  0.10352367334E+03  0.10000000000E+01 0.  0.
    9000005    1    3    3    0    0 -0.27640500453E+02 -0.56048002394E+02  0.81445237282E+02  0.10266305330E+03  0.10000000000E+01 0.  0.
<mgrwt>
<rscale>  0 0.12500374E+03</rscale>
<asrwt>0</asrwt>
<pdfrwt beam="1">  1        4 0.28473798E-01 0.12500374E+03</pdfrwt>
<pdfrwt beam="2">  1       -4 0.32472362E-02 0.12500374E+03</pdfrwt>
<totfact> 0.89095008E+03</totfact>
</mgrwt>
</event>
<event>
 5    1  0.3514886E-002  0.1250011E+03  0.7818608E-02  0.1235068E+00
          4   -1    0    0  501    0  0.00000000000E+00  0.00000000000E+00  0.16466538362E+04  0.16466543259E+04  0.12700000000E+01 0.  1.
         -4   -1    0    0    0  501 -0.00000000000E+00 -0.00000000000E+00 -0.22017777046E+01  0.25417956370E+01  0.12700000000E+01 0.  1.
         25    2    1    2    0    0  0.00000000000E+00  0.00000000000E+00  0.16444520585E+04  0.16491961215E+04  0.12500109907E+03 0.  0.
    9000005    1    3    3    0    0 -0.10792897581E+02  0.50759265794E+02  0.12816024699E+04  0.12826530632E+04  0.10000000000E+01 0.  0.
    9000005    1    3    3    0    0  0.10792897581E+02 -0.50759265794E+02  0.36284958852E+03  0.36654305830E+03  0.10000000000E+01 0.  0.
<mgrwt>
<rscale>  0 0.12500110E+03</rscale>
<asrwt>0</asrwt>
<pdfrwt beam="1">  1        4 0.25335727E+00 0.12500110E+03</pdfrwt>
<pdfrwt beam="2">  1       -4 0.36492834E-03 0.12500110E+03</pdfrwt>
<totfact> 0.15173051E+03</totfact>
</mgrwt>
</event>
<event>
 5    1  0.3514886E-002  0.1250039E+03  0.7818608E-02  0.1235063E+00
         -4   -1    0    0    0  501 -0.00000000000E+00  0.00000000000E+00  0.42232471839E+02  0.42251563020E+02  0.12700000000E+01 0.  1.
          4   -1    0    0  501    0  0.00000000000E+00 -0.00000000000E+00 -0.92455468478E+02  0.92464190645E+02  0.12700000000E+01 0.  1.
         25    2    1    2    0    0  0.00000000000E+00  0.00000000000E+00 -0.50222996639E+02  0.13471575366E+03  0.12500393951E+03 0.  0.
    9000005    1    3    3    0    0  0.21096387032E+02 -0.40391574018E+02 -0.71200438395E+02  0.84540163384E+02  0.10000000000E+01 0.  0.
    9000005    1    3    3    0    0 -0.21096387032E+02  0.40391574018E+02  0.20977441755E+02  0.50175590281E+02  0.10000000000E+01 0.  0.
<mgrwt>
<rscale>  0 0.12500394E+03</rscale>
<asrwt>0</asrwt>
<pdfrwt beam="2">  1        4 0.14226058E-01 0.12500394E+03</pdfrwt>
<pdfrwt beam="1">  1       -4 0.64994429E-02 0.12500394E+03</pdfrwt>
<totfact> 0.10243155E+04</totfact>
</mgrwt>
</event>
<event>
 5    1  0.3514886E-002  0.1250016E+03  0.7818608E-02  0.1235067E+00
          4   -1    0    0  501    0  0.00000000000E+00  0.00000000000E+00  0.68829636920E+02  0.68841352533E+02  0.12700000000E+01 0.  1.
         -4   -1    0    0    0  501 -0.00000000000E+00 -0.00000000000E+00 -0.56730283439E+02  0.56744497170E+02  0.12700000000E+01 0.  1.
         25    2    1    2    0    0  0.00000000000E+00  0.00000000000E+00  0.12099353481E+02  0.12558584970E+03  0.12500164515E+03 0.  0.
    9000005    1    3    3    0    0 -0.32570047237E+02 -0.11100289140E+02  0.58459833496E+02  0.67842291592E+02  0.10000000000E+01 0.  0.
    9000005    1    3    3    0    0  0.32570047237E+02  0.11100289140E+02 -0.46360480015E+02  0.57743558111E+02  0.10000000000E+01 0.  0.
<mgrwt>
<rscale>  0 0.12500165E+03</rscale>
<asrwt>0</asrwt>
<pdfrwt beam="1">  1        4 0.10591169E-01 0.12500165E+03</pdfrwt>
<pdfrwt beam="2">  1       -4 0.87297305E-02 0.12500165E+03</pdfrwt>
<totfact> 0.10439672E+04</totfact>
</mgrwt>
</event>
<event>
 5    1  0.3514886E-002  0.1249942E+03  0.7818608E-02  0.1235078E+00
         -4   -1    0    0    0  501 -0.00000000000E+00  0.00000000000E+00  0.73149313408E+01  0.74243599401E+01  0.12700000000E+01 0. -1.
          4   -1    0    0  501    0  0.00000000000E+00 -0.00000000000E+00 -0.52988660105E+03  0.52988812298E+03  0.12700000000E+01 0. -1.
         25    2    1    2    0    0  0.00000000000E+00  0.00000000000E+00 -0.52257166971E+03  0.53731248292E+03  0.12499421713E+03 0.  0.
    9000005    1    3    3    0    0 -0.17322893185E+02 -0.60032507914E+02 -0.25719880458E+03  0.26468133616E+03  0.10000000000E+01 0.  0.
    9000005    1    3    3    0    0  0.17322893185E+02  0.60032507914E+02 -0.26537286513E+03  0.27263114675E+03  0.10000000000E+01 0.  0.
<mgrwt>
<rscale>  0 0.12499422E+03</rscale>
<asrwt>0</asrwt>
<pdfrwt beam="2">  1        4 0.81529520E-01 0.12499422E+03</pdfrwt>
<pdfrwt beam="1">  1       -4 0.11339091E-02 0.12499422E+03</pdfrwt>
<totfact> 0.53088059E+03</totfact>
</mgrwt>
</event>
<event>
 5    1  0.3514886E-002  0.1249934E+03  0.7818608E-02  0.1235080E+00
          4   -1    0    0  501    0  0.00000000000E+00  0.00000000000E+00  0.18570318605E+02  0.18613694773E+02  0.12700000000E+01 0.  1.
         -4   -1    0    0    0  501 -0.00000000000E+00 -0.00000000000E+00 -0.21003623753E+03  0.21004007707E+03  0.12700000000E+01 0.  1.
         25    2    1    2    0    0  0.00000000000E+00  0.00000000000E+00 -0.19146591893E+03  0.22865377184E+03  0.12499339690E+03 0.  0.
    9000005    1    3    3    0    0  0.38743696595E+02  0.48694146768E+02 -0.85281216071E+02  0.10557499595E+03  0.10000000000E+01 0.  0.
    9000005    1    3    3    0    0 -0.38743696595E+02 -0.48694146768E+02 -0.10618470285E+03  0.12307877589E+03  0.10000000000E+01 0.  0.
<mgrwt>
<rscale>  0 0.12499340E+03</rscale>
<asrwt>0</asrwt>
<pdfrwt beam="1">  1        4 0.28606042E-02 0.12499340E+03</pdfrwt>
<pdfrwt beam="2">  1       -4 0.32316898E-01 0.12499340E+03</pdfrwt>
<totfact> 0.85529343E+03</totfact>
</mgrwt>
</event>
<event>
 5    1  0.3514886E-002  0.1250005E+03  0.7818608E-02  0.1235069E+00
         -4   -1    0    0    0  501 -0.00000000000E+00  0.00000000000E+00  0.93438025629E+02  0.93446656085E+02  0.12700000000E+01 0. -1.
          4   -1    0    0  501    0  0.00000000000E+00 -0.00000000000E+00 -0.41785882681E+02  0.41805177806E+02  0.12700000000E+01 0. -1.
         25    2    1    2    0    0  0.00000000000E+00  0.00000000000E+00  0.51652142948E+02  0.13525183389E+03  0.12500045880E+03 0.  0.
    9000005    1    3    3    0    0 -0.30583380702E+02  0.42339565981E+02 -0.11299616473E+02  0.53447762863E+02  0.10000000000E+01 0.  0.
    9000005    1    3    3    0    0  0.30583380702E+02 -0.42339565981E+02  0.62951759421E+02  0.81804071029E+02  0.10000000000E+01 0.  0.
<mgrwt>
<rscale>  0 0.12500046E+03</rscale>
<asrwt>0</asrwt>
<pdfrwt beam="2">  1        4 0.64307455E-02 0.12500046E+03</pdfrwt>
<pdfrwt beam="1">  1       -4 0.14377229E-01 0.12500046E+03</pdfrwt>
<totfact> 0.10232660E+04</totfact>
</mgrwt>
</event>
<event>
 5    1  0.3514886E-002  0.1250072E+03  0.7818608E-02  0.1235058E+00
         -4   -1    0    0    0  501 -0.00000000000E+00  0.00000000000E+00  0.13587396040E+03  0.13587989555E+03  0.12700000000E+01 0. -1.
          4   -1    0    0  501    0  0.00000000000E+00 -0.00000000000E+00 -0.28731788408E+02  0.28759842926E+02  0.12700000000E+01 0. -1.
         25    2    1    2    0    0  0.00000000000E+00  0.00000000000E+00  0.10714217200E+03  0.16463973848E+03  0.12500719366E+03 0.  0.
    9000005    1    3    3    0    0  0.60161983646E+02 -0.78088816033E+01  0.33804187649E+02  0.69456216502E+02  0.10000000000E+01 0.  0.
    9000005    1    3    3    0    0 -0.60161983646E+02  0.78088816033E+01  0.73337984346E+02  0.95183521978E+02  0.10000000000E+01 0.  0.
<mgrwt>
<rscale>  0 0.12500719E+03</rscale>
<asrwt>0</asrwt>
<pdfrwt beam="2">  1        4 0.44228897E-02 0.12500719E+03</pdfrwt>
<pdfrwt beam="1">  1       -4 0.20906301E-01 0.12500719E+03</pdfrwt>
<totfact> 0.96440077E+03</totfact>
</mgrwt>
</event>
<event>
 5    1  0.3514886E-002  0.1249992E+03  0.7818608E-02  0.1235071E+00
         -4   -1    0    0    0  501 -0.00000000000E+00  0.00000000000E+00  0.52417735081E+02  0.52433117884E+02  0.12700000000E+01 0. -1.
          4   -1    0    0  501    0  0.00000000000E+00 -0.00000000000E+00 -0.74488805055E+02  0.74499630727E+02  0.12700000000E+01 0. -1.
         25    2    1    2    0    0  0.00000000000E+00  0.00000000000E+00 -0.22071069974E+02  0.12693274861E+03  0.12499916216E+03 0.  0.
    9000005    1    3    3    0    0 -0.45190342660E+02 -0.21873574589E+02  0.26749966099E+02  0.56896230291E+02  0.10000000000E+01 0.  0.
    9000005    1    3    3    0    0  0.45190342660E+02  0.21873574589E+02 -0.48821036073E+02  0.70036518319E+02  0.10000000000E+01 0.  0.
<mgrwt>
<rscale>  0 0.12499916E+03</rscale>
<asrwt>0</asrwt>
<pdfrwt beam="2">  1        4 0.11461832E-01 0.12499916E+03</pdfrwt>
<pdfrwt beam="1">  1       -4 0.80662829E-02 0.12499916E+03</pdfrwt>
<totfact> 0.10410804E+04</totfact>
</mgrwt>
</event>
<event>
 5    1  0.3514886E-002  0.1249977E+03  0.7818608E-02  0.1235073E+00
         -4   -1    0    0    0  501 -0.00000000000E+00  0.00000000000E+00  0.18461143909E+02  0.18504775989E+02  0.12700000000E+01 0.  1.
          4   -1    0    0  501    0  0.00000000000E+00 -0.00000000000E+00 -0.21129002154E+03  0.21129383830E+03  0.12700000000E+01 0.  1.
         25    2    1    2    0    0  0.00000000000E+00  0.00000000000E+00 -0.19282887763E+03  0.22979861428E+03  0.12499770830E+03 0.  0.
    9000005    1    3    3    0    0 -0.17953295983E+02  0.11131367272E+02 -0.20453617583E+03  0.20562654352E+03  0.10000000000E+01 0.  0.
    9000005    1    3    3    0    0  0.17953295983E+02 -0.11131367272E+02  0.11707298204E+02  0.24172070768E+02  0.10000000000E+01 0.  0.
<mgrwt>
<rscale>  0 0.12499771E+03</rscale>
<asrwt>0</asrwt>
<pdfrwt beam="2">  1        4 0.32509805E-01 0.12499771E+03</pdfrwt>
<pdfrwt beam="1">  1       -4 0.28438260E-02 0.12499771E+03</pdfrwt>
<totfact> 0.85344894E+03</totfact>
</mgrwt>
</event>
<event>
 5    1  0.3514886E-002  0.1250008E+03  0.7818608E-02  0.1235068E+00
         -4   -1    0    0    0  501 -0.00000000000E+00  0.00000000000E+00  0.22694832331E+01  0.26006641739E+01  0.12700000000E+01 0.  1.
          4   -1    0    0  501    0  0.00000000000E+00 -0.00000000000E+00 -0.16038489045E+04  0.16038494073E+04  0.12700000000E+01 0.  1.
         25    2    1    2    0    0  0.00000000000E+00  0.00000000000E+00 -0.16015794213E+04  0.16064500715E+04  0.12500075833E+03 0.  0.
    9000005    1    3    3    0    0  0.25994796706E+02 -0.39949710934E+02 -0.13202183879E+04  0.13210788397E+04  0.10000000000E+01 0.  0.
    9000005    1    3    3    0    0 -0.25994796706E+02  0.39949710934E+02 -0.28136103336E+03  0.28537123182E+03  0.10000000000E+01 0.  0.
<mgrwt>
<rscale>  0 0.12500076E+03</rscale>
<asrwt>0</asrwt>
<pdfrwt beam="2">  1        4 0.24677065E+00 0.12500076E+03</pdfrwt>
<pdfrwt beam="1">  1       -4 0.37466668E-03 0.12500076E+03</pdfrwt>
<totfact> 0.15929780E+03</totfact>
</mgrwt>
</event>
<event>
 5    1  0.3514886E-002  0.1249978E+03  0.7818608E-02  0.1235073E+00
          4   -1    0    0  501    0  0.00000000000E+00  0.00000000000E+00  0.27516598727E+02  0.27545890901E+02  0.12700000000E+01 0.  1.
         -4   -1    0    0    0  501 -0.00000000000E+00 -0.00000000000E+00 -0.14184708755E+03  0.14185277278E+03  0.12700000000E+01 0.  1.
         25    2    1    2    0    0  0.00000000000E+00  0.00000000000E+00 -0.11433048882E+03  0.16939866368E+03  0.12499778632E+03 0.  0.
    9000005    1    3    3    0    0  0.13088396008E+02  0.51308257806E+02 -0.10213848798E+03  0.11505265818E+03  0.10000000000E+01 0.  0.
    9000005    1    3    3    0    0 -0.13088396008E+02 -0.51308257806E+02 -0.12192000845E+02  0.54346005500E+02  0.10000000000E+01 0.  0.
<mgrwt>
<rscale>  0 0.12499779E+03</rscale>
<asrwt>0</asrwt>
<pdfrwt beam="1">  1        4 0.42360135E-02 0.12499779E+03</pdfrwt>
<pdfrwt beam="2">  1       -4 0.21825319E-01 0.12499779E+03</pdfrwt>
<totfact> 0.95565529E+03</totfact>
</mgrwt>
</event>
<event>
 5    1  0.3514886E-002  0.1250036E+03  0.7818608E-02  0.1235064E+00
          4   -1    0    0  501    0  0.00000000000E+00  0.00000000000E+00  0.53728067609E+01  0.55208651939E+01  0.12700000000E+01 0. -1.
         -4   -1    0    0    0  501 -0.00000000000E+00 -0.00000000000E+00 -0.71705211550E+03  0.71705324017E+03  0.12700000000E+01 0. -1.
         25    2    1    2    0    0  0.00000000000E+00  0.00000000000E+00 -0.71167930874E+03  0.72257410537E+03  0.12500359699E+03 0.  0.
    9000005    1    3    3    0    0  0.71955545432E+01  0.59820265598E+02 -0.25994124040E+03  0.26683457167E+03  0.10000000000E+01 0.  0.
    9000005    1    3    3    0    0 -0.71955545432E+01 -0.59820265598E+02 -0.45173806834E+03  0.45573953369E+03  0.10000000000E+01 0.  0.
<mgrwt>
<rscale>  0 0.12500360E+03</rscale>
<asrwt>0</asrwt>
<pdfrwt beam="1">  1        4 0.83806185E-03 0.12500360E+03</pdfrwt>
<pdfrwt beam="2">  1       -4 0.11032711E+00 0.12500360E+03</pdfrwt>
<totfact> 0.41918214E+03</totfact>
</mgrwt>
</event>
<event>
 5    1  0.3514886E-002  0.1249988E+03  0.7818608E-02  0.1235071E+00
          4   -1    0    0  501    0  0.00000000000E+00  0.00000000000E+00  0.80493044877E+02  0.80503063132E+02  0.12700000000E+01 0.  1.
         -4   -1    0    0    0  501 -0.00000000000E+00 -0.00000000000E+00 -0.48506775452E+02  0.48523398117E+02  0.12700000000E+01 0.  1.
         25    2    1    2    0    0  0.00000000000E+00  0.00000000000E+00  0.31986269425E+02  0.12902646125E+03  0.12499882508E+03 0.  0.
    9000005    1    3    3    0    0 -0.17984759603E+02 -0.59604168288E+02  0.21558341038E+02  0.65892871569E+02  0.10000000000E+01 0.  0.
    9000005    1    3    3    0    0  0.17984759603E+02  0.59604168288E+02  0.10427928386E+02  0.63133589679E+02  0.10000000000E+01 0.  0.
<mgrwt>
<rscale>  0 0.12499883E+03</rscale>
<asrwt>0</asrwt>
<pdfrwt beam="1">  1        4 0.12385595E-01 0.12499883E+03</pdfrwt>
<pdfrwt beam="2">  1       -4 0.74646302E-02 0.12499883E+03</pdfrwt>
<totfact> 0.10365653E+04</totfact>
</mgrwt>
</event>
<event>
 5    1  0.3514886E-002  0.1250098E+03  0.7818608E-02  0.1235054E+00
          4   -1    0    0  501    0  0.00000000000E+00  0.00000000000E+00  0.17830110517E+03  0.17830562808E+03  0.12700000000E+01 0.  1.
         -4   -1    0    0    0  501 -0.00000000000E+00 -0.00000000000E+00 -0.21888400343E+02  0.21925213102E+02  0.12700000000E+01 0.  1.
         25    2    1    2    0    0  0.00000000000E+00  0.00000000000E+00  0.15641270482E+03  0.20023084118E+03  0.12500982173E+03 0.  0.
    9000005    1    3    3    0    0  0.14764887087E+02  0.41049205020E+02  0.14988805493E+03  0.15611043570E+03  0.10000000000E+01 0.  0.
    9000005    1    3    3    0    0 -0.14764887087E+02 -0.41049205020E+02  0.65246498944E+01  0.44120405480E+02  0.10000000000E+01 0.  0.
<mgrwt>
<rscale>  0 0.12500982E+03</rscale>
<asrwt>0</asrwt>
<pdfrwt beam="1">  1        4 0.27434118E-01 0.12500982E+03</pdfrwt>
<pdfrwt beam="2">  1       -4 0.33706260E-02 0.12500982E+03</pdfrwt>
<totfact> 0.90076790E+03</totfact>
</mgrwt>
</event>
<event>
 5    1  0.3514886E-002  0.1249965E+03  0.7818608E-02  0.1235075E+00
         -4   -1    0    0    0  501 -0.00000000000E+00  0.00000000000E+00  0.25968007745E+02  0.25999044718E+02  0.12700000000E+01 0.  1.
          4   -1    0    0  501    0  0.00000000000E+00 -0.00000000000E+00 -0.15029349454E+03  0.15029886028E+03  0.12700000000E+01 0.  1.
         25    2    1    2    0    0  0.00000000000E+00  0.00000000000E+00 -0.12432548680E+03  0.17629790500E+03  0.12499649851E+03 0.  0.
    9000005    1    3    3    0    0 -0.19271834354E+02 -0.41129882395E+02 -0.12269535912E+03  0.13083662321E+03  0.10000000000E+01 0.  0.
    9000005    1    3    3    0    0  0.19271834354E+02  0.41129882395E+02 -0.16301276806E+01  0.45461281784E+02  0.10000000000E+01 0.  0.
<mgrwt>
<rscale>  0 0.12499650E+03</rscale>
<asrwt>0</asrwt>
<pdfrwt beam="2">  1        4 0.23124876E-01 0.12499650E+03</pdfrwt>
<pdfrwt beam="1">  1       -4 0.39978784E-02 0.12499650E+03</pdfrwt>
<totfact> 0.94295075E+03</totfact>
</mgrwt>
</event>
<event>
 5    1  0.3514886E-002  0.1249971E+03  0.7818608E-02  0.1235074E+00
         -4   -1    0    0    0  501 -0.00000000000E+00  0.00000000000E+00  0.35748926372E+03  0.35749151958E+03  0.12700000000E+01 0. -1.
          4   -1    0    0  501    0  0.00000000000E+00 -0.00000000000E+00 -0.10887190932E+02  0.10961013930E+02  0.12700000000E+01 0. -1.
         25    2    1    2    0    0  0.00000000000E+00  0.00000000000E+00  0.34660207279E+03  0.36845253351E+03  0.12499709034E+03 0.  0.
    9000005    1    3    3    0    0  0.39747248511E+02 -0.46501460154E+02  0.13568610217E+03  0.14884202324E+03  0.10000000000E+01 0.  0.
    9000005    1    3    3    0    0 -0.39747248511E+02  0.46501460154E+02  0.21091597062E+03  0.21961051027E+03  0.10000000000E+01 0.  0.
<mgrwt>
<rscale>  0 0.12499709E+03</rscale>
<asrwt>0</asrwt>
<pdfrwt beam="2">  1        4 0.16808047E-02 0.12499709E+03</pdfrwt>
<pdfrwt beam="1">  1       -4 0.55004201E-01 0.12499709E+03</pdfrwt>
<totfact> 0.67745498E+03</totfact>
</mgrwt>
</event>
<event>
 5    1  0.3514886E-002  0.1249998E+03  0.7818608E-02  0.1235070E+00
          4   -1    0    0  501    0  0.00000000000E+00  0.00000000000E+00  0.78402483926E+02  0.78412769277E+02  0.12700000000E+01 0.  1.
         -4   -1    0    0    0  501 -0.00000000000E+00 -0.00000000000E+00 -0.49801263338E+02  0.49817454070E+02  0.12700000000E+01 0.  1.
         25    2    1    2    0    0  0.00000000000E+00  0.00000000000E+00  0.28601220588E+02  0.12823022335E+03  0.12499984144E+03 0.  0.
    9000005    1    3    3    0    0 -0.29730544489E+02 -0.70520126850E+01  0.70221799538E+02  0.76588101483E+02  0.10000000000E+01 0.  0.
    9000005    1    3    3    0    0  0.29730544489E+02  0.70520126850E+01 -0.41620578950E+02  0.51642121864E+02  0.10000000000E+01 0.  0.
<mgrwt>
<rscale>  0 0.12499984E+03</rscale>
<asrwt>0</asrwt>
<pdfrwt beam="1">  1        4 0.12063957E-01 0.12499984E+03</pdfrwt>
<pdfrwt beam="2">  1       -4 0.76637695E-02 0.12499984E+03</pdfrwt>
<totfact> 0.10382556E+04</totfact>
</mgrwt>
</event>
<event>
 5    1  0.3514886E-002  0.1249978E+03  0.7818608E-02  0.1235073E+00
          4   -1    0    0  501    0  0.00000000000E+00  0.00000000000E+00  0.75085363575E+03  0.75085470979E+03  0.12700000000E+01 0. -1.
         -4   -1    0    0    0  501 -0.00000000000E+00 -0.00000000000E+00 -0.51236216896E+01  0.52786740019E+01  0.12700000000E+01 0. -1.
         25    2    1    2    0    0  0.00000000000E+00  0.00000000000E+00  0.74573001406E+03  0.75613338379E+03  0.12499776086E+03 0.  0.
    9000005    1    3    3    0    0  0.42953895717E+02  0.30175837410E+01  0.64681766909E+03  0.64825013692E+03  0.10000000000E+01 0.  0.
    9000005    1    3    3    0    0 -0.42953895717E+02 -0.30175837410E+01  0.98912344965E+02  0.10788324687E+03  0.10000000000E+01 0.  0.
<mgrwt>
<rscale>  0 0.12499776E+03</rscale>
<asrwt>0</asrwt>
<pdfrwt beam="1">  1        4 0.11552797E+00 0.12499776E+03</pdfrwt>
<pdfrwt beam="2">  1       -4 0.80025911E-03 0.12499776E+03</pdfrwt>
<totfact> 0.40284448E+03</totfact>
</mgrwt>
</event>
<event>
 5    1  0.3514886E-002  0.1250002E+03  0.7818608E-02  0.1235069E+00
          4   -1    0    0  501    0  0.00000000000E+00  0.00000000000E+00  0.11060430182E+03  0.11061159288E+03  0.12700000000E+01 0. -1.
         -4   -1    0    0    0  501 -0.00000000000E+00 -0.00000000000E+00 -0.35297596302E+02  0.35320436077E+02  0.12700000000E+01 0. -1.
         25    2    1    2    0    0  0.00000000000E+00  0.00000000000E+00  0.75306705515E+02  0.14593202896E+03  0.12500022873E+03 0.  0.
    9000005    1    3    3    0    0 -0.12229906778E+02  0.53358704991E+02  0.72842795028E+02  0.91125160113E+02  0.10000000000E+01 0.  0.
    9000005    1    3    3    0    0  0.12229906778E+02 -0.53358704991E+02  0.24639104870E+01  0.54806868849E+02  0.10000000000E+01 0.  0.
<mgrwt>
<rscale>  0 0.12500023E+03</rscale>
<asrwt>0</asrwt>
<pdfrwt beam="1">  1        4 0.17018364E-01 0.12500023E+03</pdfrwt>
<pdfrwt beam="2">  1       -4 0.54327172E-02 0.12500023E+03</pdfrwt>
<totfact> 0.10012034E+04</totfact>
</mgrwt>
</event>
<event>
 5    1  0.3514886E-002  0.1249988E+03  0.7818608E-02  0.1235071E+00
          4   -1    0    0  501    0  0.00000000000E+00  0.00000000000E+00  0.22999376578E+04  0.22999380084E+04  0.12700000000E+01 0.  1.
         -4   -1    0    0    0  501 -0.00000000000E+00 -0.00000000000E+00 -0.14605675668E+01  0.19354993199E+01  0.12700000000E+01 0.  1.
         25    2    1    2    0    0  0.00000000000E+00  0.00000000000E+00  0.22984770902E+04  0.23018735077E+04  0.12499884559E+03 0.  0.
    9000005    1    3    3    0    0 -0.50492064188E+02 -0.85082550041E+01  0.48953908007E+03  0.49221067630E+03  0.10000000000E+01 0.  0.
    9000005    1    3    3    0    0  0.50492064188E+02  0.85082550041E+01  0.18089380102E+04  0.18096628314E+04  0.10000000000E+01 0.  0.
<mgrwt>
<rscale>  0 0.12499885E+03</rscale>
<asrwt>0</asrwt>
<pdfrwt beam="1">  1        4 0.35387232E+00 0.12499885E+03</pdfrwt>
<pdfrwt beam="2">  1       -4 0.26126348E-03 0.12499885E+03</pdfrwt>
<totfact> 0.64180693E+02</totfact>
</mgrwt>
</event>
<event>
 5    1  0.3514886E-002  0.1249983E+03  0.7818608E-02  0.1235072E+00
          4   -1    0    0  501    0  0.00000000000E+00  0.00000000000E+00  0.22193998419E+02  0.22230305122E+02  0.12700000000E+01 0. -1.
         -4   -1    0    0    0  501 -0.00000000000E+00 -0.00000000000E+00 -0.17581758062E+03  0.17582216742E+03  0.12700000000E+01 0. -1.
         25    2    1    2    0    0  0.00000000000E+00  0.00000000000E+00 -0.15362358220E+03  0.19805247254E+03  0.12499830747E+03 0.  0.
    9000005    1    3    3    0    0 -0.20191223328E+02 -0.34649430781E+02 -0.87628718445E+00  0.40125259279E+02  0.10000000000E+01 0.  0.
    9000005    1    3    3    0    0  0.20191223328E+02  0.34649430781E+02 -0.15274729502E+03  0.15792721326E+03  0.10000000000E+01 0.  0.
<mgrwt>
<rscale>  0 0.12499831E+03</rscale>
<asrwt>0</asrwt>
<pdfrwt beam="1">  1        4 0.34176071E-02 0.12499831E+03</pdfrwt>
<pdfrwt beam="2">  1       -4 0.27052003E-01 0.12499831E+03</pdfrwt>
<totfact> 0.90468208E+03</totfact>
</mgrwt>
</event>
<event>
 5    1  0.3514886E-002  0.1250012E+03  0.7818608E-02  0.1235067E+00
         -4   -1    0    0    0  501 -0.00000000000E+00  0.00000000000E+00  0.13873003936E+02  0.13931013539E+02  0.12700000000E+01 0.  1.
          4   -1    0    0  501    0  0.00000000000E+00 -0.00000000000E+00 -0.28093034634E+03  0.28093321697E+03  0.12700000000E+01 0.  1.
         25    2    1    2    0    0  0.00000000000E+00  0.00000000000E+00 -0.26705734241E+03  0.29486423051E+03  0.12500116119E+03 0.  0.
    9000005    1    3    3    0    0 -0.39114720782E+02  0.21454235552E+02 -0.23675753842E+03  0.24092608328E+03  0.10000000000E+01 0.  0.
    9000005    1    3    3    0    0  0.39114720782E+02 -0.21454235552E+02 -0.30299803988E+02  0.53938147231E+02  0.10000000000E+01 0.  0.
<mgrwt>
<rscale>  0 0.12500116E+03</rscale>
<asrwt>0</asrwt>
<pdfrwt beam="2">  1        4 0.43224732E-01 0.12500116E+03</pdfrwt>
<pdfrwt beam="1">  1       -4 0.21389916E-02 0.12500116E+03</pdfrwt>
<totfact> 0.76245645E+03</totfact>
</mgrwt>
</event>
<event>
 5    1  0.3514886E-002  0.1249991E+03  0.7818608E-02  0.1235071E+00
          4   -1    0    0  501    0  0.00000000000E+00  0.00000000000E+00  0.81542850619E+02  0.81552739912E+02  0.12700000000E+01 0.  1.
         -4   -1    0    0    0  501 -0.00000000000E+00 -0.00000000000E+00 -0.47882362165E+02  0.47899201522E+02  0.12700000000E+01 0.  1.
         25    2    1    2    0    0  0.00000000000E+00  0.00000000000E+00  0.33660488455E+02  0.12945194143E+03  0.12499910663E+03 0.  0.
    9000005    1    3    3    0    0 -0.36986619596E+02 -0.83547607698E+01 -0.34611994979E+02  0.51349802853E+02  0.10000000000E+01 0.  0.
    9000005    1    3    3    0    0  0.36986619596E+02  0.83547607698E+01  0.68272483434E+02  0.78102138581E+02  0.10000000000E+01 0.  0.
<mgrwt>
<rscale>  0 0.12499911E+03</rscale>
<asrwt>0</asrwt>
<pdfrwt beam="1">  1        4 0.12547110E-01 0.12499911E+03</pdfrwt>
<pdfrwt beam="2">  1       -4 0.73685734E-02 0.12499911E+03</pdfrwt>
<totfact> 0.10356454E+04</totfact>
</mgrwt>
</event>
<event>
 5    1  0.3514886E-002  0.1249973E+03  0.7818608E-02  0.1235073E+00
         -4   -1    0    0    0  501 -0.00000000000E+00  0.00000000000E+00  0.58824823047E+02  0.58838530799E+02  0.12700000000E+01 0. -1.
          4   -1    0    0  501    0  0.00000000000E+00 -0.00000000000E+00 -0.66374415060E+02  0.66386563962E+02  0.12700000000E+01 0. -1.
         25    2    1    2    0    0  0.00000000000E+00  0.00000000000E+00 -0.75495920132E+01  0.12522509476E+03  0.12499731204E+03 0.  0.
    9000005    1    3    3    0    0 -0.23676784642E+02 -0.38018554646E+02 -0.47432659881E+02  0.65244600173E+02  0.10000000000E+01 0.  0.
    9000005    1    3    3    0    0  0.23676784642E+02  0.38018554646E+02  0.39883067868E+02  0.59980494587E+02  0.10000000000E+01 0.  0.
<mgrwt>
<rscale>  0 0.12499731E+03</rscale>
<asrwt>0</asrwt>
<pdfrwt beam="2">  1        4 0.10213437E-01 0.12499731E+03</pdfrwt>
<pdfrwt beam="1">  1       -4 0.90519617E-02 0.12499731E+03</pdfrwt>
<totfact> 0.10448610E+04</totfact>
</mgrwt>
</event>
<event>
 5    1  0.3514886E-002  0.1249990E+03  0.7818608E-02  0.1235071E+00
          4   -1    0    0  501    0  0.00000000000E+00  0.00000000000E+00  0.45166930681E+01  0.46918457212E+01  0.12700000000E+01 0. -1.
         -4   -1    0    0    0  501 -0.00000000000E+00 -0.00000000000E+00 -0.84820776404E+03  0.84820871481E+03  0.12700000000E+01 0. -1.
         25    2    1    2    0    0  0.00000000000E+00  0.00000000000E+00 -0.84369107097E+03  0.85290056053E+03  0.12499897165E+03 0.  0.
    9000005    1    3    3    0    0  0.11330576465E+02 -0.41368731934E+02 -0.11174866195E+03  0.11970178525E+03  0.10000000000E+01 0.  0.
    9000005    1    3    3    0    0 -0.11330576465E+02  0.41368731934E+02 -0.73194240902E+03  0.73319877527E+03  0.10000000000E+01 0.  0.
<mgrwt>
<rscale>  0 0.12499897E+03</rscale>
<asrwt>0</asrwt>
<pdfrwt beam="1">  1        4 0.70842295E-03 0.12499897E+03</pdfrwt>
<pdfrwt beam="2">  1       -4 0.13050692E+00 0.12499897E+03</pdfrwt>
<totfact> 0.36009762E+03</totfact>
</mgrwt>
</event>
<event>
 5    1  0.3514886E-002  0.1250011E+03  0.7818608E-02  0.1235067E+00
          4   -1    0    0  501    0  0.00000000000E+00  0.00000000000E+00  0.16006566719E+03  0.16007070536E+03  0.12700000000E+01 0. -1.
         -4   -1    0    0    0  501 -0.00000000000E+00 -0.00000000000E+00 -0.24382545081E+02  0.24415597569E+02  0.12700000000E+01 0. -1.
         25    2    1    2    0    0  0.00000000000E+00  0.00000000000E+00  0.13568312211E+03  0.18448630292E+03  0.12500114536E+03 0.  0.
    9000005    1    3    3    0    0 -0.25176516196E+02  0.56490378791E+02  0.81067075176E+02  0.10197004728E+03  0.10000000000E+01 0.  0.
    9000005    1    3    3    0    0  0.25176516196E+02 -0.56490378791E+02  0.54616046933E+02  0.82516255649E+02  0.10000000000E+01 0.  0.
<mgrwt>
<rscale>  0 0.12500115E+03</rscale>
<asrwt>0</asrwt>
<pdfrwt beam="1">  1        4 0.24628418E-01 0.12500115E+03</pdfrwt>
<pdfrwt beam="2">  1       -4 0.37540908E-02 0.12500115E+03</pdfrwt>
<totfact> 0.92813248E+03</totfact>
</mgrwt>
</event>
<event>
 5    1  0.3514886E-002  0.1250010E+03  0.7818608E-02  0.1235068E+00
          4   -1    0    0  501    0  0.00000000000E+00  0.00000000000E+00  0.25469231199E+02  0.25500875238E+02  0.12700000000E+01 0.  1.
         -4   -1    0    0    0  501 -0.00000000000E+00 -0.00000000000E+00 -0.15324429914E+03  0.15324956156E+03  0.12700000000E+01 0.  1.
         25    2    1    2    0    0  0.00000000000E+00  0.00000000000E+00 -0.12777506794E+03  0.17875043680E+03  0.12500100267E+03 0.  0.
    9000005    1    3    3    0    0  0.20401350294E+01 -0.41619189342E+02 -0.13048577362E+03  0.13698122568E+03  0.10000000000E+01 0.  0.
    9000005    1    3    3    0    0 -0.20401350294E+01  0.41619189342E+02  0.27107056740E+01  0.41769211121E+02  0.10000000000E+01 0.  0.
<mgrwt>
<rscale>  0 0.12500100E+03</rscale>
<asrwt>0</asrwt>
<pdfrwt beam="1">  1        4 0.39211823E-02 0.12500100E+03</pdfrwt>
<pdfrwt beam="2">  1       -4 0.23578884E-01 0.12500100E+03</pdfrwt>
<totfact> 0.93840304E+03</totfact>
</mgrwt>
</event>
<event>
 5    1  0.3514886E-002  0.1250027E+03  0.7818608E-02  0.1235065E+00
         -4   -1    0    0    0  501 -0.00000000000E+00  0.00000000000E+00  0.33084653990E+02  0.33109020367E+02  0.12700000000E+01 0. -1.
          4   -1    0    0  501    0  0.00000000000E+00 -0.00000000000E+00 -0.11800221985E+03  0.11800905384E+03  0.12700000000E+01 0. -1.
         25    2    1    2    0    0  0.00000000000E+00  0.00000000000E+00 -0.84917565858E+02  0.15111807421E+03  0.12500271742E+03 0.  0.
    9000005    1    3    3    0    0  0.14532669567E+02 -0.60779119306E+02 -0.42039980187E+02  0.75323699873E+02  0.10000000000E+01 0.  0.
    9000005    1    3    3    0    0 -0.14532669567E+02  0.60779119306E+02 -0.42877585670E+02  0.75794374338E+02  0.10000000000E+01 0.  0.
<mgrwt>
<rscale>  0 0.12500272E+03</rscale>
<asrwt>0</asrwt>
<pdfrwt beam="2">  1        4 0.18156588E-01 0.12500272E+03</pdfrwt>
<pdfrwt beam="1">  1       -4 0.50923468E-02 0.12500272E+03</pdfrwt>
<totfact> 0.99075234E+03</totfact>
</mgrwt>
</event>
<event>
 5    1  0.3514886E-002  0.1250008E+03  0.7818608E-02  0.1235068E+00
          4   -1    0    0  501    0  0.00000000000E+00  0.00000000000E+00  0.62749028829E+01  0.64021329406E+01  0.12700000000E+01 0.  1.
         -4   -1    0    0    0  501 -0.00000000000E+00 -0.00000000000E+00 -0.61615151650E+03  0.61615282535E+03  0.12700000000E+01 0.  1.
         25    2    1    2    0    0  0.00000000000E+00  0.00000000000E+00 -0.60987661362E+03  0.62255495829E+03  0.12500076901E+03 0.  0.
    9000005    1    3    3    0    0  0.36974672075E+02  0.50190064787E+02 -0.28315558672E+03  0.28993836460E+03  0.10000000000E+01 0.  0.
    9000005    1    3    3    0    0 -0.36974672075E+02 -0.50190064787E+02 -0.32672102690E+03  0.33261659369E+03  0.10000000000E+01 0.  0.
<mgrwt>
<rscale>  0 0.12500077E+03</rscale>
<asrwt>0</asrwt>
<pdfrwt beam="1">  1        4 0.97525777E-03 0.12500077E+03</pdfrwt>
<pdfrwt beam="2">  1       -4 0.94802382E-01 0.12500077E+03</pdfrwt>
<totfact> 0.47473358E+03</totfact>
</mgrwt>
</event>
<event>
 5    1  0.3514886E-002  0.1250001E+03  0.7818608E-02  0.1235069E+00
          4   -1    0    0  501    0  0.00000000000E+00  0.00000000000E+00  0.13679797929E+03  0.13680387435E+03  0.12700000000E+01 0.  1.
         -4   -1    0    0    0  501 -0.00000000000E+00 -0.00000000000E+00 -0.28534283812E+02  0.28562532322E+02  0.12700000000E+01 0.  1.
         25    2    1    2    0    0  0.00000000000E+00  0.00000000000E+00  0.10826369548E+03  0.16536640667E+03  0.12500008279E+03 0.  0.
    9000005    1    3    3    0    0 -0.21527076103E+02  0.49652216550E+02  0.12791648039E+02  0.55618197322E+02  0.10000000000E+01 0.  0.
    9000005    1    3    3    0    0  0.21527076103E+02 -0.49652216550E+02  0.95472047438E+02  0.10974820935E+03  0.10000000000E+01 0.  0.
<mgrwt>
<rscale>  0 0.12500008E+03</rscale>
<asrwt>0</asrwt>
<pdfrwt beam="1">  1        4 0.21048469E-01 0.12500008E+03</pdfrwt>
<pdfrwt beam="2">  1       -4 0.43925163E-02 0.12500008E+03</pdfrwt>
<totfact> 0.96317867E+03</totfact>
</mgrwt>
</event>
<event>
 5    1  0.3514886E-002  0.1250002E+03  0.7818608E-02  0.1235069E+00
          4   -1    0    0  501    0  0.00000000000E+00  0.00000000000E+00  0.55444945292E+02  0.55459488444E+02  0.12700000000E+01 0. -1.
         -4   -1    0    0    0  501 -0.00000000000E+00 -0.00000000000E+00 -0.70423497787E+02  0.70434948290E+02  0.12700000000E+01 0. -1.
         25    2    1    2    0    0  0.00000000000E+00  0.00000000000E+00 -0.14978552495E+02  0.12589443673E+03  0.12500020866E+03 0.  0.
    9000005    1    3    3    0    0  0.97597195872E+01 -0.52766688405E+02 -0.39744743287E+02  0.66784879655E+02  0.10000000000E+01 0.  0.
    9000005    1    3    3    0    0 -0.97597195872E+01  0.52766688405E+02  0.24766190792E+02  0.59109557078E+02  0.10000000000E+01 0.  0.
<mgrwt>
<rscale>  0 0.12500021E+03</rscale>
<asrwt>0</asrwt>
<pdfrwt beam="1">  1        4 0.85319911E-02 0.12500021E+03</pdfrwt>
<pdfrwt beam="2">  1       -4 0.10836384E-01 0.12500021E+03</pdfrwt>
<totfact> 0.10433223E+04</totfact>
</mgrwt>
</event>
<event>
 5    1  0.3514886E-002  0.1250026E+03  0.7818608E-02  0.1235065E+00
          4   -1    0    0  501    0  0.00000000000E+00  0.00000000000E+00  0.24957808013E+02  0.24990099656E+02  0.12700000000E+01 0. -1.
         -4   -1    0    0    0  501 -0.00000000000E+00 -0.00000000000E+00 -0.15638460775E+03  0.15638976450E+03  0.12700000000E+01 0. -1.
         25    2    1    2    0    0  0.00000000000E+00  0.00000000000E+00 -0.13142679973E+03  0.18137986416E+03  0.12500260570E+03 0.  0.
    9000005    1    3    3    0    0 -0.10148182750E+02  0.50482002468E+01 -0.15488780419E+03  0.15530518930E+03  0.10000000000E+01 0.  0.
    9000005    1    3    3    0    0  0.10148182750E+02 -0.50482002468E+01  0.23461004451E+02  0.26074674853E+02  0.10000000000E+01 0.  0.
<mgrwt>
<rscale>  0 0.12500261E+03</rscale>
<asrwt>0</asrwt>
<pdfrwt beam="1">  1        4 0.38425435E-02 0.12500261E+03</pdfrwt>
<pdfrwt beam="2">  1       -4 0.24062050E-01 0.12500261E+03</pdfrwt>
<totfact> 0.93363757E+03</totfact>
</mgrwt>
</event>
<event>
 5    1  0.3514886E-002  0.1249993E+03  0.7818608E-02  0.1235070E+00
          4   -1    0    0  501    0  0.00000000000E+00  0.00000000000E+00  0.54409376392E+02  0.54424196267E+02  0.12700000000E+01 0. -1.
         -4   -1    0    0    0  501 -0.00000000000E+00 -0.00000000000E+00 -0.71762625849E+02  0.71773862713E+02  0.12700000000E+01 0. -1.
         25    2    1    2    0    0  0.00000000000E+00  0.00000000000E+00 -0.17353249457E+02  0.12619805898E+03  0.12499925929E+03 0.  0.
    9000005    1    3    3    0    0 -0.41960753686E+02 -0.28142864847E+02 -0.45805375962E+02  0.68204531805E+02  0.10000000000E+01 0.  0.
    9000005    1    3    3    0    0  0.41960753686E+02  0.28142864847E+02  0.28452126505E+02  0.57993527176E+02  0.10000000000E+01 0.  0.
<mgrwt>
<rscale>  0 0.12499926E+03</rscale>
<asrwt>0</asrwt>
<pdfrwt beam="1">  1        4 0.83726777E-02 0.12499926E+03</pdfrwt>
<pdfrwt beam="2">  1       -4 0.11042408E-01 0.12499926E+03</pdfrwt>
<totfact> 0.10426796E+04</totfact>
</mgrwt>
</event>
<event>
 5    1  0.3514886E-002  0.1249993E+03  0.7818608E-02  0.1235070E+00
          4   -1    0    0  501    0  0.00000000000E+00  0.00000000000E+00  0.98733633930E+03  0.98733715609E+03  0.12700000000E+01 0.  1.
         -4   -1    0    0    0  501 -0.00000000000E+00 -0.00000000000E+00 -0.38535465306E+01  0.40574278630E+01  0.12700000000E+01 0.  1.
         25    2    1    2    0    0  0.00000000000E+00  0.00000000000E+00  0.98348279277E+03  0.99139458395E+03  0.12499926969E+03 0.  0.
    9000005    1    3    3    0    0  0.62154611831E+01  0.10809229907E+02  0.97740911274E+03  0.97748915343E+03  0.10000000000E+01 0.  0.
    9000005    1    3    3    0    0 -0.62154611831E+01 -0.10809229907E+02  0.60736800243E+01  0.13905430520E+02  0.10000000000E+01 0.  0.
<mgrwt>
<rscale>  0 0.12499927E+03</rscale>
<asrwt>0</asrwt>
<pdfrwt beam="1">  1        4 0.15191362E+00 0.12499927E+03</pdfrwt>
<pdfrwt beam="2">  1       -4 0.60859941E-03 0.12499927E+03</pdfrwt>
<totfact> 0.30890825E+03</totfact>
</mgrwt>
</event>
<event>
 5    1  0.3514886E-002  0.1250081E+03  0.7818608E-02  0.1235057E+00
         -4   -1    0    0    0  501 -0.00000000000E+00  0.00000000000E+00  0.24009597956E+02  0.24043163145E+02  0.12700000000E+01 0. -1.
          4   -1    0    0  501    0  0.00000000000E+00 -0.00000000000E+00 -0.16256665010E+03  0.16257161076E+03  0.12700000000E+01 0. -1.
         25    2    1    2    0    0  0.00000000000E+00  0.00000000000E+00 -0.13855705214E+03  0.18661477390E+03  0.12500806830E+03 0.  0.
    9000005    1    3    3    0    0 -0.32276088223E+02  0.51891357746E+02 -0.49740493207E+02  0.78800860047E+02  0.10000000000E+01 0.  0.
    9000005    1    3    3    0    0  0.32276088223E+02 -0.51891357746E+02 -0.88816558937E+02  0.10781391386E+03  0.10000000000E+01 0.  0.
<mgrwt>
<rscale>  0 0.12500807E+03</rscale>
<asrwt>0</asrwt>
<pdfrwt beam="2">  1        4 0.25013217E-01 0.12500807E+03</pdfrwt>
<pdfrwt beam="1">  1       -4 0.36967479E-02 0.12500807E+03</pdfrwt>
<totfact> 0.92422982E+03</totfact>
</mgrwt>
</event>
<event>
 5    1  0.3514886E-002  0.1250007E+03  0.7818608E-02  0.1235068E+00
          4   -1    0    0  501    0  0.00000000000E+00  0.00000000000E+00  0.77944555378E+02  0.77954901148E+02  0.12700000000E+01 0. -1.
         -4   -1    0    0    0  501 -0.00000000000E+00 -0.00000000000E+00 -0.50094592172E+02  0.50110688130E+02  0.12700000000E+01 0. -1.
         25    2    1    2    0    0  0.00000000000E+00  0.00000000000E+00  0.27849963206E+02  0.12806558928E+03  0.12500069883E+03 0.  0.
    9000005    1    3    3    0    0 -0.59469333590E+02 -0.30419927011E+01 -0.54987289964E+01  0.59808790139E+02  0.10000000000E+01 0.  0.
    9000005    1    3    3    0    0  0.59469333590E+02  0.30419927011E+01  0.33348692202E+02  0.68256799140E+02  0.10000000000E+01 0.  0.
<mgrwt>
<rscale>  0 0.12500070E+03</rscale>
<asrwt>0</asrwt>
<pdfrwt beam="1">  1        4 0.11993504E-01 0.12500070E+03</pdfrwt>
<pdfrwt beam="2">  1       -4 0.77088943E-02 0.12500070E+03</pdfrwt>
<totfact> 0.10385907E+04</totfact>
</mgrwt>
</event>
<event>
 5    1  0.3514886E-002  0.1249989E+03  0.7818608E-02  0.1235071E+00
          4   -1    0    0  501    0  0.00000000000E+00  0.00000000000E+00  0.33914285150E+03  0.33914522940E+03  0.12700000000E+01 0.  1.
         -4   -1    0    0    0  501 -0.00000000000E+00 -0.00000000000E+00 -0.11480362513E+02  0.11550394947E+02  0.12700000000E+01 0.  1.
         25    2    1    2    0    0  0.00000000000E+00  0.00000000000E+00  0.32766248898E+03  0.35069562434E+03  0.12499885698E+03 0.  0.
    9000005    1    3    3    0    0 -0.65212418558E+00 -0.62126439497E+02  0.14499847596E+03  0.15775195017E+03  0.10000000000E+01 0.  0.
    9000005    1    3    3    0    0  0.65212418558E+00  0.62126439497E+02  0.18266401302E+03  0.19294367417E+03  0.10000000000E+01 0.  0.
<mgrwt>
<rscale>  0 0.12499886E+03</rscale>
<asrwt>0</asrwt>
<pdfrwt beam="1">  1        4 0.52181391E-01 0.12499886E+03</pdfrwt>
<pdfrwt beam="2">  1       -4 0.17717797E-02 0.12499886E+03</pdfrwt>
<totfact> 0.69649858E+03</totfact>
</mgrwt>
</event>
<event>
 5    1  0.3514886E-002  0.1249974E+03  0.7818608E-02  0.1235073E+00
          4   -1    0    0  501    0  0.00000000000E+00  0.00000000000E+00  0.12536027336E+02  0.12600193704E+02  0.12700000000E+01 0. -1.
         -4   -1    0    0    0  501 -0.00000000000E+00 -0.00000000000E+00 -0.31072783742E+03  0.31073043276E+03  0.12700000000E+01 0. -1.
         25    2    1    2    0    0  0.00000000000E+00  0.00000000000E+00 -0.29819181008E+03  0.32333062647E+03  0.12499735362E+03 0.  0.
    9000005    1    3    3    0    0 -0.55304174935E+02 -0.12240446101E+02 -0.21737225191E+03  0.22463320366E+03  0.10000000000E+01 0.  0.
    9000005    1    3    3    0    0  0.55304174935E+02  0.12240446101E+02 -0.80819558167E+02  0.98697422805E+02  0.10000000000E+01 0.  0.
<mgrwt>
<rscale>  0 0.12499735E+03</rscale>
<asrwt>0</asrwt>
<pdfrwt beam="1">  1        4 0.19337553E-02 0.12499735E+03</pdfrwt>
<pdfrwt beam="2">  1       -4 0.47809412E-01 0.12499735E+03</pdfrwt>
<totfact> 0.72766005E+03</totfact>
</mgrwt>
</event>
<event>
 5    1  0.3514886E-002  0.1249997E+03  0.7818608E-02  0.1235070E+00
          4   -1    0    0  501    0  0.00000000000E+00  0.00000000000E+00  0.63935295357E+02  0.63947907647E+02  0.12700000000E+01 0.  1.
         -4   -1    0    0    0  501 -0.00000000000E+00 -0.00000000000E+00 -0.61071434903E+02  0.61084638504E+02  0.12700000000E+01 0.  1.
         25    2    1    2    0    0  0.00000000000E+00  0.00000000000E+00  0.28638604540E+01  0.12503254615E+03  0.12499974360E+03 0.  0.
    9000005    1    3    3    0    0  0.32881105940E+02 -0.34349823122E+02 -0.39126910167E+02  0.61587276085E+02  0.10000000000E+01 0.  0.
    9000005    1    3    3    0    0 -0.32881105940E+02  0.34349823122E+02  0.41990770621E+02  0.63445270065E+02  0.10000000000E+01 0.  0.
<mgrwt>
<rscale>  0 0.12499974E+03</rscale>
<asrwt>0</asrwt>
<pdfrwt beam="1">  1        4 0.98381851E-02 0.12499974E+03</pdfrwt>
<pdfrwt beam="2">  1       -4 0.93975912E-02 0.12499974E+03</pdfrwt>
<totfact> 0.10452216E+04</totfact>
</mgrwt>
</event>
<event>
 5    1  0.3514886E-002  0.1250080E+03  0.7818608E-02  0.1235057E+00
         -4   -1    0    0    0  501 -0.00000000000E+00  0.00000000000E+00  0.42321105376E+02  0.42340156592E+02  0.12700000000E+01 0. -1.
          4   -1    0    0  501    0  0.00000000000E+00 -0.00000000000E+00 -0.92267928683E+02  0.92276668576E+02  0.12700000000E+01 0. -1.
         25    2    1    2    0    0  0.00000000000E+00  0.00000000000E+00 -0.49946823307E+02  0.13461682517E+03  0.12500801758E+03 0.  0.
    9000005    1    3    3    0    0 -0.51437884629E+02  0.28303652462E+02 -0.19074045288E+01  0.58750241785E+02  0.10000000000E+01 0.  0.
    9000005    1    3    3    0    0  0.51437884629E+02 -0.28303652462E+02 -0.48039418778E+02  0.75866583384E+02  0.10000000000E+01 0.  0.
<mgrwt>
<rscale>  0 0.12500802E+03</rscale>
<asrwt>0</asrwt>
<pdfrwt beam="2">  1        4 0.14197204E-01 0.12500802E+03</pdfrwt>
<pdfrwt beam="1">  1       -4 0.65130771E-02 0.12500802E+03</pdfrwt>
<totfact> 0.10244301E+04</totfact>
</mgrwt>
</event>
<event>
 5    1  0.3514886E-002  0.1249952E+03  0.7818608E-02  0.1235077E+00
          4   -1    0    0  501    0  0.00000000000E+00  0.00000000000E+00  0.10029449657E+03  0.10030253706E+03  0.12700000000E+01 0.  1.
         -4   -1    0    0    0  501 -0.00000000000E+00 -0.00000000000E+00 -0.38924839335E+02  0.38945551957E+02  0.12700000000E+01 0.  1.
         25    2    1    2    0    0  0.00000000000E+00  0.00000000000E+00  0.61369657231E+02  0.13924808902E+03  0.12499518178E+03 0.  0.
    9000005    1    3    3    0    0  0.60751656768E+02 -0.51631258935E+01  0.15429270404E+02  0.62900588663E+02  0.10000000000E+01 0.  0.
    9000005    1    3    3    0    0 -0.60751656768E+02  0.51631258935E+01  0.45940386827E+02  0.76347500357E+02  0.10000000000E+01 0.  0.
<mgrwt>
<rscale>  0 0.12499518E+03</rscale>
<asrwt>0</asrwt>
<pdfrwt beam="1">  1        4 0.15432134E-01 0.12499518E+03</pdfrwt>
<pdfrwt beam="2">  1       -4 0.59906487E-02 0.12499518E+03</pdfrwt>
<totfact> 0.10150295E+04</totfact>
</mgrwt>
</event>
<event>
 5    1  0.3514886E-002  0.1249658E+03  0.7818608E-02  0.1235123E+00
          4   -1    0    0  501    0  0.00000000000E+00  0.00000000000E+00  0.18271153367E+02  0.18315238064E+02  0.12700000000E+01 0.  1.
         -4   -1    0    0    0  501 -0.00000000000E+00 -0.00000000000E+00 -0.21337282402E+03  0.21337660352E+03  0.12700000000E+01 0.  1.
         25    2    1    2    0    0  0.00000000000E+00  0.00000000000E+00 -0.19510167065E+03  0.23169184158E+03  0.12496578558E+03 0.  0.
    9000005    1    3    3    0    0  0.51416780078E+02 -0.35186767740E+02 -0.88990460439E+02  0.10863745186E+03  0.10000000000E+01 0.  0.
    9000005    1    3    3    0    0 -0.51416780078E+02  0.35186767740E+02 -0.10611121021E+03  0.12305438972E+03  0.10000000000E+01 0.  0.
<mgrwt>
<rscale>  0 0.12496579E+03</rscale>
<asrwt>0</asrwt>
<pdfrwt beam="1">  1        4 0.28146287E-02 0.12496579E+03</pdfrwt>
<pdfrwt beam="2">  1       -4 0.32830269E-01 0.12496579E+03</pdfrwt>
<totfact> 0.85115438E+03</totfact>
</mgrwt>
</event>
<event>
 5    1  0.3514886E-002  0.1249697E+03  0.7818608E-02  0.1235117E+00
         -4   -1    0    0    0  501 -0.00000000000E+00  0.00000000000E+00  0.13891389355E+02  0.13949322500E+02  0.12700000000E+01 0.  1.
          4   -1    0    0  501    0  0.00000000000E+00 -0.00000000000E+00 -0.28041904829E+03  0.28042192415E+03  0.12700000000E+01 0.  1.
         25    2    1    2    0    0  0.00000000000E+00  0.00000000000E+00 -0.26652765893E+03  0.29437124665E+03  0.12496974784E+03 0.  0.
    9000005    1    3    3    0    0 -0.62357315720E+02 -0.38257472022E+01 -0.13452861100E+03  0.14833077342E+03  0.10000000000E+01 0.  0.
    9000005    1    3    3    0    0  0.62357315720E+02  0.38257472022E+01 -0.13199904793E+03  0.14604047322E+03  0.10000000000E+01 0.  0.
<mgrwt>
<rscale>  0 0.12496975E+03</rscale>
<asrwt>0</asrwt>
<pdfrwt beam="2">  1        4 0.43146066E-01 0.12496975E+03</pdfrwt>
<pdfrwt beam="1">  1       -4 0.21418146E-02 0.12496975E+03</pdfrwt>
<totfact> 0.76361658E+03</totfact>
</mgrwt>
</event>
<event>
 5    1  0.3514886E-002  0.1249980E+03  0.7818608E-02  0.1235072E+00
          4   -1    0    0  501    0  0.00000000000E+00  0.00000000000E+00  0.43159261037E+01  0.44989018807E+01  0.12700000000E+01 0.  1.
         -4   -1    0    0    0  501 -0.00000000000E+00 -0.00000000000E+00 -0.88607947614E+03  0.88608038627E+03  0.12700000000E+01 0.  1.
         25    2    1    2    0    0  0.00000000000E+00  0.00000000000E+00 -0.88176355003E+03  0.89057928815E+03  0.12499804124E+03 0.  0.
    9000005    1    3    3    0    0  0.37566372236E+02  0.10083108856E+02 -0.78935587238E+03  0.79031423793E+03  0.10000000000E+01 0.  0.
    9000005    1    3    3    0    0 -0.37566372236E+02 -0.10083108856E+02 -0.92407677650E+02  0.10026505022E+03  0.10000000000E+01 0.  0.
<mgrwt>
<rscale>  0 0.12499804E+03</rscale>
<asrwt>0</asrwt>
<pdfrwt beam="1">  1        4 0.67813441E-03 0.12499804E+03</pdfrwt>
<pdfrwt beam="2">  1       -4 0.13633392E+00 0.12499804E+03</pdfrwt>
<totfact> 0.34523280E+03</totfact>
</mgrwt>
</event>
<event>
 5    1  0.3514886E-002  0.1250063E+03  0.7818608E-02  0.1235059E+00
         -4   -1    0    0    0  501 -0.00000000000E+00  0.00000000000E+00  0.82419177197E+02  0.82428961353E+02  0.12700000000E+01 0. -1.
          4   -1    0    0  501    0  0.00000000000E+00 -0.00000000000E+00 -0.47378595382E+02  0.47395613725E+02  0.12700000000E+01 0. -1.
         25    2    1    2    0    0  0.00000000000E+00  0.00000000000E+00  0.35040581815E+02  0.12982457508E+03  0.12500631152E+03 0.  0.
    9000005    1    3    3    0    0 -0.20201797446E+02 -0.55447511312E+02 -0.38420689630E+01  0.59146433745E+02  0.10000000000E+01 0.  0.
    9000005    1    3    3    0    0  0.20201797446E+02  0.55447511312E+02  0.38882650778E+02  0.70678141333E+02  0.10000000000E+01 0.  0.
<mgrwt>
<rscale>  0 0.12500631E+03</rscale>
<asrwt>0</asrwt>
<pdfrwt beam="2">  1        4 0.72910764E-02 0.12500631E+03</pdfrwt>
<pdfrwt beam="1">  1       -4 0.12681935E-01 0.12500631E+03</pdfrwt>
<totfact> 0.10346787E+04</totfact>
</mgrwt>
</event>
<event>
 5    1  0.3514886E-002  0.1249990E+03  0.7818608E-02  0.1235071E+00
         -4   -1    0    0    0  501 -0.00000000000E+00  0.00000000000E+00  0.15054937896E+02  0.15108410077E+02  0.12700000000E+01 0.  1.
          4   -1    0    0  501    0  0.00000000000E+00 -0.00000000000E+00 -0.25894703402E+03  0.25895014834E+03  0.12700000000E+01 0.  1.
         25    2    1    2    0    0  0.00000000000E+00  0.00000000000E+00 -0.24389209612E+03  0.27405855842E+03  0.12499895556E+03 0.  0.
    9000005    1    3    3    0    0  0.27110814191E+01 -0.40841009985E+02 -0.18414076455E+02  0.44893387829E+02  0.10000000000E+01 0.  0.
    9000005    1    3    3    0    0 -0.27110814191E+01  0.40841009985E+02 -0.22547801966E+03  0.22916517059E+03  0.10000000000E+01 0.  0.
<mgrwt>
<rscale>  0 0.12499896E+03</rscale>
<asrwt>0</asrwt>
<pdfrwt beam="2">  1        4 0.39842355E-01 0.12499896E+03</pdfrwt>
<pdfrwt beam="1">  1       -4 0.23204973E-02 0.12499896E+03</pdfrwt>
<totfact> 0.78974386E+03</totfact>
</mgrwt>
</event>
<event>
 5    1  0.3514886E-002  0.1249999E+03  0.7818608E-02  0.1235069E+00
          4   -1    0    0  501    0  0.00000000000E+00  0.00000000000E+00  0.21899323317E+02  0.21936117745E+02  0.12700000000E+01 0. -1.
         -4   -1    0    0    0  501 -0.00000000000E+00 -0.00000000000E+00 -0.17818395872E+03  0.17818848460E+03  0.12700000000E+01 0. -1.
         25    2    1    2    0    0  0.00000000000E+00  0.00000000000E+00 -0.15628463540E+03  0.20012460235E+03  0.12499987681E+03 0.  0.
    9000005    1    3    3    0    0 -0.55479482183E+02  0.15704562174E+02 -0.11672060188E+03  0.13018949697E+03  0.10000000000E+01 0.  0.
    9000005    1    3    3    0    0  0.55479482183E+02 -0.15704562174E+02 -0.39564033520E+02  0.69935105382E+02  0.10000000000E+01 0.  0.
<mgrwt>
<rscale>  0 0.12499988E+03</rscale>
<asrwt>0</asrwt>
<pdfrwt beam="1">  1        4 0.33723053E-02 0.12499988E+03</pdfrwt>
<pdfrwt beam="2">  1       -4 0.27416094E-01 0.12499988E+03</pdfrwt>
<totfact> 0.90114744E+03</totfact>
</mgrwt>
</event>
<event>
 5    1  0.3514886E-002  0.1250000E+03  0.7818608E-02  0.1235069E+00
         -4   -1    0    0    0  501 -0.00000000000E+00  0.00000000000E+00  0.16163682943E+02  0.16213498891E+02  0.12700000000E+01 0. -1.
          4   -1    0    0  501    0  0.00000000000E+00 -0.00000000000E+00 -0.24124498278E+03  0.24124832562E+03  0.12700000000E+01 0. -1.
         25    2    1    2    0    0  0.00000000000E+00  0.00000000000E+00 -0.22508129984E+03  0.25746182451E+03  0.12499999818E+03 0.  0.
    9000005    1    3    3    0    0 -0.42832185180E+01 -0.28726924283E+02 -0.22650837135E+03  0.22836511211E+03  0.10000000000E+01 0.  0.
    9000005    1    3    3    0    0  0.42832185180E+01  0.28726924283E+02  0.14270715086E+01  0.29096712404E+02  0.10000000000E+01 0.  0.
<mgrwt>
<rscale>  0 0.12500000E+03</rscale>
<asrwt>0</asrwt>
<pdfrwt beam="2">  1        4 0.37118699E-01 0.12500000E+03</pdfrwt>
<pdfrwt beam="1">  1       -4 0.24908098E-02 0.12500000E+03</pdfrwt>
<totfact> 0.81263587E+03</totfact>
</mgrwt>
</event>
<event>
 5    1  0.3514886E-002  0.1249876E+03  0.7818608E-02  0.1235089E+00
         -4   -1    0    0    0  501 -0.00000000000E+00  0.00000000000E+00  0.35243721491E+02  0.35266596158E+02  0.12700000000E+01 0. -1.
          4   -1    0    0  501    0  0.00000000000E+00 -0.00000000000E+00 -0.11075087415E+03  0.11075815557E+03  0.12700000000E+01 0. -1.
         25    2    1    2    0    0  0.00000000000E+00  0.00000000000E+00 -0.75507152660E+02  0.14602475173E+03  0.12498759144E+03 0.  0.
    9000005    1    3    3    0    0  0.54799340381E+02 -0.29976304733E+02 -0.35754443961E+02  0.71978655271E+02  0.10000000000E+01 0.  0.
    9000005    1    3    3    0    0 -0.54799340381E+02  0.29976304733E+02 -0.39752708699E+02  0.74046096457E+02  0.10000000000E+01 0.  0.
<mgrwt>
<rscale>  0 0.12498759E+03</rscale>
<asrwt>0</asrwt>
<pdfrwt beam="2">  1        4 0.17040916E-01 0.12498759E+03</pdfrwt>
<pdfrwt beam="1">  1       -4 0.54244307E-02 0.12498759E+03</pdfrwt>
<totfact> 0.10013006E+04</totfact>
</mgrwt>
</event>
<event>
 5    1  0.3514886E-002  0.1249967E+03  0.7818608E-02  0.1235074E+00
          4   -1    0    0  501    0  0.00000000000E+00  0.00000000000E+00  0.29691044573E+03  0.29691316186E+03  0.12700000000E+01 0. -1.
         -4   -1    0    0    0  501 -0.00000000000E+00 -0.00000000000E+00 -0.13122188885E+02  0.13183502612E+02  0.12700000000E+01 0. -1.
         25    2    1    2    0    0  0.00000000000E+00  0.00000000000E+00  0.28378825685E+03  0.31009666447E+03  0.12499666632E+03 0.  0.
    9000005    1    3    3    0    0 -0.27269502649E+02 -0.29670371437E+02  0.26038077063E+03  0.26348264161E+03  0.10000000000E+01 0.  0.
    9000005    1    3    3    0    0  0.27269502649E+02  0.29670371437E+02  0.23407486211E+02  0.46614022854E+02  0.10000000000E+01 0.  0.
<mgrwt>
<rscale>  0 0.12499667E+03</rscale>
<asrwt>0</asrwt>
<pdfrwt beam="1">  1        4 0.45683453E-01 0.12499667E+03</pdfrwt>
<pdfrwt beam="2">  1       -4 0.20237238E-02 0.12499667E+03</pdfrwt>
<totfact> 0.74355037E+03</totfact>
</mgrwt>
</event>
<event>
 5    1  0.3514886E-002  0.1250033E+03  0.7818608E-02  0.1235064E+00
          4   -1    0    0  501    0  0.00000000000E+00  0.00000000000E+00  0.14939026699E+03  0.14939566517E+03  0.12700000000E+01 0. -1.
         -4   -1    0    0    0  501 -0.00000000000E+00 -0.00000000000E+00 -0.26128030018E+02  0.26158877128E+02  0.12700000000E+01 0. -1.
         25    2    1    2    0    0  0.00000000000E+00  0.00000000000E+00  0.12326223697E+03  0.17555454230E+03  0.12500327299E+03 0.  0.
    9000005    1    3    3    0    0  0.26929438126E+02 -0.48199341167E+02  0.20515934510E+02  0.58909037470E+02  0.10000000000E+01 0.  0.
    9000005    1    3    3    0    0 -0.26929438126E+02  0.48199341167E+02  0.10274630246E+03  0.11664550483E+03  0.10000000000E+01 0.  0.
<mgrwt>
<rscale>  0 0.12500327E+03</rscale>
<asrwt>0</asrwt>
<pdfrwt beam="1">  1        4 0.22985906E-01 0.12500327E+03</pdfrwt>
<pdfrwt beam="2">  1       -4 0.40224851E-02 0.12500327E+03</pdfrwt>
<totfact> 0.94416443E+03</totfact>
</mgrwt>
</event>
<event>
 5    1  0.3514886E-002  0.1250019E+03  0.7818608E-02  0.1235066E+00
         -4   -1    0    0    0  501 -0.00000000000E+00  0.00000000000E+00  0.60651997056E+02  0.60665291946E+02  0.12700000000E+01 0. -1.
          4   -1    0    0  501    0  0.00000000000E+00 -0.00000000000E+00 -0.64379631928E+02  0.64392157187E+02  0.12700000000E+01 0. -1.
         25    2    1    2    0    0  0.00000000000E+00  0.00000000000E+00 -0.37276348714E+01  0.12505744913E+03  0.12500188127E+03 0.  0.
    9000005    1    3    3    0    0 -0.11243739438E+02  0.52786071133E+02 -0.33383006302E+02  0.63468228997E+02  0.10000000000E+01 0.  0.
    9000005    1    3    3    0    0  0.11243739438E+02 -0.52786071133E+02  0.29655371431E+02  0.61589220136E+02  0.10000000000E+01 0.  0.
<mgrwt>
<rscale>  0 0.12500188E+03</rscale>
<asrwt>0</asrwt>
<pdfrwt beam="2">  1        4 0.99065450E-02 0.12500188E+03</pdfrwt>
<pdfrwt beam="1">  1       -4 0.93330626E-02 0.12500188E+03</pdfrwt>
<totfact> 0.10451171E+04</totfact>
</mgrwt>
</event>
<event>
 5    1  0.3514886E-002  0.1249992E+03  0.7818608E-02  0.1235071E+00
         -4   -1    0    0    0  501 -0.00000000000E+00  0.00000000000E+00  0.33331505819E+02  0.33355691870E+02  0.12700000000E+01 0. -1.
          4   -1    0    0  501    0  0.00000000000E+00 -0.00000000000E+00 -0.11712226530E+03  0.11712915064E+03  0.12700000000E+01 0. -1.
         25    2    1    2    0    0  0.00000000000E+00  0.00000000000E+00 -0.83790759484E+02  0.15048484251E+03  0.12499918580E+03 0.  0.
    9000005    1    3    3    0    0 -0.38745847603E+02 -0.37606786196E+02 -0.79768818098E+02  0.96330552865E+02  0.10000000000E+01 0.  0.
    9000005    1    3    3    0    0  0.38745847603E+02  0.37606786196E+02 -0.40219413855E+01  0.54154289645E+02  0.10000000000E+01 0.  0.
<mgrwt>
<rscale>  0 0.12499919E+03</rscale>
<asrwt>0</asrwt>
<pdfrwt beam="2">  1        4 0.18021200E-01 0.12499919E+03</pdfrwt>
<pdfrwt beam="1">  1       -4 0.51303142E-02 0.12499919E+03</pdfrwt>
<totfact> 0.99208958E+03</totfact>
</mgrwt>
</event>
<event>
 5    1  0.3514886E-002  0.1250010E+03  0.7818608E-02  0.1235068E+00
         -4   -1    0    0    0  501 -0.00000000000E+00  0.00000000000E+00  0.13256430398E+02  0.13317126075E+02  0.12700000000E+01 0. -1.
          4   -1    0    0  501    0  0.00000000000E+00 -0.00000000000E+00 -0.29393769506E+03  0.29394043866E+03  0.12700000000E+01 0. -1.
         25    2    1    2    0    0  0.00000000000E+00  0.00000000000E+00 -0.28068126467E+03  0.30725756474E+03  0.12500095500E+03 0.  0.
    9000005    1    3    3    0    0 -0.45287631461E+02  0.36696239326E+02 -0.84954120277E+02  0.10303293695E+03  0.10000000000E+01 0.  0.
    9000005    1    3    3    0    0  0.45287631461E+02 -0.36696239326E+02 -0.19572714439E+03  0.20422462779E+03  0.10000000000E+01 0.  0.
<mgrwt>
<rscale>  0 0.12500096E+03</rscale>
<asrwt>0</asrwt>
<pdfrwt beam="2">  1        4 0.45226059E-01 0.12500096E+03</pdfrwt>
<pdfrwt beam="1">  1       -4 0.20443310E-02 0.12500096E+03</pdfrwt>
<totfact> 0.74695808E+03</totfact>
</mgrwt>
</event>
<event>
 5    1  0.3514886E-002  0.1250005E+03  0.7818608E-02  0.1235069E+00
         -4   -1    0    0    0  501 -0.00000000000E+00  0.00000000000E+00  0.49631450473E+02  0.49647696583E+02  0.12700000000E+01 0.  1.
          4   -1    0    0  501    0  0.00000000000E+00 -0.00000000000E+00 -0.78671472523E+02  0.78681722712E+02  0.12700000000E+01 0.  1.
         25    2    1    2    0    0  0.00000000000E+00  0.00000000000E+00 -0.29040022050E+02  0.12832941930E+03  0.12500046790E+03 0.  0.
    9000005    1    3    3    0    0 -0.62025788400E+02 -0.76163150719E+01 -0.14243463720E+02  0.64102128987E+02  0.10000000000E+01 0.  0.
    9000005    1    3    3    0    0  0.62025788400E+02  0.76163150719E+01 -0.14796558330E+02  0.64227290308E+02  0.10000000000E+01 0.  0.
<mgrwt>
<rscale>  0 0.12500047E+03</rscale>
<asrwt>0</asrwt>
<pdfrwt beam="2">  1        4 0.12105342E-01 0.12500047E+03</pdfrwt>
<pdfrwt beam="1">  1       -4 0.76376459E-02 0.12500047E+03</pdfrwt>
<totfact> 0.10380270E+04</totfact>
</mgrwt>
</event>
<event>
 5    1  0.3514886E-002  0.1250003E+03  0.7818608E-02  0.1235069E+00
          4   -1    0    0  501    0  0.00000000000E+00  0.00000000000E+00  0.20562928266E+02  0.20602109574E+02  0.12700000000E+01 0. -1.
         -4   -1    0    0    0  501 -0.00000000000E+00 -0.00000000000E+00 -0.18974443227E+03  0.18974868241E+03  0.12700000000E+01 0. -1.
         25    2    1    2    0    0  0.00000000000E+00  0.00000000000E+00 -0.16918150400E+03  0.21035079199E+03  0.12500029757E+03 0.  0.
    9000005    1    3    3    0    0 -0.18049324704E+02 -0.56049445948E+02 -0.49374315198E+02  0.76851424936E+02  0.10000000000E+01 0.  0.
    9000005    1    3    3    0    0  0.18049324704E+02  0.56049445948E+02 -0.11980718881E+03  0.13349936705E+03  0.10000000000E+01 0.  0.
<mgrwt>
<rscale>  0 0.12500030E+03</rscale>
<asrwt>0</asrwt>
<pdfrwt beam="1">  1        4 0.31668684E-02 0.12500030E+03</pdfrwt>
<pdfrwt beam="2">  1       -4 0.29194791E-01 0.12500030E+03</pdfrwt>
<totfact> 0.88418036E+03</totfact>
</mgrwt>
</event>
<event>
 5    1  0.3514886E-002  0.1249992E+03  0.7818608E-02  0.1235071E+00
         -4   -1    0    0    0  501 -0.00000000000E+00  0.00000000000E+00  0.33879433330E+03  0.33879671365E+03  0.12700000000E+01 0. -1.
          4   -1    0    0  501    0  0.00000000000E+00 -0.00000000000E+00 -0.11492309804E+02  0.11562269873E+02  0.12700000000E+01 0. -1.
         25    2    1    2    0    0  0.00000000000E+00  0.00000000000E+00  0.32730202350E+03  0.35035898352E+03  0.12499921098E+03 0.  0.
    9000005    1    3    3    0    0 -0.34970218032E+02 -0.43474765748E+02  0.84759290617E+02  0.10147959771E+03  0.10000000000E+01 0.  0.
    9000005    1    3    3    0    0  0.34970218032E+02  0.43474765748E+02  0.24254273288E+03  0.24887938581E+03  0.10000000000E+01 0.  0.
<mgrwt>
<rscale>  0 0.12499921E+03</rscale>
<asrwt>0</asrwt>
<pdfrwt beam="2">  1        4 0.17736126E-02 0.12499921E+03</pdfrwt>
<pdfrwt beam="1">  1       -4 0.52127762E-01 0.12499921E+03</pdfrwt>
<totfact> 0.69686301E+03</totfact>
</mgrwt>
</event>
<event>
 5    1  0.3514886E-002  0.1250072E+03  0.7818608E-02  0.1235058E+00
         -4   -1    0    0    0  501 -0.00000000000E+00  0.00000000000E+00  0.15099680188E+02  0.15152994482E+02  0.12700000000E+01 0. -1.
          4   -1    0    0  501    0  0.00000000000E+00 -0.00000000000E+00 -0.25821659490E+03  0.25821971803E+03  0.12700000000E+01 0. -1.
         25    2    1    2    0    0  0.00000000000E+00  0.00000000000E+00 -0.24311691471E+03  0.27337271252E+03  0.12500722271E+03 0.  0.
    9000005    1    3    3    0    0  0.60030298990E+01 -0.75737830272E+00 -0.25758527959E+03  0.25765827418E+03  0.10000000000E+01 0.  0.
    9000005    1    3    3    0    0 -0.60030298990E+01  0.75737830272E+00  0.14468364882E+02  0.15714438336E+02  0.10000000000E+01 0.  0.
<mgrwt>
<rscale>  0 0.12500722E+03</rscale>
<asrwt>0</asrwt>
<pdfrwt beam="2">  1        4 0.39729968E-01 0.12500722E+03</pdfrwt>
<pdfrwt beam="1">  1       -4 0.23273693E-02 0.12500722E+03</pdfrwt>
<totfact> 0.79052425E+03</totfact>
</mgrwt>
</event>
<event>
 5    1  0.3514886E-002  0.1250010E+03  0.7818608E-02  0.1235068E+00
          4   -1    0    0  501    0  0.00000000000E+00  0.00000000000E+00  0.20960141772E+02  0.20998581930E+02  0.12700000000E+01 0. -1.
         -4   -1    0    0    0  501 -0.00000000000E+00 -0.00000000000E+00 -0.18615727978E+03  0.18616161182E+03  0.12700000000E+01 0. -1.
         25    2    1    2    0    0  0.00000000000E+00  0.00000000000E+00 -0.16519713801E+03  0.20716019375E+03  0.12500100587E+03 0.  0.
    9000005    1    3    3    0    0  0.18756299031E+01 -0.13426459091E+02 -0.18369906253E+03  0.18420133920E+03  0.10000000000E+01 0.  0.
    9000005    1    3    3    0    0 -0.18756299031E+01  0.13426459091E+02  0.18501924517E+02  0.22958854547E+02  0.10000000000E+01 0.  0.
<mgrwt>
<rscale>  0 0.12500101E+03</rscale>
<asrwt>0</asrwt>
<pdfrwt beam="1">  1        4 0.32279275E-02 0.12500101E+03</pdfrwt>
<pdfrwt beam="2">  1       -4 0.28642871E-01 0.12500101E+03</pdfrwt>
<totfact> 0.88939768E+03</totfact>
</mgrwt>
</event>
<event>
 5    1  0.3514886E-002  0.1249989E+03  0.7818608E-02  0.1235071E+00
          4   -1    0    0  501    0  0.00000000000E+00  0.00000000000E+00  0.11167345556E+03  0.11168067682E+03  0.12700000000E+01 0. -1.
         -4   -1    0    0    0  501 -0.00000000000E+00 -0.00000000000E+00 -0.34958735252E+02  0.34981796272E+02  0.12700000000E+01 0. -1.
         25    2    1    2    0    0  0.00000000000E+00  0.00000000000E+00  0.76714720303E+02  0.14666247310E+03  0.12499893081E+03 0.  0.
    9000005    1    3    3    0    0 -0.32295779103E+02 -0.36873491942E+02  0.83837479591E+02  0.97120516576E+02  0.10000000000E+01 0.  0.
    9000005    1    3    3    0    0  0.32295779103E+02  0.36873491942E+02 -0.71227592881E+01  0.49541956519E+02  0.10000000000E+01 0.  0.
<mgrwt>
<rscale>  0 0.12499893E+03</rscale>
<asrwt>0</asrwt>
<pdfrwt beam="1">  1        4 0.17182861E-01 0.12499893E+03</pdfrwt>
<pdfrwt beam="2">  1       -4 0.53805964E-02 0.12499893E+03</pdfrwt>
<totfact> 0.99975601E+03</totfact>
</mgrwt>
</event>
<event>
 4    1  0.3514886E-002  0.1279440E+03  0.7818608E-02  0.1230539E+00
          4   -1    0    0  501    0  0.00000000000E+00  0.00000000000E+00  0.23112335868E+03  0.23112684791E+03  0.12700000000E+01 0. -1.
         -4   -1    0    0    0  501 -0.00000000000E+00 -0.00000000000E+00 -0.17680231330E+02  0.17725785734E+02  0.12700000000E+01 0. -1.
    9000005    1    1    2    0    0  0.13937344128E+02 -0.57394728801E+02  0.58959264701E+02  0.83460166245E+02  0.10000000000E+01 0.  0.
    9000005    1    1    2    0    0 -0.13937344128E+02  0.57394728801E+02  0.15448386265E+03  0.16539246740E+03  0.10000000000E+01 0.  0.
<mgrwt>
<rscale>  0 0.12794399E+03</rscale>
<asrwt>0</asrwt>
<pdfrwt beam="1">  1        4 0.35561212E-01 0.12794399E+03</pdfrwt>
<pdfrwt beam="2">  1       -4 0.27238082E-02 0.12794399E+03</pdfrwt>
<totfact> 0.77311199E+03</totfact>
</mgrwt>
</event>
<event>
 5    1  0.3514886E-002  0.1250004E+03  0.7818608E-02  0.1235069E+00
          4   -1    0    0  501    0  0.00000000000E+00  0.00000000000E+00  0.64575866475E+03  0.64575991359E+03  0.12700000000E+01 0.  1.
         -4   -1    0    0    0  501 -0.00000000000E+00 -0.00000000000E+00 -0.59811967107E+01  0.61145412005E+01  0.12700000000E+01 0.  1.
         25    2    1    2    0    0  0.00000000000E+00  0.00000000000E+00  0.63977746804E+03  0.65187445479E+03  0.12500038479E+03 0.  0.
    9000005    1    3    3    0    0  0.12090643380E+02 -0.35553419357E+02  0.59398297492E+02  0.70280772835E+02  0.10000000000E+01 0.  0.
    9000005    1    3    3    0    0 -0.12090643380E+02  0.35553419357E+02  0.58037917055E+03  0.58159368195E+03  0.10000000000E+01 0.  0.
<mgrwt>
<rscale>  0 0.12500038E+03</rscale>
<asrwt>0</asrwt>
<pdfrwt beam="1">  1        4 0.99357854E-01 0.12500038E+03</pdfrwt>
<pdfrwt beam="2">  1       -4 0.93053731E-03 0.12500038E+03</pdfrwt>
<totfact> 0.45748147E+03</totfact>
</mgrwt>
</event>
<event>
 5    1  0.3514886E-002  0.1250008E+03  0.7818608E-02  0.1235068E+00
         -4   -1    0    0    0  501 -0.00000000000E+00  0.00000000000E+00  0.15808626084E+02  0.15859557329E+02  0.12700000000E+01 0.  1.
          4   -1    0    0  501    0  0.00000000000E+00 -0.00000000000E+00 -0.24664922716E+03  0.24665249676E+03  0.12700000000E+01 0.  1.
         25    2    1    2    0    0  0.00000000000E+00  0.00000000000E+00 -0.23084060108E+03  0.26251205409E+03  0.12500078175E+03 0.  0.
    9000005    1    3    3    0    0 -0.61084007217E+02  0.11855923316E+02 -0.12757178320E+03  0.14194146232E+03  0.10000000000E+01 0.  0.
    9000005    1    3    3    0    0  0.61084007217E+02 -0.11855923316E+02 -0.10326881788E+03  0.12057059177E+03  0.10000000000E+01 0.  0.
<mgrwt>
<rscale>  0 0.12500078E+03</rscale>
<asrwt>0</asrwt>
<pdfrwt beam="2">  1        4 0.37950202E-01 0.12500078E+03</pdfrwt>
<pdfrwt beam="1">  1       -4 0.24362658E-02 0.12500078E+03</pdfrwt>
<totfact> 0.80553417E+03</totfact>
</mgrwt>
</event>
<event>
 5    1  0.3514886E-002  0.1250030E+03  0.7818608E-02  0.1235065E+00
         -4   -1    0    0    0  501 -0.00000000000E+00  0.00000000000E+00  0.13727576762E+04  0.13727582637E+04  0.12700000000E+01 0. -1.
          4   -1    0    0  501    0  0.00000000000E+00 -0.00000000000E+00 -0.27033740250E+01  0.29868262619E+01  0.12700000000E+01 0. -1.
         25    2    1    2    0    0  0.00000000000E+00  0.00000000000E+00  0.13700543022E+04  0.13757450899E+04  0.12500304619E+03 0.  0.
    9000005    1    3    3    0    0  0.53055110086E+02  0.24700821473E+02  0.44378771808E+03  0.44763100206E+03  0.10000000000E+01 0.  0.
    9000005    1    3    3    0    0 -0.53055110086E+02 -0.24700821473E+02  0.92626658411E+03  0.92811408789E+03  0.10000000000E+01 0.  0.
<mgrwt>
<rscale>  0 0.12500305E+03</rscale>
<asrwt>0</asrwt>
<pdfrwt beam="2">  1        4 0.43775194E-03 0.12500305E+03</pdfrwt>
<pdfrwt beam="1">  1       -4 0.21121580E+00 0.12500305E+03</pdfrwt>
<totfact> 0.20506035E+03</totfact>
</mgrwt>
</event>
<event>
 5    1  0.3514886E-002  0.1249987E+03  0.7818608E-02  0.1235071E+00
         -4   -1    0    0    0  501 -0.00000000000E+00  0.00000000000E+00  0.58225402627E+03  0.58225541132E+03  0.12700000000E+01 0.  1.
          4   -1    0    0  501    0  0.00000000000E+00 -0.00000000000E+00 -0.66471913714E+01  0.67674258865E+01  0.12700000000E+01 0.  1.
         25    2    1    2    0    0  0.00000000000E+00  0.00000000000E+00  0.57560683490E+03  0.58902283720E+03  0.12499869745E+03 0.  0.
    9000005    1    3    3    0    0  0.18722634235E+02  0.24755119086E+02  0.54338783479E+03  0.54427446381E+03  0.10000000000E+01 0.  0.
    9000005    1    3    3    0    0 -0.18722634235E+02 -0.24755119086E+02  0.32219000107E+02  0.44748373395E+02  0.10000000000E+01 0.  0.
<mgrwt>
<rscale>  0 0.12499870E+03</rscale>
<asrwt>0</asrwt>
<pdfrwt beam="2">  1        4 0.10319996E-02 0.12499870E+03</pdfrwt>
<pdfrwt beam="1">  1       -4 0.89586947E-01 0.12499870E+03</pdfrwt>
<totfact> 0.49569329E+03</totfact>
</mgrwt>
</event>
<event>
 5    1  0.3514886E-002  0.1249990E+03  0.7818608E-02  0.1235071E+00
          4   -1    0    0  501    0  0.00000000000E+00  0.00000000000E+00  0.51351274367E+02  0.51366976542E+02  0.12700000000E+01 0.  1.
         -4   -1    0    0    0  501 -0.00000000000E+00 -0.00000000000E+00 -0.76035369893E+02  0.76045975402E+02  0.12700000000E+01 0.  1.
         25    2    1    2    0    0  0.00000000000E+00  0.00000000000E+00 -0.24684095527E+02  0.12741295194E+03  0.12499902300E+03 0.  0.
    9000005    1    3    3    0    0  0.94370926408E+01 -0.25794961467E+02 -0.69557580264E+02  0.74791013676E+02  0.10000000000E+01 0.  0.
    9000005    1    3    3    0    0 -0.94370926408E+01  0.25794961467E+02  0.44873484737E+02  0.52621938267E+02  0.10000000000E+01 0.  0.
<mgrwt>
<rscale>  0 0.12499902E+03</rscale>
<asrwt>0</asrwt>
<pdfrwt beam="1">  1        4 0.79022197E-02 0.12499902E+03</pdfrwt>
<pdfrwt beam="2">  1       -4 0.11699773E-01 0.12499902E+03</pdfrwt>
<totfact> 0.10400416E+04</totfact>
</mgrwt>
</event>
<event>
 4    1  0.3514886E-002  0.1255841E+03  0.7818608E-02  0.1234159E+00
          4   -1    0    0  501    0  0.00000000000E+00  0.00000000000E+00  0.50185690830E+01  0.51767688418E+01  0.12700000000E+01 0.  1.
         -4   -1    0    0    0  501 -0.00000000000E+00 -0.00000000000E+00 -0.77330052175E+03  0.77330156462E+03  0.12700000000E+01 0.  1.
    9000005    1    1    2    0    0  0.45309202732E+01  0.56269679998E+02 -0.55447248521E+03  0.55733970160E+03  0.10000000000E+01 0.  0.
    9000005    1    1    2    0    0 -0.45309202732E+01 -0.56269679998E+02 -0.21380946745E+03  0.22113863185E+03  0.10000000000E+01 0.  0.
<mgrwt>
<rscale>  0 0.12558406E+03</rscale>
<asrwt>0</asrwt>
<pdfrwt beam="1">  1        4 0.78433760E-03 0.12558406E+03</pdfrwt>
<pdfrwt beam="2">  1       -4 0.11898147E+00 0.12558406E+03</pdfrwt>
<totfact> 0.38747106E+03</totfact>
</mgrwt>
</event>
<event>
 5    1  0.3514886E-002  0.1250001E+03  0.7818608E-02  0.1235069E+00
          4   -1    0    0  501    0  0.00000000000E+00  0.00000000000E+00  0.29809126754E+03  0.29809397290E+03  0.12700000000E+01 0. -1.
         -4   -1    0    0    0  501 -0.00000000000E+00 -0.00000000000E+00 -0.13070678854E+02  0.13132233081E+02  0.12700000000E+01 0. -1.
         25    2    1    2    0    0  0.00000000000E+00  0.00000000000E+00  0.28502058868E+03  0.31122620599E+03  0.12500006128E+03 0.  0.
    9000005    1    3    3    0    0 -0.65713408745E+01 -0.58395734976E+02  0.19544490068E+03  0.20409055242E+03  0.10000000000E+01 0.  0.
    9000005    1    3    3    0    0  0.65713408745E+01  0.58395734976E+02  0.89575688003E+02  0.10713565357E+03  0.10000000000E+01 0.  0.
<mgrwt>
<rscale>  0 0.12500006E+03</rscale>
<asrwt>0</asrwt>
<pdfrwt beam="1">  1        4 0.45865142E-01 0.12500006E+03</pdfrwt>
<pdfrwt beam="2">  1       -4 0.20158165E-02 0.12500006E+03</pdfrwt>
<totfact> 0.74211776E+03</totfact>
</mgrwt>
</event>
<event>
 5    1  0.3514886E-002  0.1250038E+03  0.7818608E-02  0.1235063E+00
         -4   -1    0    0    0  501 -0.00000000000E+00  0.00000000000E+00  0.38484045353E+02  0.38504995088E+02  0.12700000000E+01 0. -1.
          4   -1    0    0  501    0  0.00000000000E+00 -0.00000000000E+00 -0.10145668951E+03  0.10146463792E+03  0.12700000000E+01 0. -1.
         25    2    1    2    0    0  0.00000000000E+00  0.00000000000E+00 -0.62972644162E+02  0.13996963300E+03  0.12500377694E+03 0.  0.
    9000005    1    3    3    0    0 -0.59461118599E+02 -0.13076514456E+02 -0.15695992890E+02  0.62880712847E+02  0.10000000000E+01 0.  0.
    9000005    1    3    3    0    0  0.59461118599E+02  0.13076514456E+02 -0.47276651272E+02  0.77088920156E+02  0.10000000000E+01 0.  0.
<mgrwt>
<rscale>  0 0.12500378E+03</rscale>
<asrwt>0</asrwt>
<pdfrwt beam="2">  1        4 0.15610944E-01 0.12500378E+03</pdfrwt>
<pdfrwt beam="1">  1       -4 0.59228453E-02 0.12500378E+03</pdfrwt>
<totfact> 0.10133353E+04</totfact>
</mgrwt>
</event>
<event>
 5    1  0.3514886E-002  0.1250028E+03  0.7818608E-02  0.1235065E+00
         -4   -1    0    0    0  501 -0.00000000000E+00  0.00000000000E+00  0.24464814267E+02  0.24497755756E+02  0.12700000000E+01 0. -1.
          4   -1    0    0  501    0  0.00000000000E+00 -0.00000000000E+00 -0.15953234764E+03  0.15953740264E+03  0.12700000000E+01 0. -1.
         25    2    1    2    0    0  0.00000000000E+00  0.00000000000E+00 -0.13506753337E+03  0.18403515840E+03  0.12500280380E+03 0.  0.
    9000005    1    3    3    0    0 -0.53046093587E+01 -0.41292813973E+02  0.10829506557E+01  0.41658230260E+02  0.10000000000E+01 0.  0.
    9000005    1    3    3    0    0  0.53046093587E+01  0.41292813973E+02 -0.13615048402E+03  0.14237692814E+03  0.10000000000E+01 0.  0.
<mgrwt>
<rscale>  0 0.12500280E+03</rscale>
<asrwt>0</asrwt>
<pdfrwt beam="2">  1        4 0.24546360E-01 0.12500280E+03</pdfrwt>
<pdfrwt beam="1">  1       -4 0.37667405E-02 0.12500280E+03</pdfrwt>
<totfact> 0.92889826E+03</totfact>
</mgrwt>
</event>
<event>
 5    1  0.3514886E-002  0.1249614E+03  0.7818608E-02  0.1235130E+00
          4   -1    0    0  501    0  0.00000000000E+00  0.00000000000E+00  0.25454807576E+02  0.25486469523E+02  0.12700000000E+01 0.  1.
         -4   -1    0    0    0  501 -0.00000000000E+00 -0.00000000000E+00 -0.15323398222E+03  0.15323924499E+03  0.12700000000E+01 0.  1.
         25    2    1    2    0    0  0.00000000000E+00  0.00000000000E+00 -0.12777917464E+03  0.17872571452E+03  0.12496144829E+03 0.  0.
    9000005    1    3    3    0    0  0.51218247901E+02  0.35712184108E+02 -0.66810891434E+02  0.91451430967E+02  0.10000000000E+01 0.  0.
    9000005    1    3    3    0    0 -0.51218247901E+02 -0.35712184108E+02 -0.60968283208E+02  0.87274283550E+02  0.10000000000E+01 0.  0.
<mgrwt>
<rscale>  0 0.12496145E+03</rscale>
<asrwt>0</asrwt>
<pdfrwt beam="1">  1        4 0.39189647E-02 0.12496145E+03</pdfrwt>
<pdfrwt beam="2">  1       -4 0.23577299E-01 0.12496145E+03</pdfrwt>
<totfact> 0.93928061E+03</totfact>
</mgrwt>
</event>
<event>
 5    1  0.3514886E-002  0.1250013E+03  0.7818608E-02  0.1235067E+00
         -4   -1    0    0    0  501 -0.00000000000E+00  0.00000000000E+00  0.33384904680E+02  0.33409052074E+02  0.12700000000E+01 0.  1.
          4   -1    0    0  501    0  0.00000000000E+00 -0.00000000000E+00 -0.11693894346E+03  0.11694583960E+03  0.12700000000E+01 0.  1.
         25    2    1    2    0    0  0.00000000000E+00  0.00000000000E+00 -0.83554038785E+02  0.15035489167E+03  0.12500126420E+03 0.  0.
    9000005    1    3    3    0    0 -0.84745635084E+01  0.92867931765E+01  0.31853935566E+02  0.34259830198E+02  0.10000000000E+01 0.  0.
    9000005    1    3    3    0    0  0.84745635084E+01 -0.92867931765E+01 -0.11540797435E+03  0.11609506147E+03  0.10000000000E+01 0.  0.
<mgrwt>
<rscale>  0 0.12500126E+03</rscale>
<asrwt>0</asrwt>
<pdfrwt beam="2">  1        4 0.17992994E-01 0.12500126E+03</pdfrwt>
<pdfrwt beam="1">  1       -4 0.51385272E-02 0.12500126E+03</pdfrwt>
<totfact> 0.99230180E+03</totfact>
</mgrwt>
</event>
<event>
 5    1  0.3514886E-002  0.1250022E+03  0.7818608E-02  0.1235066E+00
          4   -1    0    0  501    0  0.00000000000E+00  0.00000000000E+00  0.26461645088E+02  0.26492103744E+02  0.12700000000E+01 0. -1.
         -4   -1    0    0    0  501 -0.00000000000E+00 -0.00000000000E+00 -0.14750636825E+03  0.14751183537E+03  0.12700000000E+01 0. -1.
         25    2    1    2    0    0  0.00000000000E+00  0.00000000000E+00 -0.12104472316E+03  0.17400393911E+03  0.12500218327E+03 0.  0.
    9000005    1    3    3    0    0 -0.54146421739E+02 -0.25158931989E+02 -0.86211574782E+02  0.10487250580E+03  0.10000000000E+01 0.  0.
    9000005    1    3    3    0    0  0.54146421739E+02  0.25158931989E+02 -0.34833148376E+02  0.69131433312E+02  0.10000000000E+01 0.  0.
<mgrwt>
<rscale>  0 0.12500218E+03</rscale>
<asrwt>0</asrwt>
<pdfrwt beam="1">  1        4 0.40737859E-02 0.12500218E+03</pdfrwt>
<pdfrwt beam="2">  1       -4 0.22696050E-01 0.12500218E+03</pdfrwt>
<totfact> 0.94702945E+03</totfact>
</mgrwt>
</event>
<event>
 5    1  0.3514886E-002  0.1250140E+03  0.7818608E-02  0.1235047E+00
         -4   -1    0    0    0  501 -0.00000000000E+00  0.00000000000E+00  0.74540309514E+02  0.74551127708E+02  0.12700000000E+01 0. -1.
          4   -1    0    0  501    0  0.00000000000E+00 -0.00000000000E+00 -0.52393968339E+02  0.52409358117E+02  0.12700000000E+01 0. -1.
         25    2    1    2    0    0  0.00000000000E+00  0.00000000000E+00  0.22146341176E+02  0.12696048583E+03  0.12501401735E+03 0.  0.
    9000005    1    3    3    0    0  0.59079210516E+02 -0.18003040154E+02  0.13499926825E+01  0.61784181230E+02  0.10000000000E+01 0.  0.
    9000005    1    3    3    0    0 -0.59079210516E+02  0.18003040154E+02  0.20796348493E+02  0.65176304595E+02  0.10000000000E+01 0.  0.
<mgrwt>
<rscale>  0 0.12501402E+03</rscale>
<asrwt>0</asrwt>
<pdfrwt beam="2">  1        4 0.80626265E-02 0.12501402E+03</pdfrwt>
<pdfrwt beam="1">  1       -4 0.11469756E-01 0.12501402E+03</pdfrwt>
<totfact> 0.10406711E+04</totfact>
</mgrwt>
</event>
<event>
 5    1  0.3514886E-002  0.1249991E+03  0.7818608E-02  0.1235071E+00
          4   -1    0    0  501    0  0.00000000000E+00  0.00000000000E+00  0.34581849929E+02  0.34605162108E+02  0.12700000000E+01 0. -1.
         -4   -1    0    0    0  501 -0.00000000000E+00 -0.00000000000E+00 -0.11289001665E+03  0.11289716011E+03  0.12700000000E+01 0. -1.
         25    2    1    2    0    0  0.00000000000E+00  0.00000000000E+00 -0.78308166725E+02  0.14750232222E+03  0.12499906433E+03 0.  0.
    9000005    1    3    3    0    0 -0.50596706151E+02 -0.35369734831E+02 -0.27704368824E+02  0.67672571011E+02  0.10000000000E+01 0.  0.
    9000005    1    3    3    0    0  0.50596706151E+02  0.35369734831E+02 -0.50603797901E+02  0.79829751204E+02  0.10000000000E+01 0.  0.
<mgrwt>
<rscale>  0 0.12499906E+03</rscale>
<asrwt>0</asrwt>
<pdfrwt beam="1">  1        4 0.53226274E-02 0.12499906E+03</pdfrwt>
<pdfrwt beam="2">  1       -4 0.17370037E-01 0.12499906E+03</pdfrwt>
<totfact> 0.99806025E+03</totfact>
</mgrwt>
</event>
<event>
 5    1  0.3514886E-002  0.1250012E+03  0.7818608E-02  0.1235067E+00
          4   -1    0    0  501    0  0.00000000000E+00  0.00000000000E+00  0.69970947225E+03  0.69971062480E+03  0.12700000000E+01 0.  1.
         -4   -1    0    0    0  501 -0.00000000000E+00 -0.00000000000E+00 -0.55093821889E+01  0.56538652357E+01  0.12700000000E+01 0.  1.
         25    2    1    2    0    0  0.00000000000E+00  0.00000000000E+00  0.69420009006E+03  0.70536449003E+03  0.12500119504E+03 0.  0.
    9000005    1    3    3    0    0 -0.13123554541E+02 -0.33371238365E+02  0.63590530718E+03  0.63691634218E+03  0.10000000000E+01 0.  0.
    9000005    1    3    3    0    0  0.13123554541E+02  0.33371238365E+02  0.58294782880E+02  0.68448147856E+02  0.10000000000E+01 0.  0.
<mgrwt>
<rscale>  0 0.12500120E+03</rscale>
<asrwt>0</asrwt>
<pdfrwt beam="1">  1        4 0.10765875E+00 0.12500120E+03</pdfrwt>
<pdfrwt beam="2">  1       -4 0.85880052E-03 0.12500120E+03</pdfrwt>
<totfact> 0.42803922E+03</totfact>
</mgrwt>
</event>
<event>
 5    1  0.3514886E-002  0.1249946E+03  0.7818608E-02  0.1235078E+00
          4   -1    0    0  501    0  0.00000000000E+00  0.00000000000E+00  0.10151038833E+03  0.10151833253E+03  0.12700000000E+01 0.  1.
         -4   -1    0    0    0  501 -0.00000000000E+00 -0.00000000000E+00 -0.38458024622E+02  0.38478988524E+02  0.12700000000E+01 0.  1.
         25    2    1    2    0    0  0.00000000000E+00  0.00000000000E+00  0.63052363709E+02  0.13999732105E+03  0.12499459721E+03 0.  0.
    9000005    1    3    3    0    0  0.81825513880E+01  0.14507072378E+02  0.98984013343E+02  0.10038049708E+03  0.10000000000E+01 0.  0.
    9000005    1    3    3    0    0 -0.81825513880E+01 -0.14507072378E+02 -0.35931649634E+02  0.39616823972E+02  0.10000000000E+01 0.  0.
<mgrwt>
<rscale>  0 0.12499460E+03</rscale>
<asrwt>0</asrwt>
<pdfrwt beam="1">  1        4 0.15619206E-01 0.12499460E+03</pdfrwt>
<pdfrwt beam="2">  1       -4 0.59188429E-02 0.12499460E+03</pdfrwt>
<totfact> 0.10134875E+04</totfact>
</mgrwt>
</event>
<event>
 5    1  0.3514886E-002  0.1250007E+03  0.7818608E-02  0.1235068E+00
          4   -1    0    0  501    0  0.00000000000E+00  0.00000000000E+00  0.21256022725E+04  0.21256026519E+04  0.12700000000E+01 0. -1.
         -4   -1    0    0    0  501 -0.00000000000E+00 -0.00000000000E+00 -0.16178966815E+01  0.20568154200E+01  0.12700000000E+01 0. -1.
         25    2    1    2    0    0  0.00000000000E+00  0.00000000000E+00  0.21239843758E+04  0.21276594673E+04  0.12500072059E+03 0.  0.
    9000005    1    3    3    0    0  0.42852024544E+02  0.39852946762E+02  0.68878887975E+03  0.69127105699E+03  0.10000000000E+01 0.  0.
    9000005    1    3    3    0    0 -0.42852024544E+02 -0.39852946762E+02  0.14351954961E+04  0.14363884103E+04  0.10000000000E+01 0.  0.
<mgrwt>
<rscale>  0 0.12500072E+03</rscale>
<asrwt>0</asrwt>
<pdfrwt beam="1">  1        4 0.32704991E+00 0.12500072E+03</pdfrwt>
<pdfrwt beam="2">  1       -4 0.28269902E-03 0.12500072E+03</pdfrwt>
<totfact> 0.82855069E+02</totfact>
</mgrwt>
</event>
<event>
 5    1  0.3514886E-002  0.1250025E+03  0.7818608E-02  0.1235065E+00
          4   -1    0    0  501    0  0.00000000000E+00  0.00000000000E+00  0.22497541318E+04  0.22497544902E+04  0.12700000000E+01 0.  1.
         -4   -1    0    0    0  501 -0.00000000000E+00 -0.00000000000E+00 -0.15037398494E+01  0.19682818738E+01  0.12700000000E+01 0.  1.
         25    2    1    2    0    0  0.00000000000E+00  0.00000000000E+00  0.22482503919E+04  0.22517227721E+04  0.12500247056E+03 0.  0.
    9000005    1    3    3    0    0  0.54007305394E+01  0.50080228096E+02  0.45782142516E+03  0.46058512185E+03  0.10000000000E+01 0.  0.
    9000005    1    3    3    0    0 -0.54007305394E+01 -0.50080228096E+02  0.17904289668E+04  0.17911376503E+04  0.10000000000E+01 0.  0.
<mgrwt>
<rscale>  0 0.12500247E+03</rscale>
<asrwt>0</asrwt>
<pdfrwt beam="1">  1        4 0.34615214E+00 0.12500247E+03</pdfrwt>
<pdfrwt beam="2">  1       -4 0.26710589E-03 0.12500247E+03</pdfrwt>
<totfact> 0.69226533E+02</totfact>
</mgrwt>
</event>
<event>
 5    1  0.3514886E-002  0.1250031E+03  0.7818608E-02  0.1235064E+00
         -4   -1    0    0    0  501 -0.00000000000E+00  0.00000000000E+00  0.33731943656E+02  0.33755842795E+02  0.12700000000E+01 0. -1.
          4   -1    0    0  501    0  0.00000000000E+00 -0.00000000000E+00 -0.11574010496E+03  0.11574707251E+03  0.12700000000E+01 0. -1.
         25    2    1    2    0    0  0.00000000000E+00  0.00000000000E+00 -0.82008161301E+02  0.14950291531E+03  0.12500313262E+03 0.  0.
    9000005    1    3    3    0    0  0.12550282968E+02  0.53701712021E+02 -0.76160229686E+02  0.94035972172E+02  0.10000000000E+01 0.  0.
    9000005    1    3    3    0    0 -0.12550282968E+02 -0.53701712021E+02 -0.58479316147E+01  0.55466943135E+02  0.10000000000E+01 0.  0.
<mgrwt>
<rscale>  0 0.12500313E+03</rscale>
<asrwt>0</asrwt>
<pdfrwt beam="2">  1        4 0.17808544E-01 0.12500313E+03</pdfrwt>
<pdfrwt beam="1">  1       -4 0.51919042E-02 0.12500313E+03</pdfrwt>
<totfact> 0.99395868E+03</totfact>
</mgrwt>
</event>
<event>
 5    1  0.3514886E-002  0.1250019E+03  0.7818608E-02  0.1235066E+00
          4   -1    0    0  501    0  0.00000000000E+00  0.00000000000E+00  0.20665242245E+03  0.20665632486E+03  0.12700000000E+01 0.  1.
         -4   -1    0    0    0  501 -0.00000000000E+00 -0.00000000000E+00 -0.18877685315E+02  0.18920356837E+02  0.12700000000E+01 0.  1.
         25    2    1    2    0    0  0.00000000000E+00  0.00000000000E+00  0.18777473713E+03  0.22557668170E+03  0.12500194966E+03 0.  0.
    9000005    1    3    3    0    0 -0.16733973638E+02  0.48736822505E+02  0.15769083223E+03  0.16589967544E+03  0.10000000000E+01 0.  0.
    9000005    1    3    3    0    0  0.16733973638E+02 -0.48736822505E+02  0.30083904909E+02  0.59677006261E+02  0.10000000000E+01 0.  0.
<mgrwt>
<rscale>  0 0.12500195E+03</rscale>
<asrwt>0</asrwt>
<pdfrwt beam="1">  1        4 0.31796262E-01 0.12500195E+03</pdfrwt>
<pdfrwt beam="2">  1       -4 0.29078419E-02 0.12500195E+03</pdfrwt>
<totfact> 0.85989720E+03</totfact>
</mgrwt>
</event>
<event>
 5    1  0.3514886E-002  0.1250004E+03  0.7818608E-02  0.1235069E+00
         -4   -1    0    0    0  501 -0.00000000000E+00  0.00000000000E+00  0.28842277926E+01  0.31514552130E+01  0.12700000000E+01 0. -1.
          4   -1    0    0  501    0  0.00000000000E+00 -0.00000000000E+00 -0.12941261470E+04  0.12941267701E+04  0.12700000000E+01 0. -1.
         25    2    1    2    0    0  0.00000000000E+00  0.00000000000E+00 -0.12912419192E+04  0.12972782254E+04  0.12500040045E+03 0.  0.
    9000005    1    3    3    0    0  0.15175869621E+02  0.55123465679E+02 -0.90742545468E+03  0.90922541720E+03  0.10000000000E+01 0.  0.
    9000005    1    3    3    0    0 -0.15175869621E+02 -0.55123465679E+02 -0.38381646450E+03  0.38805280815E+03  0.10000000000E+01 0.  0.
<mgrwt>
<rscale>  0 0.12500040E+03</rscale>
<asrwt>0</asrwt>
<pdfrwt beam="2">  1        4 0.19911649E+00 0.12500040E+03</pdfrwt>
<pdfrwt beam="1">  1       -4 0.46433228E-03 0.12500040E+03</pdfrwt>
<totfact> 0.22292717E+03</totfact>
</mgrwt>
</event>
<event>
 5    1  0.3514886E-002  0.1250014E+03  0.7818608E-02  0.1235067E+00
          4   -1    0    0  501    0  0.00000000000E+00  0.00000000000E+00  0.19305391324E+02  0.19347119532E+02  0.12700000000E+01 0.  1.
         -4   -1    0    0    0  501 -0.00000000000E+00 -0.00000000000E+00 -0.20208236219E+03  0.20208635285E+03  0.12700000000E+01 0.  1.
         25    2    1    2    0    0  0.00000000000E+00  0.00000000000E+00 -0.18277697087E+03  0.22143347239E+03  0.12500144644E+03 0.  0.
    9000005    1    3    3    0    0 -0.41097095803E+01  0.18885457151E+01 -0.20180073658E+03  0.20185389171E+03  0.10000000000E+01 0.  0.
    9000005    1    3    3    0    0  0.41097095803E+01 -0.18885457151E+01  0.19023765704E+02  0.19579580673E+02  0.10000000000E+01 0.  0.
<mgrwt>
<rscale>  0 0.12500145E+03</rscale>
<asrwt>0</asrwt>
<pdfrwt beam="1">  1        4 0.29735772E-02 0.12500145E+03</pdfrwt>
<pdfrwt beam="2">  1       -4 0.31093109E-01 0.12500145E+03</pdfrwt>
<totfact> 0.86639230E+03</totfact>
</mgrwt>
</event>
<event>
 5    1  0.3514886E-002  0.1250053E+03  0.7818608E-02  0.1235061E+00
         -4   -1    0    0    0  501 -0.00000000000E+00  0.00000000000E+00  0.35408273720E+02  0.35431042150E+02  0.12700000000E+01 0. -1.
          4   -1    0    0  501    0  0.00000000000E+00 -0.00000000000E+00 -0.11026777524E+03  0.11027508855E+03  0.12700000000E+01 0. -1.
         25    2    1    2    0    0  0.00000000000E+00  0.00000000000E+00 -0.74859501517E+02  0.14570613071E+03  0.12500532612E+03 0.  0.
    9000005    1    3    3    0    0  0.13831377144E+02 -0.56143868454E+02 -0.97939343757E+01  0.58654600069E+02  0.10000000000E+01 0.  0.
    9000005    1    3    3    0    0 -0.13831377144E+02  0.56143868454E+02 -0.65065567141E+02  0.87051530636E+02  0.10000000000E+01 0.  0.
<mgrwt>
<rscale>  0 0.12500533E+03</rscale>
<asrwt>0</asrwt>
<pdfrwt beam="2">  1        4 0.16966587E-01 0.12500533E+03</pdfrwt>
<pdfrwt beam="1">  1       -4 0.54497408E-02 0.12500533E+03</pdfrwt>
<totfact> 0.10015460E+04</totfact>
</mgrwt>
</event>
<event>
 5    1  0.3514886E-002  0.1250053E+03  0.7818608E-02  0.1235061E+00
          4   -1    0    0  501    0  0.00000000000E+00  0.00000000000E+00  0.74522341716E+01  0.75596755320E+01  0.12700000000E+01 0. -1.
         -4   -1    0    0    0  501 -0.00000000000E+00 -0.00000000000E+00 -0.52035592140E+03  0.52035747120E+03  0.12700000000E+01 0. -1.
         25    2    1    2    0    0  0.00000000000E+00  0.00000000000E+00 -0.51290368723E+03  0.52791714673E+03  0.12500528566E+03 0.  0.
    9000005    1    3    3    0    0 -0.19278122889E+00 -0.23120814562E+02 -0.50164870559E+03  0.50218227074E+03  0.10000000000E+01 0.  0.
    9000005    1    3    3    0    0  0.19278122889E+00  0.23120814562E+02 -0.11254981643E+02  0.25734875993E+02  0.10000000000E+01 0.  0.
<mgrwt>
<rscale>  0 0.12500529E+03</rscale>
<asrwt>0</asrwt>
<pdfrwt beam="1">  1        4 0.11548819E-02 0.12500529E+03</pdfrwt>
<pdfrwt beam="2">  1       -4 0.80063113E-01 0.12500529E+03</pdfrwt>
<totfact> 0.53755353E+03</totfact>
</mgrwt>
</event>
<event>
 5    1  0.3514886E-002  0.1249959E+03  0.7818608E-02  0.1235076E+00
         -4   -1    0    0    0  501 -0.00000000000E+00  0.00000000000E+00  0.13384458597E+02  0.13444576302E+02  0.12700000000E+01 0.  1.
          4   -1    0    0  501    0  0.00000000000E+00 -0.00000000000E+00 -0.29111495675E+03  0.29111772695E+03  0.12700000000E+01 0.  1.
         25    2    1    2    0    0  0.00000000000E+00  0.00000000000E+00 -0.27773049815E+03  0.30456230325E+03  0.12499586776E+03 0.  0.
    9000005    1    3    3    0    0  0.33390916584E+02 -0.28621266796E+02 -0.24703567678E+03  0.25092181218E+03  0.10000000000E+01 0.  0.
    9000005    1    3    3    0    0 -0.33390916584E+02  0.28621266796E+02 -0.30694821367E+02  0.53640491068E+02  0.10000000000E+01 0.  0.
<mgrwt>
<rscale>  0 0.12499587E+03</rscale>
<asrwt>0</asrwt>
<pdfrwt beam="2">  1        4 0.44791749E-01 0.12499587E+03</pdfrwt>
<pdfrwt beam="1">  1       -4 0.20639852E-02 0.12499587E+03</pdfrwt>
<totfact> 0.75036976E+03</totfact>
</mgrwt>
</event>
<event>
 5    1  0.3514886E-002  0.1250010E+03  0.7818608E-02  0.1235068E+00
         -4   -1    0    0    0  501 -0.00000000000E+00  0.00000000000E+00  0.18824763714E+02  0.18867554926E+02  0.12700000000E+01 0.  1.
          4   -1    0    0  501    0  0.00000000000E+00 -0.00000000000E+00 -0.20722901156E+03  0.20723290311E+03  0.12700000000E+01 0.  1.
         25    2    1    2    0    0  0.00000000000E+00  0.00000000000E+00 -0.18840424785E+03  0.22610045804E+03  0.12500102607E+03 0.  0.
    9000005    1    3    3    0    0  0.53553082845E+02 -0.27187645203E+02 -0.62966409882E+02  0.87022235706E+02  0.10000000000E+01 0.  0.
    9000005    1    3    3    0    0 -0.53553082845E+02  0.27187645203E+02 -0.12543783796E+03  0.13907822233E+03  0.10000000000E+01 0.  0.
<mgrwt>
<rscale>  0 0.12500103E+03</rscale>
<asrwt>0</asrwt>
<pdfrwt beam="2">  1        4 0.31884976E-01 0.12500103E+03</pdfrwt>
<pdfrwt beam="1">  1       -4 0.28997086E-02 0.12500103E+03</pdfrwt>
<totfact> 0.85910028E+03</totfact>
</mgrwt>
</event>
<event>
 5    1  0.3514886E-002  0.1250018E+03  0.7818608E-02  0.1235066E+00
          4   -1    0    0  501    0  0.00000000000E+00  0.00000000000E+00  0.35986735319E+03  0.35986959415E+03  0.12700000000E+01 0.  1.
         -4   -1    0    0    0  501 -0.00000000000E+00 -0.00000000000E+00 -0.10815579894E+02  0.10889888357E+02  0.12700000000E+01 0.  1.
         25    2    1    2    0    0  0.00000000000E+00  0.00000000000E+00  0.34905177330E+03  0.37075948251E+03  0.12500181369E+03 0.  0.
    9000005    1    3    3    0    0  0.32595309981E+02 -0.21657636064E+02  0.30014146264E+02  0.49329062515E+02  0.10000000000E+01 0.  0.
    9000005    1    3    3    0    0 -0.32595309981E+02  0.21657636064E+02  0.31903762703E+03  0.32143041999E+03  0.10000000000E+01 0.  0.
<mgrwt>
<rscale>  0 0.12500181E+03</rscale>
<asrwt>0</asrwt>
<pdfrwt beam="1">  1        4 0.55370094E-01 0.12500181E+03</pdfrwt>
<pdfrwt beam="2">  1       -4 0.16698239E-02 0.12500181E+03</pdfrwt>
<totfact> 0.67496849E+03</totfact>
</mgrwt>
</event>
<event>
 5    1  0.3514886E-002  0.1250006E+03  0.7818608E-02  0.1235068E+00
         -4   -1    0    0    0  501 -0.00000000000E+00  0.00000000000E+00  0.73040703444E+03  0.73040813855E+03  0.12700000000E+01 0. -1.
          4   -1    0    0  501    0  0.00000000000E+00 -0.00000000000E+00 -0.52715789218E+01  0.54224020810E+01  0.12700000000E+01 0. -1.
         25    2    1    2    0    0  0.00000000000E+00  0.00000000000E+00  0.72513545552E+03  0.73583054063E+03  0.12500062270E+03 0.  0.
    9000005    1    3    3    0    0  0.56888714890E+02  0.87504479595E+01  0.21929270673E+03  0.22672271047E+03  0.10000000000E+01 0.  0.
    9000005    1    3    3    0    0 -0.56888714890E+02 -0.87504479595E+01  0.50584274879E+03  0.50910783015E+03  0.10000000000E+01 0.  0.
<mgrwt>
<rscale>  0 0.12500062E+03</rscale>
<asrwt>0</asrwt>
<pdfrwt beam="2">  1        4 0.82269912E-03 0.12500062E+03</pdfrwt>
<pdfrwt beam="1">  1       -4 0.11238196E+00 0.12500062E+03</pdfrwt>
<totfact> 0.41260655E+03</totfact>
</mgrwt>
</event>
<event>
 5    1  0.3514886E-002  0.1250027E+03  0.7818608E-02  0.1235065E+00
          4   -1    0    0  501    0  0.00000000000E+00  0.00000000000E+00  0.27975402242E+02  0.28004214515E+02  0.12700000000E+01 0. -1.
         -4   -1    0    0    0  501 -0.00000000000E+00 -0.00000000000E+00 -0.13953406281E+03  0.13953984228E+03  0.12700000000E+01 0. -1.
         25    2    1    2    0    0  0.00000000000E+00  0.00000000000E+00 -0.11155866057E+03  0.16754405680E+03  0.12500270485E+03 0.  0.
    9000005    1    3    3    0    0 -0.26763791323E+02  0.14660594138E+02 -0.12887533552E+03  0.13244276369E+03  0.10000000000E+01 0.  0.
    9000005    1    3    3    0    0  0.26763791323E+02 -0.14660594138E+02  0.17316674957E+02  0.35101293110E+02  0.10000000000E+01 0.  0.
<mgrwt>
<rscale>  0 0.12500270E+03</rscale>
<asrwt>0</asrwt>
<pdfrwt beam="1">  1        4 0.43065690E-02 0.12500270E+03</pdfrwt>
<pdfrwt beam="2">  1       -4 0.21469439E-01 0.12500270E+03</pdfrwt>
<totfact> 0.95901920E+03</totfact>
</mgrwt>
</event>
<event>
 5    1  0.3514886E-002  0.1250007E+03  0.7818608E-02  0.1235068E+00
         -4   -1    0    0    0  501 -0.00000000000E+00  0.00000000000E+00  0.16302124012E+03  0.16302618695E+03  0.12700000000E+01 0.  1.
          4   -1    0    0  501    0  0.00000000000E+00 -0.00000000000E+00 -0.23939738209E+02  0.23973401208E+02  0.12700000000E+01 0.  1.
         25    2    1    2    0    0  0.00000000000E+00  0.00000000000E+00  0.13908150191E+03  0.18699958815E+03  0.12500072718E+03 0.  0.
    9000005    1    3    3    0    0  0.22476337169E+02 -0.30962917650E+02 -0.43769146633E+01  0.38523309618E+02  0.10000000000E+01 0.  0.
    9000005    1    3    3    0    0 -0.22476337169E+02  0.30962917650E+02  0.14345841657E+03  0.14847627854E+03  0.10000000000E+01 0.  0.
<mgrwt>
<rscale>  0 0.12500073E+03</rscale>
<asrwt>0</asrwt>
<pdfrwt beam="2">  1        4 0.36860066E-02 0.12500073E+03</pdfrwt>
<pdfrwt beam="1">  1       -4 0.25083161E-01 0.12500073E+03</pdfrwt>
<totfact> 0.92370507E+03</totfact>
</mgrwt>
</event>
<event>
 5    1  0.3514886E-002  0.1249974E+03  0.7818608E-02  0.1235073E+00
          4   -1    0    0  501    0  0.00000000000E+00  0.00000000000E+00  0.45877852531E+02  0.45895427364E+02  0.12700000000E+01 0.  1.
         -4   -1    0    0    0  501 -0.00000000000E+00 -0.00000000000E+00 -0.85102357408E+02  0.85111833116E+02  0.12700000000E+01 0.  1.
         25    2    1    2    0    0  0.00000000000E+00  0.00000000000E+00 -0.39224504877E+02  0.13100726048E+03  0.12499736203E+03 0.  0.
    9000005    1    3    3    0    0  0.15187140128E+02  0.21234288302E+02 -0.79118300698E+02  0.83320164007E+02  0.10000000000E+01 0.  0.
    9000005    1    3    3    0    0 -0.15187140128E+02 -0.21234288302E+02  0.39893795821E+02  0.47687096472E+02  0.10000000000E+01 0.  0.
<mgrwt>
<rscale>  0 0.12499736E+03</rscale>
<asrwt>0</asrwt>
<pdfrwt beam="1">  1        4 0.70602120E-02 0.12499736E+03</pdfrwt>
<pdfrwt beam="2">  1       -4 0.13094751E-01 0.12499736E+03</pdfrwt>
<totfact> 0.10323548E+04</totfact>
</mgrwt>
</event>
<event>
 5    1  0.3514886E-002  0.1250004E+03  0.7818608E-02  0.1235069E+00
         -4   -1    0    0    0  501 -0.00000000000E+00  0.00000000000E+00  0.17358456377E+03  0.17358920957E+03  0.12700000000E+01 0. -1.
          4   -1    0    0  501    0  0.00000000000E+00 -0.00000000000E+00 -0.22480726894E+02  0.22516571268E+02  0.12700000000E+01 0. -1.
         25    2    1    2    0    0  0.00000000000E+00  0.00000000000E+00  0.15110383687E+03  0.19610578083E+03  0.12500043104E+03 0.  0.
    9000005    1    3    3    0    0 -0.13089189254E+02 -0.57924701584E+02  0.10608105366E+03  0.12157626361E+03  0.10000000000E+01 0.  0.
    9000005    1    3    3    0    0  0.13089189254E+02  0.57924701584E+02  0.45022783213E+02  0.74529517220E+02  0.10000000000E+01 0.  0.
<mgrwt>
<rscale>  0 0.12500043E+03</rscale>
<asrwt>0</asrwt>
<pdfrwt beam="2">  1        4 0.34616881E-02 0.12500043E+03</pdfrwt>
<pdfrwt beam="1">  1       -4 0.26708432E-01 0.12500043E+03</pdfrwt>
<totfact> 0.90794772E+03</totfact>
</mgrwt>
</event>
<event>
 5    1  0.3514886E-002  0.1250001E+03  0.7818608E-02  0.1235069E+00
         -4   -1    0    0    0  501 -0.00000000000E+00  0.00000000000E+00  0.11990979103E+03  0.11991651631E+03  0.12700000000E+01 0.  1.
          4   -1    0    0  501    0  0.00000000000E+00 -0.00000000000E+00 -0.32556598418E+02  0.32581359710E+02  0.12700000000E+01 0.  1.
         25    2    1    2    0    0  0.00000000000E+00  0.00000000000E+00  0.87353192611E+02  0.15249787602E+03  0.12500008773E+03 0.  0.
    9000005    1    3    3    0    0 -0.24886492212E+02 -0.21669788714E+02  0.10842005309E+03  0.11333501290E+03  0.10000000000E+01 0.  0.
    9000005    1    3    3    0    0  0.24886492212E+02  0.21669788714E+02 -0.21066860477E+02  0.39162863122E+02  0.10000000000E+01 0.  0.
<mgrwt>
<rscale>  0 0.12500009E+03</rscale>
<asrwt>0</asrwt>
<pdfrwt beam="2">  1        4 0.50111295E-02 0.12500009E+03</pdfrwt>
<pdfrwt beam="1">  1       -4 0.18450082E-01 0.12500009E+03</pdfrwt>
<totfact> 0.98807899E+03</totfact>
</mgrwt>
</event>
<event>
 5    1  0.3514886E-002  0.1249948E+03  0.7818608E-02  0.1235077E+00
          4   -1    0    0  501    0  0.00000000000E+00  0.00000000000E+00  0.20904522007E+03  0.20904907781E+03  0.12700000000E+01 0.  1.
         -4   -1    0    0    0  501 -0.00000000000E+00 -0.00000000000E+00 -0.18658989608E+02  0.18702160121E+02  0.12700000000E+01 0.  1.
         25    2    1    2    0    0  0.00000000000E+00  0.00000000000E+00  0.19038623046E+03  0.22775123793E+03  0.12499483842E+03 0.  0.
    9000005    1    3    3    0    0  0.48447865631E+02  0.14136579568E+00  0.23279319325E+02  0.53760044426E+02  0.10000000000E+01 0.  0.
    9000005    1    3    3    0    0 -0.48447865631E+02 -0.14136579568E+00  0.16710691114E+03  0.17399119351E+03  0.10000000000E+01 0.  0.
<mgrwt>
<rscale>  0 0.12499484E+03</rscale>
<asrwt>0</asrwt>
<pdfrwt beam="1">  1        4 0.32164419E-01 0.12499484E+03</pdfrwt>
<pdfrwt beam="2">  1       -4 0.28742315E-02 0.12499484E+03</pdfrwt>
<totfact> 0.85665965E+03</totfact>
</mgrwt>
</event>
<event>
 5    1  0.3514886E-002  0.1250006E+03  0.7818608E-02  0.1235068E+00
          4   -1    0    0  501    0  0.00000000000E+00  0.00000000000E+00  0.16684755762E+02  0.16733020493E+02  0.12700000000E+01 0. -1.
         -4   -1    0    0    0  501 -0.00000000000E+00 -0.00000000000E+00 -0.23373496054E+03  0.23373841079E+03  0.12700000000E+01 0. -1.
         25    2    1    2    0    0  0.00000000000E+00  0.00000000000E+00 -0.21705020478E+03  0.25047143129E+03  0.12500058598E+03 0.  0.
    9000005    1    3    3    0    0 -0.29124062867E+01  0.59530432155E+02 -0.70881448983E+02  0.92614978664E+02  0.10000000000E+01 0.  0.
    9000005    1    3    3    0    0  0.29124062867E+01 -0.59530432155E+02 -0.14616875580E+03  0.15785645262E+03  0.10000000000E+01 0.  0.
<mgrwt>
<rscale>  0 0.12500059E+03</rscale>
<asrwt>0</asrwt>
<pdfrwt beam="1">  1        4 0.25708638E-02 0.12500059E+03</pdfrwt>
<pdfrwt beam="2">  1       -4 0.35963200E-01 0.12500059E+03</pdfrwt>
<totfact> 0.82261066E+03</totfact>
</mgrwt>
</event>
<event>
 5    1  0.3514886E-002  0.1250007E+03  0.7818608E-02  0.1235068E+00
          4   -1    0    0  501    0  0.00000000000E+00  0.00000000000E+00  0.50201253658E+02  0.50217315429E+02  0.12700000000E+01 0. -1.
         -4   -1    0    0    0  501 -0.00000000000E+00 -0.00000000000E+00 -0.77779030174E+02  0.77789397958E+02  0.12700000000E+01 0. -1.
         25    2    1    2    0    0  0.00000000000E+00  0.00000000000E+00 -0.27577776515E+02  0.12800671339E+03  0.12500073966E+03 0.  0.
    9000005    1    3    3    0    0 -0.33029481069E+02 -0.16645120202E+02 -0.65371720297E+02  0.75116366132E+02  0.10000000000E+01 0.  0.
    9000005    1    3    3    0    0  0.33029481069E+02  0.16645120202E+02  0.37793943782E+02  0.52890347255E+02  0.10000000000E+01 0.  0.
<mgrwt>
<rscale>  0 0.12500074E+03</rscale>
<asrwt>0</asrwt>
<pdfrwt beam="1">  1        4 0.77253028E-02 0.12500074E+03</pdfrwt>
<pdfrwt beam="2">  1       -4 0.11968038E-01 0.12500074E+03</pdfrwt>
<totfact> 0.10387169E+04</totfact>
</mgrwt>
</event>
<event>
 5    1  0.3514886E-002  0.1249999E+03  0.7818608E-02  0.1235069E+00
         -4   -1    0    0    0  501 -0.00000000000E+00  0.00000000000E+00  0.47177073613E+03  0.47177244554E+03  0.12700000000E+01 0. -1.
          4   -1    0    0  501    0  0.00000000000E+00 -0.00000000000E+00 -0.82295284964E+01  0.83269465756E+01  0.12700000000E+01 0. -1.
         25    2    1    2    0    0  0.00000000000E+00  0.00000000000E+00  0.46354120763E+03  0.48009939211E+03  0.12499990053E+03 0.  0.
    9000005    1    3    3    0    0  0.17849086099E+02 -0.26597747751E+02  0.43786132571E+03  0.43903253935E+03  0.10000000000E+01 0.  0.
    9000005    1    3    3    0    0 -0.17849086099E+02  0.26597747751E+02  0.25679881929E+02  0.41066852763E+02  0.10000000000E+01 0.  0.
<mgrwt>
<rscale>  0 0.12499990E+03</rscale>
<asrwt>0</asrwt>
<pdfrwt beam="2">  1        4 0.12737069E-02 0.12499990E+03</pdfrwt>
<pdfrwt beam="1">  1       -4 0.72587718E-01 0.12499990E+03</pdfrwt>
<totfact> 0.57442293E+03</totfact>
</mgrwt>
</event>
<event>
 5    1  0.3514886E-002  0.1250101E+03  0.7818608E-02  0.1235054E+00
         -4   -1    0    0    0  501 -0.00000000000E+00  0.00000000000E+00  0.53157026107E+03  0.53157177817E+03  0.12700000000E+01 0.  1.
          4   -1    0    0  501    0  0.00000000000E+00 -0.00000000000E+00 -0.72932919753E+01  0.74030404455E+01  0.12700000000E+01 0.  1.
         25    2    1    2    0    0  0.00000000000E+00  0.00000000000E+00  0.52427696909E+03  0.53897481862E+03  0.12501005874E+03 0.  0.
    9000005    1    3    3    0    0 -0.62004988108E+02  0.13450501816E+01  0.22889526731E+03  0.23715073499E+03  0.10000000000E+01 0.  0.
    9000005    1    3    3    0    0  0.62004988108E+02 -0.13450501816E+01  0.29538170178E+03  0.30182408363E+03  0.10000000000E+01 0.  0.
<mgrwt>
<rscale>  0 0.12501006E+03</rscale>
<asrwt>0</asrwt>
<pdfrwt beam="2">  1        4 0.11306033E-02 0.12501006E+03</pdfrwt>
<pdfrwt beam="1">  1       -4 0.81788639E-01 0.12501006E+03</pdfrwt>
<totfact> 0.52950604E+03</totfact>
</mgrwt>
</event>
<event>
 5    1  0.3514886E-002  0.1249910E+03  0.7818608E-02  0.1235083E+00
         -4   -1    0    0    0  501 -0.00000000000E+00  0.00000000000E+00  0.20224537943E+02  0.20264373541E+02  0.12700000000E+01 0.  1.
          4   -1    0    0  501    0  0.00000000000E+00 -0.00000000000E+00 -0.19288448583E+03  0.19288866678E+03  0.12700000000E+01 0.  1.
         25    2    1    2    0    0  0.00000000000E+00  0.00000000000E+00 -0.17265994789E+03  0.21315304032E+03  0.12499104366E+03 0.  0.
    9000005    1    3    3    0    0  0.11645753913E+02 -0.18158625063E+01  0.18320088783E+02  0.21807030835E+02  0.10000000000E+01 0.  0.
    9000005    1    3    3    0    0 -0.11645753913E+02  0.18158625063E+01 -0.19098003667E+03  0.19134600949E+03  0.10000000000E+01 0.  0.
<mgrwt>
<rscale>  0 0.12499104E+03</rscale>
<asrwt>0</asrwt>
<pdfrwt beam="2">  1        4 0.29677921E-01 0.12499104E+03</pdfrwt>
<pdfrwt beam="1">  1       -4 0.31148534E-02 0.12499104E+03</pdfrwt>
<totfact> 0.87981134E+03</totfact>
</mgrwt>
</event>
<event>
 5    1  0.3514886E-002  0.1250011E+03  0.7818608E-02  0.1235068E+00
          4   -1    0    0  501    0  0.00000000000E+00  0.00000000000E+00  0.14827207264E+02  0.14881497749E+02  0.12700000000E+01 0. -1.
         -4   -1    0    0    0  501 -0.00000000000E+00 -0.00000000000E+00 -0.26291872471E+03  0.26292179199E+03  0.12700000000E+01 0. -1.
         25    2    1    2    0    0  0.00000000000E+00  0.00000000000E+00 -0.24809151744E+03  0.27780328974E+03  0.12500106704E+03 0.  0.
    9000005    1    3    3    0    0  0.31837293860E+02 -0.43648415830E+02 -0.19384913613E+03  0.20123937254E+03  0.10000000000E+01 0.  0.
    9000005    1    3    3    0    0 -0.31837293860E+02  0.43648415830E+02 -0.54242381317E+02  0.76563917192E+02  0.10000000000E+01 0.  0.
<mgrwt>
<rscale>  0 0.12500107E+03</rscale>
<asrwt>0</asrwt>
<pdfrwt beam="1">  1        4 0.22855211E-02 0.12500107E+03</pdfrwt>
<pdfrwt beam="2">  1       -4 0.40453443E-01 0.12500107E+03</pdfrwt>
<totfact> 0.78468417E+03</totfact>
</mgrwt>
</event>
<event>
 5    1  0.3514886E-002  0.1249998E+03  0.7818608E-02  0.1235070E+00
         -4   -1    0    0    0  501 -0.00000000000E+00  0.00000000000E+00  0.14493798217E+03  0.14494354617E+03  0.12700000000E+01 0.  1.
          4   -1    0    0  501    0  0.00000000000E+00 -0.00000000000E+00 -0.26930067823E+02  0.26959997273E+02  0.12700000000E+01 0.  1.
         25    2    1    2    0    0  0.00000000000E+00  0.00000000000E+00  0.11800791435E+03  0.17190354344E+03  0.12499984160E+03 0.  0.
    9000005    1    3    3    0    0  0.14481193499E+02 -0.54154099823E+02  0.96987917002E+02  0.11202690542E+03  0.10000000000E+01 0.  0.
    9000005    1    3    3    0    0 -0.14481193499E+02  0.54154099823E+02  0.21019997348E+02  0.59876638026E+02  0.10000000000E+01 0.  0.
<mgrwt>
<rscale>  0 0.12499984E+03</rscale>
<asrwt>0</asrwt>
<pdfrwt beam="2">  1        4 0.41458176E-02 0.12499984E+03</pdfrwt>
<pdfrwt beam="1">  1       -4 0.22300882E-01 0.12499984E+03</pdfrwt>
<totfact> 0.95095366E+03</totfact>
</mgrwt>
</event>
<event>
 5    1  0.3514886E-002  0.1250054E+03  0.7818608E-02  0.1235061E+00
          4   -1    0    0  501    0  0.00000000000E+00  0.00000000000E+00  0.20754089832E+03  0.20754478403E+03  0.12700000000E+01 0. -1.
         -4   -1    0    0    0  501 -0.00000000000E+00 -0.00000000000E+00 -0.18797737227E+02  0.18840589823E+02  0.12700000000E+01 0. -1.
         25    2    1    2    0    0  0.00000000000E+00  0.00000000000E+00  0.18874316109E+03  0.22638537385E+03  0.12500542641E+03 0.  0.
    9000005    1    3    3    0    0  0.33214418108E+02 -0.51134579864E+02  0.69563707180E+02  0.92509741026E+02  0.10000000000E+01 0.  0.
    9000005    1    3    3    0    0 -0.33214418108E+02  0.51134579864E+02  0.11917945391E+03  0.13387563282E+03  0.10000000000E+01 0.  0.
<mgrwt>
<rscale>  0 0.12500543E+03</rscale>
<asrwt>0</asrwt>
<pdfrwt beam="1">  1        4 0.31932965E-01 0.12500543E+03</pdfrwt>
<pdfrwt beam="2">  1       -4 0.28955548E-02 0.12500543E+03</pdfrwt>
<totfact> 0.85857334E+03</totfact>
</mgrwt>
</event>
<event>
 5    1  0.3514886E-002  0.1250004E+03  0.7818608E-02  0.1235069E+00
          4   -1    0    0  501    0  0.00000000000E+00  0.00000000000E+00  0.24926489698E+03  0.24926813228E+03  0.12700000000E+01 0. -1.
         -4   -1    0    0    0  501 -0.00000000000E+00 -0.00000000000E+00 -0.15642104894E+02  0.15693576568E+02  0.12700000000E+01 0. -1.
         25    2    1    2    0    0  0.00000000000E+00  0.00000000000E+00  0.23362279209E+03  0.26496170884E+03  0.12500039268E+03 0.  0.
    9000005    1    3    3    0    0  0.54604269340E+02 -0.23676076106E+01  0.18103625964E+03  0.18910938395E+03  0.10000000000E+01 0.  0.
    9000005    1    3    3    0    0 -0.54604269340E+02  0.23676076106E+01  0.52586532455E+02  0.75852324892E+02  0.10000000000E+01 0.  0.
<mgrwt>
<rscale>  0 0.12500039E+03</rscale>
<asrwt>0</asrwt>
<pdfrwt beam="1">  1        4 0.38352655E-01 0.12500039E+03</pdfrwt>
<pdfrwt beam="2">  1       -4 0.24106858E-02 0.12500039E+03</pdfrwt>
<totfact> 0.80214055E+03</totfact>
</mgrwt>
</event>
<event>
 5    1  0.3514886E-002  0.1250016E+03  0.7818608E-02  0.1235067E+00
         -4   -1    0    0    0  501 -0.00000000000E+00  0.00000000000E+00  0.15418010976E+03  0.15418534024E+03  0.12700000000E+01 0.  1.
          4   -1    0    0  501    0  0.00000000000E+00 -0.00000000000E+00 -0.25314706851E+02  0.25346543806E+02  0.12700000000E+01 0.  1.
         25    2    1    2    0    0  0.00000000000E+00  0.00000000000E+00  0.12886540291E+03  0.17953188405E+03  0.12500162128E+03 0.  0.
    9000005    1    3    3    0    0 -0.29634784143E+02  0.29398198510E+01 -0.14475236652E+02  0.33126959535E+02  0.10000000000E+01 0.  0.
    9000005    1    3    3    0    0  0.29634784143E+02 -0.29398198510E+01  0.14334063956E+03  0.14640492451E+03  0.10000000000E+01 0.  0.
<mgrwt>
<rscale>  0 0.12500162E+03</rscale>
<asrwt>0</asrwt>
<pdfrwt beam="2">  1        4 0.38974216E-02 0.12500162E+03</pdfrwt>
<pdfrwt beam="1">  1       -4 0.23722868E-01 0.12500162E+03</pdfrwt>
<totfact> 0.93697927E+03</totfact>
</mgrwt>
</event>
<event>
 5    1  0.3514886E-002  0.1250017E+03  0.7818608E-02  0.1235067E+00
         -4   -1    0    0    0  501 -0.00000000000E+00  0.00000000000E+00  0.85927649268E+02  0.85937033977E+02  0.12700000000E+01 0. -1.
          4   -1    0    0  501    0  0.00000000000E+00 -0.00000000000E+00 -0.45440289013E+02  0.45458033015E+02  0.12700000000E+01 0. -1.
         25    2    1    2    0    0  0.00000000000E+00  0.00000000000E+00  0.40487360255E+02  0.13139506699E+03  0.12500174914E+03 0.  0.
    9000005    1    3    3    0    0  0.19509204569E+02  0.37962023267E+02  0.68225177567E+02  0.80482290769E+02  0.10000000000E+01 0.  0.
    9000005    1    3    3    0    0 -0.19509204569E+02 -0.37962023267E+02 -0.27737817312E+02  0.50912776222E+02  0.10000000000E+01 0.  0.
<mgrwt>
<rscale>  0 0.12500175E+03</rscale>
<asrwt>0</asrwt>
<pdfrwt beam="2">  1        4 0.69929006E-02 0.12500175E+03</pdfrwt>
<pdfrwt beam="1">  1       -4 0.13221725E-01 0.12500175E+03</pdfrwt>
<totfact> 0.10314220E+04</totfact>
</mgrwt>
</event>
<event>
 5    1  0.3514886E-002  0.1250051E+03  0.7818608E-02  0.1235061E+00
          4   -1    0    0  501    0  0.00000000000E+00  0.00000000000E+00  0.11105095396E+03  0.11105821571E+03  0.12700000000E+01 0.  1.
         -4   -1    0    0    0  501 -0.00000000000E+00 -0.00000000000E+00 -0.35158265420E+02  0.35181195650E+02  0.12700000000E+01 0.  1.
         25    2    1    2    0    0  0.00000000000E+00  0.00000000000E+00  0.75892688543E+02  0.14623941136E+03  0.12500506094E+03 0.  0.
    9000005    1    3    3    0    0 -0.48740486610E+02  0.62860952463E+01  0.83110160122E+02  0.96558007146E+02  0.10000000000E+01 0.  0.
    9000005    1    3    3    0    0  0.48740486610E+02 -0.62860952463E+01 -0.72174715791E+01  0.49681404211E+02  0.10000000000E+01 0.  0.
<mgrwt>
<rscale>  0 0.12500506E+03</rscale>
<asrwt>0</asrwt>
<pdfrwt beam="1">  1        4 0.17087085E-01 0.12500506E+03</pdfrwt>
<pdfrwt beam="2">  1       -4 0.54112864E-02 0.12500506E+03</pdfrwt>
<totfact> 0.10004727E+04</totfact>
</mgrwt>
</event>
<event>
 4    1  0.3514886E-002  0.1245689E+03  0.7818608E-02  0.1235745E+00
          4   -1    0    0  501    0  0.00000000000E+00  0.00000000000E+00  0.15427848396E+03  0.15428371111E+03  0.12700000000E+01 0. -1.
         -4   -1    0    0    0  501 -0.00000000000E+00 -0.00000000000E+00 -0.25123440400E+02  0.25155519425E+02  0.12700000000E+01 0. -1.
    9000005    1    1    2    0    0 -0.44316321269E+02  0.39685223234E+02  0.91119145790E+02  0.10882349013E+03  0.10000000000E+01 0.  0.
    9000005    1    1    2    0    0  0.44316321269E+02 -0.39685223234E+02  0.38035897771E+02  0.70615740407E+02  0.10000000000E+01 0.  0.
<mgrwt>
<rscale>  0 0.12456891E+03</rscale>
<asrwt>0</asrwt>
<pdfrwt beam="1">  1        4 0.23738021E-01 0.12456891E+03</pdfrwt>
<pdfrwt beam="2">  1       -4 0.38680144E-02 0.12456891E+03</pdfrwt>
<totfact> 0.94629754E+03</totfact>
</mgrwt>
</event>
<event>
 5    1  0.3514886E-002  0.1250004E+03  0.7818608E-02  0.1235069E+00
          4   -1    0    0  501    0  0.00000000000E+00  0.00000000000E+00  0.19288689108E+02  0.19330453370E+02  0.12700000000E+01 0.  1.
         -4   -1    0    0    0  501 -0.00000000000E+00 -0.00000000000E+00 -0.20225366805E+03  0.20225765533E+03  0.12700000000E+01 0.  1.
         25    2    1    2    0    0  0.00000000000E+00  0.00000000000E+00 -0.18296497895E+03  0.22158810870E+03  0.12500042559E+03 0.  0.
    9000005    1    3    3    0    0 -0.10166541796E+02  0.61655788569E+02 -0.92712905179E+02  0.11181000681E+03  0.10000000000E+01 0.  0.
    9000005    1    3    3    0    0  0.10166541796E+02 -0.61655788569E+02 -0.90252073766E+02  0.10977810189E+03  0.10000000000E+01 0.  0.
<mgrwt>
<rscale>  0 0.12500043E+03</rscale>
<asrwt>0</asrwt>
<pdfrwt beam="1">  1        4 0.29710101E-02 0.12500043E+03</pdfrwt>
<pdfrwt beam="2">  1       -4 0.31119467E-01 0.12500043E+03</pdfrwt>
<totfact> 0.86616852E+03</totfact>
</mgrwt>
</event>
<event>
 5    1  0.3514886E-002  0.1250015E+03  0.7818608E-02  0.1235067E+00
         -4   -1    0    0    0  501 -0.00000000000E+00  0.00000000000E+00  0.15574968795E+03  0.15575486573E+03  0.12700000000E+01 0.  1.
          4   -1    0    0  501    0  0.00000000000E+00 -0.00000000000E+00 -0.25059218886E+02  0.25091380017E+02  0.12700000000E+01 0.  1.
         25    2    1    2    0    0  0.00000000000E+00  0.00000000000E+00  0.13069046907E+03  0.18084624574E+03  0.12500146357E+03 0.  0.
    9000005    1    3    3    0    0 -0.17245536512E+01  0.45500298023E+02  0.34199752790E+01  0.45672173546E+02  0.10000000000E+01 0.  0.
    9000005    1    3    3    0    0  0.17245536512E+01 -0.45500298023E+02  0.12727049379E+03  0.13517407220E+03  0.10000000000E+01 0.  0.
<mgrwt>
<rscale>  0 0.12500146E+03</rscale>
<asrwt>0</asrwt>
<pdfrwt beam="2">  1        4 0.38581368E-02 0.12500146E+03</pdfrwt>
<pdfrwt beam="1">  1       -4 0.23964362E-01 0.12500146E+03</pdfrwt>
<totfact> 0.93461831E+03</totfact>
</mgrwt>
</event>
<event>
 5    1  0.3514886E-002  0.1250004E+03  0.7818608E-02  0.1235069E+00
         -4   -1    0    0    0  501 -0.00000000000E+00  0.00000000000E+00  0.89096856615E+01  0.89997443623E+01  0.12700000000E+01 0. -1.
          4   -1    0    0  501    0  0.00000000000E+00 -0.00000000000E+00 -0.43613474682E+03  0.43613659590E+03  0.12700000000E+01 0. -1.
         25    2    1    2    0    0  0.00000000000E+00  0.00000000000E+00 -0.42722506116E+03  0.44513634026E+03  0.12500043416E+03 0.  0.
    9000005    1    3    3    0    0  0.48656993745E+02 -0.21722181618E+02 -0.32987619914E+03  0.33415365175E+03  0.10000000000E+01 0.  0.
    9000005    1    3    3    0    0 -0.48656993745E+02  0.21722181618E+02 -0.97348862014E+02  0.11098268851E+03  0.10000000000E+01 0.  0.
<mgrwt>
<rscale>  0 0.12500043E+03</rscale>
<asrwt>0</asrwt>
<pdfrwt beam="2">  1        4 0.67104707E-01 0.12500043E+03</pdfrwt>
<pdfrwt beam="1">  1       -4 0.13777910E-02 0.12500043E+03</pdfrwt>
<totfact> 0.60386891E+03</totfact>
</mgrwt>
</event>
<event>
 5    1  0.3514886E-002  0.1250094E+03  0.7818608E-02  0.1235055E+00
          4   -1    0    0  501    0  0.00000000000E+00  0.00000000000E+00  0.87523075524E+02  0.87532289181E+02  0.12700000000E+01 0. -1.
         -4   -1    0    0    0  501 -0.00000000000E+00 -0.00000000000E+00 -0.44617190993E+02  0.44635262205E+02  0.12700000000E+01 0. -1.
         25    2    1    2    0    0  0.00000000000E+00  0.00000000000E+00  0.42905884531E+02  0.13216755139E+03  0.12500938650E+03 0.  0.
    9000005    1    3    3    0    0 -0.51176296413E+02 -0.25893075956E+02  0.47701392356E+02  0.74604876045E+02  0.10000000000E+01 0.  0.
    9000005    1    3    3    0    0  0.51176296413E+02  0.25893075956E+02 -0.47955078254E+01  0.57562675340E+02  0.10000000000E+01 0.  0.
<mgrwt>
<rscale>  0 0.12500939E+03</rscale>
<asrwt>0</asrwt>
<pdfrwt beam="1">  1        4 0.13467187E-01 0.12500939E+03</pdfrwt>
<pdfrwt beam="2">  1       -4 0.68662822E-02 0.12500939E+03</pdfrwt>
<totfact> 0.10295943E+04</totfact>
</mgrwt>
</event>
<event>
 5    1  0.3514886E-002  0.1250017E+03  0.7818608E-02  0.1235067E+00
         -4   -1    0    0    0  501 -0.00000000000E+00  0.00000000000E+00  0.15679110390E+02  0.15730460979E+02  0.12700000000E+01 0.  1.
          4   -1    0    0  501    0  0.00000000000E+00 -0.00000000000E+00 -0.24868389422E+03  0.24868713708E+03  0.12700000000E+01 0.  1.
         25    2    1    2    0    0  0.00000000000E+00  0.00000000000E+00 -0.23300478384E+03  0.26441759805E+03  0.12500174747E+03 0.  0.
    9000005    1    3    3    0    0  0.61867974780E+02 -0.87213323619E+01 -0.11922060901E+03  0.13460409189E+03  0.10000000000E+01 0.  0.
    9000005    1    3    3    0    0 -0.61867974780E+02  0.87213323619E+01 -0.11378417483E+03  0.12981350616E+03  0.10000000000E+01 0.  0.
<mgrwt>
<rscale>  0 0.12500175E+03</rscale>
<asrwt>0</asrwt>
<pdfrwt beam="2">  1        4 0.38263257E-01 0.12500175E+03</pdfrwt>
<pdfrwt beam="1">  1       -4 0.24163705E-02 0.12500175E+03</pdfrwt>
<totfact> 0.80286963E+03</totfact>
</mgrwt>
</event>
<event>
 5    1  0.3514886E-002  0.1250005E+03  0.7818608E-02  0.1235068E+00
         -4   -1    0    0    0  501 -0.00000000000E+00  0.00000000000E+00  0.26930036790E+01  0.29774433353E+01  0.12700000000E+01 0. -1.
          4   -1    0    0  501    0  0.00000000000E+00 -0.00000000000E+00 -0.13774836163E+04  0.13774842018E+04  0.12700000000E+01 0. -1.
         25    2    1    2    0    0  0.00000000000E+00  0.00000000000E+00 -0.13747906127E+04  0.13804616451E+04  0.12500050002E+03 0.  0.
    9000005    1    3    3    0    0  0.34293480246E+02 -0.51486280510E+02 -0.58960980720E+03  0.59284703307E+03  0.10000000000E+01 0.  0.
    9000005    1    3    3    0    0 -0.34293480246E+02  0.51486280510E+02 -0.78518080546E+03  0.78761461206E+03  0.10000000000E+01 0.  0.
<mgrwt>
<rscale>  0 0.12500050E+03</rscale>
<asrwt>0</asrwt>
<pdfrwt beam="2">  1        4 0.21194195E+00 0.12500050E+03</pdfrwt>
<pdfrwt beam="1">  1       -4 0.43623437E-03 0.12500050E+03</pdfrwt>
<totfact> 0.20403974E+03</totfact>
</mgrwt>
</event>
<event>
 5    1  0.3514886E-002  0.1249989E+03  0.7818608E-02  0.1235071E+00
          4   -1    0    0  501    0  0.00000000000E+00  0.00000000000E+00  0.31977566520E+02  0.32002775826E+02  0.12700000000E+01 0.  1.
         -4   -1    0    0    0  501 -0.00000000000E+00 -0.00000000000E+00 -0.12207715134E+03  0.12208375723E+03  0.12700000000E+01 0.  1.
         25    2    1    2    0    0  0.00000000000E+00  0.00000000000E+00 -0.90099584821E+02  0.15408653306E+03  0.12499889793E+03 0.  0.
    9000005    1    3    3    0    0 -0.30133835532E+02 -0.40303670987E+02 -0.90722186787E+02  0.10374945356E+03  0.10000000000E+01 0.  0.
    9000005    1    3    3    0    0  0.30133835532E+02  0.40303670987E+02  0.62260196553E+00  0.50337079495E+02  0.10000000000E+01 0.  0.
<mgrwt>
<rscale>  0 0.12499890E+03</rscale>
<asrwt>0</asrwt>
<pdfrwt beam="1">  1        4 0.49220730E-02 0.12499890E+03</pdfrwt>
<pdfrwt beam="2">  1       -4 0.18783547E-01 0.12499890E+03</pdfrwt>
<totfact> 0.98497564E+03</totfact>
</mgrwt>
</event>
<event>
 5    1  0.3514886E-002  0.1250034E+03  0.7818608E-02  0.1235064E+00
          4   -1    0    0  501    0  0.00000000000E+00  0.00000000000E+00  0.11196858089E+03  0.11197578313E+03  0.12700000000E+01 0.  1.
         -4   -1    0    0    0  501 -0.00000000000E+00 -0.00000000000E+00 -0.34869011604E+02  0.34892131924E+02  0.12700000000E+01 0.  1.
         25    2    1    2    0    0  0.00000000000E+00  0.00000000000E+00  0.77099569290E+02  0.14686791505E+03  0.12500336350E+03 0.  0.
    9000005    1    3    3    0    0  0.47099736689E+02  0.23416044303E+01 -0.96300756107E+01  0.48141527435E+02  0.10000000000E+01 0.  0.
    9000005    1    3    3    0    0 -0.47099736689E+02 -0.23416044303E+01  0.86729644901E+02  0.98726387618E+02  0.10000000000E+01 0.  0.
<mgrwt>
<rscale>  0 0.12500336E+03</rscale>
<asrwt>0</asrwt>
<pdfrwt beam="1">  1        4 0.17228268E-01 0.12500336E+03</pdfrwt>
<pdfrwt beam="2">  1       -4 0.53667959E-02 0.12500336E+03</pdfrwt>
<totfact> 0.99924170E+03</totfact>
</mgrwt>
</event>
<event>
 5    1  0.3514886E-002  0.1249991E+03  0.7818608E-02  0.1235071E+00
         -4   -1    0    0    0  501 -0.00000000000E+00  0.00000000000E+00  0.81473347631E+02  0.81483245359E+02  0.12700000000E+01 0. -1.
          4   -1    0    0  501    0  0.00000000000E+00 -0.00000000000E+00 -0.47923240335E+02  0.47940065334E+02  0.12700000000E+01 0. -1.
         25    2    1    2    0    0  0.00000000000E+00  0.00000000000E+00  0.33550107296E+02  0.12942331069E+03  0.12499913460E+03 0.  0.
    9000005    1    3    3    0    0  0.16531286573E+02  0.35299935214E+02  0.67348782750E+02  0.77821766876E+02  0.10000000000E+01 0.  0.
    9000005    1    3    3    0    0 -0.16531286573E+02 -0.35299935214E+02 -0.33798675453E+02  0.51601543817E+02  0.10000000000E+01 0.  0.
<mgrwt>
<rscale>  0 0.12499913E+03</rscale>
<asrwt>0</asrwt>
<pdfrwt beam="2">  1        4 0.73748618E-02 0.12499913E+03</pdfrwt>
<pdfrwt beam="1">  1       -4 0.12536417E-01 0.12499913E+03</pdfrwt>
<totfact> 0.10357062E+04</totfact>
</mgrwt>
</event>
<event>
 5    1  0.3514886E-002  0.1250030E+03  0.7818608E-02  0.1235065E+00
         -4   -1    0    0    0  501 -0.00000000000E+00  0.00000000000E+00  0.15391895569E+02  0.15444201151E+02  0.12700000000E+01 0. -1.
          4   -1    0    0  501    0  0.00000000000E+00 -0.00000000000E+00 -0.25331391469E+03  0.25331709827E+03  0.12700000000E+01 0. -1.
         25    2    1    2    0    0  0.00000000000E+00  0.00000000000E+00 -0.23792201912E+03  0.26876129942E+03  0.12500299550E+03 0.  0.
    9000005    1    3    3    0    0 -0.45318295546E+02  0.42294572003E+02 -0.10191478207E+03  0.11929040840E+03  0.10000000000E+01 0.  0.
    9000005    1    3    3    0    0  0.45318295546E+02 -0.42294572003E+02 -0.13600723705E+03  0.14947089102E+03  0.10000000000E+01 0.  0.
<mgrwt>
<rscale>  0 0.12500300E+03</rscale>
<asrwt>0</asrwt>
<pdfrwt beam="2">  1        4 0.38975637E-01 0.12500300E+03</pdfrwt>
<pdfrwt beam="1">  1       -4 0.23722525E-02 0.12500300E+03</pdfrwt>
<totfact> 0.79686736E+03</totfact>
</mgrwt>
</event>
<event>
 5    1  0.3514886E-002  0.1250002E+03  0.7818608E-02  0.1235069E+00
         -4   -1    0    0    0  501 -0.00000000000E+00  0.00000000000E+00  0.29865048882E+02  0.29892039822E+02  0.12700000000E+01 0.  1.
          4   -1    0    0  501    0  0.00000000000E+00 -0.00000000000E+00 -0.13070798067E+03  0.13071415038E+03  0.12700000000E+01 0.  1.
         25    2    1    2    0    0  0.00000000000E+00  0.00000000000E+00 -0.10084293179E+03  0.16060619020E+03  0.12500020576E+03 0.  0.
    9000005    1    3    3    0    0  0.41717763059E+01  0.28150687120E+02  0.21062690797E+02  0.35418947563E+02  0.10000000000E+01 0.  0.
    9000005    1    3    3    0    0 -0.41717763059E+01 -0.28150687120E+02 -0.12190562258E+03  0.12518724264E+03  0.10000000000E+01 0.  0.
<mgrwt>
<rscale>  0 0.12500021E+03</rscale>
<asrwt>0</asrwt>
<pdfrwt beam="2">  1        4 0.20111471E-01 0.12500021E+03</pdfrwt>
<pdfrwt beam="1">  1       -4 0.45971738E-02 0.12500021E+03</pdfrwt>
<totfact> 0.97225594E+03</totfact>
</mgrwt>
</event>
<event>
 5    1  0.3514886E-002  0.1249999E+03  0.7818608E-02  0.1235069E+00
          4   -1    0    0  501    0  0.00000000000E+00  0.00000000000E+00  0.47775240906E+01  0.49434437830E+01  0.12700000000E+01 0. -1.
         -4   -1    0    0    0  501 -0.00000000000E+00 -0.00000000000E+00 -0.80350722232E+03  0.80350822599E+03  0.12700000000E+01 0. -1.
         25    2    1    2    0    0  0.00000000000E+00  0.00000000000E+00 -0.79872969823E+03  0.80845166977E+03  0.12499988605E+03 0.  0.
    9000005    1    3    3    0    0 -0.55363318759E+02 -0.65017530500E+00 -0.21194633438E+03  0.21906110666E+03  0.10000000000E+01 0.  0.
    9000005    1    3    3    0    0  0.55363318759E+02  0.65017530500E+00 -0.58678336385E+03  0.58939056311E+03  0.10000000000E+01 0.  0.
<mgrwt>
<rscale>  0 0.12499989E+03</rscale>
<asrwt>0</asrwt>
<pdfrwt beam="1">  1        4 0.74784460E-03 0.12499989E+03</pdfrwt>
<pdfrwt beam="2">  1       -4 0.12362923E+00 0.12499989E+03</pdfrwt>
<totfact> 0.37890318E+03</totfact>
</mgrwt>
</event>
<event>
 4    1  0.3514886E-002  0.1249219E+03  0.7818608E-02  0.1235191E+00
          4   -1    0    0  501    0  0.00000000000E+00  0.00000000000E+00  0.42665493410E+01  0.44515551529E+01  0.12700000000E+01 0. -1.
         -4   -1    0    0    0  501 -0.00000000000E+00 -0.00000000000E+00 -0.89481867064E+03  0.89481957189E+03  0.12700000000E+01 0. -1.
    9000005    1    1    2    0    0 -0.26870539569E+02  0.31224822699E+02 -0.10737133263E+03  0.11500703682E+03  0.10000000000E+01 0.  0.
    9000005    1    1    2    0    0  0.26870539569E+02 -0.31224822699E+02 -0.78318078868E+03  0.78426409022E+03  0.10000000000E+01 0.  0.
<mgrwt>
<rscale>  0 0.12492189E+03</rscale>
<asrwt>0</asrwt>
<pdfrwt beam="1">  1        4 0.67069346E-03 0.12492189E+03</pdfrwt>
<pdfrwt beam="2">  1       -4 0.13767856E+00 0.12492189E+03</pdfrwt>
<totfact> 0.34246226E+03</totfact>
</mgrwt>
</event>
<event>
 5    1  0.3514886E-002  0.1249524E+03  0.7818608E-02  0.1235144E+00
         -4   -1    0    0    0  501 -0.00000000000E+00  0.00000000000E+00  0.10630001739E+03  0.10630760366E+03  0.12700000000E+01 0. -1.
          4   -1    0    0  501    0  0.00000000000E+00 -0.00000000000E+00 -0.36699526201E+02  0.36721494024E+02  0.12700000000E+01 0. -1.
         25    2    1    2    0    0  0.00000000000E+00  0.00000000000E+00  0.69600491187E+02  0.14302909769E+03  0.12495236857E+03 0.  0.
    9000005    1    3    3    0    0 -0.22532728684E+02  0.54237624872E+02  0.59158569455E+02  0.83367740486E+02  0.10000000000E+01 0.  0.
    9000005    1    3    3    0    0  0.22532728684E+02 -0.54237624872E+02  0.10441921731E+02  0.59661357202E+02  0.10000000000E+01 0.  0.
<mgrwt>
<rscale>  0 0.12495237E+03</rscale>
<asrwt>0</asrwt>
<pdfrwt beam="2">  1        4 0.56483544E-02 0.12495237E+03</pdfrwt>
<pdfrwt beam="1">  1       -4 0.16356122E-01 0.12495237E+03</pdfrwt>
<totfact> 0.10081999E+04</totfact>
</mgrwt>
</event>
<event>
 5    1  0.3514886E-002  0.1249983E+03  0.7818608E-02  0.1235072E+00
          4   -1    0    0  501    0  0.00000000000E+00  0.00000000000E+00  0.24373641133E+03  0.24373972000E+03  0.12700000000E+01 0. -1.
         -4   -1    0    0    0  501 -0.00000000000E+00 -0.00000000000E+00 -0.15997505742E+02  0.16047837548E+02  0.12700000000E+01 0. -1.
         25    2    1    2    0    0  0.00000000000E+00  0.00000000000E+00  0.22773890558E+03  0.25978755755E+03  0.12499826375E+03 0.  0.
    9000005    1    3    3    0    0  0.39391171119E+02  0.96899513946E+01  0.21266296290E+03  0.21649964275E+03  0.10000000000E+01 0.  0.
    9000005    1    3    3    0    0 -0.39391171119E+02 -0.96899513946E+01  0.15075942684E+02  0.43287914802E+02  0.10000000000E+01 0.  0.
<mgrwt>
<rscale>  0 0.12499826E+03</rscale>
<asrwt>0</asrwt>
<pdfrwt beam="1">  1        4 0.37502034E-01 0.12499826E+03</pdfrwt>
<pdfrwt beam="2">  1       -4 0.24652810E-02 0.12499826E+03</pdfrwt>
<totfact> 0.80939012E+03</totfact>
</mgrwt>
</event>
<event>
 5    1  0.3514886E-002  0.1250024E+03  0.7818608E-02  0.1235065E+00
         -4   -1    0    0    0  501 -0.00000000000E+00  0.00000000000E+00  0.86013999935E+03  0.86014093693E+03  0.12700000000E+01 0.  1.
          4   -1    0    0  501    0  0.00000000000E+00 -0.00000000000E+00 -0.44518463462E+01  0.46294530876E+01  0.12700000000E+01 0.  1.
         25    2    1    2    0    0  0.00000000000E+00  0.00000000000E+00  0.85568815300E+03  0.86477039001E+03  0.12500244901E+03 0.  0.
    9000005    1    3    3    0    0  0.61275888110E+02 -0.89813024338E+01  0.48572643549E+03  0.48965964546E+03  0.10000000000E+01 0.  0.
    9000005    1    3    3    0    0 -0.61275888110E+02  0.89813024338E+01  0.36996171751E+03  0.37511074456E+03  0.10000000000E+01 0.  0.
<mgrwt>
<rscale>  0 0.12500245E+03</rscale>
<asrwt>0</asrwt>
<pdfrwt beam="2">  1        4 0.69863387E-03 0.12500245E+03</pdfrwt>
<pdfrwt beam="1">  1       -4 0.13234292E+00 0.12500245E+03</pdfrwt>
<totfact> 0.35528526E+03</totfact>
</mgrwt>
</event>
<event>
 5    1  0.3514886E-002  0.1249954E+03  0.7818608E-02  0.1235077E+00
         -4   -1    0    0    0  501 -0.00000000000E+00  0.00000000000E+00  0.32045851468E+02  0.32071007098E+02  0.12700000000E+01 0. -1.
          4   -1    0    0  501    0  0.00000000000E+00 -0.00000000000E+00 -0.12181032714E+03  0.12181694749E+03  0.12700000000E+01 0. -1.
         25    2    1    2    0    0  0.00000000000E+00  0.00000000000E+00 -0.89764475668E+02  0.15388795459E+03  0.12499536582E+03 0.  0.
    9000005    1    3    3    0    0  0.26226866114E+02 -0.20403776867E+02 -0.11003781406E+03  0.11494991579E+03  0.10000000000E+01 0.  0.
    9000005    1    3    3    0    0 -0.26226866114E+02  0.20403776867E+02  0.20273338391E+02  0.38938038806E+02  0.10000000000E+01 0.  0.
<mgrwt>
<rscale>  0 0.12499537E+03</rscale>
<asrwt>0</asrwt>
<pdfrwt beam="2">  1        4 0.18742494E-01 0.12499537E+03</pdfrwt>
<pdfrwt beam="1">  1       -4 0.49325754E-02 0.12499537E+03</pdfrwt>
<totfact> 0.98544522E+03</totfact>
</mgrwt>
</event>
<event>
 5    1  0.3514886E-002  0.1249993E+03  0.7818608E-02  0.1235070E+00
          4   -1    0    0  501    0  0.00000000000E+00  0.00000000000E+00  0.35764915123E+03  0.35765140609E+03  0.12700000000E+01 0.  1.
         -4   -1    0    0    0  501 -0.00000000000E+00 -0.00000000000E+00 -0.10882670269E+02  0.10956523727E+02  0.12700000000E+01 0.  1.
         25    2    1    2    0    0  0.00000000000E+00  0.00000000000E+00  0.34676648096E+03  0.36860792982E+03  0.12499925441E+03 0.  0.
    9000005    1    3    3    0    0 -0.38152873918E+02 -0.51547076396E+01  0.28227867463E+02  0.47749610475E+02  0.10000000000E+01 0.  0.
    9000005    1    3    3    0    0  0.38152873918E+02  0.51547076396E+01  0.31853861350E+03  0.32085831934E+03  0.10000000000E+01 0.  0.
<mgrwt>
<rscale>  0 0.12499925E+03</rscale>
<asrwt>0</asrwt>
<pdfrwt beam="1">  1        4 0.55028788E-01 0.12499925E+03</pdfrwt>
<pdfrwt beam="2">  1       -4 0.16801118E-02 0.12499925E+03</pdfrwt>
<totfact> 0.67725948E+03</totfact>
</mgrwt>
</event>
<event>
 5    1  0.3514886E-002  0.1250004E+03  0.7818608E-02  0.1235069E+00
         -4   -1    0    0    0  501 -0.00000000000E+00  0.00000000000E+00  0.10129517735E+03  0.10130313842E+03  0.12700000000E+01 0.  1.
          4   -1    0    0  501    0  0.00000000000E+00 -0.00000000000E+00 -0.38543368810E+02  0.38564286318E+02  0.12700000000E+01 0.  1.
         25    2    1    2    0    0  0.00000000000E+00  0.00000000000E+00  0.62751808541E+02  0.13986742474E+03  0.12500042811E+03 0.  0.
    9000005    1    3    3    0    0  0.39775943270E+02 -0.47613129414E+02  0.22992022290E+02  0.66172266431E+02  0.10000000000E+01 0.  0.
    9000005    1    3    3    0    0 -0.39775943270E+02  0.47613129414E+02  0.39759786251E+02  0.73695158310E+02  0.10000000000E+01 0.  0.
<mgrwt>
<rscale>  0 0.12500043E+03</rscale>
<asrwt>0</asrwt>
<pdfrwt beam="2">  1        4 0.59319706E-02 0.12500043E+03</pdfrwt>
<pdfrwt beam="1">  1       -4 0.15586095E-01 0.12500043E+03</pdfrwt>
<totfact> 0.10136236E+04</totfact>
</mgrwt>
</event>
<event>
 4    1  0.3514886E-002  0.1249278E+03  0.7818608E-02  0.1235182E+00
          4   -1    0    0  501    0  0.00000000000E+00  0.00000000000E+00  0.80567327718E+02  0.80577336737E+02  0.12700000000E+01 0. -1.
         -4   -1    0    0    0  501 -0.00000000000E+00 -0.00000000000E+00 -0.48406973183E+02  0.48423630107E+02  0.12700000000E+01 0. -1.
    9000005    1    1    2    0    0  0.56466671545E+02  0.16178470415E+02 -0.58371275432E+01  0.59036429078E+02  0.10000000000E+01 0.  0.
    9000005    1    1    2    0    0 -0.56466671545E+02 -0.16178470415E+02  0.37997482079E+02  0.69964537765E+02  0.10000000000E+01 0.  0.
<mgrwt>
<rscale>  0 0.12492782E+03</rscale>
<asrwt>0</asrwt>
<pdfrwt beam="1">  1        4 0.12397025E-01 0.12492782E+03</pdfrwt>
<pdfrwt beam="2">  1       -4 0.74492779E-02 0.12492782E+03</pdfrwt>
<totfact> 0.10382834E+04</totfact>
</mgrwt>
</event>
<event>
 5    1  0.3514886E-002  0.1249958E+03  0.7818608E-02  0.1235076E+00
          4   -1    0    0  501    0  0.00000000000E+00  0.00000000000E+00  0.20699501259E+03  0.20699890854E+03  0.12700000000E+01 0. -1.
         -4   -1    0    0    0  501 -0.00000000000E+00 -0.00000000000E+00 -0.18844519664E+02  0.18887266116E+02  0.12700000000E+01 0. -1.
         25    2    1    2    0    0  0.00000000000E+00  0.00000000000E+00  0.18815049293E+03  0.22588617466E+03  0.12499582358E+03 0.  0.
    9000005    1    3    3    0    0 -0.47834460149E+02  0.11383508182E+02  0.16376820995E+03  0.17099341048E+03  0.10000000000E+01 0.  0.
    9000005    1    3    3    0    0  0.47834460149E+02 -0.11383508182E+02  0.24382282977E+02  0.54892764181E+02  0.10000000000E+01 0.  0.
<mgrwt>
<rscale>  0 0.12499582E+03</rscale>
<asrwt>0</asrwt>
<pdfrwt beam="1">  1        4 0.31848974E-01 0.12499582E+03</pdfrwt>
<pdfrwt beam="2">  1       -4 0.29027448E-02 0.12499582E+03</pdfrwt>
<totfact> 0.85953319E+03</totfact>
</mgrwt>
</event>
<event>
 5    1  0.3514886E-002  0.1249997E+03  0.7818608E-02  0.1235070E+00
         -4   -1    0    0    0  501 -0.00000000000E+00  0.00000000000E+00  0.10335884210E+03  0.10336664424E+03  0.12700000000E+01 0.  1.
          4   -1    0    0  501    0  0.00000000000E+00 -0.00000000000E+00 -0.37772991279E+02  0.37794335159E+02  0.12700000000E+01 0.  1.
         25    2    1    2    0    0  0.00000000000E+00  0.00000000000E+00  0.65585850825E+02  0.14116097940E+03  0.12499967310E+03 0.  0.
    9000005    1    3    3    0    0  0.65705092750E+01  0.25735351571E+02 -0.31086909662E+02  0.40900805187E+02  0.10000000000E+01 0.  0.
    9000005    1    3    3    0    0 -0.65705092750E+01 -0.25735351571E+02  0.96672760486E+02  0.10026017421E+03  0.10000000000E+01 0.  0.
<mgrwt>
<rscale>  0 0.12499967E+03</rscale>
<asrwt>0</asrwt>
<pdfrwt beam="2">  1        4 0.58134715E-02 0.12499967E+03</pdfrwt>
<pdfrwt beam="1">  1       -4 0.15903602E-01 0.12499967E+03</pdfrwt>
<totfact> 0.10109655E+04</totfact>
</mgrwt>
</event>
<event>
 5    1  0.3514886E-002  0.1249992E+03  0.7818608E-02  0.1235071E+00
         -4   -1    0    0    0  501 -0.00000000000E+00  0.00000000000E+00  0.47440460189E+03  0.47440630181E+03  0.12700000000E+01 0.  1.
          4   -1    0    0  501    0  0.00000000000E+00 -0.00000000000E+00 -0.81832050849E+01  0.82811681218E+01  0.12700000000E+01 0.  1.
         25    2    1    2    0    0  0.00000000000E+00  0.00000000000E+00  0.46622139681E+03  0.48268746993E+03  0.12499921115E+03 0.  0.
    9000005    1    3    3    0    0 -0.28837298624E+02  0.31365936956E+02  0.56584177348E+02  0.70839119977E+02  0.10000000000E+01 0.  0.
    9000005    1    3    3    0    0  0.28837298624E+02 -0.31365936956E+02  0.40963721946E+03  0.41184834995E+03  0.10000000000E+01 0.  0.
<mgrwt>
<rscale>  0 0.12499921E+03</rscale>
<asrwt>0</asrwt>
<pdfrwt beam="2">  1        4 0.12666209E-02 0.12499921E+03</pdfrwt>
<pdfrwt beam="1">  1       -4 0.72992999E-01 0.12499921E+03</pdfrwt>
<totfact> 0.57234065E+03</totfact>
</mgrwt>
</event>
<event>
 5    1  0.3514886E-002  0.1249973E+03  0.7818608E-02  0.1235074E+00
          4   -1    0    0  501    0  0.00000000000E+00  0.00000000000E+00  0.30599953181E+02  0.30626296458E+02  0.12700000000E+01 0. -1.
         -4   -1    0    0    0  501 -0.00000000000E+00 -0.00000000000E+00 -0.12756548121E+03  0.12757180291E+03  0.12700000000E+01 0. -1.
         25    2    1    2    0    0  0.00000000000E+00  0.00000000000E+00 -0.96965528032E+02  0.15819809937E+03  0.12499730004E+03 0.  0.
    9000005    1    3    3    0    0 -0.53164764006E+02 -0.67203474193E+01 -0.89168327214E+02  0.10403675206E+03  0.10000000000E+01 0.  0.
    9000005    1    3    3    0    0  0.53164764006E+02  0.67203474193E+01 -0.77972008184E+01  0.54161347305E+02  0.10000000000E+01 0.  0.
<mgrwt>
<rscale>  0 0.12499730E+03</rscale>
<asrwt>0</asrwt>
<pdfrwt beam="1">  1        4 0.47101979E-02 0.12499730E+03</pdfrwt>
<pdfrwt beam="2">  1       -4 0.19627971E-01 0.12499730E+03</pdfrwt>
<totfact> 0.97697236E+03</totfact>
</mgrwt>
</event>
<event>
 5    1  0.3514886E-002  0.1249965E+03  0.7818608E-02  0.1235075E+00
         -4   -1    0    0    0  501 -0.00000000000E+00  0.00000000000E+00  0.26347462073E+02  0.26378052576E+02  0.12700000000E+01 0.  1.
          4   -1    0    0  501    0  0.00000000000E+00 -0.00000000000E+00 -0.14813132520E+03  0.14813676925E+03  0.12700000000E+01 0.  1.
         25    2    1    2    0    0  0.00000000000E+00  0.00000000000E+00 -0.12178386313E+03  0.17451482183E+03  0.12499645483E+03 0.  0.
    9000005    1    3    3    0    0 -0.38314136163E+02 -0.61568018923E+01  0.74934461837E+01  0.39535186545E+02  0.10000000000E+01 0.  0.
    9000005    1    3    3    0    0  0.38314136163E+02  0.61568018923E+01 -0.12927730931E+03  0.13497963529E+03  0.10000000000E+01 0.  0.
<mgrwt>
<rscale>  0 0.12499645E+03</rscale>
<asrwt>0</asrwt>
<pdfrwt beam="2">  1        4 0.22792206E-01 0.12499645E+03</pdfrwt>
<pdfrwt beam="1">  1       -4 0.40562277E-02 0.12499645E+03</pdfrwt>
<totfact> 0.94621300E+03</totfact>
</mgrwt>
</event>
<event>
 5    1  0.3514886E-002  0.1250019E+03  0.7818608E-02  0.1235066E+00
         -4   -1    0    0    0  501 -0.00000000000E+00  0.00000000000E+00  0.28636023683E+02  0.28664171929E+02  0.12700000000E+01 0. -1.
          4   -1    0    0  501    0  0.00000000000E+00 -0.00000000000E+00 -0.13631636681E+03  0.13632228270E+03  0.12700000000E+01 0. -1.
         25    2    1    2    0    0  0.00000000000E+00  0.00000000000E+00 -0.10768034313E+03  0.16498645463E+03  0.12500189564E+03 0.  0.
    9000005    1    3    3    0    0 -0.15559214688E+02  0.28773193036E+02  0.16440763673E+02  0.36623551294E+02  0.10000000000E+01 0.  0.
    9000005    1    3    3    0    0  0.15559214688E+02 -0.28773193036E+02 -0.12412110680E+03  0.12836290333E+03  0.10000000000E+01 0.  0.
<mgrwt>
<rscale>  0 0.12500190E+03</rscale>
<asrwt>0</asrwt>
<pdfrwt beam="2">  1        4 0.20974369E-01 0.12500190E+03</pdfrwt>
<pdfrwt beam="1">  1       -4 0.44081625E-02 0.12500190E+03</pdfrwt>
<totfact> 0.96385853E+03</totfact>
</mgrwt>
</event>
<event>
 5    1  0.3514886E-002  0.1249999E+03  0.7818608E-02  0.1235069E+00
          4   -1    0    0  501    0  0.00000000000E+00  0.00000000000E+00  0.10345113640E+03  0.10345893158E+03  0.12700000000E+01 0.  1.
         -4   -1    0    0    0  501 -0.00000000000E+00 -0.00000000000E+00 -0.37739401750E+02  0.37760764617E+02  0.12700000000E+01 0.  1.
         25    2    1    2    0    0  0.00000000000E+00  0.00000000000E+00  0.65711734651E+02  0.14121969619E+03  0.12499988209E+03 0.  0.
    9000005    1    3    3    0    0  0.44228571752E+01  0.17522929544E+02 -0.34728140361E+02  0.39161951666E+02  0.10000000000E+01 0.  0.
    9000005    1    3    3    0    0 -0.44228571752E+01 -0.17522929544E+02  0.10043987501E+03  0.10205774453E+03  0.10000000000E+01 0.  0.
<mgrwt>
<rscale>  0 0.12499988E+03</rscale>
<asrwt>0</asrwt>
<pdfrwt beam="1">  1        4 0.15917802E-01 0.12499988E+03</pdfrwt>
<pdfrwt beam="2">  1       -4 0.58083048E-02 0.12499988E+03</pdfrwt>
<totfact> 0.10108396E+04</totfact>
</mgrwt>
</event>
<event>
 5    1  0.3514886E-002  0.1249925E+03  0.7818608E-02  0.1235081E+00
         -4   -1    0    0    0  501 -0.00000000000E+00  0.00000000000E+00  0.14292686867E+02  0.14348999891E+02  0.12700000000E+01 0.  1.
          4   -1    0    0  501    0  0.00000000000E+00 -0.00000000000E+00 -0.27267607283E+03  0.27267903036E+03  0.12700000000E+01 0.  1.
         25    2    1    2    0    0  0.00000000000E+00  0.00000000000E+00 -0.25838338597E+03  0.28702803025E+03  0.12499246379E+03 0.  0.
    9000005    1    3    3    0    0  0.11693134081E+02  0.58931274797E+02 -0.16864334213E+03  0.17902849321E+03  0.10000000000E+01 0.  0.
    9000005    1    3    3    0    0 -0.11693134081E+02 -0.58931274797E+02 -0.89740043834E+02  0.10799953704E+03  0.10000000000E+01 0.  0.
<mgrwt>
<rscale>  0 0.12499246E+03</rscale>
<asrwt>0</asrwt>
<pdfrwt beam="2">  1        4 0.41954720E-01 0.12499246E+03</pdfrwt>
<pdfrwt beam="1">  1       -4 0.22034344E-02 0.12499246E+03</pdfrwt>
<totfact> 0.77268312E+03</totfact>
</mgrwt>
</event>
<event>
 5    1  0.3514886E-002  0.1250052E+03  0.7818608E-02  0.1235061E+00
          4   -1    0    0  501    0  0.00000000000E+00  0.00000000000E+00  0.24107952340E+02  0.24141380781E+02  0.12700000000E+01 0.  1.
         -4   -1    0    0    0  501 -0.00000000000E+00 -0.00000000000E+00 -0.16189690797E+03  0.16190188915E+03  0.12700000000E+01 0.  1.
         25    2    1    2    0    0  0.00000000000E+00  0.00000000000E+00 -0.13778895563E+03  0.18604326993E+03  0.12500520786E+03 0.  0.
    9000005    1    3    3    0    0 -0.57878509681E+02 -0.13123705637E+02 -0.98036813224E+02  0.11460528033E+03  0.10000000000E+01 0.  0.
    9000005    1    3    3    0    0  0.57878509681E+02  0.13123705637E+02 -0.39752142410E+02  0.71437989604E+02  0.10000000000E+01 0.  0.
<mgrwt>
<rscale>  0 0.12500521E+03</rscale>
<asrwt>0</asrwt>
<pdfrwt beam="1">  1        4 0.37118704E-02 0.12500521E+03</pdfrwt>
<pdfrwt beam="2">  1       -4 0.24910171E-01 0.12500521E+03</pdfrwt>
<totfact> 0.92529569E+03</totfact>
</mgrwt>
</event>
<event>
 5    1  0.3514886E-002  0.1250012E+03  0.7818608E-02  0.1235067E+00
         -4   -1    0    0    0  501 -0.00000000000E+00  0.00000000000E+00  0.49588671708E+02  0.49604931829E+02  0.12700000000E+01 0. -1.
          4   -1    0    0  501    0  0.00000000000E+00 -0.00000000000E+00 -0.78740311553E+02  0.78750552782E+02  0.12700000000E+01 0. -1.
         25    2    1    2    0    0  0.00000000000E+00  0.00000000000E+00 -0.29151639845E+02  0.12835548461E+03  0.12500124929E+03 0.  0.
    9000005    1    3    3    0    0  0.26688905938E+01  0.52039486783E+02  0.20847661609E+02  0.56132487529E+02  0.10000000000E+01 0.  0.
    9000005    1    3    3    0    0 -0.26688905938E+01 -0.52039486783E+02 -0.49999301454E+02  0.72222997082E+02  0.10000000000E+01 0.  0.
<mgrwt>
<rscale>  0 0.12500125E+03</rscale>
<asrwt>0</asrwt>
<pdfrwt beam="2">  1        4 0.12115933E-01 0.12500125E+03</pdfrwt>
<pdfrwt beam="1">  1       -4 0.76310650E-02 0.12500125E+03</pdfrwt>
<totfact> 0.10379525E+04</totfact>
</mgrwt>
</event>
<event>
 5    1  0.3514886E-002  0.1249992E+03  0.7818608E-02  0.1235070E+00
          4   -1    0    0  501    0  0.00000000000E+00  0.00000000000E+00  0.11648716703E+03  0.11649408990E+03  0.12700000000E+01 0.  1.
         -4   -1    0    0    0  501 -0.00000000000E+00 -0.00000000000E+00 -0.33513383996E+02  0.33537438883E+02  0.12700000000E+01 0.  1.
         25    2    1    2    0    0  0.00000000000E+00  0.00000000000E+00  0.82973783029E+02  0.15003152878E+03  0.12499924383E+03 0.  0.
    9000005    1    3    3    0    0  0.64809161913E+01 -0.84727071632E+01 -0.32418434355E+02  0.34142992361E+02  0.10000000000E+01 0.  0.
    9000005    1    3    3    0    0 -0.64809161913E+01  0.84727071632E+01  0.11539221738E+03  0.11588853642E+03  0.10000000000E+01 0.  0.
<mgrwt>
<rscale>  0 0.12499924E+03</rscale>
<asrwt>0</asrwt>
<pdfrwt beam="1">  1        4 0.17923486E-01 0.12499924E+03</pdfrwt>
<pdfrwt beam="2">  1       -4 0.51582881E-02 0.12499924E+03</pdfrwt>
<totfact> 0.99299103E+03</totfact>
</mgrwt>
</event>
<event>
 5    1  0.3514886E-002  0.1250010E+03  0.7818608E-02  0.1235068E+00
         -4   -1    0    0    0  501 -0.00000000000E+00  0.00000000000E+00  0.37663266809E+03  0.37663480929E+03  0.12700000000E+01 0. -1.
          4   -1    0    0  501    0  0.00000000000E+00 -0.00000000000E+00 -0.10330616497E+02  0.10408387830E+02  0.12700000000E+01 0. -1.
         25    2    1    2    0    0  0.00000000000E+00  0.00000000000E+00  0.36630205159E+03  0.38704319712E+03  0.12500097375E+03 0.  0.
    9000005    1    3    3    0    0 -0.41792000943E+02  0.14044885713E+02  0.32028278966E+03  0.32330464814E+03  0.10000000000E+01 0.  0.
    9000005    1    3    3    0    0  0.41792000943E+02 -0.14044885713E+02  0.46019261928E+02  0.63738548979E+02  0.10000000000E+01 0.  0.
<mgrwt>
<rscale>  0 0.12500097E+03</rscale>
<asrwt>0</asrwt>
<pdfrwt beam="2">  1        4 0.15954731E-02 0.12500097E+03</pdfrwt>
<pdfrwt beam="1">  1       -4 0.57949621E-01 0.12500097E+03</pdfrwt>
<totfact> 0.65831357E+03</totfact>
</mgrwt>
</event>
<event>
 5    1  0.3514886E-002  0.1249998E+03  0.7818608E-02  0.1235070E+00
          4   -1    0    0  501    0  0.00000000000E+00  0.00000000000E+00  0.72154637355E+01  0.73263781583E+01  0.12700000000E+01 0.  1.
         -4   -1    0    0    0  501 -0.00000000000E+00 -0.00000000000E+00 -0.53712968929E+03  0.53713119069E+03  0.12700000000E+01 0.  1.
         25    2    1    2    0    0  0.00000000000E+00  0.00000000000E+00 -0.52991422555E+03  0.54445756885E+03  0.12499983134E+03 0.  0.
    9000005    1    3    3    0    0 -0.31730352347E+01 -0.56016799175E+02 -0.14509399088E+03  0.15556740061E+03  0.10000000000E+01 0.  0.
    9000005    1    3    3    0    0  0.31730352347E+01  0.56016799175E+02 -0.38482023467E+03  0.38889016824E+03  0.10000000000E+01 0.  0.
<mgrwt>
<rscale>  0 0.12499983E+03</rscale>
<asrwt>0</asrwt>
<pdfrwt beam="1">  1        4 0.11187191E-02 0.12499983E+03</pdfrwt>
<pdfrwt beam="2">  1       -4 0.82643953E-01 0.12499983E+03</pdfrwt>
<totfact> 0.52572999E+03</totfact>
</mgrwt>
</event>
<event>
 5    1  0.3514886E-002  0.1250002E+03  0.7818608E-02  0.1235069E+00
          4   -1    0    0  501    0  0.00000000000E+00  0.00000000000E+00  0.10553132550E+02  0.10629275921E+02  0.12700000000E+01 0.  1.
         -4   -1    0    0    0  501 -0.00000000000E+00 -0.00000000000E+00 -0.36874411644E+03  0.36874630345E+03  0.12700000000E+01 0.  1.
         25    2    1    2    0    0  0.00000000000E+00  0.00000000000E+00 -0.35819098389E+03  0.37937557937E+03  0.12500019714E+03 0.  0.
    9000005    1    3    3    0    0 -0.80614739250E+01 -0.54193206471E+02 -0.27031586117E+03  0.27581435023E+03  0.10000000000E+01 0.  0.
    9000005    1    3    3    0    0  0.80614739250E+01  0.54193206471E+02 -0.87875122716E+02  0.10356122914E+03  0.10000000000E+01 0.  0.
<mgrwt>
<rscale>  0 0.12500020E+03</rscale>
<asrwt>0</asrwt>
<pdfrwt beam="1">  1        4 0.16295845E-02 0.12500020E+03</pdfrwt>
<pdfrwt beam="2">  1       -4 0.56735880E-01 0.12500020E+03</pdfrwt>
<totfact> 0.66609064E+03</totfact>
</mgrwt>
</event>
<event>
 5    1  0.3514886E-002  0.1250014E+03  0.7818608E-02  0.1235067E+00
          4   -1    0    0  501    0  0.00000000000E+00  0.00000000000E+00  0.10444460371E+02  0.10521390234E+02  0.12700000000E+01 0.  1.
         -4   -1    0    0    0  501 -0.00000000000E+00 -0.00000000000E+00 -0.37256012066E+03  0.37256228527E+03  0.12700000000E+01 0.  1.
         25    2    1    2    0    0  0.00000000000E+00  0.00000000000E+00 -0.36211566029E+03  0.38308367550E+03  0.12500140404E+03 0.  0.
    9000005    1    3    3    0    0 -0.26511994197E+02 -0.19870938833E+02 -0.34344293646E+03  0.34503882485E+03  0.10000000000E+01 0.  0.
    9000005    1    3    3    0    0  0.26511994197E+02  0.19870938833E+02 -0.18672723826E+02  0.38044850657E+02  0.10000000000E+01 0.  0.
<mgrwt>
<rscale>  0 0.12500140E+03</rscale>
<asrwt>0</asrwt>
<pdfrwt beam="1">  1        4 0.16129245E-02 0.12500140E+03</pdfrwt>
<pdfrwt beam="2">  1       -4 0.57323016E-01 0.12500140E+03</pdfrwt>
<totfact> 0.66229939E+03</totfact>
</mgrwt>
</event>
<event>
 5    1  0.3514886E-002  0.1250002E+03  0.7818608E-02  0.1235069E+00
         -4   -1    0    0    0  501 -0.00000000000E+00  0.00000000000E+00  0.53286632602E+02  0.53301764643E+02  0.12700000000E+01 0.  1.
          4   -1    0    0  501    0  0.00000000000E+00 -0.00000000000E+00 -0.73275547073E+02  0.73286551965E+02  0.12700000000E+01 0.  1.
         25    2    1    2    0    0  0.00000000000E+00  0.00000000000E+00 -0.19988914471E+02  0.12658831661E+03  0.12500018080E+03 0.  0.
    9000005    1    3    3    0    0  0.37259698624E+02  0.47030123107E+02 -0.27684756198E+02  0.66087543052E+02  0.10000000000E+01 0.  0.
    9000005    1    3    3    0    0 -0.37259698624E+02 -0.47030123107E+02  0.76958417265E+01  0.60500773556E+02  0.10000000000E+01 0.  0.
<mgrwt>
<rscale>  0 0.12500018E+03</rscale>
<asrwt>0</asrwt>
<pdfrwt beam="2">  1        4 0.11275172E-01 0.12500018E+03</pdfrwt>
<pdfrwt beam="1">  1       -4 0.81999540E-02 0.12500018E+03</pdfrwt>
<totfact> 0.10418060E+04</totfact>
</mgrwt>
</event>
<event>
 5    1  0.3514886E-002  0.1250025E+03  0.7818608E-02  0.1235065E+00
          4   -1    0    0  501    0  0.00000000000E+00  0.00000000000E+00  0.34283760134E+02  0.34307274869E+02  0.12700000000E+01 0. -1.
         -4   -1    0    0    0  501 -0.00000000000E+00 -0.00000000000E+00 -0.11387717052E+03  0.11388425205E+03  0.12700000000E+01 0. -1.
         25    2    1    2    0    0  0.00000000000E+00  0.00000000000E+00 -0.79593410386E+02  0.14819152692E+03  0.12500247067E+03 0.  0.
    9000005    1    3    3    0    0  0.58872203127E+02  0.52182476238E+01 -0.15726555448E+02  0.61167728056E+02  0.10000000000E+01 0.  0.
    9000005    1    3    3    0    0 -0.58872203127E+02 -0.52182476238E+01 -0.63866854938E+02  0.87023798865E+02  0.10000000000E+01 0.  0.
<mgrwt>
<rscale>  0 0.12500247E+03</rscale>
<asrwt>0</asrwt>
<pdfrwt beam="1">  1        4 0.52767783E-02 0.12500247E+03</pdfrwt>
<pdfrwt beam="2">  1       -4 0.17521918E-01 0.12500247E+03</pdfrwt>
<totfact> 0.99659876E+03</totfact>
</mgrwt>
</event>
<event>
 5    1  0.3514886E-002  0.1250015E+03  0.7818608E-02  0.1235067E+00
          4   -1    0    0  501    0  0.00000000000E+00  0.00000000000E+00  0.13886013743E+01  0.18817847318E+01  0.12700000000E+01 0.  1.
         -4   -1    0    0    0  501 -0.00000000000E+00 -0.00000000000E+00 -0.23884243693E+04  0.23884247069E+04  0.12700000000E+01 0.  1.
         25    2    1    2    0    0  0.00000000000E+00  0.00000000000E+00 -0.23870357679E+04  0.23903064916E+04  0.12500146726E+03 0.  0.
    9000005    1    3    3    0    0 -0.47997231551E+02 -0.51448072640E+01 -0.19524411086E+04  0.19530380144E+04  0.10000000000E+01 0.  0.
    9000005    1    3    3    0    0  0.47997231551E+02  0.51448072640E+01 -0.43459465931E+03  0.43726847723E+03  0.10000000000E+01 0.  0.
<mgrwt>
<rscale>  0 0.12500147E+03</rscale>
<asrwt>0</asrwt>
<pdfrwt beam="1">  1        4 0.25159605E-03 0.12500147E+03</pdfrwt>
<pdfrwt beam="2">  1       -4 0.36748507E+00 0.12500147E+03</pdfrwt>
<totfact> 0.55893127E+02</totfact>
</mgrwt>
</event>
<event>
 5    1  0.3514886E-002  0.1250041E+03  0.7818608E-02  0.1235063E+00
         -4   -1    0    0    0  501 -0.00000000000E+00  0.00000000000E+00  0.82921876308E+02  0.82931601157E+02  0.12700000000E+01 0. -1.
          4   -1    0    0  501    0  0.00000000000E+00 -0.00000000000E+00 -0.47089643673E+02  0.47106766407E+02  0.12700000000E+01 0. -1.
         25    2    1    2    0    0  0.00000000000E+00  0.00000000000E+00  0.35832232634E+02  0.13003836756E+03  0.12500411250E+03 0.  0.
    9000005    1    3    3    0    0  0.57805935932E+02  0.65860990443E+01  0.41651759383E+02  0.71559569515E+02  0.10000000000E+01 0.  0.
    9000005    1    3    3    0    0 -0.57805935932E+02 -0.65860990443E+01 -0.58195267483E+01  0.58478798048E+02  0.10000000000E+01 0.  0.
<mgrwt>
<rscale>  0 0.12500411E+03</rscale>
<asrwt>0</asrwt>
<pdfrwt beam="2">  1        4 0.72466258E-02 0.12500411E+03</pdfrwt>
<pdfrwt beam="1">  1       -4 0.12759277E-01 0.12500411E+03</pdfrwt>
<totfact> 0.10342727E+04</totfact>
</mgrwt>
</event>
<event>
 5    1  0.3514886E-002  0.1250002E+03  0.7818608E-02  0.1235069E+00
         -4   -1    0    0    0  501 -0.00000000000E+00  0.00000000000E+00  0.82572477523E+03  0.82572575189E+03  0.12700000000E+01 0. -1.
          4   -1    0    0  501    0  0.00000000000E+00 -0.00000000000E+00 -0.46444773839E+01  0.48149839220E+01  0.12700000000E+01 0. -1.
         25    2    1    2    0    0  0.00000000000E+00  0.00000000000E+00  0.82108029785E+03  0.83054073581E+03  0.12500023331E+03 0.  0.
    9000005    1    3    3    0    0  0.37415776293E+01  0.53480276712E+02  0.19718368193E+03  0.20434417980E+03  0.10000000000E+01 0.  0.
    9000005    1    3    3    0    0 -0.37415776293E+01 -0.53480276712E+02  0.62389661592E+03  0.62619655601E+03  0.10000000000E+01 0.  0.
<mgrwt>
<rscale>  0 0.12500023E+03</rscale>
<asrwt>0</asrwt>
<pdfrwt beam="2">  1        4 0.72772555E-03 0.12500023E+03</pdfrwt>
<pdfrwt beam="1">  1       -4 0.12704785E+00 0.12500023E+03</pdfrwt>
<totfact> 0.36936897E+03</totfact>
</mgrwt>
</event>
<event>
 5    1  0.3514886E-002  0.1250011E+03  0.7818608E-02  0.1235068E+00
         -4   -1    0    0    0  501 -0.00000000000E+00  0.00000000000E+00  0.27929446270E+03  0.27929735014E+03  0.12700000000E+01 0.  1.
          4   -1    0    0  501    0  0.00000000000E+00 -0.00000000000E+00 -0.13954575185E+02  0.14012247092E+02  0.12700000000E+01 0.  1.
         25    2    1    2    0    0  0.00000000000E+00  0.00000000000E+00  0.26533988752E+03  0.29330959724E+03  0.12500105568E+03 0.  0.
    9000005    1    3    3    0    0  0.39425963930E+02 -0.21974767872E+02  0.31254702372E+02  0.54910413176E+02  0.10000000000E+01 0.  0.
    9000005    1    3    3    0    0 -0.39425963930E+02  0.21974767872E+02  0.23408518515E+03  0.23839918406E+03  0.10000000000E+01 0.  0.
<mgrwt>
<rscale>  0 0.12500106E+03</rscale>
<asrwt>0</asrwt>
<pdfrwt beam="2">  1        4 0.21515163E-02 0.12500106E+03</pdfrwt>
<pdfrwt beam="1">  1       -4 0.42973035E-01 0.12500106E+03</pdfrwt>
<totfact> 0.76444016E+03</totfact>
</mgrwt>
</event>
<event>
 5    1  0.3514886E-002  0.1250004E+03  0.7818608E-02  0.1235069E+00
          4   -1    0    0  501    0  0.00000000000E+00  0.00000000000E+00  0.20112723579E+02  0.20152780199E+02  0.12700000000E+01 0.  1.
         -4   -1    0    0    0  501 -0.00000000000E+00 -0.00000000000E+00 -0.19398371993E+03  0.19398787719E+03  0.12700000000E+01 0.  1.
         25    2    1    2    0    0  0.00000000000E+00  0.00000000000E+00 -0.17387099635E+03  0.21414065739E+03  0.12500039111E+03 0.  0.
    9000005    1    3    3    0    0 -0.31692463450E+02 -0.53768335605E+02 -0.81564849294E+02  0.10270964314E+03  0.10000000000E+01 0.  0.
    9000005    1    3    3    0    0  0.31692463450E+02  0.53768335605E+02 -0.92306147058E+02  0.11143101426E+03  0.10000000000E+01 0.  0.
<mgrwt>
<rscale>  0 0.12500039E+03</rscale>
<asrwt>0</asrwt>
<pdfrwt beam="1">  1        4 0.30976664E-02 0.12500039E+03</pdfrwt>
<pdfrwt beam="2">  1       -4 0.29847049E-01 0.12500039E+03</pdfrwt>
<totfact> 0.87803324E+03</totfact>
</mgrwt>
</event>
<event>
 5    1  0.3514886E-002  0.1249966E+03  0.7818608E-02  0.1235075E+00
          4   -1    0    0  501    0  0.00000000000E+00  0.00000000000E+00  0.14346205448E+02  0.14402309216E+02  0.12700000000E+01 0. -1.
         -4   -1    0    0    0  501 -0.00000000000E+00 -0.00000000000E+00 -0.27168088812E+03  0.27168385648E+03  0.12700000000E+01 0. -1.
         25    2    1    2    0    0  0.00000000000E+00  0.00000000000E+00 -0.25733468267E+03  0.28608616569E+03  0.12499662113E+03 0.  0.
    9000005    1    3    3    0    0  0.21103186248E+02 -0.12906129403E+02 -0.26000908247E+03  0.26118506009E+03  0.10000000000E+01 0.  0.
    9000005    1    3    3    0    0 -0.21103186248E+02  0.12906129403E+02  0.26743998000E+01  0.24901105603E+02  0.10000000000E+01 0.  0.
<mgrwt>
<rscale>  0 0.12499662E+03</rscale>
<asrwt>0</asrwt>
<pdfrwt beam="1">  1        4 0.22116527E-02 0.12499662E+03</pdfrwt>
<pdfrwt beam="2">  1       -4 0.41801600E-01 0.12499662E+03</pdfrwt>
<totfact> 0.77383794E+03</totfact>
</mgrwt>
</event>
<event>
 5    1  0.3514886E-002  0.1249990E+03  0.7818608E-02  0.1235071E+00
          4   -1    0    0  501    0  0.00000000000E+00  0.00000000000E+00  0.42236158949E+02  0.42255248464E+02  0.12700000000E+01 0. -1.
         -4   -1    0    0    0  501 -0.00000000000E+00 -0.00000000000E+00 -0.92440121263E+02  0.92448844877E+02  0.12700000000E+01 0. -1.
         25    2    1    2    0    0  0.00000000000E+00  0.00000000000E+00 -0.50203962314E+02  0.13470409334E+03  0.12499901972E+03 0.  0.
    9000005    1    3    3    0    0 -0.41584492316E+02 -0.44301466589E+02 -0.40840663918E+02  0.73217824143E+02  0.10000000000E+01 0.  0.
    9000005    1    3    3    0    0  0.41584492316E+02  0.44301466589E+02 -0.93632983964E+01  0.61486269198E+02  0.10000000000E+01 0.  0.
<mgrwt>
<rscale>  0 0.12499902E+03</rscale>
<asrwt>0</asrwt>
<pdfrwt beam="1">  1        4 0.65000101E-02 0.12499902E+03</pdfrwt>
<pdfrwt beam="2">  1       -4 0.14223697E-01 0.12499902E+03</pdfrwt>
<totfact> 0.10244538E+04</totfact>
</mgrwt>
</event>
<event>
 5    1  0.3514886E-002  0.1249971E+03  0.7818608E-02  0.1235074E+00
         -4   -1    0    0    0  501 -0.00000000000E+00  0.00000000000E+00  0.35764106939E+01  0.37952092764E+01  0.12700000000E+01 0.  1.
          4   -1    0    0  501    0  0.00000000000E+00 -0.00000000000E+00 -0.10595391150E+04  0.10595398761E+04  0.12700000000E+01 0.  1.
         25    2    1    2    0    0  0.00000000000E+00  0.00000000000E+00 -0.10559627043E+04  0.10633350854E+04  0.12499708387E+03 0.  0.
    9000005    1    3    3    0    0 -0.10235285376E+01 -0.60896337917E+02 -0.64697315030E+03  0.64983433950E+03  0.10000000000E+01 0.  0.
    9000005    1    3    3    0    0  0.10235285376E+01  0.60896337917E+02 -0.40898955400E+03  0.41350074591E+03  0.10000000000E+01 0.  0.
<mgrwt>
<rscale>  0 0.12499708E+03</rscale>
<asrwt>0</asrwt>
<pdfrwt beam="2">  1        4 0.16302266E+00 0.12499708E+03</pdfrwt>
<pdfrwt beam="1">  1       -4 0.56710709E-03 0.12499708E+03</pdfrwt>
<totfact> 0.28583889E+03</totfact>
</mgrwt>
</event>
<event>
 5    1  0.3514886E-002  0.1249911E+03  0.7818608E-02  0.1235083E+00
         -4   -1    0    0    0  501 -0.00000000000E+00  0.00000000000E+00  0.61690851308E+01  0.62984530919E+01  0.12700000000E+01 0.  1.
          4   -1    0    0  501    0  0.00000000000E+00 -0.00000000000E+00 -0.62640772831E+03  0.62640901573E+03  0.12700000000E+01 0.  1.
         25    2    1    2    0    0  0.00000000000E+00  0.00000000000E+00 -0.62023864318E+03  0.63270746882E+03  0.12499106612E+03 0.  0.
    9000005    1    3    3    0    0  0.37689276259E+02  0.47463959045E+02 -0.38711909199E+03  0.39183606309E+03  0.10000000000E+01 0.  0.
    9000005    1    3    3    0    0 -0.37689276259E+02 -0.47463959045E+02 -0.23311955119E+03  0.24087140573E+03  0.10000000000E+01 0.  0.
<mgrwt>
<rscale>  0 0.12499107E+03</rscale>
<asrwt>0</asrwt>
<pdfrwt beam="2">  1        4 0.96380420E-01 0.12499107E+03</pdfrwt>
<pdfrwt beam="1">  1       -4 0.95914093E-03 0.12499107E+03</pdfrwt>
<totfact> 0.46875227E+03</totfact>
</mgrwt>
</event>
<event>
 5    1  0.3514886E-002  0.1250010E+03  0.7818608E-02  0.1235068E+00
          4   -1    0    0  501    0  0.00000000000E+00  0.00000000000E+00  0.10246113712E+02  0.10324521596E+02  0.12700000000E+01 0. -1.
         -4   -1    0    0    0  501 -0.00000000000E+00 -0.00000000000E+00 -0.37971526992E+03  0.37971739374E+03  0.12700000000E+01 0. -1.
         25    2    1    2    0    0  0.00000000000E+00  0.00000000000E+00 -0.36946915621E+03  0.39004191534E+03  0.12500095332E+03 0.  0.
    9000005    1    3    3    0    0 -0.58972702740E+02 -0.47944936877E+00 -0.12023387877E+03  0.13392234744E+03  0.10000000000E+01 0.  0.
    9000005    1    3    3    0    0  0.58972702740E+02  0.47944936877E+00 -0.24923527744E+03  0.25611956790E+03  0.10000000000E+01 0.  0.
<mgrwt>
<rscale>  0 0.12500095E+03</rscale>
<asrwt>0</asrwt>
<pdfrwt beam="1">  1        4 0.15825202E-02 0.12500095E+03</pdfrwt>
<pdfrwt beam="2">  1       -4 0.58423918E-01 0.12500095E+03</pdfrwt>
<totfact> 0.65531587E+03</totfact>
</mgrwt>
</event>
<event>
 5    1  0.3514886E-002  0.1249869E+03  0.7818608E-02  0.1235090E+00
         -4   -1    0    0    0  501 -0.00000000000E+00  0.00000000000E+00  0.10935537673E+03  0.10936275106E+03  0.12700000000E+01 0. -1.
          4   -1    0    0  501    0  0.00000000000E+00 -0.00000000000E+00 -0.35693337314E+02  0.35715924020E+02  0.12700000000E+01 0. -1.
         25    2    1    2    0    0  0.00000000000E+00  0.00000000000E+00  0.73662039415E+02  0.14507867508E+03  0.12498690296E+03 0.  0.
    9000005    1    3    3    0    0  0.49643893325E+02 -0.33893978910E+02  0.17026228550E+02  0.62483681145E+02  0.10000000000E+01 0.  0.
    9000005    1    3    3    0    0 -0.49643893325E+02  0.33893978910E+02  0.56635810865E+02  0.82594993935E+02  0.10000000000E+01 0.  0.
<mgrwt>
<rscale>  0 0.12498690E+03</rscale>
<asrwt>0</asrwt>
<pdfrwt beam="2">  1        4 0.54935875E-02 0.12498690E+03</pdfrwt>
<pdfrwt beam="1">  1       -4 0.16826208E-01 0.12498690E+03</pdfrwt>
<totfact> 0.10032349E+04</totfact>
</mgrwt>
</event>
<event>
 5    1  0.3514886E-002  0.1250007E+03  0.7818608E-02  0.1235068E+00
          4   -1    0    0  501    0  0.00000000000E+00  0.00000000000E+00  0.18683932498E+02  0.18727045512E+02  0.12700000000E+01 0.  1.
         -4   -1    0    0    0  501 -0.00000000000E+00 -0.00000000000E+00 -0.20878645925E+03  0.20879032177E+03  0.12700000000E+01 0.  1.
         25    2    1    2    0    0  0.00000000000E+00  0.00000000000E+00 -0.19010252675E+03  0.22751736728E+03  0.12500072695E+03 0.  0.
    9000005    1    3    3    0    0  0.45228061138E+02 -0.27003060859E+02 -0.33851829288E+02  0.62623391446E+02  0.10000000000E+01 0.  0.
    9000005    1    3    3    0    0 -0.45228061138E+02  0.27003060859E+02 -0.15625069746E+03  0.16489397584E+03  0.10000000000E+01 0.  0.
<mgrwt>
<rscale>  0 0.12500073E+03</rscale>
<asrwt>0</asrwt>
<pdfrwt beam="1">  1        4 0.28780648E-02 0.12500073E+03</pdfrwt>
<pdfrwt beam="2">  1       -4 0.32124606E-01 0.12500073E+03</pdfrwt>
<totfact> 0.85690881E+03</totfact>
</mgrwt>
</event>
<event>
 5    1  0.3514886E-002  0.1249971E+03  0.7818608E-02  0.1235074E+00
         -4   -1    0    0    0  501 -0.00000000000E+00  0.00000000000E+00  0.15036105014E+04  0.15036110377E+04  0.12700000000E+01 0. -1.
          4   -1    0    0  501    0  0.00000000000E+00 -0.00000000000E+00 -0.24420073059E+01  0.27525078896E+01  0.12700000000E+01 0. -1.
         25    2    1    2    0    0  0.00000000000E+00  0.00000000000E+00  0.15011684941E+04  0.15063635456E+04  0.12499713576E+03 0.  0.
    9000005    1    3    3    0    0 -0.37786788760E+02 -0.25945588397E+02  0.23872005891E+03  0.24308286959E+03  0.10000000000E+01 0.  0.
    9000005    1    3    3    0    0  0.37786788760E+02  0.25945588397E+02  0.12624484352E+04  0.12632806760E+04  0.10000000000E+01 0.  0.
<mgrwt>
<rscale>  0 0.12499714E+03</rscale>
<asrwt>0</asrwt>
<pdfrwt beam="2">  1        4 0.39962009E-03 0.12499714E+03</pdfrwt>
<pdfrwt beam="1">  1       -4 0.23134819E+00 0.12499714E+03</pdfrwt>
<totfact> 0.17806836E+03</totfact>
</mgrwt>
</event>
<event>
 5    1  0.3514886E-002  0.1249983E+03  0.7818608E-02  0.1235072E+00
         -4   -1    0    0    0  501 -0.00000000000E+00  0.00000000000E+00  0.85527548640E+02  0.85536977246E+02  0.12700000000E+01 0. -1.
          4   -1    0    0  501    0  0.00000000000E+00 -0.00000000000E+00 -0.45650426930E+02  0.45668089284E+02  0.12700000000E+01 0. -1.
         25    2    1    2    0    0  0.00000000000E+00  0.00000000000E+00  0.39877121710E+02  0.13120506653E+03  0.12499833858E+03 0.  0.
    9000005    1    3    3    0    0 -0.60630700855E+02  0.72846762902E+01  0.33863712845E+02  0.69834801084E+02  0.10000000000E+01 0.  0.
    9000005    1    3    3    0    0  0.60630700855E+02 -0.72846762902E+01  0.60134088659E+01  0.61370265446E+02  0.10000000000E+01 0.  0.
<mgrwt>
<rscale>  0 0.12499834E+03</rscale>
<asrwt>0</asrwt>
<pdfrwt beam="2">  1        4 0.70252265E-02 0.12499834E+03</pdfrwt>
<pdfrwt beam="1">  1       -4 0.13160168E-01 0.12499834E+03</pdfrwt>
<totfact> 0.10319082E+04</totfact>
</mgrwt>
</event>
<event>
 4    1  0.3514886E-002  0.1251300E+03  0.7818608E-02  0.1234866E+00
         -4   -1    0    0    0  501 -0.00000000000E+00  0.00000000000E+00  0.54535852059E+02  0.54550637575E+02  0.12700000000E+01 0.  1.
          4   -1    0    0  501    0  0.00000000000E+00 -0.00000000000E+00 -0.71746094830E+02  0.71757334282E+02  0.12700000000E+01 0.  1.
    9000005    1    1    2    0    0 -0.56875098733E+02 -0.21600712435E+01 -0.34809774809E+02  0.66724532114E+02  0.10000000000E+01 0.  0.
    9000005    1    1    2    0    0  0.56875098733E+02  0.21600712435E+01  0.17599532038E+02  0.59583439743E+02  0.10000000000E+01 0.  0.
<mgrwt>
<rscale>  0 0.12512998E+03</rscale>
<asrwt>0</asrwt>
<pdfrwt beam="2">  1        4 0.11039863E-01 0.12512998E+03</pdfrwt>
<pdfrwt beam="1">  1       -4 0.83921330E-02 0.12512998E+03</pdfrwt>
<totfact> 0.10393699E+04</totfact>
</mgrwt>
</event>
<event>
 5    1  0.3514886E-002  0.1249993E+03  0.7818608E-02  0.1235070E+00
         -4   -1    0    0    0  501 -0.00000000000E+00  0.00000000000E+00  0.18835758181E+03  0.18836186324E+03  0.12700000000E+01 0.  1.
          4   -1    0    0  501    0  0.00000000000E+00 -0.00000000000E+00 -0.20714296802E+02  0.20753192333E+02  0.12700000000E+01 0.  1.
         25    2    1    2    0    0  0.00000000000E+00  0.00000000000E+00  0.16764328501E+03  0.20911505558E+03  0.12499934184E+03 0.  0.
    9000005    1    3    3    0    0 -0.35992597575E+02  0.28780275300E+02  0.13212184942E+02  0.47951362415E+02  0.10000000000E+01 0.  0.
    9000005    1    3    3    0    0  0.35992597575E+02 -0.28780275300E+02  0.15443110007E+03  0.16116369316E+03  0.10000000000E+01 0.  0.
<mgrwt>
<rscale>  0 0.12499934E+03</rscale>
<asrwt>0</asrwt>
<pdfrwt beam="2">  1        4 0.31901360E-02 0.12499934E+03</pdfrwt>
<pdfrwt beam="1">  1       -4 0.28981412E-01 0.12499934E+03</pdfrwt>
<totfact> 0.88621910E+03</totfact>
</mgrwt>
</event>
<event>
 5    1  0.3514886E-002  0.1249996E+03  0.7818608E-02  0.1235070E+00
          4   -1    0    0  501    0  0.00000000000E+00  0.00000000000E+00  0.16949460713E+02  0.16996973803E+02  0.12700000000E+01 0.  1.
         -4   -1    0    0    0  501 -0.00000000000E+00 -0.00000000000E+00 -0.23009117598E+03  0.23009468086E+03  0.12700000000E+01 0.  1.
         25    2    1    2    0    0  0.00000000000E+00  0.00000000000E+00 -0.21314171526E+03  0.24709165467E+03  0.12499958008E+03 0.  0.
    9000005    1    3    3    0    0  0.79052727272E+01  0.21649904973E+02 -0.22139225745E+03  0.22259097777E+03  0.10000000000E+01 0.  0.
    9000005    1    3    3    0    0 -0.79052727272E+01 -0.21649904973E+02  0.82505421899E+01  0.24500676902E+02  0.10000000000E+01 0.  0.
<mgrwt>
<rscale>  0 0.12499958E+03</rscale>
<asrwt>0</asrwt>
<pdfrwt beam="1">  1        4 0.26115340E-02 0.12499958E+03</pdfrwt>
<pdfrwt beam="2">  1       -4 0.35402565E-01 0.12499958E+03</pdfrwt>
<totfact> 0.82753175E+03</totfact>
</mgrwt>
</event>
<event>
 5    1  0.3514886E-002  0.1250021E+03  0.7818608E-02  0.1235066E+00
          4   -1    0    0  501    0  0.00000000000E+00  0.00000000000E+00  0.15387056428E+02  0.15439378405E+02  0.12700000000E+01 0. -1.
         -4   -1    0    0    0  501 -0.00000000000E+00 -0.00000000000E+00 -0.25338969733E+03  0.25339287995E+03  0.12700000000E+01 0. -1.
         25    2    1    2    0    0  0.00000000000E+00  0.00000000000E+00 -0.23800264090E+03  0.26883225836E+03  0.12500210422E+03 0.  0.
    9000005    1    3    3    0    0 -0.48488628336E+02  0.29779710071E+02 -0.63441832672E+02  0.85228189835E+02  0.10000000000E+01 0.  0.
    9000005    1    3    3    0    0  0.48488628336E+02 -0.29779710071E+02 -0.17456080823E+03  0.18360406852E+03  0.10000000000E+01 0.  0.
<mgrwt>
<rscale>  0 0.12500210E+03</rscale>
<asrwt>0</asrwt>
<pdfrwt beam="1">  1        4 0.23715092E-02 0.12500210E+03</pdfrwt>
<pdfrwt beam="2">  1       -4 0.38987297E-01 0.12500210E+03</pdfrwt>
<totfact> 0.79678609E+03</totfact>
</mgrwt>
</event>
<event>
 5    1  0.3514886E-002  0.1249982E+03  0.7818608E-02  0.1235072E+00
         -4   -1    0    0    0  501 -0.00000000000E+00  0.00000000000E+00  0.65779125474E+02  0.65791384300E+02  0.12700000000E+01 0. -1.
          4   -1    0    0  501    0  0.00000000000E+00 -0.00000000000E+00 -0.59358083710E+02  0.59371668342E+02  0.12700000000E+01 0. -1.
         25    2    1    2    0    0  0.00000000000E+00  0.00000000000E+00  0.64210417637E+01  0.12516305264E+03  0.12499823986E+03 0.  0.
    9000005    1    3    3    0    0  0.21136535386E+02 -0.44185662889E+02  0.42069086207E+02  0.64575025725E+02  0.10000000000E+01 0.  0.
    9000005    1    3    3    0    0 -0.21136535386E+02  0.44185662889E+02 -0.35648044443E+02  0.60588026917E+02  0.10000000000E+01 0.  0.
<mgrwt>
<rscale>  0 0.12499824E+03</rscale>
<asrwt>0</asrwt>
<pdfrwt beam="2">  1        4 0.91340009E-02 0.12499824E+03</pdfrwt>
<pdfrwt beam="1">  1       -4 0.10121853E-01 0.12499824E+03</pdfrwt>
<totfact> 0.10449738E+04</totfact>
</mgrwt>
</event>
<event>
 5    1  0.3514886E-002  0.1249999E+03  0.7818608E-02  0.1235069E+00
         -4   -1    0    0    0  501 -0.00000000000E+00  0.00000000000E+00  0.25717670256E+03  0.25717983832E+03  0.12700000000E+01 0.  1.
          4   -1    0    0  501    0  0.00000000000E+00 -0.00000000000E+00 -0.15159160505E+02  0.15212266340E+02  0.12700000000E+01 0.  1.
         25    2    1    2    0    0  0.00000000000E+00  0.00000000000E+00  0.24201754205E+03  0.27239210466E+03  0.12499987208E+03 0.  0.
    9000005    1    3    3    0    0  0.50436352218E+02 -0.79976390338E+01  0.19950177615E+03  0.20593626816E+03  0.10000000000E+01 0.  0.
    9000005    1    3    3    0    0 -0.50436352218E+02  0.79976390338E+01  0.42515765902E+02  0.66455836504E+02  0.10000000000E+01 0.  0.
<mgrwt>
<rscale>  0 0.12499987E+03</rscale>
<asrwt>0</asrwt>
<pdfrwt beam="2">  1        4 0.23365051E-02 0.12499987E+03</pdfrwt>
<pdfrwt beam="1">  1       -4 0.39569968E-01 0.12499987E+03</pdfrwt>
<totfact> 0.79198021E+03</totfact>
</mgrwt>
</event>
<event>
 5    1  0.3514886E-002  0.1249978E+03  0.7818608E-02  0.1235073E+00
          4   -1    0    0  501    0  0.00000000000E+00  0.00000000000E+00  0.73139792389E+03  0.73139902650E+03  0.12700000000E+01 0.  1.
         -4   -1    0    0    0  501 -0.00000000000E+00 -0.00000000000E+00 -0.52639864031E+01  0.54150210389E+01  0.12700000000E+01 0.  1.
         25    2    1    2    0    0  0.00000000000E+00  0.00000000000E+00  0.72613393749E+03  0.73681404754E+03  0.12499778192E+03 0.  0.
    9000005    1    3    3    0    0 -0.33054539439E+02  0.51536579327E+02  0.28932774050E+03  0.29573664469E+03  0.10000000000E+01 0.  0.
    9000005    1    3    3    0    0  0.33054539439E+02 -0.51536579327E+02  0.43680619698E+03  0.44107740285E+03  0.10000000000E+01 0.  0.
<mgrwt>
<rscale>  0 0.12499778E+03</rscale>
<asrwt>0</asrwt>
<pdfrwt beam="1">  1        4 0.11253449E+00 0.12499778E+03</pdfrwt>
<pdfrwt beam="2">  1       -4 0.82154671E-03 0.12499778E+03</pdfrwt>
<totfact> 0.41214891E+03</totfact>
</mgrwt>
</event>
<event>
 5    1  0.3514886E-002  0.1250000E+03  0.7818608E-02  0.1235069E+00
         -4   -1    0    0    0  501 -0.00000000000E+00  0.00000000000E+00  0.41155703772E+02  0.41175294206E+02  0.12700000000E+01 0. -1.
          4   -1    0    0  501    0  0.00000000000E+00 -0.00000000000E+00 -0.94867558029E+02  0.94876058446E+02  0.12700000000E+01 0. -1.
         25    2    1    2    0    0  0.00000000000E+00  0.00000000000E+00 -0.53711854257E+02  0.13605135265E+03  0.12500002908E+03 0.  0.
    9000005    1    3    3    0    0 -0.20138859000E+02 -0.32616264007E+02 -0.80573785369E+02  0.89233005151E+02  0.10000000000E+01 0.  0.
    9000005    1    3    3    0    0  0.20138859000E+02  0.32616264007E+02  0.26861931112E+02  0.46818347501E+02  0.10000000000E+01 0.  0.
<mgrwt>
<rscale>  0 0.12500003E+03</rscale>
<asrwt>0</asrwt>
<pdfrwt beam="2">  1        4 0.14597170E-01 0.12500003E+03</pdfrwt>
<pdfrwt beam="1">  1       -4 0.63338076E-02 0.12500003E+03</pdfrwt>
<totfact> 0.10215952E+04</totfact>
</mgrwt>
</event>
<event>
 5    1  0.3514886E-002  0.1250021E+03  0.7818608E-02  0.1235066E+00
          4   -1    0    0  501    0  0.00000000000E+00  0.00000000000E+00  0.27518487043E+03  0.27518780099E+03  0.12700000000E+01 0. -1.
         -4   -1    0    0    0  501 -0.00000000000E+00 -0.00000000000E+00 -0.14164062220E+02  0.14220884592E+02  0.12700000000E+01 0. -1.
         25    2    1    2    0    0  0.00000000000E+00  0.00000000000E+00  0.26102080821E+03  0.28940868558E+03  0.12500209987E+03 0.  0.
    9000005    1    3    3    0    0  0.55031801626E+02  0.11591915354E+01  0.62003895672E+02  0.82917585552E+02  0.10000000000E+01 0.  0.
    9000005    1    3    3    0    0 -0.55031801626E+02 -0.11591915354E+01  0.19901691254E+03  0.20649110003E+03  0.10000000000E+01 0.  0.
<mgrwt>
<rscale>  0 0.12500210E+03</rscale>
<asrwt>0</asrwt>
<pdfrwt beam="1">  1        4 0.42340730E-01 0.12500210E+03</pdfrwt>
<pdfrwt beam="2">  1       -4 0.21836829E-02 0.12500210E+03</pdfrwt>
<totfact> 0.76943304E+03</totfact>
</mgrwt>
</event>
<event>
 5    1  0.3514886E-002  0.1250009E+03  0.7818608E-02  0.1235068E+00
          4   -1    0    0  501    0  0.00000000000E+00  0.00000000000E+00  0.68897436750E+02  0.68909140836E+02  0.12700000000E+01 0. -1.
         -4   -1    0    0    0  501 -0.00000000000E+00 -0.00000000000E+00 -0.56673791756E+02  0.56688019652E+02  0.12700000000E+01 0. -1.
         25    2    1    2    0    0  0.00000000000E+00  0.00000000000E+00  0.12223644994E+02  0.12559716049E+03  0.12500091690E+03 0.  0.
    9000005    1    3    3    0    0 -0.11251747946E+02 -0.49652615243E+02  0.42524485573E+02  0.66342414077E+02  0.10000000000E+01 0.  0.
    9000005    1    3    3    0    0  0.11251747946E+02  0.49652615243E+02 -0.30300840580E+02  0.59254746410E+02  0.10000000000E+01 0.  0.
<mgrwt>
<rscale>  0 0.12500092E+03</rscale>
<asrwt>0</asrwt>
<pdfrwt beam="1">  1        4 0.10601600E-01 0.12500092E+03</pdfrwt>
<pdfrwt beam="2">  1       -4 0.87210397E-02 0.12500092E+03</pdfrwt>
<totfact> 0.10439594E+04</totfact>
</mgrwt>
</event>
<event>
 5    1  0.3514886E-002  0.1249987E+03  0.7818608E-02  0.1235071E+00
         -4   -1    0    0    0  501 -0.00000000000E+00  0.00000000000E+00  0.45105200280E+02  0.45123076051E+02  0.12700000000E+01 0. -1.
          4   -1    0    0  501    0  0.00000000000E+00 -0.00000000000E+00 -0.86561623442E+02  0.86570939425E+02  0.12700000000E+01 0. -1.
         25    2    1    2    0    0  0.00000000000E+00  0.00000000000E+00 -0.41456423163E+02  0.13169401548E+03  0.12499871476E+03 0.  0.
    9000005    1    3    3    0    0  0.29890153340E+02 -0.22407506020E+02 -0.73507952181E+02  0.82461728254E+02  0.10000000000E+01 0.  0.
    9000005    1    3    3    0    0 -0.29890153340E+02  0.22407506020E+02  0.32051529018E+02  0.49232287222E+02  0.10000000000E+01 0.  0.
<mgrwt>
<rscale>  0 0.12499871E+03</rscale>
<asrwt>0</asrwt>
<pdfrwt beam="2">  1        4 0.13319264E-01 0.12499871E+03</pdfrwt>
<pdfrwt beam="1">  1       -4 0.69413533E-02 0.12499871E+03</pdfrwt>
<totfact> 0.10308533E+04</totfact>
</mgrwt>
</event>
<event>
 5    1  0.3514886E-002  0.1250011E+03  0.7818608E-02  0.1235068E+00
          4   -1    0    0  501    0  0.00000000000E+00  0.00000000000E+00  0.82376818499E+01  0.83350046347E+01  0.12700000000E+01 0. -1.
         -4   -1    0    0    0  501 -0.00000000000E+00 -0.00000000000E+00 -0.47131824024E+03  0.47131995129E+03  0.12700000000E+01 0. -1.
         25    2    1    2    0    0  0.00000000000E+00  0.00000000000E+00 -0.46308055839E+03  0.47965495592E+03  0.12500109273E+03 0.  0.
    9000005    1    3    3    0    0 -0.67375429745E+01  0.32841678001E+02 -0.29171835533E+02  0.44451842343E+02  0.10000000000E+01 0.  0.
    9000005    1    3    3    0    0  0.67375429745E+01 -0.32841678001E+02 -0.43390872286E+03  0.43520311358E+03  0.10000000000E+01 0.  0.
<mgrwt>
<rscale>  0 0.12500109E+03</rscale>
<asrwt>0</asrwt>
<pdfrwt beam="1">  1        4 0.12749540E-02 0.12500109E+03</pdfrwt>
<pdfrwt beam="2">  1       -4 0.72518096E-01 0.12500109E+03</pdfrwt>
<totfact> 0.57476809E+03</totfact>
</mgrwt>
</event>
<event>
 5    1  0.3514886E-002  0.1250070E+03  0.7818608E-02  0.1235058E+00
         -4   -1    0    0    0  501 -0.00000000000E+00  0.00000000000E+00  0.67497719691E+02  0.67509666445E+02  0.12700000000E+01 0.  1.
          4   -1    0    0  501    0  0.00000000000E+00 -0.00000000000E+00 -0.57854778174E+02  0.57868715707E+02  0.12700000000E+01 0.  1.
         25    2    1    2    0    0  0.00000000000E+00  0.00000000000E+00  0.96429415167E+01  0.12537838215E+03  0.12500700936E+03 0.  0.
    9000005    1    3    3    0    0 -0.41424868020E+02 -0.45961290881E+02  0.13635532836E+02  0.63367086927E+02  0.10000000000E+01 0.  0.
    9000005    1    3    3    0    0  0.41424868020E+02  0.45961290881E+02 -0.39925913192E+01  0.62011295224E+02  0.10000000000E+01 0.  0.
<mgrwt>
<rscale>  0 0.12500701E+03</rscale>
<asrwt>0</asrwt>
<pdfrwt beam="2">  1        4 0.89027262E-02 0.12500701E+03</pdfrwt>
<pdfrwt beam="1">  1       -4 0.10386256E-01 0.12500701E+03</pdfrwt>
<totfact> 0.10442995E+04</totfact>
</mgrwt>
</event>
<event>
 5    1  0.3514886E-002  0.1249985E+03  0.7818608E-02  0.1235072E+00
         -4   -1    0    0    0  501 -0.00000000000E+00  0.00000000000E+00  0.20009290571E+02  0.20049553839E+02  0.12700000000E+01 0.  1.
          4   -1    0    0  501    0  0.00000000000E+00 -0.00000000000E+00 -0.19497863561E+03  0.19498277166E+03  0.12700000000E+01 0.  1.
         25    2    1    2    0    0  0.00000000000E+00  0.00000000000E+00 -0.17496934504E+03  0.21503232550E+03  0.12499851722E+03 0.  0.
    9000005    1    3    3    0    0  0.41393108760E+02 -0.37995077966E+02 -0.13453805912E+03  0.14580296552E+03  0.10000000000E+01 0.  0.
    9000005    1    3    3    0    0 -0.41393108760E+02  0.37995077966E+02 -0.40431285925E+02  0.69229359985E+02  0.10000000000E+01 0.  0.
<mgrwt>
<rscale>  0 0.12499852E+03</rscale>
<asrwt>0</asrwt>
<pdfrwt beam="2">  1        4 0.30000127E-01 0.12499852E+03</pdfrwt>
<pdfrwt beam="1">  1       -4 0.30817679E-02 0.12499852E+03</pdfrwt>
<totfact> 0.87663480E+03</totfact>
</mgrwt>
</event>
<event>
 5    1  0.3514886E-002  0.1249996E+03  0.7818608E-02  0.1235070E+00
          4   -1    0    0  501    0  0.00000000000E+00  0.00000000000E+00  0.10508104231E+03  0.10508871658E+03  0.12700000000E+01 0.  1.
         -4   -1    0    0    0  501 -0.00000000000E+00 -0.00000000000E+00 -0.37153558027E+02  0.37175257552E+02  0.12700000000E+01 0.  1.
         25    2    1    2    0    0  0.00000000000E+00  0.00000000000E+00  0.67927484280E+02  0.14226397413E+03  0.12499958086E+03 0.  0.
    9000005    1    3    3    0    0  0.17130493375E+02  0.44762790700E+02  0.79602924075E+02  0.92923553288E+02  0.10000000000E+01 0.  0.
    9000005    1    3    3    0    0 -0.17130493375E+02 -0.44762790700E+02 -0.11675439795E+02  0.49340420842E+02  0.10000000000E+01 0.  0.
<mgrwt>
<rscale>  0 0.12499958E+03</rscale>
<asrwt>0</asrwt>
<pdfrwt beam="1">  1        4 0.16168574E-01 0.12499958E+03</pdfrwt>
<pdfrwt beam="2">  1       -4 0.57181916E-02 0.12499958E+03</pdfrwt>
<totfact> 0.10086973E+04</totfact>
</mgrwt>
</event>
<event>
 5    1  0.3514886E-002  0.1250129E+03  0.7818608E-02  0.1235049E+00
          4   -1    0    0  501    0  0.00000000000E+00  0.00000000000E+00  0.86245733143E+01  0.87175779236E+01  0.12700000000E+01 0.  1.
         -4   -1    0    0    0  501 -0.00000000000E+00 -0.00000000000E+00 -0.45049079684E+03  0.45049258700E+03  0.12700000000E+01 0.  1.
         25    2    1    2    0    0  0.00000000000E+00  0.00000000000E+00 -0.44186622353E+03  0.45921016492E+03  0.12501286363E+03 0.  0.
    9000005    1    3    3    0    0  0.18625267825E+00 -0.51796401477E+02 -0.34940172198E+03  0.35322155259E+03  0.10000000000E+01 0.  0.
    9000005    1    3    3    0    0 -0.18625267825E+00  0.51796401477E+02 -0.92464501553E+02  0.10598861233E+03  0.10000000000E+01 0.  0.
<mgrwt>
<rscale>  0 0.12501286E+03</rscale>
<asrwt>0</asrwt>
<pdfrwt beam="1">  1        4 0.13341497E-02 0.12501286E+03</pdfrwt>
<pdfrwt beam="2">  1       -4 0.69313550E-01 0.12501286E+03</pdfrwt>
<totfact> 0.59157392E+03</totfact>
</mgrwt>
</event>
<event>
 5    1  0.3514886E-002  0.1250014E+03  0.7818608E-02  0.1235067E+00
         -4   -1    0    0    0  501 -0.00000000000E+00  0.00000000000E+00  0.14167218997E+04  0.14167224689E+04  0.12700000000E+01 0. -1.
          4   -1    0    0  501    0  0.00000000000E+00 -0.00000000000E+00 -0.26104701031E+01  0.29030077780E+01  0.12700000000E+01 0. -1.
         25    2    1    2    0    0  0.00000000000E+00  0.00000000000E+00  0.14141114296E+04  0.14196254767E+04  0.12500143527E+03 0.  0.
    9000005    1    3    3    0    0  0.48063736862E+02 -0.31980634607E+02  0.97878084666E+03  0.98048244736E+03  0.10000000000E+01 0.  0.
    9000005    1    3    3    0    0 -0.48063736862E+02  0.31980634607E+02  0.43533058292E+03  0.43914302933E+03  0.10000000000E+01 0.  0.
<mgrwt>
<rscale>  0 0.12500144E+03</rscale>
<asrwt>0</asrwt>
<pdfrwt beam="2">  1        4 0.42415748E-03 0.12500144E+03</pdfrwt>
<pdfrwt beam="1">  1       -4 0.21797976E+00 0.12500144E+03</pdfrwt>
<totfact> 0.19563038E+03</totfact>
</mgrwt>
</event>
<event>
 5    1  0.3514886E-002  0.1249990E+03  0.7818608E-02  0.1235071E+00
          4   -1    0    0  501    0  0.00000000000E+00  0.00000000000E+00  0.12802149545E+02  0.12864988650E+02  0.12700000000E+01 0.  1.
         -4   -1    0    0    0  501 -0.00000000000E+00 -0.00000000000E+00 -0.30430841224E+03  0.30431106234E+03  0.12700000000E+01 0.  1.
         25    2    1    2    0    0  0.00000000000E+00  0.00000000000E+00 -0.29150626270E+03  0.31717605099E+03  0.12499898451E+03 0.  0.
    9000005    1    3    3    0    0 -0.39512935053E+01  0.62220459401E+02 -0.13493158597E+03  0.14864229270E+03  0.10000000000E+01 0.  0.
    9000005    1    3    3    0    0  0.39512935053E+01 -0.62220459401E+02 -0.15657467673E+03  0.16853375829E+03  0.10000000000E+01 0.  0.
<mgrwt>
<rscale>  0 0.12499898E+03</rscale>
<asrwt>0</asrwt>
<pdfrwt beam="1">  1        4 0.19745993E-02 0.12499898E+03</pdfrwt>
<pdfrwt beam="2">  1       -4 0.46821711E-01 0.12499898E+03</pdfrwt>
<totfact> 0.73494917E+03</totfact>
</mgrwt>
</event>
<event>
 5    1  0.3514886E-002  0.1249892E+03  0.7818608E-02  0.1235086E+00
          4   -1    0    0  501    0  0.00000000000E+00  0.00000000000E+00  0.40274765732E+03  0.40274965968E+03  0.12700000000E+01 0.  1.
         -4   -1    0    0    0  501 -0.00000000000E+00 -0.00000000000E+00 -0.96537026041E+01  0.97368821482E+01  0.12700000000E+01 0.  1.
         25    2    1    2    0    0  0.00000000000E+00  0.00000000000E+00  0.39309395472E+03  0.41248654183E+03  0.12498915937E+03 0.  0.
    9000005    1    3    3    0    0  0.95225978064E+01  0.40495295733E+02  0.42671445226E+02  0.59602022476E+02  0.10000000000E+01 0.  0.
    9000005    1    3    3    0    0 -0.95225978064E+01 -0.40495295733E+02  0.35042250949E+03  0.35288451936E+03  0.10000000000E+01 0.  0.
<mgrwt>
<rscale>  0 0.12498916E+03</rscale>
<asrwt>0</asrwt>
<pdfrwt beam="1">  1        4 0.61967727E-01 0.12498916E+03</pdfrwt>
<pdfrwt beam="2">  1       -4 0.14917375E-02 0.12498916E+03</pdfrwt>
<totfact> 0.63371371E+03</totfact>
</mgrwt>
</event>
<event>
 5    1  0.3514886E-002  0.1249983E+03  0.7818608E-02  0.1235072E+00
          4   -1    0    0  501    0  0.00000000000E+00  0.00000000000E+00  0.37332894514E+03  0.37333110529E+03  0.12700000000E+01 0. -1.
         -4   -1    0    0    0  501 -0.00000000000E+00 -0.00000000000E+00 -0.10422276317E+02  0.10499368725E+02  0.12700000000E+01 0. -1.
         25    2    1    2    0    0  0.00000000000E+00  0.00000000000E+00  0.36290666882E+03  0.38383047401E+03  0.12499833003E+03 0.  0.
    9000005    1    3    3    0    0  0.38164510255E+02  0.42325271539E+02  0.10273429593E+03  0.11748742066E+03  0.10000000000E+01 0.  0.
    9000005    1    3    3    0    0 -0.38164510255E+02 -0.42325271539E+02  0.26017237289E+03  0.26634305335E+03  0.10000000000E+01 0.  0.
<mgrwt>
<rscale>  0 0.12499833E+03</rscale>
<asrwt>0</asrwt>
<pdfrwt beam="1">  1        4 0.57441317E-01 0.12499833E+03</pdfrwt>
<pdfrwt beam="2">  1       -4 0.16095235E-02 0.12499833E+03</pdfrwt>
<totfact> 0.66158838E+03</totfact>
</mgrwt>
</event>
<event>
 5    1  0.3514886E-002  0.1249973E+03  0.7818608E-02  0.1235073E+00
         -4   -1    0    0    0  501 -0.00000000000E+00  0.00000000000E+00  0.49218893151E+03  0.49219057001E+03  0.12700000000E+01 0.  1.
          4   -1    0    0  501    0  0.00000000000E+00 -0.00000000000E+00 -0.78836724810E+01  0.79853110014E+01  0.12700000000E+01 0.  1.
         25    2    1    2    0    0  0.00000000000E+00  0.00000000000E+00  0.48430525903E+03  0.50017588101E+03  0.12499731204E+03 0.  0.
    9000005    1    3    3    0    0 -0.24793265590E+01  0.62430620109E+02  0.23749881088E+03  0.24558178792E+03  0.10000000000E+01 0.  0.
    9000005    1    3    3    0    0  0.24793265590E+01 -0.62430620109E+02  0.24680644815E+03  0.25459409309E+03  0.10000000000E+01 0.  0.
<mgrwt>
<rscale>  0 0.12499731E+03</rscale>
<asrwt>0</asrwt>
<pdfrwt beam="2">  1        4 0.12208168E-02 0.12499731E+03</pdfrwt>
<pdfrwt beam="1">  1       -4 0.75729335E-01 0.12499731E+03</pdfrwt>
<totfact> 0.55854014E+03</totfact>
</mgrwt>
</event>
<event>
 5    1  0.3514886E-002  0.1250190E+03  0.7818608E-02  0.1235040E+00
          4   -1    0    0  501    0  0.00000000000E+00  0.00000000000E+00  0.47489312760E+02  0.47506291440E+02  0.12700000000E+01 0.  1.
         -4   -1    0    0    0  501 -0.00000000000E+00 -0.00000000000E+00 -0.82243819235E+02  0.82253624251E+02  0.12700000000E+01 0.  1.
         25    2    1    2    0    0  0.00000000000E+00  0.00000000000E+00 -0.34754506475E+02  0.12975991569E+03  0.12501903855E+03 0.  0.
    9000005    1    3    3    0    0 -0.43911988293E+02 -0.32658738336E+02 -0.48714639409E+02  0.73273269330E+02  0.10000000000E+01 0.  0.
    9000005    1    3    3    0    0  0.43911988293E+02  0.32658738336E+02  0.13960132934E+02  0.56486646361E+02  0.10000000000E+01 0.  0.
<mgrwt>
<rscale>  0 0.12501904E+03</rscale>
<asrwt>0</asrwt>
<pdfrwt beam="1">  1        4 0.73081084E-02 0.12501904E+03</pdfrwt>
<pdfrwt beam="2">  1       -4 0.12654956E-01 0.12501904E+03</pdfrwt>
<totfact> 0.10345199E+04</totfact>
</mgrwt>
</event>
<event>
 5    1  0.3514886E-002  0.1250018E+03  0.7818608E-02  0.1235066E+00
          4   -1    0    0  501    0  0.00000000000E+00  0.00000000000E+00  0.62006665913E+02  0.62019670409E+02  0.12700000000E+01 0. -1.
         -4   -1    0    0    0  501 -0.00000000000E+00 -0.00000000000E+00 -0.62973045269E+02  0.62985850239E+02  0.12700000000E+01 0. -1.
         25    2    1    2    0    0  0.00000000000E+00  0.00000000000E+00 -0.96637935513E+00  0.12500552065E+03  0.12500178520E+03 0.  0.
    9000005    1    3    3    0    0  0.32404606751E+02  0.43193935168E+02  0.30975452169E+02  0.62259563209E+02  0.10000000000E+01 0.  0.
    9000005    1    3    3    0    0 -0.32404606751E+02 -0.43193935168E+02 -0.31941831524E+02  0.62745957440E+02  0.10000000000E+01 0.  0.
<mgrwt>
<rscale>  0 0.12500179E+03</rscale>
<asrwt>0</asrwt>
<pdfrwt beam="1">  1        4 0.95414724E-02 0.12500179E+03</pdfrwt>
<pdfrwt beam="2">  1       -4 0.96901462E-02 0.12500179E+03</pdfrwt>
<totfact> 0.10452321E+04</totfact>
</mgrwt>
</event>
<event>
 5    1  0.3514886E-002  0.1250046E+03  0.7818608E-02  0.1235062E+00
          4   -1    0    0  501    0  0.00000000000E+00  0.00000000000E+00  0.25088007596E+03  0.25088329042E+03  0.12700000000E+01 0.  1.
         -4   -1    0    0    0  501 -0.00000000000E+00 -0.00000000000E+00 -0.15542116381E+02  0.15593918097E+02  0.12700000000E+01 0.  1.
         25    2    1    2    0    0  0.00000000000E+00  0.00000000000E+00  0.23533795958E+03  0.26647720852E+03  0.12500458968E+03 0.  0.
    9000005    1    3    3    0    0 -0.49908269483E+02 -0.32682499230E+02  0.77984502828E+02  0.98191465006E+02  0.10000000000E+01 0.  0.
    9000005    1    3    3    0    0  0.49908269483E+02  0.32682499230E+02  0.15735345675E+03  0.16828574351E+03  0.10000000000E+01 0.  0.
<mgrwt>
<rscale>  0 0.12500459E+03</rscale>
<asrwt>0</asrwt>
<pdfrwt beam="1">  1        4 0.38601166E-01 0.12500459E+03</pdfrwt>
<pdfrwt beam="2">  1       -4 0.23953269E-02 0.12500459E+03</pdfrwt>
<totfact> 0.79997413E+03</totfact>
</mgrwt>
</event>
<event>
 5    1  0.3514886E-002  0.1250044E+03  0.7818608E-02  0.1235062E+00
          4   -1    0    0  501    0  0.00000000000E+00  0.00000000000E+00  0.10118910339E+03  0.10119707281E+03  0.12700000000E+01 0.  1.
         -4   -1    0    0    0  501 -0.00000000000E+00 -0.00000000000E+00 -0.38586224468E+02  0.38607118757E+02  0.12700000000E+01 0.  1.
         25    2    1    2    0    0  0.00000000000E+00  0.00000000000E+00  0.62602878925E+02  0.13980419157E+03  0.12500436605E+03 0.  0.
    9000005    1    3    3    0    0 -0.44794593933E+02 -0.39258542944E+02  0.52454594180E+02  0.79374260880E+02  0.10000000000E+01 0.  0.
    9000005    1    3    3    0    0  0.44794593933E+02  0.39258542944E+02  0.10148284745E+02  0.60429930688E+02  0.10000000000E+01 0.  0.
<mgrwt>
<rscale>  0 0.12500437E+03</rscale>
<asrwt>0</asrwt>
<pdfrwt beam="1">  1        4 0.15569775E-01 0.12500437E+03</pdfrwt>
<pdfrwt beam="2">  1       -4 0.59385626E-02 0.12500437E+03</pdfrwt>
<totfact> 0.10136648E+04</totfact>
</mgrwt>
</event>
<event>
 5    1  0.3514886E-002  0.1250000E+03  0.7818608E-02  0.1235069E+00
          4   -1    0    0  501    0  0.00000000000E+00  0.00000000000E+00  0.84502151727E+02  0.84511694732E+02  0.12700000000E+01 0. -1.
         -4   -1    0    0    0  501 -0.00000000000E+00 -0.00000000000E+00 -0.46205769959E+02  0.46223220111E+02  0.12700000000E+01 0. -1.
         25    2    1    2    0    0  0.00000000000E+00  0.00000000000E+00  0.38296381768E+02  0.13073491484E+03  0.12500002041E+03 0.  0.
    9000005    1    3    3    0    0 -0.11065151921E+01 -0.60225614726E+02  0.17443649274E+01  0.60269327639E+02  0.10000000000E+01 0.  0.
    9000005    1    3    3    0    0  0.11065151921E+01  0.60225614726E+02  0.36552016841E+02  0.70465587205E+02  0.10000000000E+01 0.  0.
<mgrwt>
<rscale>  0 0.12500002E+03</rscale>
<asrwt>0</asrwt>
<pdfrwt beam="1">  1        4 0.13002407E-01 0.12500002E+03</pdfrwt>
<pdfrwt beam="2">  1       -4 0.71106564E-02 0.12500002E+03</pdfrwt>
<totfact> 0.10328771E+04</totfact>
</mgrwt>
</event>
<event>
 5    1  0.3514886E-002  0.1250011E+03  0.7818608E-02  0.1235068E+00
          4   -1    0    0  501    0  0.00000000000E+00  0.00000000000E+00  0.74728853195E+01  0.75800339708E+01  0.12700000000E+01 0.  1.
         -4   -1    0    0    0  501 -0.00000000000E+00 -0.00000000000E+00 -0.51890351751E+03  0.51890507165E+03  0.12700000000E+01 0.  1.
         25    2    1    2    0    0  0.00000000000E+00  0.00000000000E+00 -0.51143063219E+03  0.52648510562E+03  0.12500109959E+03 0.  0.
    9000005    1    3    3    0    0 -0.42667132309E+02 -0.37565363149E+02 -0.14639561128E+03  0.15704876851E+03  0.10000000000E+01 0.  0.
    9000005    1    3    3    0    0  0.42667132309E+02  0.37565363149E+02 -0.36503502091E+03  0.36943633711E+03  0.10000000000E+01 0.  0.
<mgrwt>
<rscale>  0 0.12500110E+03</rscale>
<asrwt>0</asrwt>
<pdfrwt beam="1">  1        4 0.11580368E-02 0.12500110E+03</pdfrwt>
<pdfrwt beam="2">  1       -4 0.79839644E-01 0.12500110E+03</pdfrwt>
<totfact> 0.53865162E+03</totfact>
</mgrwt>
</event>
<event>
 5    1  0.3514886E-002  0.1250011E+03  0.7818608E-02  0.1235068E+00
         -4   -1    0    0    0  501 -0.00000000000E+00  0.00000000000E+00  0.12639909160E+03  0.12640547163E+03  0.12700000000E+01 0. -1.
          4   -1    0    0  501    0  0.00000000000E+00 -0.00000000000E+00 -0.30884441425E+02  0.30910542249E+02  0.12700000000E+01 0. -1.
         25    2    1    2    0    0  0.00000000000E+00  0.00000000000E+00  0.95514650178E+02  0.15731601388E+03  0.12500111929E+03 0.  0.
    9000005    1    3    3    0    0 -0.24527954742E+02  0.57477129701E+02  0.48110951653E+02  0.78872711830E+02  0.10000000000E+01 0.  0.
    9000005    1    3    3    0    0  0.24527954742E+02 -0.57477129701E+02  0.47403698525E+02  0.78443302049E+02  0.10000000000E+01 0.  0.
<mgrwt>
<rscale>  0 0.12500112E+03</rscale>
<asrwt>0</asrwt>
<pdfrwt beam="2">  1        4 0.47539511E-02 0.12500112E+03</pdfrwt>
<pdfrwt beam="1">  1       -4 0.19448513E-01 0.12500112E+03</pdfrwt>
<totfact> 0.97860283E+03</totfact>
</mgrwt>
</event>
<event>
 5    1  0.3514886E-002  0.1249995E+03  0.7818608E-02  0.1235070E+00
          4   -1    0    0  501    0  0.00000000000E+00  0.00000000000E+00  0.10882677342E+02  0.10956530753E+02  0.12700000000E+01 0.  1.
         -4   -1    0    0    0  501 -0.00000000000E+00 -0.00000000000E+00 -0.35765040353E+03  0.35765265837E+03  0.12700000000E+01 0.  1.
         25    2    1    2    0    0  0.00000000000E+00  0.00000000000E+00 -0.34676772618E+03  0.36860918913E+03  0.12499951354E+03 0.  0.
    9000005    1    3    3    0    0  0.56418955592E+02  0.26748052647E+02 -0.16577212540E+03  0.17714388059E+03  0.10000000000E+01 0.  0.
    9000005    1    3    3    0    0 -0.56418955592E+02 -0.26748052647E+02 -0.18099560078E+03  0.19146530854E+03  0.10000000000E+01 0.  0.
<mgrwt>
<rscale>  0 0.12499951E+03</rscale>
<asrwt>0</asrwt>
<pdfrwt beam="1">  1        4 0.16801128E-02 0.12499951E+03</pdfrwt>
<pdfrwt beam="2">  1       -4 0.55028984E-01 0.12499951E+03</pdfrwt>
<totfact> 0.67725426E+03</totfact>
</mgrwt>
</event>
<event>
 5    1  0.3514886E-002  0.1250001E+03  0.7818608E-02  0.1235069E+00
          4   -1    0    0  501    0  0.00000000000E+00  0.00000000000E+00  0.81286226471E+02  0.81296146981E+02  0.12700000000E+01 0. -1.
         -4   -1    0    0    0  501 -0.00000000000E+00 -0.00000000000E+00 -0.48034313552E+02  0.48051099659E+02  0.12700000000E+01 0. -1.
         25    2    1    2    0    0  0.00000000000E+00  0.00000000000E+00  0.33251912919E+02  0.12934724664E+03  0.12500008200E+03 0.  0.
    9000005    1    3    3    0    0  0.16484199147E+02  0.36438199633E+01 -0.45635045363E+02  0.48667890962E+02  0.10000000000E+01 0.  0.
    9000005    1    3    3    0    0 -0.16484199147E+02 -0.36438199633E+01  0.78886958282E+02  0.80679355677E+02  0.10000000000E+01 0.  0.
<mgrwt>
<rscale>  0 0.12500008E+03</rscale>
<asrwt>0</asrwt>
<pdfrwt beam="1">  1        4 0.12507628E-01 0.12500008E+03</pdfrwt>
<pdfrwt beam="2">  1       -4 0.73919487E-02 0.12500008E+03</pdfrwt>
<totfact> 0.10358472E+04</totfact>
</mgrwt>
</event>
<event>
 5    1  0.3514886E-002  0.1250021E+03  0.7818608E-02  0.1235066E+00
          4   -1    0    0  501    0  0.00000000000E+00  0.00000000000E+00  0.13667831784E+04  0.13667837684E+04  0.12700000000E+01 0.  1.
         -4   -1    0    0    0  501 -0.00000000000E+00 -0.00000000000E+00 -0.27163840482E+01  0.29986067260E+01  0.12700000000E+01 0.  1.
         25    2    1    2    0    0  0.00000000000E+00  0.00000000000E+00  0.13640667944E+04  0.13697823752E+04  0.12500214337E+03 0.  0.
    9000005    1    3    3    0    0 -0.28483127557E+02 -0.55594534457E+02  0.66199736450E+03  0.66493875765E+03  0.10000000000E+01 0.  0.
    9000005    1    3    3    0    0  0.28483127557E+02  0.55594534457E+02  0.70206942986E+03  0.70484361752E+03  0.10000000000E+01 0.  0.
<mgrwt>
<rscale>  0 0.12500214E+03</rscale>
<asrwt>0</asrwt>
<pdfrwt beam="1">  1        4 0.21029635E+00 0.12500214E+03</pdfrwt>
<pdfrwt beam="2">  1       -4 0.43965951E-03 0.12500214E+03</pdfrwt>
<totfact> 0.20637777E+03</totfact>
</mgrwt>
</event>
<event>
 5    1  0.3514886E-002  0.1250030E+03  0.7818608E-02  0.1235065E+00
         -4   -1    0    0    0  501 -0.00000000000E+00  0.00000000000E+00  0.34173878007E+03  0.34174113991E+03  0.12700000000E+01 0.  1.
          4   -1    0    0  501    0  0.00000000000E+00 -0.00000000000E+00 -0.11393379249E+02  0.11463943070E+02  0.12700000000E+01 0.  1.
         25    2    1    2    0    0  0.00000000000E+00  0.00000000000E+00  0.33034540083E+03  0.35320508298E+03  0.12500298715E+03 0.  0.
    9000005    1    3    3    0    0 -0.54868902813E+02  0.29626179231E+02  0.15347820396E+03  0.16566492110E+03  0.10000000000E+01 0.  0.
    9000005    1    3    3    0    0  0.54868902813E+02 -0.29626179231E+02  0.17686719686E+03  0.18754016188E+03  0.10000000000E+01 0.  0.
<mgrwt>
<rscale>  0 0.12500299E+03</rscale>
<asrwt>0</asrwt>
<pdfrwt beam="2">  1        4 0.17584371E-02 0.12500299E+03</pdfrwt>
<pdfrwt beam="1">  1       -4 0.52580806E-01 0.12500299E+03</pdfrwt>
<totfact> 0.69368804E+03</totfact>
</mgrwt>
</event>
<event>
 5    1  0.3514886E-002  0.1250020E+03  0.7818608E-02  0.1235066E+00
          4   -1    0    0  501    0  0.00000000000E+00  0.00000000000E+00  0.16303463977E+03  0.16303958619E+03  0.12700000000E+01 0. -1.
         -4   -1    0    0    0  501 -0.00000000000E+00 -0.00000000000E+00 -0.23938261044E+02  0.23971926118E+02  0.12700000000E+01 0. -1.
         25    2    1    2    0    0  0.00000000000E+00  0.00000000000E+00  0.13909637872E+03  0.18701151230E+03  0.12500201263E+03 0.  0.
    9000005    1    3    3    0    0 -0.10788159105E+02 -0.32510948249E+01 -0.22413418439E+02  0.25106081346E+02  0.10000000000E+01 0.  0.
    9000005    1    3    3    0    0  0.10788159105E+02  0.32510948249E+01  0.16150979716E+03  0.16190543096E+03  0.10000000000E+01 0.  0.
<mgrwt>
<rscale>  0 0.12500201E+03</rscale>
<asrwt>0</asrwt>
<pdfrwt beam="1">  1        4 0.25085222E-01 0.12500201E+03</pdfrwt>
<pdfrwt beam="2">  1       -4 0.36857796E-02 0.12500201E+03</pdfrwt>
<totfact> 0.92365752E+03</totfact>
</mgrwt>
</event>
<event>
 5    1  0.3514886E-002  0.1250058E+03  0.7818608E-02  0.1235060E+00
          4   -1    0    0  501    0  0.00000000000E+00  0.00000000000E+00  0.19687601090E+02  0.19728520894E+02  0.12700000000E+01 0.  1.
         -4   -1    0    0    0  501 -0.00000000000E+00 -0.00000000000E+00 -0.19818107346E+03  0.19818514267E+03  0.12700000000E+01 0.  1.
         25    2    1    2    0    0  0.00000000000E+00  0.00000000000E+00 -0.17849347236E+03  0.21791366357E+03  0.12500578023E+03 0.  0.
    9000005    1    3    3    0    0  0.51529865152E+01 -0.62278216868E+02 -0.88036846629E+02  0.10796580908E+03  0.10000000000E+01 0.  0.
    9000005    1    3    3    0    0 -0.51529865152E+01  0.62278216868E+02 -0.90456625736E+02  0.10994785449E+03  0.10000000000E+01 0.  0.
<mgrwt>
<rscale>  0 0.12500578E+03</rscale>
<asrwt>0</asrwt>
<pdfrwt beam="1">  1        4 0.30323225E-02 0.12500578E+03</pdfrwt>
<pdfrwt beam="2">  1       -4 0.30492855E-01 0.12500578E+03</pdfrwt>
<totfact> 0.87188306E+03</totfact>
</mgrwt>
</event>
<event>
 5    1  0.3514886E-002  0.1250020E+03  0.7818608E-02  0.1235066E+00
         -4   -1    0    0    0  501 -0.00000000000E+00  0.00000000000E+00  0.63234138114E+01  0.64496869870E+01  0.12700000000E+01 0.  1.
          4   -1    0    0  501    0  0.00000000000E+00 -0.00000000000E+00 -0.61152935281E+03  0.61153067155E+03  0.12700000000E+01 0.  1.
         25    2    1    2    0    0  0.00000000000E+00  0.00000000000E+00 -0.60520593900E+03  0.61798035854E+03  0.12500197974E+03 0.  0.
    9000005    1    3    3    0    0  0.38402311638E+02 -0.27784576777E+02 -0.10126039660E+03  0.11180960677E+03  0.10000000000E+01 0.  0.
    9000005    1    3    3    0    0 -0.38402311638E+02  0.27784576777E+02 -0.50394554239E+03  0.50617075177E+03  0.10000000000E+01 0.  0.
<mgrwt>
<rscale>  0 0.12500198E+03</rscale>
<asrwt>0</asrwt>
<pdfrwt beam="2">  1        4 0.94091208E-01 0.12500198E+03</pdfrwt>
<pdfrwt beam="1">  1       -4 0.98264814E-03 0.12500198E+03</pdfrwt>
<totfact> 0.47749903E+03</totfact>
</mgrwt>
</event>
<event>
 5    1  0.3514886E-002  0.1250017E+03  0.7818608E-02  0.1235067E+00
         -4   -1    0    0    0  501 -0.00000000000E+00  0.00000000000E+00  0.18847652073E+03  0.18848079946E+03  0.12700000000E+01 0.  1.
          4   -1    0    0  501    0  0.00000000000E+00 -0.00000000000E+00 -0.20701968440E+02  0.20740887090E+02  0.12700000000E+01 0.  1.
         25    2    1    2    0    0  0.00000000000E+00  0.00000000000E+00  0.16777455229E+03  0.20922168655E+03  0.12500165490E+03 0.  0.
    9000005    1    3    3    0    0 -0.46481397849E+02  0.15742326392E+02  0.14864679486E+03  0.15654140285E+03  0.10000000000E+01 0.  0.
    9000005    1    3    3    0    0  0.46481397849E+02 -0.15742326392E+02  0.19127757432E+02  0.52680283699E+02  0.10000000000E+01 0.  0.
<mgrwt>
<rscale>  0 0.12500165E+03</rscale>
<asrwt>0</asrwt>
<pdfrwt beam="2">  1        4 0.31882411E-02 0.12500165E+03</pdfrwt>
<pdfrwt beam="1">  1       -4 0.28999710E-01 0.12500165E+03</pdfrwt>
<totfact> 0.88599869E+03</totfact>
</mgrwt>
</event>
<event>
 5    1  0.3514886E-002  0.1249998E+03  0.7818608E-02  0.1235070E+00
          4   -1    0    0  501    0  0.00000000000E+00  0.00000000000E+00  0.10960158429E+02  0.11033493226E+02  0.12700000000E+01 0. -1.
         -4   -1    0    0    0  501 -0.00000000000E+00 -0.00000000000E+00 -0.35514067603E+03  0.35514294681E+03  0.12700000000E+01 0. -1.
         25    2    1    2    0    0  0.00000000000E+00  0.00000000000E+00 -0.34418051760E+03  0.36617644004E+03  0.12499982617E+03 0.  0.
    9000005    1    3    3    0    0  0.57020522850E+02  0.44609475803E+01 -0.24585100385E+03  0.25241821680E+03  0.10000000000E+01 0.  0.
    9000005    1    3    3    0    0 -0.57020522850E+02 -0.44609475803E+01 -0.98329513744E+02  0.11375822323E+03  0.10000000000E+01 0.  0.
<mgrwt>
<rscale>  0 0.12499983E+03</rscale>
<asrwt>0</asrwt>
<pdfrwt beam="1">  1        4 0.16919943E-02 0.12499983E+03</pdfrwt>
<pdfrwt beam="2">  1       -4 0.54642834E-01 0.12499983E+03</pdfrwt>
<totfact> 0.67981124E+03</totfact>
</mgrwt>
</event>
<event>
 5    1  0.3514886E-002  0.1250010E+03  0.7818608E-02  0.1235068E+00
          4   -1    0    0  501    0  0.00000000000E+00  0.00000000000E+00  0.73497787798E+02  0.73508759418E+02  0.12700000000E+01 0.  1.
         -4   -1    0    0    0  501 -0.00000000000E+00 -0.00000000000E+00 -0.53126141533E+02  0.53141319274E+02  0.12700000000E+01 0.  1.
         25    2    1    2    0    0  0.00000000000E+00  0.00000000000E+00  0.20371646264E+02  0.12665007869E+03  0.12500095384E+03 0.  0.
    9000005    1    3    3    0    0 -0.49126622143E+02  0.54762012507E+01 -0.28553350379E+02  0.57093849066E+02  0.10000000000E+01 0.  0.
    9000005    1    3    3    0    0  0.49126622143E+02 -0.54762012507E+01  0.48924996643E+02  0.69556229626E+02  0.10000000000E+01 0.  0.
<mgrwt>
<rscale>  0 0.12500095E+03</rscale>
<asrwt>0</asrwt>
<pdfrwt beam="1">  1        4 0.11309363E-01 0.12500095E+03</pdfrwt>
<pdfrwt beam="2">  1       -4 0.81752641E-02 0.12500095E+03</pdfrwt>
<totfact> 0.10416533E+04</totfact>
</mgrwt>
</event>
<event>
 5    1  0.3514886E-002  0.1249990E+03  0.7818608E-02  0.1235071E+00
          4   -1    0    0  501    0  0.00000000000E+00  0.00000000000E+00  0.59729378424E+01  0.61064626806E+01  0.12700000000E+01 0.  1.
         -4   -1    0    0    0  501 -0.00000000000E+00 -0.00000000000E+00 -0.64661747598E+03  0.64661872316E+03  0.12700000000E+01 0.  1.
         25    2    1    2    0    0  0.00000000000E+00  0.00000000000E+00 -0.64064453814E+03  0.65272518584E+03  0.12499897594E+03 0.  0.
    9000005    1    3    3    0    0 -0.61277887053E+02  0.10728028102E+02 -0.28937828435E+03  0.29599131995E+03  0.10000000000E+01 0.  0.
    9000005    1    3    3    0    0  0.61277887053E+02 -0.10728028102E+02 -0.35126625378E+03  0.35673386590E+03  0.10000000000E+01 0.  0.
<mgrwt>
<rscale>  0 0.12499898E+03</rscale>
<asrwt>0</asrwt>
<pdfrwt beam="1">  1        4 0.92928110E-03 0.12499898E+03</pdfrwt>
<pdfrwt beam="2">  1       -4 0.99489924E-01 0.12499898E+03</pdfrwt>
<totfact> 0.45700887E+03</totfact>
</mgrwt>
</event>
<event>
 5    1  0.3514886E-002  0.1249958E+03  0.7818608E-02  0.1235076E+00
          4   -1    0    0  501    0  0.00000000000E+00  0.00000000000E+00  0.18730910007E+02  0.18773915140E+02  0.12700000000E+01 0.  1.
         -4   -1    0    0    0  501 -0.00000000000E+00 -0.00000000000E+00 -0.20824762963E+03  0.20825150215E+03  0.12700000000E+01 0.  1.
         25    2    1    2    0    0  0.00000000000E+00  0.00000000000E+00 -0.18951671962E+03  0.22702541729E+03  0.12499581224E+03 0.  0.
    9000005    1    3    3    0    0  0.22974456246E+02  0.21347110673E+02 -0.19292846394E+03  0.19546333920E+03  0.10000000000E+01 0.  0.
    9000005    1    3    3    0    0 -0.22974456246E+02 -0.21347110673E+02  0.34117443142E+01  0.31562078087E+02  0.10000000000E+01 0.  0.
<mgrwt>
<rscale>  0 0.12499581E+03</rscale>
<asrwt>0</asrwt>
<pdfrwt beam="1">  1        4 0.28852846E-02 0.12499581E+03</pdfrwt>
<pdfrwt beam="2">  1       -4 0.32041701E-01 0.12499581E+03</pdfrwt>
<totfact> 0.85776467E+03</totfact>
</mgrwt>
</event>
<event>
 5    1  0.3514886E-002  0.1250004E+03  0.7818608E-02  0.1235069E+00
         -4   -1    0    0    0  501 -0.00000000000E+00  0.00000000000E+00  0.34876784727E+03  0.34877015954E+03  0.12700000000E+01 0. -1.
          4   -1    0    0  501    0  0.00000000000E+00 -0.00000000000E+00 -0.11161853664E+02  0.11233871871E+02  0.12700000000E+01 0. -1.
         25    2    1    2    0    0  0.00000000000E+00  0.00000000000E+00  0.33760599360E+03  0.36000403141E+03  0.12500038287E+03 0.  0.
    9000005    1    3    3    0    0 -0.43715956794E+02  0.43812971043E+02  0.14392575865E+03  0.15667254167E+03  0.10000000000E+01 0.  0.
    9000005    1    3    3    0    0  0.43715956794E+02 -0.43812971043E+02  0.19368023495E+03  0.20333148974E+03  0.10000000000E+01 0.  0.
<mgrwt>
<rscale>  0 0.12500038E+03</rscale>
<asrwt>0</asrwt>
<pdfrwt beam="2">  1        4 0.17229260E-02 0.12500038E+03</pdfrwt>
<pdfrwt beam="1">  1       -4 0.53662308E-01 0.12500038E+03</pdfrwt>
<totfact> 0.68637250E+03</totfact>
</mgrwt>
</event>
<event>
 5    1  0.3514886E-002  0.1250026E+03  0.7818608E-02  0.1235065E+00
          4   -1    0    0  501    0  0.00000000000E+00  0.00000000000E+00  0.15757487437E+03  0.15757999217E+03  0.12700000000E+01 0. -1.
         -4   -1    0    0    0  501 -0.00000000000E+00 -0.00000000000E+00 -0.24769036946E+02  0.24801574370E+02  0.12700000000E+01 0. -1.
         25    2    1    2    0    0  0.00000000000E+00  0.00000000000E+00  0.13280583742E+03  0.18238156654E+03  0.12500258141E+03 0.  0.
    9000005    1    3    3    0    0 -0.29082044459E+02 -0.45144860054E+02  0.19769229384E+02  0.57233260694E+02  0.10000000000E+01 0.  0.
    9000005    1    3    3    0    0  0.29082044459E+02  0.45144860054E+02  0.11303660804E+03  0.12514830584E+03  0.10000000000E+01 0.  0.
<mgrwt>
<rscale>  0 0.12500258E+03</rscale>
<asrwt>0</asrwt>
<pdfrwt beam="1">  1        4 0.24245186E-01 0.12500258E+03</pdfrwt>
<pdfrwt beam="2">  1       -4 0.38135175E-02 0.12500258E+03</pdfrwt>
<totfact> 0.93184668E+03</totfact>
</mgrwt>
</event>
<event>
 5    1  0.3514886E-002  0.1250008E+03  0.7818608E-02  0.1235068E+00
          4   -1    0    0  501    0  0.00000000000E+00  0.00000000000E+00  0.26286465020E+02  0.26317126425E+02  0.12700000000E+01 0.  1.
         -4   -1    0    0    0  501 -0.00000000000E+00 -0.00000000000E+00 -0.14848509745E+03  0.14849052854E+03  0.12700000000E+01 0.  1.
         25    2    1    2    0    0  0.00000000000E+00  0.00000000000E+00 -0.12219863243E+03  0.17480765496E+03  0.12500084186E+03 0.  0.
    9000005    1    3    3    0    0  0.81688989932E+01  0.17653107096E+02 -0.14415063151E+03  0.14546053645E+03  0.10000000000E+01 0.  0.
    9000005    1    3    3    0    0 -0.81688989932E+01 -0.17653107096E+02  0.21951999081E+02  0.29347118505E+02  0.10000000000E+01 0.  0.
<mgrwt>
<rscale>  0 0.12500084E+03</rscale>
<asrwt>0</asrwt>
<pdfrwt beam="1">  1        4 0.40468480E-02 0.12500084E+03</pdfrwt>
<pdfrwt beam="2">  1       -4 0.22846637E-01 0.12500084E+03</pdfrwt>
<totfact> 0.94558294E+03</totfact>
</mgrwt>
</event>
<event>
 5    1  0.3514886E-002  0.1249991E+03  0.7818608E-02  0.1235071E+00
         -4   -1    0    0    0  501 -0.00000000000E+00  0.00000000000E+00  0.61549861325E+01  0.62846443250E+01  0.12700000000E+01 0.  1.
          4   -1    0    0  501    0  0.00000000000E+00 -0.00000000000E+00 -0.62789368477E+03  0.62789496915E+03  0.12700000000E+01 0.  1.
         25    2    1    2    0    0  0.00000000000E+00  0.00000000000E+00 -0.62173869864E+03  0.63417961347E+03  0.12499909101E+03 0.  0.
    9000005    1    3    3    0    0 -0.12272401367E+02 -0.48087122464E+02 -0.50354182349E+03  0.50598256016E+03  0.10000000000E+01 0.  0.
    9000005    1    3    3    0    0  0.12272401367E+02  0.48087122464E+02 -0.11819687515E+03  0.12819705331E+03  0.10000000000E+01 0.  0.
<mgrwt>
<rscale>  0 0.12499909E+03</rscale>
<asrwt>0</asrwt>
<pdfrwt beam="2">  1        4 0.96609051E-01 0.12499909E+03</pdfrwt>
<pdfrwt beam="1">  1       -4 0.95699394E-03 0.12499909E+03</pdfrwt>
<totfact> 0.46779759E+03</totfact>
</mgrwt>
</event>
<event>
 5    1  0.3514886E-002  0.1250024E+03  0.7818608E-02  0.1235066E+00
          4   -1    0    0  501    0  0.00000000000E+00  0.00000000000E+00  0.11040322523E+03  0.11041052958E+03  0.12700000000E+01 0.  1.
         -4   -1    0    0    0  501 -0.00000000000E+00 -0.00000000000E+00 -0.35363126817E+02  0.35385924296E+02  0.12700000000E+01 0.  1.
         25    2    1    2    0    0  0.00000000000E+00  0.00000000000E+00  0.75040098417E+02  0.14579645388E+03  0.12500235835E+03 0.  0.
    9000005    1    3    3    0    0  0.36361377048E+01 -0.37604214133E+02 -0.20541427706E+02  0.43014516970E+02  0.10000000000E+01 0.  0.
    9000005    1    3    3    0    0 -0.36361377048E+01  0.37604214133E+02  0.95581526123E+02  0.10278193690E+03  0.10000000000E+01 0.  0.
<mgrwt>
<rscale>  0 0.12500236E+03</rscale>
<asrwt>0</asrwt>
<pdfrwt beam="1">  1        4 0.16987427E-01 0.12500236E+03</pdfrwt>
<pdfrwt beam="2">  1       -4 0.54427966E-02 0.12500236E+03</pdfrwt>
<totfact> 0.10014300E+04</totfact>
</mgrwt>
</event>
<event>
 5    1  0.3514886E-002  0.1249993E+03  0.7818608E-02  0.1235070E+00
         -4   -1    0    0    0  501 -0.00000000000E+00  0.00000000000E+00  0.55722141558E+02  0.55736612382E+02  0.12700000000E+01 0.  1.
          4   -1    0    0  501    0  0.00000000000E+00 -0.00000000000E+00 -0.70072180382E+02  0.70083688284E+02  0.12700000000E+01 0.  1.
         25    2    1    2    0    0  0.00000000000E+00  0.00000000000E+00 -0.14350038824E+02  0.12582030067E+03  0.12499929778E+03 0.  0.
    9000005    1    3    3    0    0 -0.61947868521E+02  0.76182072508E+01 -0.10298725505E+02  0.63266414811E+02  0.10000000000E+01 0.  0.
    9000005    1    3    3    0    0  0.61947868521E+02 -0.76182072508E+01 -0.40513133191E+01  0.62553885855E+02  0.10000000000E+01 0.  0.
<mgrwt>
<rscale>  0 0.12499930E+03</rscale>
<asrwt>0</asrwt>
<pdfrwt beam="2">  1        4 0.10782334E-01 0.12499930E+03</pdfrwt>
<pdfrwt beam="1">  1       -4 0.85746355E-02 0.12499930E+03</pdfrwt>
<totfact> 0.10435065E+04</totfact>
</mgrwt>
</event>
<event>
 5    1  0.3514886E-002  0.1250021E+03  0.7818608E-02  0.1235066E+00
         -4   -1    0    0    0  501 -0.00000000000E+00  0.00000000000E+00  0.10678213752E+03  0.10678968955E+03  0.12700000000E+01 0. -1.
          4   -1    0    0  501    0  0.00000000000E+00 -0.00000000000E+00 -0.36562859100E+02  0.36584908987E+02  0.12700000000E+01 0. -1.
         25    2    1    2    0    0  0.00000000000E+00  0.00000000000E+00  0.70219278423E+02  0.14337459854E+03  0.12500211375E+03 0.  0.
    9000005    1    3    3    0    0  0.17684467607E+02 -0.57806562480E+02  0.53282736839E+02  0.80587772679E+02  0.10000000000E+01 0.  0.
    9000005    1    3    3    0    0 -0.17684467607E+02  0.57806562480E+02  0.16936541584E+02  0.62786825857E+02  0.10000000000E+01 0.  0.
<mgrwt>
<rscale>  0 0.12500211E+03</rscale>
<asrwt>0</asrwt>
<pdfrwt beam="2">  1        4 0.56273323E-02 0.12500211E+03</pdfrwt>
<pdfrwt beam="1">  1       -4 0.16430298E-01 0.12500211E+03</pdfrwt>
<totfact> 0.10063639E+04</totfact>
</mgrwt>
</event>
<event>
 5    1  0.3514886E-002  0.1250067E+03  0.7818608E-02  0.1235059E+00
          4   -1    0    0  501    0  0.00000000000E+00  0.00000000000E+00  0.22164713451E+02  0.22201068045E+02  0.12700000000E+01 0. -1.
         -4   -1    0    0    0  501 -0.00000000000E+00 -0.00000000000E+00 -0.17607310803E+03  0.17607768817E+03  0.12700000000E+01 0. -1.
         25    2    1    2    0    0  0.00000000000E+00  0.00000000000E+00 -0.15390839458E+03  0.19827875622E+03  0.12500668480E+03 0.  0.
    9000005    1    3    3    0    0  0.32360047981E+02 -0.28023904903E+01  0.77323186620E+01  0.33403814897E+02  0.10000000000E+01 0.  0.
    9000005    1    3    3    0    0 -0.32360047981E+02  0.28023904903E+01 -0.16164071324E+03  0.16487494132E+03  0.10000000000E+01 0.  0.
<mgrwt>
<rscale>  0 0.12500668E+03</rscale>
<asrwt>0</asrwt>
<pdfrwt beam="1">  1        4 0.34131049E-02 0.12500668E+03</pdfrwt>
<pdfrwt beam="2">  1       -4 0.27091318E-01 0.12500668E+03</pdfrwt>
<totfact> 0.90412929E+03</totfact>
</mgrwt>
</event>
<event>
 5    1  0.3514886E-002  0.1250013E+03  0.7818608E-02  0.1235067E+00
          4   -1    0    0  501    0  0.00000000000E+00  0.00000000000E+00  0.54019840358E+01  0.55492640524E+01  0.12700000000E+01 0.  1.
         -4   -1    0    0    0  501 -0.00000000000E+00 -0.00000000000E+00 -0.71325555978E+03  0.71325669044E+03  0.12700000000E+01 0.  1.
         25    2    1    2    0    0  0.00000000000E+00  0.00000000000E+00 -0.70785357575E+03  0.71880595450E+03  0.12500126207E+03 0.  0.
    9000005    1    3    3    0    0 -0.40538421522E+02  0.44761548702E+02 -0.44635775254E+03  0.45042558000E+03  0.10000000000E+01 0.  0.
    9000005    1    3    3    0    0  0.40538421522E+02 -0.44761548702E+02 -0.26149582321E+03  0.26838037450E+03  0.10000000000E+01 0.  0.
<mgrwt>
<rscale>  0 0.12500126E+03</rscale>
<asrwt>0</asrwt>
<pdfrwt beam="1">  1        4 0.84249124E-03 0.12500126E+03</pdfrwt>
<pdfrwt beam="2">  1       -4 0.10974297E+00 0.12500126E+03</pdfrwt>
<totfact> 0.42111221E+03</totfact>
</mgrwt>
</event>
<event>
 5    1  0.3514886E-002  0.1249946E+03  0.7818608E-02  0.1235078E+00
         -4   -1    0    0    0  501 -0.00000000000E+00  0.00000000000E+00  0.52568088045E+02  0.52583426864E+02  0.12700000000E+01 0. -1.
          4   -1    0    0  501    0  0.00000000000E+00 -0.00000000000E+00 -0.74270416169E+02  0.74281273669E+02  0.12700000000E+01 0. -1.
         25    2    1    2    0    0  0.00000000000E+00  0.00000000000E+00 -0.21702328124E+02  0.12686470053E+03  0.12499464467E+03 0.  0.
    9000005    1    3    3    0    0 -0.19133148506E+02 -0.14303554850E+02  0.47755665457E+02  0.53406672208E+02  0.10000000000E+01 0.  0.
    9000005    1    3    3    0    0  0.19133148506E+02  0.14303554850E+02 -0.69457993581E+02  0.73458028325E+02  0.10000000000E+01 0.  0.
<mgrwt>
<rscale>  0 0.12499464E+03</rscale>
<asrwt>0</asrwt>
<pdfrwt beam="2">  1        4 0.11428233E-01 0.12499464E+03</pdfrwt>
<pdfrwt beam="1">  1       -4 0.80894132E-02 0.12499464E+03</pdfrwt>
<totfact> 0.10413345E+04</totfact>
</mgrwt>
</event>
<event>
 5    1  0.3514886E-002  0.1250015E+03  0.7818608E-02  0.1235067E+00
          4   -1    0    0  501    0  0.00000000000E+00  0.00000000000E+00  0.16712411276E+03  0.16712893815E+03  0.12700000000E+01 0.  1.
         -4   -1    0    0    0  501 -0.00000000000E+00 -0.00000000000E+00 -0.23351474568E+02  0.23385984360E+02  0.12700000000E+01 0.  1.
         25    2    1    2    0    0  0.00000000000E+00  0.00000000000E+00  0.14377263819E+03  0.19051492251E+03  0.12500145681E+03 0.  0.
    9000005    1    3    3    0    0  0.18640824733E+02  0.59576361434E+02  0.67438170949E+02  0.91900653368E+02  0.10000000000E+01 0.  0.
    9000005    1    3    3    0    0 -0.18640824733E+02 -0.59576361434E+02  0.76334467243E+02  0.98614269139E+02  0.10000000000E+01 0.  0.
<mgrwt>
<rscale>  0 0.12500146E+03</rscale>
<asrwt>0</asrwt>
<pdfrwt beam="1">  1        4 0.25714428E-01 0.12500146E+03</pdfrwt>
<pdfrwt beam="2">  1       -4 0.35955604E-02 0.12500146E+03</pdfrwt>
<totfact> 0.91754803E+03</totfact>
</mgrwt>
</event>
<event>
 5    1  0.3514886E-002  0.1249870E+03  0.7818608E-02  0.1235090E+00
         -4   -1    0    0    0  501 -0.00000000000E+00  0.00000000000E+00  0.91062528311E+02  0.91071383883E+02  0.12700000000E+01 0.  1.
          4   -1    0    0  501    0  0.00000000000E+00 -0.00000000000E+00 -0.42867056173E+02  0.42885864862E+02  0.12700000000E+01 0.  1.
         25    2    1    2    0    0  0.00000000000E+00  0.00000000000E+00  0.48195472138E+02  0.13395724875E+03  0.12498696315E+03 0.  0.
    9000005    1    3    3    0    0  0.24683295314E+02 -0.56398689975E+02  0.12636415321E+02  0.62855041887E+02  0.10000000000E+01 0.  0.
    9000005    1    3    3    0    0 -0.24683295314E+02  0.56398689975E+02  0.35559056816E+02  0.71102206858E+02  0.10000000000E+01 0.  0.
<mgrwt>
<rscale>  0 0.12498696E+03</rscale>
<asrwt>0</asrwt>
<pdfrwt beam="2">  1        4 0.65970598E-02 0.12498696E+03</pdfrwt>
<pdfrwt beam="1">  1       -4 0.14011748E-01 0.12498696E+03</pdfrwt>
<totfact> 0.10263114E+04</totfact>
</mgrwt>
</event>
<event>
 5    1  0.3514886E-002  0.1249969E+03  0.7818608E-02  0.1235074E+00
          4   -1    0    0  501    0  0.00000000000E+00  0.00000000000E+00  0.24483994450E+03  0.24484323826E+03  0.12700000000E+01 0. -1.
         -4   -1    0    0    0  501 -0.00000000000E+00 -0.00000000000E+00 -0.15924834809E+02  0.15975395572E+02  0.12700000000E+01 0. -1.
         25    2    1    2    0    0  0.00000000000E+00  0.00000000000E+00  0.22891510969E+03  0.26081863384E+03  0.12499692920E+03 0.  0.
    9000005    1    3    3    0    0 -0.59998416570E+02 -0.79114938188E+01  0.81953682455E+02  0.10188134173E+03  0.10000000000E+01 0.  0.
    9000005    1    3    3    0    0  0.59998416570E+02  0.79114938188E+01  0.14696142724E+03  0.15893729210E+03  0.10000000000E+01 0.  0.
<mgrwt>
<rscale>  0 0.12499693E+03</rscale>
<asrwt>0</asrwt>
<pdfrwt beam="1">  1        4 0.37671822E-01 0.12499693E+03</pdfrwt>
<pdfrwt beam="2">  1       -4 0.24541175E-02 0.12499693E+03</pdfrwt>
<totfact> 0.80796839E+03</totfact>
</mgrwt>
</event>
<event>
 5    1  0.3514886E-002  0.1249955E+03  0.7818608E-02  0.1235076E+00
          4   -1    0    0  501    0  0.00000000000E+00  0.00000000000E+00  0.14019599626E+03  0.14020174844E+03  0.12700000000E+01 0. -1.
         -4   -1    0    0    0  501 -0.00000000000E+00 -0.00000000000E+00 -0.27839953481E+02  0.27868905788E+02  0.12700000000E+01 0. -1.
         25    2    1    2    0    0  0.00000000000E+00  0.00000000000E+00  0.11235604278E+03  0.16807065423E+03  0.12499545778E+03 0.  0.
    9000005    1    3    3    0    0 -0.44816849161E+02 -0.20630903911E+02  0.46110286556E+01  0.49562543822E+02  0.10000000000E+01 0.  0.
    9000005    1    3    3    0    0  0.44816849161E+02  0.20630903911E+02  0.10774501412E+03  0.11850811041E+03  0.10000000000E+01 0.  0.
<mgrwt>
<rscale>  0 0.12499546E+03</rscale>
<asrwt>0</asrwt>
<pdfrwt beam="1">  1        4 0.21571284E-01 0.12499546E+03</pdfrwt>
<pdfrwt beam="2">  1       -4 0.42857393E-02 0.12499546E+03</pdfrwt>
<totfact> 0.95818772E+03</totfact>
</mgrwt>
</event>
<event>
 4    1  0.3514886E-002  0.1248535E+03  0.7818608E-02  0.1235298E+00
          4   -1    0    0  501    0  0.00000000000E+00  0.00000000000E+00  0.12134579996E+02  0.12200857825E+02  0.12700000000E+01 0. -1.
         -4   -1    0    0    0  501 -0.00000000000E+00 -0.00000000000E+00 -0.32021434210E+03  0.32021686056E+03  0.12700000000E+01 0. -1.
    9000005    1    1    2    0    0 -0.43495395714E+02  0.44279937676E+02 -0.17160760884E+03  0.18249036616E+03  0.10000000000E+01 0.  0.
    9000005    1    1    2    0    0  0.43495395714E+02 -0.44279937676E+02 -0.13647215326E+03  0.14992735222E+03  0.10000000000E+01 0.  0.
<mgrwt>
<rscale>  0 0.12485351E+03</rscale>
<asrwt>0</asrwt>
<pdfrwt beam="1">  1        4 0.18721507E-02 0.12485351E+03</pdfrwt>
<pdfrwt beam="2">  1       -4 0.49269030E-01 0.12485351E+03</pdfrwt>
<totfact> 0.71936314E+03</totfact>
</mgrwt>
</event>
<event>
 5    1  0.3514886E-002  0.1249980E+03  0.7818608E-02  0.1235072E+00
          4   -1    0    0  501    0  0.00000000000E+00  0.00000000000E+00  0.30948293777E+01  0.33452756055E+01  0.12700000000E+01 0. -1.
         -4   -1    0    0    0  501 -0.00000000000E+00 -0.00000000000E+00 -0.12128113719E+04  0.12128120369E+04  0.12700000000E+01 0. -1.
         25    2    1    2    0    0  0.00000000000E+00  0.00000000000E+00 -0.12097165426E+04  0.12161573125E+04  0.12499798146E+03 0.  0.
    9000005    1    3    3    0    0  0.62795372555E+01  0.21041700071E+00  0.61599799735E-01  0.63624411976E+01  0.10000000000E+01 0.  0.
    9000005    1    3    3    0    0 -0.62795372555E+01 -0.21041700071E+00 -0.12097781424E+04  0.12097948713E+04  0.10000000000E+01 0.  0.
<mgrwt>
<rscale>  0 0.12499798E+03</rscale>
<asrwt>0</asrwt>
<pdfrwt beam="1">  1        4 0.49544481E-03 0.12499798E+03</pdfrwt>
<pdfrwt beam="2">  1       -4 0.18660532E+00 0.12499798E+03</pdfrwt>
<totfact> 0.24294842E+03</totfact>
</mgrwt>
</event>
<event>
 5    1  0.3514886E-002  0.1249995E+03  0.7818608E-02  0.1235070E+00
         -4   -1    0    0    0  501 -0.00000000000E+00  0.00000000000E+00  0.54045134243E+02  0.54060053971E+02  0.12700000000E+01 0.  1.
          4   -1    0    0  501    0  0.00000000000E+00 -0.00000000000E+00 -0.72246494978E+02  0.72257656595E+02  0.12700000000E+01 0.  1.
         25    2    1    2    0    0  0.00000000000E+00  0.00000000000E+00 -0.18201360736E+02  0.12631771057E+03  0.12499949788E+03 0.  0.
    9000005    1    3    3    0    0 -0.47890361064E+02  0.36717086424E+02  0.73059117820E+01  0.60794798012E+02  0.10000000000E+01 0.  0.
    9000005    1    3    3    0    0  0.47890361064E+02 -0.36717086424E+02 -0.25507272518E+02  0.65522912554E+02  0.10000000000E+01 0.  0.
<mgrwt>
<rscale>  0 0.12499950E+03</rscale>
<asrwt>0</asrwt>
<pdfrwt beam="2">  1        4 0.11116852E-01 0.12499950E+03</pdfrwt>
<pdfrwt beam="1">  1       -4 0.83166422E-02 0.12499950E+03</pdfrwt>
<totfact> 0.10424125E+04</totfact>
</mgrwt>
</event>
<event>
 5    1  0.3514886E-002  0.1250002E+03  0.7818608E-02  0.1235069E+00
         -4   -1    0    0    0  501 -0.00000000000E+00  0.00000000000E+00  0.49283420963E+02  0.49299781763E+02  0.12700000000E+01 0. -1.
          4   -1    0    0  501    0  0.00000000000E+00 -0.00000000000E+00 -0.79226543030E+02  0.79236721414E+02  0.12700000000E+01 0. -1.
         25    2    1    2    0    0  0.00000000000E+00  0.00000000000E+00 -0.29943122067E+02  0.12853650318E+03  0.12500016836E+03 0.  0.
    9000005    1    3    3    0    0 -0.34792210499E+02  0.33684094987E+02 -0.55587666209E+02  0.73729945077E+02  0.10000000000E+01 0.  0.
    9000005    1    3    3    0    0  0.34792210499E+02 -0.33684094987E+02  0.25644544142E+02  0.54806558100E+02  0.10000000000E+01 0.  0.
<mgrwt>
<rscale>  0 0.12500017E+03</rscale>
<asrwt>0</asrwt>
<pdfrwt beam="2">  1        4 0.12190740E-01 0.12500017E+03</pdfrwt>
<pdfrwt beam="1">  1       -4 0.75841062E-02 0.12500017E+03</pdfrwt>
<totfact> 0.10375878E+04</totfact>
</mgrwt>
</event>
<event>
 5    1  0.3514886E-002  0.1249979E+03  0.7818608E-02  0.1235073E+00
         -4   -1    0    0    0  501 -0.00000000000E+00  0.00000000000E+00  0.47310477953E+02  0.47327520790E+02  0.12700000000E+01 0. -1.
          4   -1    0    0  501    0  0.00000000000E+00 -0.00000000000E+00 -0.82526731877E+02  0.82536503284E+02  0.12700000000E+01 0. -1.
         25    2    1    2    0    0  0.00000000000E+00  0.00000000000E+00 -0.35216253925E+02  0.12986402407E+03  0.12499792082E+03 0.  0.
    9000005    1    3    3    0    0 -0.24472113189E+02 -0.29902471164E+02 -0.68632976883E+02  0.78768823918E+02  0.10000000000E+01 0.  0.
    9000005    1    3    3    0    0  0.24472113189E+02  0.29902471164E+02  0.33416722959E+02  0.51095200156E+02  0.10000000000E+01 0.  0.
<mgrwt>
<rscale>  0 0.12499792E+03</rscale>
<asrwt>0</asrwt>
<pdfrwt beam="2">  1        4 0.12698483E-01 0.12499792E+03</pdfrwt>
<pdfrwt beam="1">  1       -4 0.72805977E-02 0.12499792E+03</pdfrwt>
<totfact> 0.10347903E+04</totfact>
</mgrwt>
</event>
<event>
 5    1  0.3514886E-002  0.1249980E+03  0.7818608E-02  0.1235072E+00
         -4   -1    0    0    0  501 -0.00000000000E+00  0.00000000000E+00  0.52078095683E+03  0.52078250537E+03  0.12700000000E+01 0.  1.
          4   -1    0    0  501    0  0.00000000000E+00 -0.00000000000E+00 -0.74451857839E+01  0.75527274118E+01  0.12700000000E+01 0.  1.
         25    2    1    2    0    0  0.00000000000E+00  0.00000000000E+00  0.51333577105E+03  0.52833523278E+03  0.12499801743E+03 0.  0.
    9000005    1    3    3    0    0  0.18581768122E+02 -0.27651114945E+02  0.33198754714E+02  0.47042784556E+02  0.10000000000E+01 0.  0.
    9000005    1    3    3    0    0 -0.18581768122E+02  0.27651114945E+02  0.48013701633E+03  0.48129244822E+03  0.10000000000E+01 0.  0.
<mgrwt>
<rscale>  0 0.12499802E+03</rscale>
<asrwt>0</asrwt>
<pdfrwt beam="2">  1        4 0.11538044E-02 0.12499802E+03</pdfrwt>
<pdfrwt beam="1">  1       -4 0.80128562E-01 0.12499802E+03</pdfrwt>
<totfact> 0.53733354E+03</totfact>
</mgrwt>
</event>
<event>
 5    1  0.3514886E-002  0.1249989E+03  0.7818608E-02  0.1235071E+00
         -4   -1    0    0    0  501 -0.00000000000E+00  0.00000000000E+00  0.22653424582E+01  0.25970514922E+01  0.12700000000E+01 0.  1.
          4   -1    0    0  501    0  0.00000000000E+00 -0.00000000000E+00 -0.16063588863E+04  0.16063593883E+04  0.12700000000E+01 0.  1.
         25    2    1    2    0    0  0.00000000000E+00  0.00000000000E+00 -0.16040935438E+04  0.16089564398E+04  0.12499891147E+03 0.  0.
    9000005    1    3    3    0    0  0.24285673663E+02  0.48209896597E+02 -0.12072914908E+04  0.12084981307E+04  0.10000000000E+01 0.  0.
    9000005    1    3    3    0    0 -0.24285673663E+02 -0.48209896597E+02 -0.39680205301E+03  0.40045830913E+03  0.10000000000E+01 0.  0.
<mgrwt>
<rscale>  0 0.12499891E+03</rscale>
<asrwt>0</asrwt>
<pdfrwt beam="2">  1        4 0.24715684E+00 0.12499891E+03</pdfrwt>
<pdfrwt beam="1">  1       -4 0.37407021E-03 0.12499891E+03</pdfrwt>
<totfact> 0.15885378E+03</totfact>
</mgrwt>
</event>
<event>
 5    1  0.3514886E-002  0.1250017E+03  0.7818608E-02  0.1235067E+00
          4   -1    0    0  501    0  0.00000000000E+00  0.00000000000E+00  0.93682941376E+01  0.94539851411E+01  0.12700000000E+01 0. -1.
         -4   -1    0    0    0  501 -0.00000000000E+00 -0.00000000000E+00 -0.41499092315E+03  0.41499286645E+03  0.12700000000E+01 0. -1.
         25    2    1    2    0    0  0.00000000000E+00  0.00000000000E+00 -0.40562262902E+03  0.42444685159E+03  0.12500165059E+03 0.  0.
    9000005    1    3    3    0    0 -0.44831363680E+02  0.30475287264E+02 -0.30838766589E+03  0.31311746482E+03  0.10000000000E+01 0.  0.
    9000005    1    3    3    0    0  0.44831363680E+02 -0.30475287264E+02 -0.97234963127E+02  0.11132938677E+03  0.10000000000E+01 0.  0.
<mgrwt>
<rscale>  0 0.12500165E+03</rscale>
<asrwt>0</asrwt>
<pdfrwt beam="1">  1        4 0.14480174E-02 0.12500165E+03</pdfrwt>
<pdfrwt beam="2">  1       -4 0.63851484E-01 0.12500165E+03</pdfrwt>
<totfact> 0.62240337E+03</totfact>
</mgrwt>
</event>
<event>
 5    1  0.3514886E-002  0.1249964E+03  0.7818608E-02  0.1235075E+00
          4   -1    0    0  501    0  0.00000000000E+00  0.00000000000E+00  0.36550419530E+01  0.38693968107E+01  0.12700000000E+01 0. -1.
         -4   -1    0    0    0  501 -0.00000000000E+00 -0.00000000000E+00 -0.10380092069E+04  0.10380099838E+04  0.12700000000E+01 0. -1.
         25    2    1    2    0    0  0.00000000000E+00  0.00000000000E+00 -0.10343541649E+04  0.10418793806E+04  0.12499642090E+03 0.  0.
    9000005    1    3    3    0    0  0.24863179016E+02 -0.31178916171E+02 -0.11615392109E+03  0.12281301181E+03  0.10000000000E+01 0.  0.
    9000005    1    3    3    0    0 -0.24863179016E+02  0.31178916171E+02 -0.91820024381E+03  0.91906636878E+03  0.10000000000E+01 0.  0.
<mgrwt>
<rscale>  0 0.12499642E+03</rscale>
<asrwt>0</asrwt>
<pdfrwt beam="1">  1        4 0.57886357E-03 0.12499642E+03</pdfrwt>
<pdfrwt beam="2">  1       -4 0.15971004E+00 0.12499642E+03</pdfrwt>
<totfact> 0.29252015E+03</totfact>
</mgrwt>
</event>
<event>
 5    1  0.3514886E-002  0.1250018E+03  0.7818608E-02  0.1235066E+00
         -4   -1    0    0    0  501 -0.00000000000E+00  0.00000000000E+00  0.63057677637E+02  0.63070465425E+02  0.12700000000E+01 0. -1.
          4   -1    0    0  501    0  0.00000000000E+00 -0.00000000000E+00 -0.61923490060E+02  0.61936512020E+02  0.12700000000E+01 0. -1.
         25    2    1    2    0    0  0.00000000000E+00  0.00000000000E+00  0.11341875768E+01  0.12500697744E+03  0.12500183210E+03 0.  0.
    9000005    1    3    3    0    0 -0.16462277096E+02  0.34230365948E+02 -0.49059942455E+02  0.62053222912E+02  0.10000000000E+01 0.  0.
    9000005    1    3    3    0    0  0.16462277096E+02 -0.34230365948E+02  0.50194130032E+02  0.62953754533E+02  0.10000000000E+01 0.  0.
<mgrwt>
<rscale>  0 0.12500183E+03</rscale>
<asrwt>0</asrwt>
<pdfrwt beam="2">  1        4 0.95286762E-02 0.12500183E+03</pdfrwt>
<pdfrwt beam="1">  1       -4 0.97031665E-02 0.12500183E+03</pdfrwt>
<totfact> 0.10452278E+04</totfact>
</mgrwt>
</event>
<event>
 5    1  0.3514886E-002  0.1250013E+03  0.7818608E-02  0.1235067E+00
          4   -1    0    0  501    0  0.00000000000E+00  0.00000000000E+00  0.27055626651E+03  0.27055924721E+03  0.12700000000E+01 0. -1.
         -4   -1    0    0    0  501 -0.00000000000E+00 -0.00000000000E+00 -0.14407142250E+02  0.14463009639E+02  0.12700000000E+01 0. -1.
         25    2    1    2    0    0  0.00000000000E+00  0.00000000000E+00  0.25614912427E+03  0.28502225685E+03  0.12500125214E+03 0.  0.
    9000005    1    3    3    0    0  0.56363108728E+02 -0.39769770053E+01  0.18894710056E+03  0.19721719799E+03  0.10000000000E+01 0.  0.
    9000005    1    3    3    0    0 -0.56363108728E+02  0.39769770053E+01  0.67202023706E+02  0.87805058862E+02  0.10000000000E+01 0.  0.
<mgrwt>
<rscale>  0 0.12500125E+03</rscale>
<asrwt>0</asrwt>
<pdfrwt beam="1">  1        4 0.41628565E-01 0.12500125E+03</pdfrwt>
<pdfrwt beam="2">  1       -4 0.22210104E-02 0.12500125E+03</pdfrwt>
<totfact> 0.77514713E+03</totfact>
</mgrwt>
</event>
<event>
 5    1  0.3514886E-002  0.1249879E+03  0.7818608E-02  0.1235088E+00
         -4   -1    0    0    0  501 -0.00000000000E+00  0.00000000000E+00  0.33184976996E+02  0.33209269764E+02  0.12700000000E+01 0. -1.
          4   -1    0    0  501    0  0.00000000000E+00 -0.00000000000E+00 -0.11761777584E+03  0.11762463217E+03  0.12700000000E+01 0. -1.
         25    2    1    2    0    0  0.00000000000E+00  0.00000000000E+00 -0.84432798842E+02  0.15083390193E+03  0.12498787322E+03 0.  0.
    9000005    1    3    3    0    0 -0.27493221996E+02 -0.53477281115E+02 -0.21708266689E+02  0.63937044770E+02  0.10000000000E+01 0.  0.
    9000005    1    3    3    0    0  0.27493221996E+02  0.53477281115E+02 -0.62724532153E+02  0.86896857164E+02  0.10000000000E+01 0.  0.
<mgrwt>
<rscale>  0 0.12498787E+03</rscale>
<asrwt>0</asrwt>
<pdfrwt beam="2">  1        4 0.18097438E-01 0.12498787E+03</pdfrwt>
<pdfrwt beam="1">  1       -4 0.51077772E-02 0.12498787E+03</pdfrwt>
<totfact> 0.99164791E+03</totfact>
</mgrwt>
</event>
<event>
 5    1  0.3514886E-002  0.1250046E+03  0.7818608E-02  0.1235062E+00
          4   -1    0    0  501    0  0.00000000000E+00  0.00000000000E+00  0.47855036569E+02  0.47871885539E+02  0.12700000000E+01 0.  1.
         -4   -1    0    0    0  501 -0.00000000000E+00 -0.00000000000E+00 -0.81596614043E+02  0.81606496820E+02  0.12700000000E+01 0.  1.
         25    2    1    2    0    0  0.00000000000E+00  0.00000000000E+00 -0.33741577474E+02  0.12947838236E+03  0.12500462971E+03 0.  0.
    9000005    1    3    3    0    0  0.27589291394E+02 -0.19911566507E+02  0.37425684275E+02  0.50589735361E+02  0.10000000000E+01 0.  0.
    9000005    1    3    3    0    0 -0.27589291394E+02  0.19911566507E+02 -0.71167261749E+02  0.78888646998E+02  0.10000000000E+01 0.  0.
<mgrwt>
<rscale>  0 0.12500463E+03</rscale>
<asrwt>0</asrwt>
<pdfrwt beam="1">  1        4 0.73643696E-02 0.12500463E+03</pdfrwt>
<pdfrwt beam="2">  1       -4 0.12555381E-01 0.12500463E+03</pdfrwt>
<totfact> 0.10354596E+04</totfact>
</mgrwt>
</event>
<event>
 5    1  0.3514886E-002  0.1249996E+03  0.7818608E-02  0.1235070E+00
         -4   -1    0    0    0  501 -0.00000000000E+00  0.00000000000E+00  0.29551365583E+03  0.29551638479E+03  0.12700000000E+01 0. -1.
          4   -1    0    0  501    0  0.00000000000E+00 -0.00000000000E+00 -0.13185116029E+02  0.13246138482E+02  0.12700000000E+01 0. -1.
         25    2    1    2    0    0  0.00000000000E+00  0.00000000000E+00  0.28232853980E+03  0.30876252328E+03  0.12499956557E+03 0.  0.
    9000005    1    3    3    0    0 -0.55281968424E+02  0.12298320879E+02  0.20641807910E+03  0.21404851812E+03  0.10000000000E+01 0.  0.
    9000005    1    3    3    0    0  0.55281968424E+02 -0.12298320879E+02  0.75910460702E+02  0.94714005159E+02  0.10000000000E+01 0.  0.
<mgrwt>
<rscale>  0 0.12499957E+03</rscale>
<asrwt>0</asrwt>
<pdfrwt beam="2">  1        4 0.20333833E-02 0.12499957E+03</pdfrwt>
<pdfrwt beam="1">  1       -4 0.45468543E-01 0.12499957E+03</pdfrwt>
<totfact> 0.74513384E+03</totfact>
</mgrwt>
</event>
<event>
 5    1  0.3514886E-002  0.1249972E+03  0.7818608E-02  0.1235074E+00
         -4   -1    0    0    0  501 -0.00000000000E+00  0.00000000000E+00  0.30920589058E+02  0.30946659395E+02  0.12700000000E+01 0. -1.
          4   -1    0    0  501    0  0.00000000000E+00 -0.00000000000E+00 -0.12624351651E+03  0.12624990440E+03  0.12700000000E+01 0. -1.
         25    2    1    2    0    0  0.00000000000E+00  0.00000000000E+00 -0.95322927451E+02  0.15719656379E+03  0.12499719665E+03 0.  0.
    9000005    1    3    3    0    0  0.42081565480E+01  0.59922142185E+02 -0.25999201543E+02  0.65462433398E+02  0.10000000000E+01 0.  0.
    9000005    1    3    3    0    0 -0.42081565480E+01 -0.59922142185E+02 -0.69323725908E+02  0.91734130395E+02  0.10000000000E+01 0.  0.
<mgrwt>
<rscale>  0 0.12499720E+03</rscale>
<asrwt>0</asrwt>
<pdfrwt beam="2">  1        4 0.19424576E-01 0.12499720E+03</pdfrwt>
<pdfrwt beam="1">  1       -4 0.47595105E-02 0.12499720E+03</pdfrwt>
<totfact> 0.97892174E+03</totfact>
</mgrwt>
</event>
<event>
 5    1  0.3514886E-002  0.1249988E+03  0.7818608E-02  0.1235071E+00
          4   -1    0    0  501    0  0.00000000000E+00  0.00000000000E+00  0.30566435518E+03  0.30566699352E+03  0.12700000000E+01 0.  1.
         -4   -1    0    0    0  501 -0.00000000000E+00 -0.00000000000E+00 -0.12745048043E+02  0.12808167301E+02  0.12700000000E+01 0.  1.
         25    2    1    2    0    0  0.00000000000E+00  0.00000000000E+00  0.29291930714E+03  0.31847516082E+03  0.12499883026E+03 0.  0.
    9000005    1    3    3    0    0 -0.74113965284E+01 -0.27034296158E+02  0.28875961988E+03  0.29011876885E+03  0.10000000000E+01 0.  0.
    9000005    1    3    3    0    0  0.74113965284E+01  0.27034296158E+02  0.41596872543E+01  0.28356391965E+02  0.10000000000E+01 0.  0.
<mgrwt>
<rscale>  0 0.12499883E+03</rscale>
<asrwt>0</asrwt>
<pdfrwt beam="1">  1        4 0.47030344E-01 0.12499883E+03</pdfrwt>
<pdfrwt beam="2">  1       -4 0.19658349E-02 0.12499883E+03</pdfrwt>
<totfact> 0.73339752E+03</totfact>
</mgrwt>
</event>
<event>
 5    1  0.3514886E-002  0.1249946E+03  0.7818608E-02  0.1235078E+00
         -4   -1    0    0    0  501 -0.00000000000E+00  0.00000000000E+00  0.11162871853E+03  0.11163594270E+03  0.12700000000E+01 0.  1.
          4   -1    0    0  501    0  0.00000000000E+00 -0.00000000000E+00 -0.34970355648E+02  0.34993409010E+02  0.12700000000E+01 0.  1.
         25    2    1    2    0    0  0.00000000000E+00  0.00000000000E+00  0.76658362886E+02  0.14662935171E+03  0.12499464861E+03 0.  0.
    9000005    1    3    3    0    0  0.18890093696E+02 -0.39067816987E+02  0.91076093739E+02  0.10089095507E+03  0.10000000000E+01 0.  0.
    9000005    1    3    3    0    0 -0.18890093696E+02  0.39067816987E+02 -0.14417730853E+02  0.45738396637E+02  0.10000000000E+01 0.  0.
<mgrwt>
<rscale>  0 0.12499465E+03</rscale>
<asrwt>0</asrwt>
<pdfrwt beam="2">  1        4 0.53823838E-02 0.12499465E+03</pdfrwt>
<pdfrwt beam="1">  1       -4 0.17175978E-01 0.12499465E+03</pdfrwt>
<totfact> 0.99991928E+03</totfact>
</mgrwt>
</event>
<event>
 5    1  0.3514886E-002  0.1249996E+03  0.7818608E-02  0.1235070E+00
         -4   -1    0    0    0  501 -0.00000000000E+00  0.00000000000E+00  0.57255747163E+03  0.57255888013E+03  0.12700000000E+01 0.  1.
          4   -1    0    0  501    0  0.00000000000E+00 -0.00000000000E+00 -0.67618782426E+01  0.68801088194E+01  0.12700000000E+01 0.  1.
         25    2    1    2    0    0  0.00000000000E+00  0.00000000000E+00  0.56579559339E+03  0.57943898895E+03  0.12499955369E+03 0.  0.
    9000005    1    3    3    0    0 -0.14409988756E+02 -0.59525320443E+02  0.34048116561E+03  0.34594701283E+03  0.10000000000E+01 0.  0.
    9000005    1    3    3    0    0  0.14409988756E+02  0.59525320443E+02  0.22531442778E+03  0.23349197613E+03  0.10000000000E+01 0.  0.
<mgrwt>
<rscale>  0 0.12499955E+03</rscale>
<asrwt>0</asrwt>
<pdfrwt beam="2">  1        4 0.10494916E-02 0.12499955E+03</pdfrwt>
<pdfrwt beam="1">  1       -4 0.88095000E-01 0.12499955E+03</pdfrwt>
<totfact> 0.50192222E+03</totfact>
</mgrwt>
</event>
<event>
 4    1  0.3514886E-002  0.1247914E+03  0.7818608E-02  0.1235396E+00
          4   -1    0    0  501    0  0.00000000000E+00  0.00000000000E+00  0.20052873515E+03  0.20053275673E+03  0.12700000000E+01 0. -1.
         -4   -1    0    0    0  501 -0.00000000000E+00 -0.00000000000E+00 -0.19389798798E+02  0.19431345745E+02  0.12700000000E+01 0. -1.
    9000005    1    1    2    0    0 -0.29936222168E+02  0.53227752522E+02  0.68075622493E+02  0.91458522917E+02  0.10000000000E+01 0.  0.
    9000005    1    1    2    0    0  0.29936222168E+02 -0.53227752522E+02  0.11306331386E+03  0.12850557955E+03  0.10000000000E+01 0.  0.
<mgrwt>
<rscale>  0 0.12479139E+03</rscale>
<asrwt>0</asrwt>
<pdfrwt beam="1">  1        4 0.30854077E-01 0.12479139E+03</pdfrwt>
<pdfrwt beam="2">  1       -4 0.29865515E-02 0.12479139E+03</pdfrwt>
<totfact> 0.87280070E+03</totfact>
</mgrwt>
</event>
<event>
 5    1  0.3514886E-002  0.1249973E+03  0.7818608E-02  0.1235074E+00
          4   -1    0    0  501    0  0.00000000000E+00  0.00000000000E+00  0.54922334439E+02  0.54937015939E+02  0.12700000000E+01 0.  1.
         -4   -1    0    0    0  501 -0.00000000000E+00 -0.00000000000E+00 -0.71090203839E+02  0.71101546973E+02  0.12700000000E+01 0.  1.
         25    2    1    2    0    0  0.00000000000E+00  0.00000000000E+00 -0.16167869400E+02  0.12603856291E+03  0.12499727733E+03 0.  0.
    9000005    1    3    3    0    0  0.44749968416E+02 -0.17334045139E+02  0.32275127251E+02  0.57842135448E+02  0.10000000000E+01 0.  0.
    9000005    1    3    3    0    0 -0.44749968416E+02  0.17334045139E+02 -0.48442996651E+02  0.68196427463E+02  0.10000000000E+01 0.  0.
<mgrwt>
<rscale>  0 0.12499728E+03</rscale>
<asrwt>0</asrwt>
<pdfrwt beam="1">  1        4 0.84515918E-02 0.12499728E+03</pdfrwt>
<pdfrwt beam="2">  1       -4 0.10938956E-01 0.12499728E+03</pdfrwt>
<totfact> 0.10430753E+04</totfact>
</mgrwt>
</event>
<event>
 5    1  0.3514886E-002  0.1249935E+03  0.7818608E-02  0.1235079E+00
          4   -1    0    0  501    0  0.00000000000E+00  0.00000000000E+00  0.25655145879E+03  0.25655460219E+03  0.12700000000E+01 0. -1.
         -4   -1    0    0    0  501 -0.00000000000E+00 -0.00000000000E+00 -0.15194670929E+02  0.15247653087E+02  0.12700000000E+01 0. -1.
         25    2    1    2    0    0  0.00000000000E+00  0.00000000000E+00  0.24135678786E+03  0.27180225528E+03  0.12499346755E+03 0.  0.
    9000005    1    3    3    0    0  0.35317255740E-01 -0.57141000644E+02  0.65677504924E+02  0.87061069686E+02  0.10000000000E+01 0.  0.
    9000005    1    3    3    0    0 -0.35317255740E-01  0.57141000644E+02  0.17567928293E+03  0.18474118559E+03  0.10000000000E+01 0.  0.
<mgrwt>
<rscale>  0 0.12499347E+03</rscale>
<asrwt>0</asrwt>
<pdfrwt beam="1">  1        4 0.39473774E-01 0.12499347E+03</pdfrwt>
<pdfrwt beam="2">  1       -4 0.23419589E-02 0.12499347E+03</pdfrwt>
<totfact> 0.79289292E+03</totfact>
</mgrwt>
</event>
<event>
 5    1  0.3514886E-002  0.1249961E+03  0.7818608E-02  0.1235075E+00
          4   -1    0    0  501    0  0.00000000000E+00  0.00000000000E+00  0.18327969867E+03  0.18328409872E+03  0.12700000000E+01 0. -1.
         -4   -1    0    0    0  501 -0.00000000000E+00 -0.00000000000E+00 -0.21288150199E+02  0.21325999130E+02  0.12700000000E+01 0. -1.
         25    2    1    2    0    0  0.00000000000E+00  0.00000000000E+00  0.16199154847E+03  0.20461009785E+03  0.12499612141E+03 0.  0.
    9000005    1    3    3    0    0 -0.60450685465E+02 -0.14124701637E+02  0.92710421298E+02  0.11157963428E+03  0.10000000000E+01 0.  0.
    9000005    1    3    3    0    0  0.60450685465E+02  0.14124701637E+02  0.69281127172E+02  0.93030463568E+02  0.10000000000E+01 0.  0.
<mgrwt>
<rscale>  0 0.12499612E+03</rscale>
<asrwt>0</asrwt>
<pdfrwt beam="1">  1        4 0.28200127E-01 0.12499612E+03</pdfrwt>
<pdfrwt beam="2">  1       -4 0.32783499E-02 0.12499612E+03</pdfrwt>
<totfact> 0.89371510E+03</totfact>
</mgrwt>
</event>
<event>
 5    1  0.3514886E-002  0.1249991E+03  0.7818608E-02  0.1235071E+00
          4   -1    0    0  501    0  0.00000000000E+00  0.00000000000E+00  0.81101756250E+02  0.81111699322E+02  0.12700000000E+01 0.  1.
         -4   -1    0    0    0  501 -0.00000000000E+00 -0.00000000000E+00 -0.48142838863E+02  0.48159587143E+02  0.12700000000E+01 0.  1.
         25    2    1    2    0    0  0.00000000000E+00  0.00000000000E+00  0.32958917388E+02  0.12927128646E+03  0.12499910107E+03 0.  0.
    9000005    1    3    3    0    0 -0.50285741445E+02 -0.44098432517E+01  0.54577242701E+02  0.74349027775E+02  0.10000000000E+01 0.  0.
    9000005    1    3    3    0    0  0.50285741445E+02  0.44098432517E+01 -0.21618325313E+02  0.54922258690E+02  0.10000000000E+01 0.  0.
<mgrwt>
<rscale>  0 0.12499910E+03</rscale>
<asrwt>0</asrwt>
<pdfrwt beam="1">  1        4 0.12479246E-01 0.12499910E+03</pdfrwt>
<pdfrwt beam="2">  1       -4 0.74086439E-02 0.12499910E+03</pdfrwt>
<totfact> 0.10360331E+04</totfact>
</mgrwt>
</event>
<event>
 5    1  0.3514886E-002  0.1250013E+03  0.7818608E-02  0.1235067E+00
          4   -1    0    0  501    0  0.00000000000E+00  0.00000000000E+00  0.90166572168E+02  0.90175515726E+02  0.12700000000E+01 0. -1.
         -4   -1    0    0    0  501 -0.00000000000E+00 -0.00000000000E+00 -0.43303068324E+02  0.43321687712E+02  0.12700000000E+01 0. -1.
         25    2    1    2    0    0  0.00000000000E+00  0.00000000000E+00  0.46863503844E+02  0.13349720344E+03  0.12500126133E+03 0.  0.
    9000005    1    3    3    0    0 -0.31691468232E+02 -0.41116559475E+02 -0.13723798846E+02  0.53705337505E+02  0.10000000000E+01 0.  0.
    9000005    1    3    3    0    0  0.31691468232E+02  0.41116559475E+02  0.60587302690E+02  0.79791865933E+02  0.10000000000E+01 0.  0.
<mgrwt>
<rscale>  0 0.12500126E+03</rscale>
<asrwt>0</asrwt>
<pdfrwt beam="1">  1        4 0.13873900E-01 0.12500126E+03</pdfrwt>
<pdfrwt beam="2">  1       -4 0.66641308E-02 0.12500126E+03</pdfrwt>
<totfact> 0.10269552E+04</totfact>
</mgrwt>
</event>
<event>
 5    1  0.3514886E-002  0.1249988E+03  0.7818608E-02  0.1235071E+00
         -4   -1    0    0    0  501 -0.00000000000E+00  0.00000000000E+00  0.89075286263E+01  0.89976089172E+01  0.12700000000E+01 0. -1.
          4   -1    0    0  501    0  0.00000000000E+00 -0.00000000000E+00 -0.43622821217E+03  0.43623006085E+03  0.12700000000E+01 0. -1.
         25    2    1    2    0    0  0.00000000000E+00  0.00000000000E+00 -0.42732068354E+03  0.44522766977E+03  0.12499884538E+03 0.  0.
    9000005    1    3    3    0    0 -0.23330873166E+02 -0.56437845625E+02 -0.16645834393E+03  0.17731029391E+03  0.10000000000E+01 0.  0.
    9000005    1    3    3    0    0  0.23330873166E+02  0.56437845625E+02 -0.26086233961E+03  0.26791737586E+03  0.10000000000E+01 0.  0.
<mgrwt>
<rscale>  0 0.12499885E+03</rscale>
<asrwt>0</asrwt>
<pdfrwt beam="2">  1        4 0.67119088E-01 0.12499885E+03</pdfrwt>
<pdfrwt beam="1">  1       -4 0.13774608E-02 0.12499885E+03</pdfrwt>
<totfact> 0.60381006E+03</totfact>
</mgrwt>
</event>
<event>
 5    1  0.3514886E-002  0.1250011E+03  0.7818608E-02  0.1235068E+00
          4   -1    0    0  501    0  0.00000000000E+00  0.00000000000E+00  0.53371307374E+02  0.53386415414E+02  0.12700000000E+01 0. -1.
         -4   -1    0    0    0  501 -0.00000000000E+00 -0.00000000000E+00 -0.73160333719E+02  0.73171355938E+02  0.12700000000E+01 0. -1.
         25    2    1    2    0    0  0.00000000000E+00  0.00000000000E+00 -0.19789026345E+02  0.12655777135E+03  0.12500105570E+03 0.  0.
    9000005    1    3    3    0    0  0.13451188190E+02  0.52631014156E+02  0.21382895626E+02  0.58388238029E+02  0.10000000000E+01 0.  0.
    9000005    1    3    3    0    0 -0.13451188190E+02 -0.52631014156E+02 -0.41171921971E+02  0.68169533323E+02  0.10000000000E+01 0.  0.
<mgrwt>
<rscale>  0 0.12500106E+03</rscale>
<asrwt>0</asrwt>
<pdfrwt beam="1">  1        4 0.82129804E-02 0.12500106E+03</pdfrwt>
<pdfrwt beam="2">  1       -4 0.11257446E-01 0.12500106E+03</pdfrwt>
<totfact> 0.10418520E+04</totfact>
</mgrwt>
</event>
<event>
 5    1  0.3514886E-002  0.1250014E+03  0.7818608E-02  0.1235067E+00
         -4   -1    0    0    0  501 -0.00000000000E+00  0.00000000000E+00  0.40272165586E+02  0.40292185607E+02  0.12700000000E+01 0. -1.
          4   -1    0    0  501    0  0.00000000000E+00 -0.00000000000E+00 -0.96950237904E+02  0.96958555732E+02  0.12700000000E+01 0. -1.
         25    2    1    2    0    0  0.00000000000E+00  0.00000000000E+00 -0.56678072318E+02  0.13725074134E+03  0.12500144846E+03 0.  0.
    9000005    1    3    3    0    0 -0.26150123017E+02  0.32692882621E+02  0.22604618733E+02  0.47588047826E+02  0.10000000000E+01 0.  0.
    9000005    1    3    3    0    0  0.26150123017E+02 -0.32692882621E+02 -0.79282691050E+02  0.89662693513E+02  0.10000000000E+01 0.  0.
<mgrwt>
<rscale>  0 0.12500145E+03</rscale>
<asrwt>0</asrwt>
<pdfrwt beam="2">  1        4 0.14917601E-01 0.12500145E+03</pdfrwt>
<pdfrwt beam="1">  1       -4 0.61978976E-02 0.12500145E+03</pdfrwt>
<totfact> 0.10190513E+04</totfact>
</mgrwt>
</event>
<event>
 5    1  0.3514886E-002  0.1250024E+03  0.7818608E-02  0.1235065E+00
          4   -1    0    0  501    0  0.00000000000E+00  0.00000000000E+00  0.34665482683E+02  0.34688738657E+02  0.12700000000E+01 0.  1.
         -4   -1    0    0    0  501 -0.00000000000E+00 -0.00000000000E+00 -0.11262390605E+03  0.11263106638E+03  0.12700000000E+01 0.  1.
         25    2    1    2    0    0  0.00000000000E+00  0.00000000000E+00 -0.77958423363E+02  0.14731980503E+03  0.12500243670E+03 0.  0.
    9000005    1    3    3    0    0 -0.10770411628E+02 -0.16383677193E+02 -0.10891092481E+03  0.11066623780E+03  0.10000000000E+01 0.  0.
    9000005    1    3    3    0    0  0.10770411628E+02  0.16383677193E+02  0.30952501450E+02  0.36653567234E+02  0.10000000000E+01 0.  0.
<mgrwt>
<rscale>  0 0.12500244E+03</rscale>
<asrwt>0</asrwt>
<pdfrwt beam="1">  1        4 0.53354910E-02 0.12500244E+03</pdfrwt>
<pdfrwt beam="2">  1       -4 0.17329094E-01 0.12500244E+03</pdfrwt>
<totfact> 0.99835186E+03</totfact>
</mgrwt>
</event>
<event>
 5    1  0.3514886E-002  0.1250011E+03  0.7818608E-02  0.1235068E+00
          4   -1    0    0  501    0  0.00000000000E+00  0.00000000000E+00  0.98727368970E+02  0.98735537087E+02  0.12700000000E+01 0.  1.
         -4   -1    0    0    0  501 -0.00000000000E+00 -0.00000000000E+00 -0.39546712133E+02  0.39567099218E+02  0.12700000000E+01 0.  1.
         25    2    1    2    0    0  0.00000000000E+00  0.00000000000E+00  0.59180656838E+02  0.13830263630E+03  0.12500107626E+03 0.  0.
    9000005    1    3    3    0    0  0.46519247735E+01 -0.45851489734E+02 -0.17106502080E+02  0.49169420663E+02  0.10000000000E+01 0.  0.
    9000005    1    3    3    0    0 -0.46519247735E+01  0.45851489734E+02  0.76287158917E+02  0.89133215642E+02  0.10000000000E+01 0.  0.
<mgrwt>
<rscale>  0 0.12500108E+03</rscale>
<asrwt>0</asrwt>
<pdfrwt beam="1">  1        4 0.15191023E-01 0.12500108E+03</pdfrwt>
<pdfrwt beam="2">  1       -4 0.60863061E-02 0.12500108E+03</pdfrwt>
<totfact> 0.10168640E+04</totfact>
</mgrwt>
</event>
<event>
 5    1  0.3514886E-002  0.1250008E+03  0.7818608E-02  0.1235068E+00
         -4   -1    0    0    0  501 -0.00000000000E+00  0.00000000000E+00  0.60184273367E+02  0.60197671556E+02  0.12700000000E+01 0.  1.
          4   -1    0    0  501    0  0.00000000000E+00 -0.00000000000E+00 -0.64878855419E+02  0.64891284318E+02  0.12700000000E+01 0.  1.
         25    2    1    2    0    0  0.00000000000E+00  0.00000000000E+00 -0.46945820517E+01  0.12508895587E+03  0.12500083112E+03 0.  0.
    9000005    1    3    3    0    0 -0.59927768610E+02  0.15643349317E+02  0.59802412023E+01  0.62231946082E+02  0.10000000000E+01 0.  0.
    9000005    1    3    3    0    0  0.59927768610E+02 -0.15643349317E+02 -0.10674823254E+02  0.62857009791E+02  0.10000000000E+01 0.  0.
<mgrwt>
<rscale>  0 0.12500083E+03</rscale>
<asrwt>0</asrwt>
<pdfrwt beam="2">  1        4 0.99833490E-02 0.12500083E+03</pdfrwt>
<pdfrwt beam="1">  1       -4 0.92611057E-02 0.12500083E+03</pdfrwt>
<totfact> 0.10450734E+04</totfact>
</mgrwt>
</event>
<event>
 5    1  0.3514886E-002  0.1250057E+03  0.7818608E-02  0.1235060E+00
         -4   -1    0    0    0  501 -0.00000000000E+00  0.00000000000E+00  0.13638534276E+02  0.13697536902E+02  0.12700000000E+01 0.  1.
          4   -1    0    0  501    0  0.00000000000E+00 -0.00000000000E+00 -0.28576012524E+03  0.28576294735E+03  0.12700000000E+01 0.  1.
         25    2    1    2    0    0  0.00000000000E+00  0.00000000000E+00 -0.27212159097E+03  0.29946048426E+03  0.12500568531E+03 0.  0.
    9000005    1    3    3    0    0  0.43383021215E+02 -0.39507397571E+02 -0.18758984846E+03  0.19655501072E+03  0.10000000000E+01 0.  0.
    9000005    1    3    3    0    0 -0.43383021215E+02  0.39507397571E+02 -0.84531742505E+02  0.10290547354E+03  0.10000000000E+01 0.  0.
<mgrwt>
<rscale>  0 0.12500569E+03</rscale>
<asrwt>0</asrwt>
<pdfrwt beam="2">  1        4 0.43967847E-01 0.12500569E+03</pdfrwt>
<pdfrwt beam="1">  1       -4 0.21029920E-02 0.12500569E+03</pdfrwt>
<totfact> 0.75657017E+03</totfact>
</mgrwt>
</event>
<event>
 5    1  0.3514886E-002  0.1250021E+03  0.7818608E-02  0.1235066E+00
          4   -1    0    0  501    0  0.00000000000E+00  0.00000000000E+00  0.13995410776E+03  0.13995986989E+03  0.12700000000E+01 0.  1.
         -4   -1    0    0    0  501 -0.00000000000E+00 -0.00000000000E+00 -0.27891066476E+02  0.27919965780E+02  0.12700000000E+01 0.  1.
         25    2    1    2    0    0  0.00000000000E+00  0.00000000000E+00  0.11206304129E+03  0.16787983567E+03  0.12500205599E+03 0.  0.
    9000005    1    3    3    0    0 -0.34131281658E+02  0.38306837206E+02  0.81134801750E+01  0.51953697894E+02  0.10000000000E+01 0.  0.
    9000005    1    3    3    0    0  0.34131281658E+02 -0.38306837206E+02  0.10394956111E+03  0.11592613778E+03  0.10000000000E+01 0.  0.
<mgrwt>
<rscale>  0 0.12500206E+03</rscale>
<asrwt>0</asrwt>
<pdfrwt beam="1">  1        4 0.21534068E-01 0.12500206E+03</pdfrwt>
<pdfrwt beam="2">  1       -4 0.42935995E-02 0.12500206E+03</pdfrwt>
<totfact> 0.95840334E+03</totfact>
</mgrwt>
</event>
<event>
 5    1  0.3514886E-002  0.1250039E+03  0.7818608E-02  0.1235063E+00
         -4   -1    0    0    0  501 -0.00000000000E+00  0.00000000000E+00  0.61064393465E+02  0.61077598588E+02  0.12700000000E+01 0.  1.
          4   -1    0    0  501    0  0.00000000000E+00 -0.00000000000E+00 -0.63946914776E+02  0.63959524775E+02  0.12700000000E+01 0.  1.
         25    2    1    2    0    0  0.00000000000E+00  0.00000000000E+00 -0.28825213111E+01  0.12503712336E+03  0.12500389310E+03 0.  0.
    9000005    1    3    3    0    0 -0.55120599210E+01  0.29816415535E+02  0.53218410969E+02  0.61258474564E+02  0.10000000000E+01 0.  0.
    9000005    1    3    3    0    0  0.55120599210E+01 -0.29816415535E+02 -0.56100932280E+02  0.63778648799E+02  0.10000000000E+01 0.  0.
<mgrwt>
<rscale>  0 0.12500389E+03</rscale>
<asrwt>0</asrwt>
<pdfrwt beam="2">  1        4 0.98399727E-02 0.12500389E+03</pdfrwt>
<pdfrwt beam="1">  1       -4 0.93965078E-02 0.12500389E+03</pdfrwt>
<totfact> 0.10451137E+04</totfact>
</mgrwt>
</event>
<event>
 5    1  0.3514886E-002  0.1250089E+03  0.7818608E-02  0.1235055E+00
          4   -1    0    0  501    0  0.00000000000E+00  0.00000000000E+00  0.15629688763E+03  0.15630204727E+03  0.12700000000E+01 0.  1.
         -4   -1    0    0    0  501 -0.00000000000E+00 -0.00000000000E+00 -0.24974354066E+02  0.25006624343E+02  0.12700000000E+01 0.  1.
         25    2    1    2    0    0  0.00000000000E+00  0.00000000000E+00  0.13132253356E+03  0.18130867162E+03  0.12500890601E+03 0.  0.
    9000005    1    3    3    0    0 -0.45125695176E+02  0.38675121459E+02  0.93699256724E+02  0.11096235441E+03  0.10000000000E+01 0.  0.
    9000005    1    3    3    0    0  0.45125695176E+02 -0.38675121459E+02  0.37623276836E+02  0.70346317208E+02  0.10000000000E+01 0.  0.
<mgrwt>
<rscale>  0 0.12500891E+03</rscale>
<asrwt>0</asrwt>
<pdfrwt beam="1">  1        4 0.24048554E-01 0.12500891E+03</pdfrwt>
<pdfrwt beam="2">  1       -4 0.38450875E-02 0.12500891E+03</pdfrwt>
<totfact> 0.93363324E+03</totfact>
</mgrwt>
</event>
<event>
 5    1  0.3514886E-002  0.1250009E+03  0.7818608E-02  0.1235068E+00
         -4   -1    0    0    0  501 -0.00000000000E+00  0.00000000000E+00  0.23159140812E+03  0.23159489030E+03  0.12700000000E+01 0.  1.
          4   -1    0    0  501    0  0.00000000000E+00 -0.00000000000E+00 -0.16839704966E+02  0.16887526857E+02  0.12700000000E+01 0.  1.
         25    2    1    2    0    0  0.00000000000E+00  0.00000000000E+00  0.21475170315E+03  0.24848241716E+03  0.12500087052E+03 0.  0.
    9000005    1    3    3    0    0 -0.12716603848E+02 -0.23203181231E+01  0.22891449567E+03  0.22928136038E+03  0.10000000000E+01 0.  0.
    9000005    1    3    3    0    0  0.12716603848E+02  0.23203181231E+01 -0.14162792517E+02  0.19201056780E+02  0.10000000000E+01 0.  0.
<mgrwt>
<rscale>  0 0.12500087E+03</rscale>
<asrwt>0</asrwt>
<pdfrwt beam="2">  1        4 0.25946704E-02 0.12500087E+03</pdfrwt>
<pdfrwt beam="1">  1       -4 0.35633392E-01 0.12500087E+03</pdfrwt>
<totfact> 0.82548461E+03</totfact>
</mgrwt>
</event>
<event>
 5    1  0.3514886E-002  0.1249968E+03  0.7818608E-02  0.1235074E+00
          4   -1    0    0  501    0  0.00000000000E+00  0.00000000000E+00  0.76358358943E+01  0.77407292811E+01  0.12700000000E+01 0. -1.
         -4   -1    0    0    0  501 -0.00000000000E+00 -0.00000000000E+00 -0.50794643774E+03  0.50794802540E+03  0.12700000000E+01 0. -1.
         25    2    1    2    0    0  0.00000000000E+00  0.00000000000E+00 -0.50031060184E+03  0.51568875468E+03  0.12499677352E+03 0.  0.
    9000005    1    3    3    0    0  0.32048629437E+02  0.37037566976E+02 -0.41026708891E+03  0.41318153426E+03  0.10000000000E+01 0.  0.
    9000005    1    3    3    0    0 -0.32048629437E+02 -0.37037566976E+02 -0.90043512935E+02  0.10250722042E+03  0.10000000000E+01 0.  0.
<mgrwt>
<rscale>  0 0.12499677E+03</rscale>
<asrwt>0</asrwt>
<pdfrwt beam="1">  1        4 0.11829352E-02 0.12499677E+03</pdfrwt>
<pdfrwt beam="2">  1       -4 0.78153770E-01 0.12499677E+03</pdfrwt>
<totfact> 0.54671220E+03</totfact>
</mgrwt>
</event>
<event>
 5    1  0.3514886E-002  0.1250004E+03  0.7818608E-02  0.1235069E+00
          4   -1    0    0  501    0  0.00000000000E+00  0.00000000000E+00  0.61234204319E+02  0.61247372830E+02  0.12700000000E+01 0.  1.
         -4   -1    0    0    0  501 -0.00000000000E+00 -0.00000000000E+00 -0.63766003084E+02  0.63778648851E+02  0.12700000000E+01 0.  1.
         25    2    1    2    0    0  0.00000000000E+00  0.00000000000E+00 -0.25317987648E+01  0.12502602168E+03  0.12500038437E+03 0.  0.
    9000005    1    3    3    0    0  0.54898213295E+02 -0.18779919033E+02 -0.24482183906E+02  0.62983144655E+02  0.10000000000E+01 0.  0.
    9000005    1    3    3    0    0 -0.54898213295E+02  0.18779919033E+02  0.21950385141E+02  0.62042877026E+02  0.10000000000E+01 0.  0.
<mgrwt>
<rscale>  0 0.12500038E+03</rscale>
<asrwt>0</asrwt>
<pdfrwt beam="1">  1        4 0.94226325E-02 0.12500038E+03</pdfrwt>
<pdfrwt beam="2">  1       -4 0.98121400E-02 0.12500038E+03</pdfrwt>
<totfact> 0.10452207E+04</totfact>
</mgrwt>
</event>
<event>
 5    1  0.3514886E-002  0.1249928E+03  0.7818608E-02  0.1235081E+00
          4   -1    0    0  501    0  0.00000000000E+00  0.00000000000E+00  0.11698049407E+03  0.11698738775E+03  0.12700000000E+01 0. -1.
         -4   -1    0    0    0  501 -0.00000000000E+00 -0.00000000000E+00 -0.33368499222E+02  0.33392658479E+02  0.12700000000E+01 0. -1.
         25    2    1    2    0    0  0.00000000000E+00  0.00000000000E+00  0.83611994845E+02  0.15038004623E+03  0.12499277028E+03 0.  0.
    9000005    1    3    3    0    0  0.20214433122E+02  0.11905967829E+02 -0.27874977705E+02  0.36447081618E+02  0.10000000000E+01 0.  0.
    9000005    1    3    3    0    0 -0.20214433122E+02 -0.11905967829E+02  0.11148697255E+03  0.11393296461E+03  0.10000000000E+01 0.  0.
<mgrwt>
<rscale>  0 0.12499277E+03</rscale>
<asrwt>0</asrwt>
<pdfrwt beam="1">  1        4 0.17999388E-01 0.12499277E+03</pdfrwt>
<pdfrwt beam="2">  1       -4 0.51360040E-02 0.12499277E+03</pdfrwt>
<totfact> 0.99244142E+03</totfact>
</mgrwt>
</event>
<event>
 5    1  0.3514886E-002  0.1249942E+03  0.7818608E-02  0.1235078E+00
         -4   -1    0    0    0  501 -0.00000000000E+00  0.00000000000E+00  0.13961313835E+02  0.14018958021E+02  0.12700000000E+01 0.  1.
          4   -1    0    0  501    0  0.00000000000E+00 -0.00000000000E+00 -0.27912967346E+03  0.27913256261E+03  0.12700000000E+01 0.  1.
         25    2    1    2    0    0  0.00000000000E+00  0.00000000000E+00 -0.26516835963E+03  0.29315152063E+03  0.12499422026E+03 0.  0.
    9000005    1    3    3    0    0 -0.31579675424E+02  0.53191371037E+02 -0.11183227706E+03  0.12780475752E+03  0.10000000000E+01 0.  0.
    9000005    1    3    3    0    0  0.31579675424E+02 -0.53191371037E+02 -0.15333608257E+03  0.16534676311E+03  0.10000000000E+01 0.  0.
<mgrwt>
<rscale>  0 0.12499422E+03</rscale>
<asrwt>0</asrwt>
<pdfrwt beam="2">  1        4 0.42947679E-01 0.12499422E+03</pdfrwt>
<pdfrwt beam="1">  1       -4 0.21525510E-02 0.12499422E+03</pdfrwt>
<totfact> 0.76475827E+03</totfact>
</mgrwt>
</event>
<event>
 5    1  0.3514886E-002  0.1250071E+03  0.7818608E-02  0.1235058E+00
         -4   -1    0    0    0  501 -0.00000000000E+00  0.00000000000E+00  0.18970860778E+02  0.19013323188E+02  0.12700000000E+01 0.  1.
          4   -1    0    0  501    0  0.00000000000E+00 -0.00000000000E+00 -0.20565650234E+03  0.20566042365E+03  0.12700000000E+01 0.  1.
         25    2    1    2    0    0  0.00000000000E+00  0.00000000000E+00 -0.18668564156E+03  0.22467374683E+03  0.12500705481E+03 0.  0.
    9000005    1    3    3    0    0  0.37300107764E+02  0.44989412592E+02 -0.13314152842E+03  0.14540636806E+03  0.10000000000E+01 0.  0.
    9000005    1    3    3    0    0 -0.37300107764E+02 -0.44989412592E+02 -0.53544113146E+02  0.79267378771E+02  0.10000000000E+01 0.  0.
<mgrwt>
<rscale>  0 0.12500705E+03</rscale>
<asrwt>0</asrwt>
<pdfrwt beam="2">  1        4 0.31643028E-01 0.12500705E+03</pdfrwt>
<pdfrwt beam="1">  1       -4 0.29221621E-02 0.12500705E+03</pdfrwt>
<totfact> 0.86120585E+03</totfact>
</mgrwt>
</event>
<event>
 5    1  0.3514886E-002  0.1249963E+03  0.7818608E-02  0.1235075E+00
         -4   -1    0    0    0  501 -0.00000000000E+00  0.00000000000E+00  0.10300675396E+02  0.10378671091E+02  0.12700000000E+01 0. -1.
          4   -1    0    0  501    0  0.00000000000E+00 -0.00000000000E+00 -0.37769103157E+03  0.37769316677E+03  0.12700000000E+01 0. -1.
         25    2    1    2    0    0  0.00000000000E+00  0.00000000000E+00 -0.36739035617E+03  0.38807183786E+03  0.12499631009E+03 0.  0.
    9000005    1    3    3    0    0  0.10771010873E+02  0.19436503412E+02 -0.23649333620E+01  0.22369292566E+02  0.10000000000E+01 0.  0.
    9000005    1    3    3    0    0 -0.10771010873E+02 -0.19436503412E+02 -0.36502542281E+03  0.36570254530E+03  0.10000000000E+01 0.  0.
<mgrwt>
<rscale>  0 0.12499631E+03</rscale>
<asrwt>0</asrwt>
<pdfrwt beam="2">  1        4 0.58112466E-01 0.12499631E+03</pdfrwt>
<pdfrwt beam="1">  1       -4 0.15908835E-02 0.12499631E+03</pdfrwt>
<totfact> 0.65735042E+03</totfact>
</mgrwt>
</event>
<event>
 5    1  0.3514886E-002  0.1250000E+03  0.7818608E-02  0.1235069E+00
          4   -1    0    0  501    0  0.00000000000E+00  0.00000000000E+00  0.72573787160E+01  0.73676621684E+01  0.12700000000E+01 0.  1.
         -4   -1    0    0    0  501 -0.00000000000E+00 -0.00000000000E+00 -0.53407555830E+03  0.53407706829E+03  0.12700000000E+01 0.  1.
         25    2    1    2    0    0  0.00000000000E+00  0.00000000000E+00 -0.52681817959E+03  0.54144473046E+03  0.12500000721E+03 0.  0.
    9000005    1    3    3    0    0 -0.35678731389E+02  0.24022897535E+02 -0.45977627599E+03  0.46178490171E+03  0.10000000000E+01 0.  0.
    9000005    1    3    3    0    0  0.35678731389E+02 -0.24022897535E+02 -0.67041903595E+02  0.79659828755E+02  0.10000000000E+01 0.  0.
<mgrwt>
<rscale>  0 0.12500001E+03</rscale>
<asrwt>0</asrwt>
<pdfrwt beam="1">  1        4 0.11251197E-02 0.12500001E+03</pdfrwt>
<pdfrwt beam="2">  1       -4 0.82174039E-01 0.12500001E+03</pdfrwt>
<totfact> 0.52786300E+03</totfact>
</mgrwt>
</event>
<event>
 5    1  0.3514886E-002  0.1250023E+03  0.7818608E-02  0.1235066E+00
          4   -1    0    0  501    0  0.00000000000E+00  0.00000000000E+00  0.16512663595E+02  0.16561429860E+02  0.12700000000E+01 0.  1.
         -4   -1    0    0    0  501 -0.00000000000E+00 -0.00000000000E+00 -0.23617024182E+03  0.23617365650E+03  0.12700000000E+01 0.  1.
         25    2    1    2    0    0  0.00000000000E+00  0.00000000000E+00 -0.21965757823E+03  0.25273508636E+03  0.12500228879E+03 0.  0.
    9000005    1    3    3    0    0 -0.67305380571E+01  0.60940245835E+02 -0.13429053630E+03  0.14762778141E+03  0.10000000000E+01 0.  0.
    9000005    1    3    3    0    0  0.67305380571E+01 -0.60940245835E+02 -0.85367041927E+02  0.10510730494E+03  0.10000000000E+01 0.  0.
<mgrwt>
<rscale>  0 0.12500229E+03</rscale>
<asrwt>0</asrwt>
<pdfrwt beam="1">  1        4 0.25444239E-02 0.12500229E+03</pdfrwt>
<pdfrwt beam="2">  1       -4 0.36337895E-01 0.12500229E+03</pdfrwt>
<totfact> 0.81932347E+03</totfact>
</mgrwt>
</event>
<event>
 5    1  0.3514886E-002  0.1249999E+03  0.7818608E-02  0.1235069E+00
          4   -1    0    0  501    0  0.00000000000E+00  0.00000000000E+00  0.27968773352E+03  0.27969061690E+03  0.12700000000E+01 0.  1.
         -4   -1    0    0    0  501 -0.00000000000E+00 -0.00000000000E+00 -0.13934620833E+02  0.13992374986E+02  0.12700000000E+01 0.  1.
         25    2    1    2    0    0  0.00000000000E+00  0.00000000000E+00  0.26575311269E+03  0.29368299189E+03  0.12499993128E+03 0.  0.
    9000005    1    3    3    0    0 -0.21517167228E+02 -0.56064355354E+02  0.92247428814E+02  0.11007628514E+03  0.10000000000E+01 0.  0.
    9000005    1    3    3    0    0  0.21517167228E+02  0.56064355354E+02  0.17350568387E+03  0.18360670675E+03  0.10000000000E+01 0.  0.
<mgrwt>
<rscale>  0 0.12499993E+03</rscale>
<asrwt>0</asrwt>
<pdfrwt beam="1">  1        4 0.43033543E-01 0.12499993E+03</pdfrwt>
<pdfrwt beam="2">  1       -4 0.21484524E-02 0.12499993E+03</pdfrwt>
<totfact> 0.76398245E+03</totfact>
</mgrwt>
</event>
<event>
 5    1  0.3514886E-002  0.1250012E+03  0.7818608E-02  0.1235067E+00
         -4   -1    0    0    0  501 -0.00000000000E+00  0.00000000000E+00  0.50301645674E+02  0.50317675398E+02  0.12700000000E+01 0.  1.
          4   -1    0    0  501    0  0.00000000000E+00 -0.00000000000E+00 -0.77624426279E+02  0.77634814711E+02  0.12700000000E+01 0.  1.
         25    2    1    2    0    0  0.00000000000E+00  0.00000000000E+00 -0.27322780606E+02  0.12795249011E+03  0.12500122153E+03 0.  0.
    9000005    1    3    3    0    0  0.30355640497E+02  0.44918665432E+02  0.18155839728E+02  0.57182042028E+02  0.10000000000E+01 0.  0.
    9000005    1    3    3    0    0 -0.30355640497E+02 -0.44918665432E+02 -0.45478620334E+02  0.70770448082E+02  0.10000000000E+01 0.  0.
<mgrwt>
<rscale>  0 0.12500122E+03</rscale>
<asrwt>0</asrwt>
<pdfrwt beam="2">  1        4 0.11944252E-01 0.12500122E+03</pdfrwt>
<pdfrwt beam="1">  1       -4 0.77407469E-02 0.12500122E+03</pdfrwt>
<totfact> 0.10388227E+04</totfact>
</mgrwt>
</event>
<event>
 5    1  0.3514886E-002  0.1249962E+03  0.7818608E-02  0.1235075E+00
         -4   -1    0    0    0  501 -0.00000000000E+00  0.00000000000E+00  0.22761846013E+02  0.22797248385E+02  0.12700000000E+01 0.  1.
          4   -1    0    0  501    0  0.00000000000E+00 -0.00000000000E+00 -0.17143226416E+03  0.17143696828E+03  0.12700000000E+01 0.  1.
         25    2    1    2    0    0  0.00000000000E+00  0.00000000000E+00 -0.14867041815E+03  0.19423421667E+03  0.12499615071E+03 0.  0.
    9000005    1    3    3    0    0  0.24332624287E+02 -0.56877553861E+02 -0.88048220221E+02  0.10761329761E+03  0.10000000000E+01 0.  0.
    9000005    1    3    3    0    0 -0.24332624287E+02  0.56877553861E+02 -0.60622197925E+02  0.86620919062E+02  0.10000000000E+01 0.  0.
<mgrwt>
<rscale>  0 0.12499615E+03</rscale>
<asrwt>0</asrwt>
<pdfrwt beam="2">  1        4 0.26377279E-01 0.12499615E+03</pdfrwt>
<pdfrwt beam="1">  1       -4 0.35049077E-02 0.12499615E+03</pdfrwt>
<totfact> 0.91123604E+03</totfact>
</mgrwt>
</event>
<event>
 5    1  0.3514886E-002  0.1250009E+03  0.7818608E-02  0.1235068E+00
          4   -1    0    0  501    0  0.00000000000E+00  0.00000000000E+00  0.23100253057E+03  0.23100602163E+03  0.12700000000E+01 0.  1.
         -4   -1    0    0    0  501 -0.00000000000E+00 -0.00000000000E+00 -0.16882763567E+02  0.16930463835E+02  0.12700000000E+01 0.  1.
         25    2    1    2    0    0  0.00000000000E+00  0.00000000000E+00  0.21411976700E+03  0.24793648546E+03  0.12500090481E+03 0.  0.
    9000005    1    3    3    0    0 -0.55299369620E+02  0.29106932017E+02  0.10759497814E+03  0.12443035439E+03  0.10000000000E+01 0.  0.
    9000005    1    3    3    0    0  0.55299369620E+02 -0.29106932017E+02  0.10652478885E+03  0.12350613107E+03  0.10000000000E+01 0.  0.
<mgrwt>
<rscale>  0 0.12500090E+03</rscale>
<asrwt>0</asrwt>
<pdfrwt beam="1">  1        4 0.35542790E-01 0.12500090E+03</pdfrwt>
<pdfrwt beam="2">  1       -4 0.26012859E-02 0.12500090E+03</pdfrwt>
<totfact> 0.82627719E+03</totfact>
</mgrwt>
</event>
<event>
 5    1  0.3514886E-002  0.1250135E+03  0.7818608E-02  0.1235048E+00
         -4   -1    0    0    0  501 -0.00000000000E+00  0.00000000000E+00  0.60949772659E+02  0.60963002610E+02  0.12700000000E+01 0.  1.
          4   -1    0    0  501    0  0.00000000000E+00 -0.00000000000E+00 -0.64077014902E+02  0.64089599303E+02  0.12700000000E+01 0.  1.
         25    2    1    2    0    0  0.00000000000E+00  0.00000000000E+00 -0.31272422428E+01  0.12505260191E+03  0.12501349368E+03 0.  0.
    9000005    1    3    3    0    0 -0.27240503700E+02  0.28454250555E+01  0.54631812766E+02  0.61120998451E+02  0.10000000000E+01 0.  0.
    9000005    1    3    3    0    0  0.27240503700E+02 -0.28454250555E+01 -0.57759055009E+02  0.63931603461E+02  0.10000000000E+01 0.  0.
<mgrwt>
<rscale>  0 0.12501349E+03</rscale>
<asrwt>0</asrwt>
<pdfrwt beam="2">  1        4 0.98599880E-02 0.12501349E+03</pdfrwt>
<pdfrwt beam="1">  1       -4 0.93788738E-02 0.12501349E+03</pdfrwt>
<totfact> 0.10448533E+04</totfact>
</mgrwt>
</event>
<event>
 5    1  0.3514886E-002  0.1250020E+03  0.7818608E-02  0.1235066E+00
         -4   -1    0    0    0  501 -0.00000000000E+00  0.00000000000E+00  0.17242563353E+01  0.21414854447E+01  0.12700000000E+01 0. -1.
          4   -1    0    0  501    0  0.00000000000E+00 -0.00000000000E+00 -0.20206034947E+04  0.20206038938E+04  0.12700000000E+01 0. -1.
         25    2    1    2    0    0  0.00000000000E+00  0.00000000000E+00 -0.20188792383E+04  0.20227453792E+04  0.12500196082E+03 0.  0.
    9000005    1    3    3    0    0  0.17420575432E+02  0.38858712585E+02 -0.17495465906E+04  0.17500650699E+04  0.10000000000E+01 0.  0.
    9000005    1    3    3    0    0 -0.17420575432E+02 -0.38858712585E+02 -0.26933264768E+03  0.27268030934E+03  0.10000000000E+01 0.  0.
<mgrwt>
<rscale>  0 0.12500196E+03</rscale>
<asrwt>0</asrwt>
<pdfrwt beam="2">  1        4 0.31089251E+00 0.12500196E+03</pdfrwt>
<pdfrwt beam="1">  1       -4 0.29739707E-03 0.12500196E+03</pdfrwt>
<totfact> 0.95669471E+02</totfact>
</mgrwt>
</event>
<event>
 5    1  0.3514886E-002  0.1250013E+03  0.7818608E-02  0.1235067E+00
          4   -1    0    0  501    0  0.00000000000E+00  0.00000000000E+00  0.71089028527E+02  0.71100371847E+02  0.12700000000E+01 0. -1.
         -4   -1    0    0    0  501 -0.00000000000E+00 -0.00000000000E+00 -0.54926757140E+02  0.54941437458E+02  0.12700000000E+01 0. -1.
         25    2    1    2    0    0  0.00000000000E+00  0.00000000000E+00  0.16162271387E+02  0.12604180931E+03  0.12500127470E+03 0.  0.
    9000005    1    3    3    0    0 -0.67274162434E+01 -0.60206021533E+02  0.23548530076E+02  0.65004280066E+02  0.10000000000E+01 0.  0.
    9000005    1    3    3    0    0  0.67274162434E+01  0.60206021533E+02 -0.73862586892E+01  0.61037529239E+02  0.10000000000E+01 0.  0.
<mgrwt>
<rscale>  0 0.12500127E+03</rscale>
<asrwt>0</asrwt>
<pdfrwt beam="1">  1        4 0.10938775E-01 0.12500127E+03</pdfrwt>
<pdfrwt beam="2">  1       -4 0.84522722E-02 0.12500127E+03</pdfrwt>
<totfact> 0.10429741E+04</totfact>
</mgrwt>
</event>
<event>
 5    1  0.3514886E-002  0.1249996E+03  0.7818608E-02  0.1235070E+00
         -4   -1    0    0    0  501 -0.00000000000E+00  0.00000000000E+00  0.10811652478E+04  0.10811659937E+04  0.12700000000E+01 0. -1.
          4   -1    0    0  501    0  0.00000000000E+00 -0.00000000000E+00 -0.35006004964E+01  0.37238560438E+01  0.12700000000E+01 0. -1.
         25    2    1    2    0    0  0.00000000000E+00  0.00000000000E+00  0.10776646473E+04  0.10848898498E+04  0.12499957619E+03 0.  0.
    9000005    1    3    3    0    0 -0.36105913210E+02  0.42950063936E+02  0.77760806626E+03  0.77963045712E+03  0.10000000000E+01 0.  0.
    9000005    1    3    3    0    0  0.36105913210E+02 -0.42950063936E+02  0.30005658107E+03  0.30525939266E+03  0.10000000000E+01 0.  0.
<mgrwt>
<rscale>  0 0.12499958E+03</rscale>
<asrwt>0</asrwt>
<pdfrwt beam="2">  1        4 0.55578470E-03 0.12499958E+03</pdfrwt>
<pdfrwt beam="1">  1       -4 0.16635038E+00 0.12499958E+03</pdfrwt>
<totfact> 0.27930130E+03</totfact>
</mgrwt>
</event>
<event>
 5    1  0.3514886E-002  0.1249990E+03  0.7818608E-02  0.1235071E+00
          4   -1    0    0  501    0  0.00000000000E+00  0.00000000000E+00  0.83679180372E+03  0.83679276746E+03  0.12700000000E+01 0. -1.
         -4   -1    0    0    0  501 -0.00000000000E+00 -0.00000000000E+00 -0.45806878761E+01  0.47534830827E+01  0.12700000000E+01 0. -1.
         25    2    1    2    0    0  0.00000000000E+00  0.00000000000E+00  0.83221111584E+03  0.84154625054E+03  0.12499900187E+03 0.  0.
    9000005    1    3    3    0    0 -0.16347273315E+02  0.17658452422E+02  0.27828910244E+02  0.36803566840E+02  0.10000000000E+01 0.  0.
    9000005    1    3    3    0    0  0.16347273315E+02 -0.17658452422E+02  0.80438220560E+03  0.80474268370E+03  0.10000000000E+01 0.  0.
<mgrwt>
<rscale>  0 0.12499900E+03</rscale>
<asrwt>0</asrwt>
<pdfrwt beam="1">  1        4 0.12875068E+00 0.12499900E+03</pdfrwt>
<pdfrwt beam="2">  1       -4 0.71808668E-03 0.12499900E+03</pdfrwt>
<totfact> 0.36476543E+03</totfact>
</mgrwt>
</event>
<event>
 5    1  0.3514886E-002  0.1250006E+03  0.7818608E-02  0.1235068E+00
         -4   -1    0    0    0  501 -0.00000000000E+00  0.00000000000E+00  0.13681351132E+02  0.13740169897E+02  0.12700000000E+01 0.  1.
          4   -1    0    0  501    0  0.00000000000E+00 -0.00000000000E+00 -0.28484639364E+03  0.28484922480E+03  0.12700000000E+01 0.  1.
         25    2    1    2    0    0  0.00000000000E+00  0.00000000000E+00 -0.27116504250E+03  0.29858939469E+03  0.12500058539E+03 0.  0.
    9000005    1    3    3    0    0 -0.28575366423E+02  0.51022111481E+02 -0.82950793400E+02  0.10149700267E+03  0.10000000000E+01 0.  0.
    9000005    1    3    3    0    0  0.28575366423E+02 -0.51022111481E+02 -0.18821424910E+03  0.19709239202E+03  0.10000000000E+01 0.  0.
<mgrwt>
<rscale>  0 0.12500059E+03</rscale>
<asrwt>0</asrwt>
<pdfrwt beam="2">  1        4 0.43827260E-01 0.12500059E+03</pdfrwt>
<pdfrwt beam="1">  1       -4 0.21095658E-02 0.12500059E+03</pdfrwt>
<totfact> 0.75775141E+03</totfact>
</mgrwt>
</event>
<event>
 5    1  0.3514886E-002  0.1250007E+03  0.7818608E-02  0.1235068E+00
          4   -1    0    0  501    0  0.00000000000E+00  0.00000000000E+00  0.61903561239E+02  0.61916587391E+02  0.12700000000E+01 0. -1.
         -4   -1    0    0    0  501 -0.00000000000E+00 -0.00000000000E+00 -0.63076792050E+02  0.63089575964E+02  0.12700000000E+01 0. -1.
         25    2    1    2    0    0  0.00000000000E+00  0.00000000000E+00 -0.11732308111E+01  0.12500616335E+03  0.12500065762E+03 0.  0.
    9000005    1    3    3    0    0 -0.31221902081E+02  0.53854612719E+02 -0.60790900872E+01  0.62554630660E+02  0.10000000000E+01 0.  0.
    9000005    1    3    3    0    0  0.31221902081E+02 -0.53854612719E+02  0.49058592761E+01  0.62451532695E+02  0.10000000000E+01 0.  0.
<mgrwt>
<rscale>  0 0.12500066E+03</rscale>
<asrwt>0</asrwt>
<pdfrwt beam="1">  1        4 0.95256102E-02 0.12500066E+03</pdfrwt>
<pdfrwt beam="2">  1       -4 0.97061073E-02 0.12500066E+03</pdfrwt>
<totfact> 0.10452573E+04</totfact>
</mgrwt>
</event>
<event>
 5    1  0.3514886E-002  0.1250040E+03  0.7818608E-02  0.1235063E+00
          4   -1    0    0  501    0  0.00000000000E+00  0.00000000000E+00  0.32189343132E+03  0.32189593665E+03  0.12700000000E+01 0.  1.
         -4   -1    0    0    0  501 -0.00000000000E+00 -0.00000000000E+00 -0.12100215227E+02  0.12166680260E+02  0.12700000000E+01 0.  1.
         25    2    1    2    0    0  0.00000000000E+00  0.00000000000E+00  0.30979321610E+03  0.33406261691E+03  0.12500398104E+03 0.  0.
    9000005    1    3    3    0    0  0.51059217531E+02  0.51844555455E+01  0.25019274343E+03  0.25540425043E+03  0.10000000000E+01 0.  0.
    9000005    1    3    3    0    0 -0.51059217531E+02 -0.51844555455E+01  0.59600472665E+02  0.78658366472E+02  0.10000000000E+01 0.  0.
<mgrwt>
<rscale>  0 0.12500398E+03</rscale>
<asrwt>0</asrwt>
<pdfrwt beam="1">  1        4 0.49527374E-01 0.12500398E+03</pdfrwt>
<pdfrwt beam="2">  1       -4 0.18668769E-02 0.12500398E+03</pdfrwt>
<totfact> 0.71507890E+03</totfact>
</mgrwt>
</event>
<event>
 5    1  0.3514886E-002  0.1250011E+03  0.7818608E-02  0.1235068E+00
         -4   -1    0    0    0  501 -0.00000000000E+00  0.00000000000E+00  0.18195758185E+03  0.18196201387E+03  0.12700000000E+01 0. -1.
          4   -1    0    0  501    0  0.00000000000E+00 -0.00000000000E+00 -0.21444813690E+02  0.21482386604E+02  0.12700000000E+01 0. -1.
         25    2    1    2    0    0  0.00000000000E+00  0.00000000000E+00  0.16051276816E+03  0.20344440048E+03  0.12500110137E+03 0.  0.
    9000005    1    3    3    0    0 -0.16194222094E+01 -0.58139577191E+02  0.11745863153E+03  0.13107388407E+03  0.10000000000E+01 0.  0.
    9000005    1    3    3    0    0  0.16194222094E+01  0.58139577191E+02  0.43054136632E+02  0.72370516410E+02  0.10000000000E+01 0.  0.
<mgrwt>
<rscale>  0 0.12500110E+03</rscale>
<asrwt>0</asrwt>
<pdfrwt beam="2">  1        4 0.33024334E-02 0.12500110E+03</pdfrwt>
<pdfrwt beam="1">  1       -4 0.27996704E-01 0.12500110E+03</pdfrwt>
<totfact> 0.89555609E+03</totfact>
</mgrwt>
</event>
<event>
 5    1  0.3514886E-002  0.1250022E+03  0.7818608E-02  0.1235066E+00
         -4   -1    0    0    0  501 -0.00000000000E+00  0.00000000000E+00  0.20303982555E+02  0.20343662590E+02  0.12700000000E+01 0. -1.
          4   -1    0    0  501    0  0.00000000000E+00 -0.00000000000E+00 -0.19216568551E+03  0.19216988211E+03  0.12700000000E+01 0. -1.
         25    2    1    2    0    0  0.00000000000E+00  0.00000000000E+00 -0.17186170296E+03  0.21251354470E+03  0.12500224692E+03 0.  0.
    9000005    1    3    3    0    0 -0.21895723237E+02 -0.58531614849E+02 -0.86157676727E+02  0.10644020806E+03  0.10000000000E+01 0.  0.
    9000005    1    3    3    0    0  0.21895723237E+02  0.58531614849E+02 -0.85704026231E+02  0.10607333664E+03  0.10000000000E+01 0.  0.
<mgrwt>
<rscale>  0 0.12500225E+03</rscale>
<asrwt>0</asrwt>
<pdfrwt beam="2">  1        4 0.29567326E-01 0.12500225E+03</pdfrwt>
<pdfrwt beam="1">  1       -4 0.31270649E-02 0.12500225E+03</pdfrwt>
<totfact> 0.88062602E+03</totfact>
</mgrwt>
</event>
<event>
 5    1  0.3514886E-002  0.1249976E+03  0.7818608E-02  0.1235073E+00
         -4   -1    0    0    0  501 -0.00000000000E+00  0.00000000000E+00  0.88767781432E+03  0.88767872282E+03  0.12700000000E+01 0. -1.
          4   -1    0    0  501    0  0.00000000000E+00 -0.00000000000E+00 -0.43077939441E+01  0.44911010526E+01  0.12700000000E+01 0. -1.
         25    2    1    2    0    0  0.00000000000E+00  0.00000000000E+00  0.88337002038E+03  0.89216982387E+03  0.12499760685E+03 0.  0.
    9000005    1    3    3    0    0  0.49799878661E+02 -0.24954739470E+02  0.23951194639E+03  0.24590595641E+03  0.10000000000E+01 0.  0.
    9000005    1    3    3    0    0 -0.49799878661E+02  0.24954739470E+02  0.64385807399E+03  0.64626386746E+03  0.10000000000E+01 0.  0.
<mgrwt>
<rscale>  0 0.12499761E+03</rscale>
<asrwt>0</asrwt>
<pdfrwt beam="2">  1        4 0.67690830E-03 0.12499761E+03</pdfrwt>
<pdfrwt beam="1">  1       -4 0.13657992E+00 0.12499761E+03</pdfrwt>
<totfact> 0.34462776E+03</totfact>
</mgrwt>
</event>
<event>
 5    1  0.3514886E-002  0.1249982E+03  0.7818608E-02  0.1235072E+00
         -4   -1    0    0    0  501 -0.00000000000E+00  0.00000000000E+00  0.29236658478E+03  0.29236934312E+03  0.12700000000E+01 0.  1.
          4   -1    0    0  501    0  0.00000000000E+00 -0.00000000000E+00 -0.13327410156E+02  0.13387784038E+02  0.12700000000E+01 0.  1.
         25    2    1    2    0    0  0.00000000000E+00  0.00000000000E+00  0.27903917463E+03  0.30575712716E+03  0.12499823932E+03 0.  0.
    9000005    1    3    3    0    0  0.41871154642E+02  0.18442427960E+00  0.26048561005E+02  0.49322967610E+02  0.10000000000E+01 0.  0.
    9000005    1    3    3    0    0 -0.41871154642E+02 -0.18442427960E+00  0.25299061362E+03  0.25643415955E+03  0.10000000000E+01 0.  0.
<mgrwt>
<rscale>  0 0.12499824E+03</rscale>
<asrwt>0</asrwt>
<pdfrwt beam="2">  1        4 0.20552273E-02 0.12499824E+03</pdfrwt>
<pdfrwt beam="1">  1       -4 0.44984328E-01 0.12499824E+03</pdfrwt>
<totfact> 0.74885230E+03</totfact>
</mgrwt>
</event>
<event>
 5    1  0.3514886E-002  0.1250007E+03  0.7818608E-02  0.1235068E+00
         -4   -1    0    0    0  501 -0.00000000000E+00  0.00000000000E+00  0.51795681345E+02  0.51811248836E+02  0.12700000000E+01 0. -1.
          4   -1    0    0  501    0  0.00000000000E+00 -0.00000000000E+00 -0.75385103490E+02  0.75395800468E+02  0.12700000000E+01 0. -1.
         25    2    1    2    0    0  0.00000000000E+00  0.00000000000E+00 -0.23589422146E+02  0.12720704930E+03  0.12500069022E+03 0.  0.
    9000005    1    3    3    0    0  0.47418144356E+02  0.11834695689E+02 -0.51427638908E+02  0.70953100566E+02  0.10000000000E+01 0.  0.
    9000005    1    3    3    0    0 -0.47418144356E+02 -0.11834695689E+02  0.27838216763E+02  0.56253948739E+02  0.10000000000E+01 0.  0.
<mgrwt>
<rscale>  0 0.12500069E+03</rscale>
<asrwt>0</asrwt>
<pdfrwt beam="2">  1        4 0.11599729E-01 0.12500069E+03</pdfrwt>
<pdfrwt beam="1">  1       -4 0.79705866E-02 0.12500069E+03</pdfrwt>
<totfact> 0.10404488E+04</totfact>
</mgrwt>
</event>
<event>
 5    1  0.3514886E-002  0.1249989E+03  0.7818608E-02  0.1235071E+00
          4   -1    0    0  501    0  0.00000000000E+00  0.00000000000E+00  0.19744316436E+03  0.19744724879E+03  0.12700000000E+01 0. -1.
         -4   -1    0    0    0  501 -0.00000000000E+00 -0.00000000000E+00 -0.19759140181E+02  0.19799912138E+02  0.12700000000E+01 0. -1.
         25    2    1    2    0    0  0.00000000000E+00  0.00000000000E+00  0.17768402418E+03  0.21724716093E+03  0.12499886592E+03 0.  0.
    9000005    1    3    3    0    0 -0.53702321641E+01 -0.79968925641E-01  0.19704981889E+03  0.19712553592E+03  0.10000000000E+01 0.  0.
    9000005    1    3    3    0    0  0.53702321641E+01  0.79968925641E-01 -0.19365794702E+02  0.20121625008E+02  0.10000000000E+01 0.  0.
<mgrwt>
<rscale>  0 0.12499887E+03</rscale>
<asrwt>0</asrwt>
<pdfrwt beam="1">  1        4 0.30379324E-01 0.12499887E+03</pdfrwt>
<pdfrwt beam="2">  1       -4 0.30433180E-02 0.12499887E+03</pdfrwt>
<totfact> 0.87308043E+03</totfact>
</mgrwt>
</event>
<event>
 5    1  0.3514886E-002  0.1249691E+03  0.7818608E-02  0.1235118E+00
          4   -1    0    0  501    0  0.00000000000E+00  0.00000000000E+00  0.36229074187E+02  0.36251327099E+02  0.12700000000E+01 0.  1.
         -4   -1    0    0    0  501 -0.00000000000E+00 -0.00000000000E+00 -0.10770840948E+03  0.10771589657E+03  0.12700000000E+01 0.  1.
         25    2    1    2    0    0  0.00000000000E+00  0.00000000000E+00 -0.71479335296E+02  0.14396722367E+03  0.12496906063E+03 0.  0.
    9000005    1    3    3    0    0  0.23335163312E+02 -0.55421849113E+02 -0.55263153709E+02  0.81676969604E+02  0.10000000000E+01 0.  0.
    9000005    1    3    3    0    0 -0.23335163312E+02  0.55421849113E+02 -0.16216181587E+02  0.62290254062E+02  0.10000000000E+01 0.  0.
<mgrwt>
<rscale>  0 0.12496906E+03</rscale>
<asrwt>0</asrwt>
<pdfrwt beam="1">  1        4 0.55759915E-02 0.12496906E+03</pdfrwt>
<pdfrwt beam="2">  1       -4 0.16572812E-01 0.12496906E+03</pdfrwt>
<totfact> 0.10059021E+04</totfact>
</mgrwt>
</event>
<event>
 5    1  0.3514886E-002  0.1250053E+03  0.7818608E-02  0.1235061E+00
         -4   -1    0    0    0  501 -0.00000000000E+00  0.00000000000E+00  0.12065833601E+02  0.12132486986E+02  0.12700000000E+01 0.  1.
          4   -1    0    0  501    0  0.00000000000E+00 -0.00000000000E+00 -0.32281248354E+03  0.32281498173E+03  0.12700000000E+01 0.  1.
         25    2    1    2    0    0  0.00000000000E+00  0.00000000000E+00 -0.31074664994E+03  0.33494746871E+03  0.12500530529E+03 0.  0.
    9000005    1    3    3    0    0 -0.58090828812E+01 -0.14423454574E+02 -0.31755961524E+03  0.31794164671E+03  0.10000000000E+01 0.  0.
    9000005    1    3    3    0    0  0.58090828812E+01  0.14423454574E+02  0.68129652989E+01  0.17005822001E+02  0.10000000000E+01 0.  0.
<mgrwt>
<rscale>  0 0.12500531E+03</rscale>
<asrwt>0</asrwt>
<pdfrwt beam="2">  1        4 0.49668772E-01 0.12500531E+03</pdfrwt>
<pdfrwt beam="1">  1       -4 0.18616017E-02 0.12500531E+03</pdfrwt>
<totfact> 0.71404506E+03</totfact>
</mgrwt>
</event>
<event>
 4    1  0.3514886E-002  0.1244193E+03  0.7818608E-02  0.1235980E+00
          4   -1    0    0  501    0  0.00000000000E+00  0.00000000000E+00  0.13021649220E+03  0.13022268520E+03  0.12700000000E+01 0.  1.
         -4   -1    0    0    0  501 -0.00000000000E+00 -0.00000000000E+00 -0.29699578285E+02  0.29726719467E+02  0.12700000000E+01 0.  1.
    9000005    1    1    2    0    0  0.23344804885E+02 -0.57566765949E+02  0.54349725840E+02  0.82545776123E+02  0.10000000000E+01 0.  0.
    9000005    1    1    2    0    0 -0.23344804885E+02  0.57566765949E+02  0.46167188073E+02  0.77403628542E+02  0.10000000000E+01 0.  0.
<mgrwt>
<rscale>  0 0.12441930E+03</rscale>
<asrwt>0</asrwt>
<pdfrwt beam="1">  1        4 0.20035871E-01 0.12441930E+03</pdfrwt>
<pdfrwt beam="2">  1       -4 0.45717300E-02 0.12441930E+03</pdfrwt>
<totfact> 0.98634224E+03</totfact>
</mgrwt>
</event>
<event>
 5    1  0.3514886E-002  0.1249976E+03  0.7818608E-02  0.1235073E+00
         -4   -1    0    0    0  501 -0.00000000000E+00  0.00000000000E+00  0.42671181048E+03  0.42671370040E+03  0.12700000000E+01 0. -1.
          4   -1    0    0  501    0  0.00000000000E+00 -0.00000000000E+00 -0.91079912140E+01  0.91961080874E+01  0.12700000000E+01 0. -1.
         25    2    1    2    0    0  0.00000000000E+00  0.00000000000E+00  0.41760381927E+03  0.43590980848E+03  0.12499764503E+03 0.  0.
    9000005    1    3    3    0    0 -0.24811106064E+02  0.55533270934E+02  0.15880165717E+03  0.17005440742E+03  0.10000000000E+01 0.  0.
    9000005    1    3    3    0    0  0.24811106064E+02 -0.55533270934E+02  0.25880216210E+03  0.26585540106E+03  0.10000000000E+01 0.  0.
<mgrwt>
<rscale>  0 0.12499765E+03</rscale>
<asrwt>0</asrwt>
<pdfrwt beam="2">  1        4 0.14081531E-02 0.12499765E+03</pdfrwt>
<pdfrwt beam="1">  1       -4 0.65654890E-01 0.12499765E+03</pdfrwt>
<totfact> 0.61207111E+03</totfact>
</mgrwt>
</event>
<event>
 5    1  0.3514886E-002  0.1249996E+03  0.7818608E-02  0.1235070E+00
          4   -1    0    0  501    0  0.00000000000E+00  0.00000000000E+00  0.11312112814E+03  0.11312825700E+03  0.12700000000E+01 0. -1.
         -4   -1    0    0    0  501 -0.00000000000E+00 -0.00000000000E+00 -0.34511430271E+02  0.34534789985E+02  0.12700000000E+01 0. -1.
         25    2    1    2    0    0  0.00000000000E+00  0.00000000000E+00  0.78609697867E+02  0.14766304698E+03  0.12499956338E+03 0.  0.
    9000005    1    3    3    0    0  0.46308587356E+02  0.38273737305E+02  0.59623989810E+02  0.84648593556E+02  0.10000000000E+01 0.  0.
    9000005    1    3    3    0    0 -0.46308587356E+02 -0.38273737305E+02  0.18985708057E+02  0.63014453426E+02  0.10000000000E+01 0.  0.
<mgrwt>
<rscale>  0 0.12499956E+03</rscale>
<asrwt>0</asrwt>
<pdfrwt beam="1">  1        4 0.17405596E-01 0.12499956E+03</pdfrwt>
<pdfrwt beam="2">  1       -4 0.53117961E-02 0.12499956E+03</pdfrwt>
<totfact> 0.99772571E+03</totfact>
</mgrwt>
</event>
<event>
 5    1  0.3514886E-002  0.1249646E+03  0.7818608E-02  0.1235125E+00
          4   -1    0    0  501    0  0.00000000000E+00  0.00000000000E+00  0.15725386488E+03  0.15725899313E+03  0.12700000000E+01 0.  1.
         -4   -1    0    0    0  501 -0.00000000000E+00 -0.00000000000E+00 -0.24804555890E+02  0.24837046783E+02  0.12700000000E+01 0.  1.
         25    2    1    2    0    0  0.00000000000E+00  0.00000000000E+00  0.13244930899E+03  0.18209603991E+03  0.12496458818E+03 0.  0.
    9000005    1    3    3    0    0 -0.58888004379E+02 -0.19574728428E+02  0.76739609519E+02  0.98696173796E+02  0.10000000000E+01 0.  0.
    9000005    1    3    3    0    0  0.58888004379E+02  0.19574728428E+02  0.55709699468E+02  0.83399866113E+02  0.10000000000E+01 0.  0.
<mgrwt>
<rscale>  0 0.12496459E+03</rscale>
<asrwt>0</asrwt>
<pdfrwt beam="1">  1        4 0.24195796E-01 0.12496459E+03</pdfrwt>
<pdfrwt beam="2">  1       -4 0.38189793E-02 0.12496459E+03</pdfrwt>
<totfact> 0.93315121E+03</totfact>
</mgrwt>
</event>
<event>
 4    1  0.3514886E-002  0.1246777E+03  0.7818608E-02  0.1235574E+00
          4   -1    0    0  501    0  0.00000000000E+00  0.00000000000E+00  0.63584020716E+02  0.63596702669E+02  0.12700000000E+01 0. -1.
         -4   -1    0    0    0  501 -0.00000000000E+00 -0.00000000000E+00 -0.61092677978E+02  0.61105876988E+02  0.12700000000E+01 0. -1.
    9000005    1    1    2    0    0 -0.59247672032E+02  0.16157842941E+02 -0.94227185471E+01  0.62138153775E+02  0.10000000000E+01 0.  0.
    9000005    1    1    2    0    0  0.59247672032E+02 -0.16157842941E+02  0.11914061285E+02  0.62564425883E+02  0.10000000000E+01 0.  0.
<mgrwt>
<rscale>  0 0.12467769E+03</rscale>
<asrwt>0</asrwt>
<pdfrwt beam="1">  1        4 0.97841479E-02 0.12467769E+03</pdfrwt>
<pdfrwt beam="2">  1       -4 0.94008644E-02 0.12467769E+03</pdfrwt>
<totfact> 0.10535885E+04</totfact>
</mgrwt>
</event>
<event>
 5    1  0.3514886E-002  0.1249986E+03  0.7818608E-02  0.1235072E+00
         -4   -1    0    0    0  501 -0.00000000000E+00  0.00000000000E+00  0.12790206226E+02  0.12853103722E+02  0.12700000000E+01 0.  1.
          4   -1    0    0  501    0  0.00000000000E+00 -0.00000000000E+00 -0.30458909533E+03  0.30459174298E+03  0.12700000000E+01 0.  1.
         25    2    1    2    0    0  0.00000000000E+00  0.00000000000E+00 -0.29179888910E+03  0.31744484670E+03  0.12499855606E+03 0.  0.
    9000005    1    3    3    0    0  0.44381260496E+02 -0.30333883511E+02 -0.64977830242E+02  0.84338361349E+02  0.10000000000E+01 0.  0.
    9000005    1    3    3    0    0 -0.44381260496E+02  0.30333883511E+02 -0.22682105886E+03  0.23310648535E+03  0.10000000000E+01 0.  0.
<mgrwt>
<rscale>  0 0.12499856E+03</rscale>
<asrwt>0</asrwt>
<pdfrwt beam="2">  1        4 0.46864897E-01 0.12499856E+03</pdfrwt>
<pdfrwt beam="1">  1       -4 0.19727662E-02 0.12499856E+03</pdfrwt>
<totfact> 0.73463415E+03</totfact>
</mgrwt>
</event>
<event>
 5    1  0.3514886E-002  0.1250000E+03  0.7818608E-02  0.1235069E+00
          4   -1    0    0  501    0  0.00000000000E+00  0.00000000000E+00  0.21325480590E+03  0.21325858749E+03  0.12700000000E+01 0. -1.
         -4   -1    0    0    0  501 -0.00000000000E+00 -0.00000000000E+00 -0.18291326217E+02  0.18335362412E+02  0.12700000000E+01 0. -1.
         25    2    1    2    0    0  0.00000000000E+00  0.00000000000E+00  0.19496347968E+03  0.23159394990E+03  0.12499999689E+03 0.  0.
    9000005    1    3    3    0    0 -0.37367432116E+02  0.97578911308E+01  0.64569663228E+01  0.39169297114E+02  0.10000000000E+01 0.  0.
    9000005    1    3    3    0    0  0.37367432116E+02 -0.97578911308E+01  0.18850651336E+03  0.19242465279E+03  0.10000000000E+01 0.  0.
<mgrwt>
<rscale>  0 0.12500000E+03</rscale>
<asrwt>0</asrwt>
<pdfrwt beam="1">  1        4 0.32812109E-01 0.12500000E+03</pdfrwt>
<pdfrwt beam="2">  1       -4 0.28177286E-02 0.12500000E+03</pdfrwt>
<totfact> 0.85065450E+03</totfact>
</mgrwt>
</event>
<event>
 5    1  0.3514886E-002  0.1250030E+03  0.7818608E-02  0.1235065E+00
          4   -1    0    0  501    0  0.00000000000E+00  0.00000000000E+00  0.40171966319E+01  0.42131661229E+01  0.12700000000E+01 0. -1.
         -4   -1    0    0    0  501 -0.00000000000E+00 -0.00000000000E+00 -0.94907903682E+03  0.94907988654E+03  0.12700000000E+01 0. -1.
         25    2    1    2    0    0  0.00000000000E+00  0.00000000000E+00 -0.94506184019E+03  0.95329305266E+03  0.12500304985E+03 0.  0.
    9000005    1    3    3    0    0  0.29314312062E+02  0.42728634224E+02 -0.73894217409E+03  0.74075745135E+03  0.10000000000E+01 0.  0.
    9000005    1    3    3    0    0 -0.29314312062E+02 -0.42728634224E+02 -0.20611966610E+03  0.21253560131E+03  0.10000000000E+01 0.  0.
<mgrwt>
<rscale>  0 0.12500305E+03</rscale>
<asrwt>0</asrwt>
<pdfrwt beam="1">  1        4 0.63317094E-03 0.12500305E+03</pdfrwt>
<pdfrwt beam="2">  1       -4 0.14602713E+00 0.12500305E+03</pdfrwt>
<totfact> 0.32197237E+03</totfact>
</mgrwt>
</event>
<event>
 5    1  0.3514886E-002  0.1249984E+03  0.7818608E-02  0.1235072E+00
         -4   -1    0    0    0  501 -0.00000000000E+00  0.00000000000E+00  0.23547338116E+02  0.23581561279E+02  0.12700000000E+01 0. -1.
          4   -1    0    0  501    0  0.00000000000E+00 -0.00000000000E+00 -0.16572783525E+03  0.16573270129E+03  0.12700000000E+01 0. -1.
         25    2    1    2    0    0  0.00000000000E+00  0.00000000000E+00 -0.14218049713E+03  0.18931426256E+03  0.12499838497E+03 0.  0.
    9000005    1    3    3    0    0  0.33743239543E+02 -0.38170805998E+02 -0.12589737836E+03  0.13581887396E+03  0.10000000000E+01 0.  0.
    9000005    1    3    3    0    0 -0.33743239543E+02  0.38170805998E+02 -0.16283118773E+02  0.53495388609E+02  0.10000000000E+01 0.  0.
<mgrwt>
<rscale>  0 0.12499838E+03</rscale>
<asrwt>0</asrwt>
<pdfrwt beam="2">  1        4 0.25499596E-01 0.12499838E+03</pdfrwt>
<pdfrwt beam="1">  1       -4 0.36256744E-02 0.12499838E+03</pdfrwt>
<totfact> 0.91970095E+03</totfact>
</mgrwt>
</event>
<event>
 5    1  0.3514886E-002  0.1250003E+03  0.7818608E-02  0.1235069E+00
         -4   -1    0    0    0  501 -0.00000000000E+00  0.00000000000E+00  0.24495187630E+02  0.24528088328E+02  0.12700000000E+01 0.  1.
          4   -1    0    0  501    0  0.00000000000E+00 -0.00000000000E+00 -0.15932843658E+03  0.15933349806E+03  0.12700000000E+01 0.  1.
         25    2    1    2    0    0  0.00000000000E+00  0.00000000000E+00 -0.13483324895E+03  0.18386158639E+03  0.12500031170E+03 0.  0.
    9000005    1    3    3    0    0  0.21332781925E+02  0.37798893610E+02 -0.12850624087E+01  0.43433803980E+02  0.10000000000E+01 0.  0.
    9000005    1    3    3    0    0 -0.21332781925E+02 -0.37798893610E+02 -0.13354818654E+03  0.14042778241E+03  0.10000000000E+01 0.  0.
<mgrwt>
<rscale>  0 0.12500031E+03</rscale>
<asrwt>0</asrwt>
<pdfrwt beam="2">  1        4 0.24514987E-01 0.12500031E+03</pdfrwt>
<pdfrwt beam="1">  1       -4 0.37714107E-02 0.12500031E+03</pdfrwt>
<totfact> 0.92925838E+03</totfact>
</mgrwt>
</event>
<event>
 5    1  0.3514886E-002  0.1250009E+03  0.7818608E-02  0.1235068E+00
          4   -1    0    0  501    0  0.00000000000E+00  0.00000000000E+00  0.21391574869E+01  0.24877489330E+01  0.12700000000E+01 0. -1.
         -4   -1    0    0    0  501 -0.00000000000E+00 -0.00000000000E+00 -0.16881690593E+04  0.16881695370E+04  0.12700000000E+01 0. -1.
         25    2    1    2    0    0  0.00000000000E+00  0.00000000000E+00 -0.16860299018E+04  0.16906572859E+04  0.12500091477E+03 0.  0.
    9000005    1    3    3    0    0 -0.26595181713E+02 -0.55425782456E+02 -0.99482612650E+03  0.99672430643E+03  0.10000000000E+01 0.  0.
    9000005    1    3    3    0    0  0.26595181713E+02  0.55425782456E+02 -0.69120377527E+03  0.69393297947E+03  0.10000000000E+01 0.  0.
<mgrwt>
<rscale>  0 0.12500091E+03</rscale>
<asrwt>0</asrwt>
<pdfrwt beam="1">  1        4 0.35595398E-03 0.12500091E+03</pdfrwt>
<pdfrwt beam="2">  1       -4 0.25974418E+00 0.12500091E+03</pdfrwt>
<totfact> 0.14464204E+03</totfact>
</mgrwt>
</event>
<event>
 5    1  0.3514886E-002  0.1249983E+03  0.7818608E-02  0.1235072E+00
          4   -1    0    0  501    0  0.00000000000E+00  0.00000000000E+00  0.10636700173E+03  0.10637458323E+03  0.12700000000E+01 0. -1.
         -4   -1    0    0    0  501 -0.00000000000E+00 -0.00000000000E+00 -0.36703403561E+02  0.36725369065E+02  0.12700000000E+01 0. -1.
         25    2    1    2    0    0  0.00000000000E+00  0.00000000000E+00  0.69663598172E+02  0.14309995230E+03  0.12499831774E+03 0.  0.
    9000005    1    3    3    0    0 -0.55446319499E+02 -0.28056503709E+02  0.27265350062E+02  0.67866494387E+02  0.10000000000E+01 0.  0.
    9000005    1    3    3    0    0  0.55446319499E+02  0.28056503709E+02  0.42398248110E+02  0.75233457910E+02  0.10000000000E+01 0.  0.
<mgrwt>
<rscale>  0 0.12499832E+03</rscale>
<asrwt>0</asrwt>
<pdfrwt beam="1">  1        4 0.16366427E-01 0.12499832E+03</pdfrwt>
<pdfrwt beam="2">  1       -4 0.56489503E-02 0.12499832E+03</pdfrwt>
<totfact> 0.10070118E+04</totfact>
</mgrwt>
</event>
<event>
 5    1  0.3514886E-002  0.1250022E+03  0.7818608E-02  0.1235066E+00
         -4   -1    0    0    0  501 -0.00000000000E+00  0.00000000000E+00  0.40581343647E+02  0.40601211216E+02  0.12700000000E+01 0.  1.
          4   -1    0    0  501    0  0.00000000000E+00 -0.00000000000E+00 -0.96212997537E+02  0.96221379096E+02  0.12700000000E+01 0.  1.
         25    2    1    2    0    0  0.00000000000E+00  0.00000000000E+00 -0.55631653890E+02  0.13682259031E+03  0.12500216120E+03 0.  0.
    9000005    1    3    3    0    0 -0.16454668568E+02  0.12779843409E+02  0.36673322042E+02  0.42190201052E+02  0.10000000000E+01 0.  0.
    9000005    1    3    3    0    0  0.16454668568E+02 -0.12779843409E+02 -0.92304975932E+02  0.94632389260E+02  0.10000000000E+01 0.  0.
<mgrwt>
<rscale>  0 0.12500216E+03</rscale>
<asrwt>0</asrwt>
<pdfrwt beam="2">  1        4 0.14804173E-01 0.12500216E+03</pdfrwt>
<pdfrwt beam="1">  1       -4 0.62454567E-02 0.12500216E+03</pdfrwt>
<totfact> 0.10199299E+04</totfact>
</mgrwt>
</event>
<event>
 5    1  0.3514886E-002  0.1250006E+03  0.7818608E-02  0.1235068E+00
         -4   -1    0    0    0  501 -0.00000000000E+00  0.00000000000E+00  0.49221127038E+02  0.49237508536E+02  0.12700000000E+01 0.  1.
          4   -1    0    0  501    0  0.00000000000E+00 -0.00000000000E+00 -0.79327318458E+02  0.79337483913E+02  0.12700000000E+01 0.  1.
         25    2    1    2    0    0  0.00000000000E+00  0.00000000000E+00 -0.30106191420E+02  0.12857499245E+03  0.12500058368E+03 0.  0.
    9000005    1    3    3    0    0  0.45354146000E+02  0.39888069721E+02  0.14439097918E+01  0.60424676589E+02  0.10000000000E+01 0.  0.
    9000005    1    3    3    0    0 -0.45354146000E+02 -0.39888069721E+02 -0.31550101212E+02  0.68150315860E+02  0.10000000000E+01 0.  0.
<mgrwt>
<rscale>  0 0.12500058E+03</rscale>
<asrwt>0</asrwt>
<pdfrwt beam="2">  1        4 0.12206245E-01 0.12500058E+03</pdfrwt>
<pdfrwt beam="1">  1       -4 0.75745231E-02 0.12500058E+03</pdfrwt>
<totfact> 0.10374952E+04</totfact>
</mgrwt>
</event>
<event>
 5    1  0.3514886E-002  0.1250022E+03  0.7818608E-02  0.1235066E+00
          4   -1    0    0  501    0  0.00000000000E+00  0.00000000000E+00  0.16796494458E+03  0.16796974581E+03  0.12700000000E+01 0. -1.
         -4   -1    0    0    0  501 -0.00000000000E+00 -0.00000000000E+00 -0.23234680768E+02  0.23269363773E+02  0.12700000000E+01 0. -1.
         25    2    1    2    0    0  0.00000000000E+00  0.00000000000E+00  0.14473026381E+03  0.19123910958E+03  0.12500219107E+03 0.  0.
    9000005    1    3    3    0    0 -0.13538077208E+02 -0.45524193268E+02  0.13450290463E+03  0.14264558550E+03  0.10000000000E+01 0.  0.
    9000005    1    3    3    0    0  0.13538077208E+02  0.45524193268E+02  0.10227359178E+02  0.48593524085E+02  0.10000000000E+01 0.  0.
<mgrwt>
<rscale>  0 0.12500219E+03</rscale>
<asrwt>0</asrwt>
<pdfrwt beam="1">  1        4 0.25843798E-01 0.12500219E+03</pdfrwt>
<pdfrwt beam="2">  1       -4 0.35776035E-02 0.12500219E+03</pdfrwt>
<totfact> 0.91627662E+03</totfact>
</mgrwt>
</event>
<event>
 5    1  0.3514886E-002  0.1249996E+03  0.7818608E-02  0.1235070E+00
         -4   -1    0    0    0  501 -0.00000000000E+00  0.00000000000E+00  0.39822040766E+02  0.39842286967E+02  0.12700000000E+01 0. -1.
          4   -1    0    0  501    0  0.00000000000E+00 -0.00000000000E+00 -0.98042806105E+02  0.98051031249E+02  0.12700000000E+01 0. -1.
         25    2    1    2    0    0  0.00000000000E+00  0.00000000000E+00 -0.58220765340E+02  0.13789331822E+03  0.12499963877E+03 0.  0.
    9000005    1    3    3    0    0 -0.33391043295E+02  0.36835151198E+02  0.12655706667E+02  0.51312347904E+02  0.10000000000E+01 0.  0.
    9000005    1    3    3    0    0  0.33391043295E+02 -0.36835151198E+02 -0.70876472006E+02  0.86580970312E+02  0.10000000000E+01 0.  0.
<mgrwt>
<rscale>  0 0.12499964E+03</rscale>
<asrwt>0</asrwt>
<pdfrwt beam="2">  1        4 0.15085699E-01 0.12499964E+03</pdfrwt>
<pdfrwt beam="1">  1       -4 0.61286580E-02 0.12499964E+03</pdfrwt>
<totfact> 0.10177519E+04</totfact>
</mgrwt>
</event>
<event>
 5    1  0.3514886E-002  0.1249978E+03  0.7818608E-02  0.1235073E+00
         -4   -1    0    0    0  501 -0.00000000000E+00  0.00000000000E+00  0.14516659916E+02  0.14572107435E+02  0.12700000000E+01 0. -1.
          4   -1    0    0  501    0  0.00000000000E+00 -0.00000000000E+00 -0.26850812365E+03  0.26851112709E+03  0.12700000000E+01 0. -1.
         25    2    1    2    0    0  0.00000000000E+00  0.00000000000E+00 -0.25399146374E+03  0.28308323452E+03  0.12499781604E+03 0.  0.
    9000005    1    3    3    0    0 -0.30117275568E+02 -0.51381645219E+02 -0.84146107366E+02  0.10309554373E+03  0.10000000000E+01 0.  0.
    9000005    1    3    3    0    0  0.30117275568E+02  0.51381645219E+02 -0.16984535637E+03  0.17998769079E+03  0.10000000000E+01 0.  0.
<mgrwt>
<rscale>  0 0.12499782E+03</rscale>
<asrwt>0</asrwt>
<pdfrwt beam="2">  1        4 0.41313435E-01 0.12499782E+03</pdfrwt>
<pdfrwt beam="1">  1       -4 0.22378287E-02 0.12499782E+03</pdfrwt>
<totfact> 0.77774835E+03</totfact>
</mgrwt>
</event>
<event>
 5    1  0.3514886E-002  0.1249992E+03  0.7818608E-02  0.1235071E+00
         -4   -1    0    0    0  501 -0.00000000000E+00  0.00000000000E+00  0.12266833268E+03  0.12267490674E+03  0.12700000000E+01 0.  1.
          4   -1    0    0  501    0  0.00000000000E+00 -0.00000000000E+00 -0.31823476938E+02  0.31848808211E+02  0.12700000000E+01 0.  1.
         25    2    1    2    0    0  0.00000000000E+00  0.00000000000E+00  0.90844855746E+02  0.15452371495E+03  0.12499916266E+03 0.  0.
    9000005    1    3    3    0    0 -0.20524723011E+02 -0.52829873042E+02  0.77963750664E+02  0.96392977741E+02  0.10000000000E+01 0.  0.
    9000005    1    3    3    0    0  0.20524723011E+02  0.52829873042E+02  0.12881105082E+02  0.58130737209E+02  0.10000000000E+01 0.  0.
<mgrwt>
<rscale>  0 0.12499916E+03</rscale>
<asrwt>0</asrwt>
<pdfrwt beam="2">  1        4 0.48983739E-02 0.12499916E+03</pdfrwt>
<pdfrwt beam="1">  1       -4 0.18874505E-01 0.12499916E+03</pdfrwt>
<totfact> 0.98410934E+03</totfact>
</mgrwt>
</event>
<event>
 5    1  0.3514886E-002  0.1250028E+03  0.7818608E-02  0.1235065E+00
          4   -1    0    0  501    0  0.00000000000E+00  0.00000000000E+00  0.25539625901E+02  0.25571182826E+02  0.12700000000E+01 0. -1.
         -4   -1    0    0    0  501 -0.00000000000E+00 -0.00000000000E+00 -0.15282687447E+03  0.15283215127E+03  0.12700000000E+01 0. -1.
         25    2    1    2    0    0  0.00000000000E+00  0.00000000000E+00 -0.12728724857E+03  0.17840333409E+03  0.12500282383E+03 0.  0.
    9000005    1    3    3    0    0 -0.30431090752E+02 -0.34953031008E+02 -0.12347798838E+03  0.13189230181E+03  0.10000000000E+01 0.  0.
    9000005    1    3    3    0    0  0.30431090752E+02  0.34953031008E+02 -0.38092601866E+01  0.46511032284E+02  0.10000000000E+01 0.  0.
<mgrwt>
<rscale>  0 0.12500282E+03</rscale>
<asrwt>0</asrwt>
<pdfrwt beam="1">  1        4 0.39320067E-02 0.12500282E+03</pdfrwt>
<pdfrwt beam="2">  1       -4 0.23514660E-01 0.12500282E+03</pdfrwt>
<totfact> 0.93899254E+03</totfact>
</mgrwt>
</event>
<event>
 5    1  0.3514886E-002  0.1250201E+03  0.7818608E-02  0.1235038E+00
          4   -1    0    0  501    0  0.00000000000E+00  0.00000000000E+00  0.69861953561E+02  0.69873496087E+02  0.12700000000E+01 0. -1.
         -4   -1    0    0    0  501 -0.00000000000E+00 -0.00000000000E+00 -0.55908419187E+02  0.55922841809E+02  0.12700000000E+01 0. -1.
         25    2    1    2    0    0  0.00000000000E+00  0.00000000000E+00  0.13953534374E+02  0.12579633790E+03  0.12502006842E+03 0.  0.
    9000005    1    3    3    0    0 -0.21089728009E+02 -0.58412504448E+02  0.14070868106E+02  0.63685058159E+02  0.10000000000E+01 0.  0.
    9000005    1    3    3    0    0  0.21089728009E+02  0.58412504448E+02 -0.11733373263E+00  0.62111279737E+02  0.10000000000E+01 0.  0.
<mgrwt>
<rscale>  0 0.12502007E+03</rscale>
<asrwt>0</asrwt>
<pdfrwt beam="1">  1        4 0.10749990E-01 0.12502007E+03</pdfrwt>
<pdfrwt beam="2">  1       -4 0.86032926E-02 0.12502007E+03</pdfrwt>
<totfact> 0.10430702E+04</totfact>
</mgrwt>
</event>
<event>
 4    1  0.3514886E-002  0.1249234E+03  0.7818608E-02  0.1235189E+00
         -4   -1    0    0    0  501 -0.00000000000E+00  0.00000000000E+00  0.52423049235E+03  0.52423203070E+03  0.12700000000E+01 0. -1.
          4   -1    0    0  501    0  0.00000000000E+00 -0.00000000000E+00 -0.73865271478E+01  0.74949104935E+01  0.12700000000E+01 0. -1.
    9000005    1    1    2    0    0  0.47874970032E+02  0.34230840994E+02  0.16947385618E+03  0.17940499202E+03  0.10000000000E+01 0.  0.
    9000005    1    1    2    0    0 -0.47874970032E+02 -0.34230840994E+02  0.34737010902E+03  0.35232194918E+03  0.10000000000E+01 0.  0.
<mgrwt>
<rscale>  0 0.12492340E+03</rscale>
<asrwt>0</asrwt>
<pdfrwt beam="2">  1        4 0.11448444E-02 0.12492340E+03</pdfrwt>
<pdfrwt beam="1">  1       -4 0.80659291E-01 0.12492340E+03</pdfrwt>
<totfact> 0.53574220E+03</totfact>
</mgrwt>
</event>
<event>
 5    1  0.3514886E-002  0.1249997E+03  0.7818608E-02  0.1235070E+00
         -4   -1    0    0    0  501 -0.00000000000E+00  0.00000000000E+00  0.24482986958E+02  0.24515904030E+02  0.12700000000E+01 0. -1.
          4   -1    0    0  501    0  0.00000000000E+00 -0.00000000000E+00 -0.15940616462E+03  0.15941122363E+03  0.12700000000E+01 0. -1.
         25    2    1    2    0    0  0.00000000000E+00  0.00000000000E+00 -0.13492317767E+03  0.18392712766E+03  0.12499969767E+03 0.  0.
    9000005    1    3    3    0    0  0.78887440852E+01 -0.21799362981E+02  0.17928822975E+02  0.29323833359E+02  0.10000000000E+01 0.  0.
    9000005    1    3    3    0    0 -0.78887440852E+01  0.21799362981E+02 -0.15285200064E+03  0.15460329430E+03  0.10000000000E+01 0.  0.
<mgrwt>
<rscale>  0 0.12499970E+03</rscale>
<asrwt>0</asrwt>
<pdfrwt beam="2">  1        4 0.24526946E-01 0.12499970E+03</pdfrwt>
<pdfrwt beam="1">  1       -4 0.37695347E-02 0.12499970E+03</pdfrwt>
<totfact> 0.92915476E+03</totfact>
</mgrwt>
</event>
<event>
 5    1  0.3514886E-002  0.1250013E+03  0.7818608E-02  0.1235067E+00
         -4   -1    0    0    0  501 -0.00000000000E+00  0.00000000000E+00  0.18711252747E+02  0.18754302955E+02  0.12700000000E+01 0.  1.
          4   -1    0    0  501    0  0.00000000000E+00 -0.00000000000E+00 -0.20848428413E+03  0.20848815225E+03  0.12700000000E+01 0.  1.
         25    2    1    2    0    0  0.00000000000E+00  0.00000000000E+00 -0.18977303138E+03  0.22724245521E+03  0.12500132002E+03 0.  0.
    9000005    1    3    3    0    0  0.51506105122E+02 -0.35249728515E+02 -0.89163594484E+02  0.10884194415E+03  0.10000000000E+01 0.  0.
    9000005    1    3    3    0    0 -0.51506105122E+02  0.35249728515E+02 -0.10060943690E+03  0.11840051105E+03  0.10000000000E+01 0.  0.
<mgrwt>
<rscale>  0 0.12500132E+03</rscale>
<asrwt>0</asrwt>
<pdfrwt beam="2">  1        4 0.32078113E-01 0.12500132E+03</pdfrwt>
<pdfrwt beam="1">  1       -4 0.28822635E-02 0.12500132E+03</pdfrwt>
<totfact> 0.85732302E+03</totfact>
</mgrwt>
</event>
<event>
 5    1  0.3514886E-002  0.1250036E+03  0.7818608E-02  0.1235064E+00
          4   -1    0    0  501    0  0.00000000000E+00  0.00000000000E+00  0.16165002700E+02  0.16214814593E+02  0.12700000000E+01 0. -1.
         -4   -1    0    0    0  501 -0.00000000000E+00 -0.00000000000E+00 -0.24123921806E+03  0.24124256098E+03  0.12700000000E+01 0. -1.
         25    2    1    2    0    0  0.00000000000E+00  0.00000000000E+00 -0.22507421536E+03  0.25745737557E+03  0.12500359122E+03 0.  0.
    9000005    1    3    3    0    0 -0.52145712858E+02  0.31547322367E+02 -0.14100622664E+03  0.15361694200E+03  0.10000000000E+01 0.  0.
    9000005    1    3    3    0    0  0.52145712858E+02 -0.31547322367E+02 -0.84067988716E+02  0.10384043357E+03  0.10000000000E+01 0.  0.
<mgrwt>
<rscale>  0 0.12500359E+03</rscale>
<asrwt>0</asrwt>
<pdfrwt beam="1">  1        4 0.24910125E-02 0.12500359E+03</pdfrwt>
<pdfrwt beam="2">  1       -4 0.37117812E-01 0.12500359E+03</pdfrwt>
<totfact> 0.81257715E+03</totfact>
</mgrwt>
</event>
<event>
 5    1  0.3514886E-002  0.1250057E+03  0.7818608E-02  0.1235060E+00
         -4   -1    0    0    0  501 -0.00000000000E+00  0.00000000000E+00  0.10221929895E+02  0.10300521869E+02  0.12700000000E+01 0. -1.
          4   -1    0    0  501    0  0.00000000000E+00 -0.00000000000E+00 -0.38063576303E+03  0.38063788172E+03  0.12700000000E+01 0. -1.
         25    2    1    2    0    0  0.00000000000E+00  0.00000000000E+00 -0.37041383313E+03  0.39093840359E+03  0.12500571035E+03 0.  0.
    9000005    1    3    3    0    0 -0.29387432199E+02  0.63854745637E+01 -0.35653429913E+03  0.35780176343E+03  0.10000000000E+01 0.  0.
    9000005    1    3    3    0    0  0.29387432199E+02 -0.63854745637E+01 -0.13879534004E+02  0.33136640156E+02  0.10000000000E+01 0.  0.
<mgrwt>
<rscale>  0 0.12500571E+03</rscale>
<asrwt>0</asrwt>
<pdfrwt beam="2">  1        4 0.58565546E-01 0.12500571E+03</pdfrwt>
<pdfrwt beam="1">  1       -4 0.15788134E-02 0.12500571E+03</pdfrwt>
<totfact> 0.65435507E+03</totfact>
</mgrwt>
</event>
<event>
 5    1  0.3514886E-002  0.1250004E+03  0.7818608E-02  0.1235069E+00
          4   -1    0    0  501    0  0.00000000000E+00  0.00000000000E+00  0.97511906001E+02  0.97520175922E+02  0.12700000000E+01 0.  1.
         -4   -1    0    0    0  501 -0.00000000000E+00 -0.00000000000E+00 -0.40039430177E+02  0.40059566509E+02  0.12700000000E+01 0.  1.
         25    2    1    2    0    0  0.00000000000E+00  0.00000000000E+00  0.57472475824E+02  0.13757974243E+03  0.12500040020E+03 0.  0.
    9000005    1    3    3    0    0 -0.25572022903E+02 -0.41402697868E+02 -0.14415976539E+02  0.50763492056E+02  0.10000000000E+01 0.  0.
    9000005    1    3    3    0    0  0.25572022903E+02  0.41402697868E+02  0.71888452363E+02  0.86816250376E+02  0.10000000000E+01 0.  0.
<mgrwt>
<rscale>  0 0.12500040E+03</rscale>
<asrwt>0</asrwt>
<pdfrwt beam="1">  1        4 0.15004017E-01 0.12500040E+03</pdfrwt>
<pdfrwt beam="2">  1       -4 0.61620975E-02 0.12500040E+03</pdfrwt>
<totfact> 0.10183886E+04</totfact>
</mgrwt>
</event>
<event>
 5    1  0.3514886E-002  0.1249954E+03  0.7818608E-02  0.1235076E+00
         -4   -1    0    0    0  501 -0.00000000000E+00  0.00000000000E+00  0.11567153792E+03  0.11567850961E+03  0.12700000000E+01 0.  1.
          4   -1    0    0  501    0  0.00000000000E+00 -0.00000000000E+00 -0.33747770470E+02  0.33771658409E+02  0.12700000000E+01 0.  1.
         25    2    1    2    0    0  0.00000000000E+00  0.00000000000E+00  0.81923767449E+02  0.14945016801E+03  0.12499539610E+03 0.  0.
    9000005    1    3    3    0    0 -0.41152483316E+02 -0.24949216934E+02 -0.66988261123E+01  0.48599018303E+02  0.10000000000E+01 0.  0.
    9000005    1    3    3    0    0  0.41152483316E+02  0.24949216934E+02  0.88622593561E+02  0.10085114971E+03  0.10000000000E+01 0.  0.
<mgrwt>
<rscale>  0 0.12499540E+03</rscale>
<asrwt>0</asrwt>
<pdfrwt beam="2">  1        4 0.51943385E-02 0.12499540E+03</pdfrwt>
<pdfrwt beam="1">  1       -4 0.17797995E-01 0.12499540E+03</pdfrwt>
<totfact> 0.99423713E+03</totfact>
</mgrwt>
</event>
<event>
 5    1  0.3514886E-002  0.1249980E+03  0.7818608E-02  0.1235072E+00
          4   -1    0    0  501    0  0.00000000000E+00  0.00000000000E+00  0.25872011665E+02  0.25903163660E+02  0.12700000000E+01 0.  1.
         -4   -1    0    0    0  501 -0.00000000000E+00 -0.00000000000E+00 -0.15085409308E+03  0.15085943888E+03  0.12700000000E+01 0.  1.
         25    2    1    2    0    0  0.00000000000E+00  0.00000000000E+00 -0.12498208142E+03  0.17676260254E+03  0.12499798791E+03 0.  0.
    9000005    1    3    3    0    0  0.52862765438E+02 -0.87485118021E+01 -0.17016119490E+02  0.56227722264E+02  0.10000000000E+01 0.  0.
    9000005    1    3    3    0    0 -0.52862765438E+02  0.87485118021E+01 -0.10796596193E+03  0.12053488028E+03  0.10000000000E+01 0.  0.
<mgrwt>
<rscale>  0 0.12499799E+03</rscale>
<asrwt>0</asrwt>
<pdfrwt beam="1">  1        4 0.39831171E-02 0.12499799E+03</pdfrwt>
<pdfrwt beam="2">  1       -4 0.23211129E-01 0.12499799E+03</pdfrwt>
<totfact> 0.94207264E+03</totfact>
</mgrwt>
</event>
<event>
 5    1  0.3514886E-002  0.1249994E+03  0.7818608E-02  0.1235070E+00
         -4   -1    0    0    0  501 -0.00000000000E+00  0.00000000000E+00  0.25117242772E+03  0.25117563844E+03  0.12700000000E+01 0.  1.
          4   -1    0    0  501    0  0.00000000000E+00 -0.00000000000E+00 -0.15522661268E+02  0.15574527692E+02  0.12700000000E+01 0.  1.
         25    2    1    2    0    0  0.00000000000E+00  0.00000000000E+00  0.23564976646E+03  0.26675016614E+03  0.12499935481E+03 0.  0.
    9000005    1    3    3    0    0  0.10290953358E+02  0.60787719631E+02  0.96045502330E+02  0.11413496001E+03  0.10000000000E+01 0.  0.
    9000005    1    3    3    0    0 -0.10290953358E+02 -0.60787719631E+02  0.13960426412E+03  0.15261520613E+03  0.10000000000E+01 0.  0.
<mgrwt>
<rscale>  0 0.12499935E+03</rscale>
<asrwt>0</asrwt>
<pdfrwt beam="2">  1        4 0.23923383E-02 0.12499935E+03</pdfrwt>
<pdfrwt beam="1">  1       -4 0.38646151E-01 0.12499935E+03</pdfrwt>
<totfact> 0.79969150E+03</totfact>
</mgrwt>
</event>
<event>
 5    1  0.3514886E-002  0.1249990E+03  0.7818608E-02  0.1235071E+00
          4   -1    0    0  501    0  0.00000000000E+00  0.00000000000E+00  0.15429504901E+02  0.15481683419E+02  0.12700000000E+01 0. -1.
         -4   -1    0    0    0  501 -0.00000000000E+00 -0.00000000000E+00 -0.25268240752E+03  0.25268559905E+03  0.12700000000E+01 0. -1.
         25    2    1    2    0    0  0.00000000000E+00  0.00000000000E+00 -0.23725290261E+03  0.26816728247E+03  0.12499900635E+03 0.  0.
    9000005    1    3    3    0    0 -0.10317825995E+02 -0.61625525392E+02 -0.12079844103E+03  0.13600524353E+03  0.10000000000E+01 0.  0.
    9000005    1    3    3    0    0  0.10317825995E+02  0.61625525392E+02 -0.11645446158E+03  0.13216203894E+03  0.10000000000E+01 0.  0.
<mgrwt>
<rscale>  0 0.12499901E+03</rscale>
<asrwt>0</asrwt>
<pdfrwt beam="1">  1        4 0.23780294E-02 0.12499901E+03</pdfrwt>
<pdfrwt beam="2">  1       -4 0.38878473E-01 0.12499901E+03</pdfrwt>
<totfact> 0.79775152E+03</totfact>
</mgrwt>
</event>
<event>
 5    1  0.3514886E-002  0.1249987E+03  0.7818608E-02  0.1235071E+00
          4   -1    0    0  501    0  0.00000000000E+00  0.00000000000E+00  0.18430103859E+03  0.18430541426E+03  0.12700000000E+01 0.  1.
         -4   -1    0    0    0  501 -0.00000000000E+00 -0.00000000000E+00 -0.21170849689E+02  0.21208907953E+02  0.12700000000E+01 0.  1.
         25    2    1    2    0    0  0.00000000000E+00  0.00000000000E+00  0.16313018890E+03  0.20551432221E+03  0.12499871241E+03 0.  0.
    9000005    1    3    3    0    0  0.36638564292E+02  0.15112683175E+02  0.21279834573E+01  0.39702719047E+02  0.10000000000E+01 0.  0.
    9000005    1    3    3    0    0 -0.36638564292E+02 -0.15112683175E+02  0.16100220544E+03  0.16581160316E+03  0.10000000000E+01 0.  0.
<mgrwt>
<rscale>  0 0.12499871E+03</rscale>
<asrwt>0</asrwt>
<pdfrwt beam="1">  1        4 0.28357270E-01 0.12499871E+03</pdfrwt>
<pdfrwt beam="2">  1       -4 0.32603180E-02 0.12499871E+03</pdfrwt>
<totfact> 0.89216300E+03</totfact>
</mgrwt>
</event>
<event>
 5    1  0.3514886E-002  0.1249985E+03  0.7818608E-02  0.1235072E+00
          4   -1    0    0  501    0  0.00000000000E+00  0.00000000000E+00  0.64383492174E+02  0.64396016682E+02  0.12700000000E+01 0.  1.
         -4   -1    0    0    0  501 -0.00000000000E+00 -0.00000000000E+00 -0.60645085028E+02  0.60658381433E+02  0.12700000000E+01 0.  1.
         25    2    1    2    0    0  0.00000000000E+00  0.00000000000E+00  0.37384071460E+01  0.12505439811E+03  0.12499850719E+03 0.  0.
    9000005    1    3    3    0    0  0.52189743494E+02  0.36698640764E+01 -0.32320913935E+02  0.61505111217E+02  0.10000000000E+01 0.  0.
    9000005    1    3    3    0    0 -0.52189743494E+02 -0.36698640764E+01  0.36059321081E+02  0.63549286897E+02  0.10000000000E+01 0.  0.
<mgrwt>
<rscale>  0 0.12499851E+03</rscale>
<asrwt>0</asrwt>
<pdfrwt beam="1">  1        4 0.99071389E-02 0.12499851E+03</pdfrwt>
<pdfrwt beam="2">  1       -4 0.93319993E-02 0.12499851E+03</pdfrwt>
<totfact> 0.10452034E+04</totfact>
</mgrwt>
</event>
<event>
 5    1  0.3514886E-002  0.1250006E+03  0.7818608E-02  0.1235068E+00
          4   -1    0    0  501    0  0.00000000000E+00  0.00000000000E+00  0.23086935297E+02  0.23121839922E+02  0.12700000000E+01 0.  1.
         -4   -1    0    0    0  501 -0.00000000000E+00 -0.00000000000E+00 -0.16903397724E+03  0.16903874811E+03  0.12700000000E+01 0.  1.
         25    2    1    2    0    0  0.00000000000E+00  0.00000000000E+00 -0.14594704195E+03  0.19216058803E+03  0.12500061016E+03 0.  0.
    9000005    1    3    3    0    0 -0.51488095564E+02 -0.20318219304E+02 -0.11756606441E+03  0.12994858030E+03  0.10000000000E+01 0.  0.
    9000005    1    3    3    0    0  0.51488095564E+02  0.20318219304E+02 -0.28380977537E+02  0.62212007735E+02  0.10000000000E+01 0.  0.
<mgrwt>
<rscale>  0 0.12500061E+03</rscale>
<asrwt>0</asrwt>
<pdfrwt beam="1">  1        4 0.35548883E-02 0.12500061E+03</pdfrwt>
<pdfrwt beam="2">  1       -4 0.26008278E-01 0.12500061E+03</pdfrwt>
<totfact> 0.91471483E+03</totfact>
</mgrwt>
</event>
<event>
 5    1  0.3514886E-002  0.1250012E+03  0.7818608E-02  0.1235067E+00
          4   -1    0    0  501    0  0.00000000000E+00  0.00000000000E+00  0.20196807081E+03  0.20197206373E+03  0.12700000000E+01 0. -1.
         -4   -1    0    0    0  501 -0.00000000000E+00 -0.00000000000E+00 -0.19316256559E+02  0.19357961345E+02  0.12700000000E+01 0. -1.
         25    2    1    2    0    0  0.00000000000E+00  0.00000000000E+00  0.18265181425E+03  0.22133002507E+03  0.12500117899E+03 0.  0.
    9000005    1    3    3    0    0 -0.87110411901E+01 -0.56540324171E+02  0.13586098446E+03  0.14741742636E+03  0.10000000000E+01 0.  0.
    9000005    1    3    3    0    0  0.87110411901E+01  0.56540324171E+02  0.46790829788E+02  0.73912598711E+02  0.10000000000E+01 0.  0.
<mgrwt>
<rscale>  0 0.12500118E+03</rscale>
<asrwt>0</asrwt>
<pdfrwt beam="1">  1        4 0.31075526E-01 0.12500118E+03</pdfrwt>
<pdfrwt beam="2">  1       -4 0.29752470E-02 0.12500118E+03</pdfrwt>
<totfact> 0.86656045E+03</totfact>
</mgrwt>
</event>
<event>
 5    1  0.3514886E-002  0.1250005E+03  0.7818608E-02  0.1235069E+00
          4   -1    0    0  501    0  0.00000000000E+00  0.00000000000E+00  0.36494628441E+03  0.36494849418E+03  0.12700000000E+01 0. -1.
         -4   -1    0    0    0  501 -0.00000000000E+00 -0.00000000000E+00 -0.10663787643E+02  0.10739146469E+02  0.12700000000E+01 0. -1.
         25    2    1    2    0    0  0.00000000000E+00  0.00000000000E+00  0.35428249677E+03  0.37568764065E+03  0.12500046328E+03 0.  0.
    9000005    1    3    3    0    0 -0.17981590181E+02  0.40226622884E+01  0.35661102109E+03  0.35708814005E+03  0.10000000000E+01 0.  0.
    9000005    1    3    3    0    0  0.17981590181E+02 -0.40226622884E+01 -0.23285243212E+01  0.18599500607E+02  0.10000000000E+01 0.  0.
<mgrwt>
<rscale>  0 0.12500046E+03</rscale>
<asrwt>0</asrwt>
<pdfrwt beam="1">  1        4 0.56151543E-01 0.12500046E+03</pdfrwt>
<pdfrwt beam="2">  1       -4 0.16465497E-02 0.12500046E+03</pdfrwt>
<totfact> 0.66987388E+03</totfact>
</mgrwt>
</event>
<event>
 5    1  0.3514886E-002  0.1250041E+03  0.7818608E-02  0.1235063E+00
         -4   -1    0    0    0  501 -0.00000000000E+00  0.00000000000E+00  0.12030732232E+03  0.12031402539E+03  0.12700000000E+01 0. -1.
          4   -1    0    0  501    0  0.00000000000E+00 -0.00000000000E+00 -0.32451033482E+02  0.32475875262E+02  0.12700000000E+01 0. -1.
         25    2    1    2    0    0  0.00000000000E+00  0.00000000000E+00  0.87856288842E+02  0.15278990065E+03  0.12500410494E+03 0.  0.
    9000005    1    3    3    0    0  0.58134510903E+02 -0.85913870361E+01  0.69916260024E+02  0.91338473300E+02  0.10000000000E+01 0.  0.
    9000005    1    3    3    0    0 -0.58134510903E+02  0.85913870361E+01  0.17940028818E+02  0.61451427348E+02  0.10000000000E+01 0.  0.
<mgrwt>
<rscale>  0 0.12500410E+03</rscale>
<asrwt>0</asrwt>
<pdfrwt beam="2">  1        4 0.49948933E-02 0.12500410E+03</pdfrwt>
<pdfrwt beam="1">  1       -4 0.18511245E-01 0.12500410E+03</pdfrwt>
<totfact> 0.98741333E+03</totfact>
</mgrwt>
</event>
<event>
 5    1  0.3514886E-002  0.1249999E+03  0.7818608E-02  0.1235069E+00
         -4   -1    0    0    0  501 -0.00000000000E+00  0.00000000000E+00  0.18538323281E+01  0.22471302367E+01  0.12700000000E+01 0. -1.
          4   -1    0    0  501    0  0.00000000000E+00 -0.00000000000E+00 -0.19046444590E+04  0.19046448825E+04  0.12700000000E+01 0. -1.
         25    2    1    2    0    0  0.00000000000E+00  0.00000000000E+00 -0.19027906267E+04  0.19068920127E+04  0.12499991582E+03 0.  0.
    9000005    1    3    3    0    0  0.50960010179E+02  0.16276559298E+02 -0.45862912086E+03  0.46173966639E+03  0.10000000000E+01 0.  0.
    9000005    1    3    3    0    0 -0.50960010179E+02 -0.16276559298E+02 -0.14441615059E+04  0.14451523463E+04  0.10000000000E+01 0.  0.
<mgrwt>
<rscale>  0 0.12499992E+03</rscale>
<asrwt>0</asrwt>
<pdfrwt beam="2">  1        4 0.29305110E+00 0.12499992E+03</pdfrwt>
<pdfrwt beam="1">  1       -4 0.31549275E-03 0.12499992E+03</pdfrwt>
<totfact> 0.11126012E+03</totfact>
</mgrwt>
</event>
<event>
 5    1  0.3514886E-002  0.1250020E+03  0.7818608E-02  0.1235066E+00
          4   -1    0    0  501    0  0.00000000000E+00  0.00000000000E+00  0.54039827766E+02  0.54054748959E+02  0.12700000000E+01 0. -1.
         -4   -1    0    0    0  501 -0.00000000000E+00 -0.00000000000E+00 -0.72256451943E+02  0.72267612022E+02  0.12700000000E+01 0. -1.
         25    2    1    2    0    0  0.00000000000E+00  0.00000000000E+00 -0.18216624177E+02  0.12632236098E+03  0.12500197393E+03 0.  0.
    9000005    1    3    3    0    0  0.27734344768E+02 -0.45325713171E+02  0.24129212012E+02  0.58368082258E+02  0.10000000000E+01 0.  0.
    9000005    1    3    3    0    0 -0.27734344768E+02  0.45325713171E+02 -0.42345836189E+02  0.67954278723E+02  0.10000000000E+01 0.  0.
<mgrwt>
<rscale>  0 0.12500197E+03</rscale>
<asrwt>0</asrwt>
<pdfrwt beam="1">  1        4 0.83158259E-02 0.12500197E+03</pdfrwt>
<pdfrwt beam="2">  1       -4 0.11118383E-01 0.12500197E+03</pdfrwt>
<totfact> 0.10423440E+04</totfact>
</mgrwt>
</event>
<event>
 5    1  0.3514886E-002  0.1249883E+03  0.7818608E-02  0.1235088E+00
          4   -1    0    0  501    0  0.00000000000E+00  0.00000000000E+00  0.54090860153E+02  0.54105767272E+02  0.12700000000E+01 0.  1.
         -4   -1    0    0    0  501 -0.00000000000E+00 -0.00000000000E+00 -0.72172477250E+02  0.72183650312E+02  0.12700000000E+01 0.  1.
         25    2    1    2    0    0  0.00000000000E+00  0.00000000000E+00 -0.18081617097E+02  0.12628941758E+03  0.12498828792E+03 0.  0.
    9000005    1    3    3    0    0 -0.50303787956E+02 -0.15884394786E+01  0.28378806586E+02  0.57787116954E+02  0.10000000000E+01 0.  0.
    9000005    1    3    3    0    0  0.50303787956E+02  0.15884394786E+01 -0.46460423683E+02  0.68502300629E+02  0.10000000000E+01 0.  0.
<mgrwt>
<rscale>  0 0.12498829E+03</rscale>
<asrwt>0</asrwt>
<pdfrwt beam="1">  1        4 0.83236770E-02 0.12498829E+03</pdfrwt>
<pdfrwt beam="2">  1       -4 0.11105464E-01 0.12498829E+03</pdfrwt>
<totfact> 0.10427381E+04</totfact>
</mgrwt>
</event>
<event>
 5    1  0.3514886E-002  0.1250043E+03  0.7818608E-02  0.1235063E+00
          4   -1    0    0  501    0  0.00000000000E+00  0.00000000000E+00  0.82057694281E+03  0.82057792560E+03  0.12700000000E+01 0. -1.
         -4   -1    0    0    0  501 -0.00000000000E+00 -0.00000000000E+00 -0.46749925797E+01  0.48444252105E+01  0.12700000000E+01 0. -1.
         25    2    1    2    0    0  0.00000000000E+00  0.00000000000E+00  0.81590195023E+03  0.82542235081E+03  0.12500425920E+03 0.  0.
    9000005    1    3    3    0    0  0.15627902636E+02 -0.52948219929E+02  0.21455961824E+03  0.22155038956E+03  0.10000000000E+01 0.  0.
    9000005    1    3    3    0    0 -0.15627902636E+02  0.52948219929E+02  0.60134233199E+03  0.60387196125E+03  0.10000000000E+01 0.  0.
<mgrwt>
<rscale>  0 0.12500426E+03</rscale>
<asrwt>0</asrwt>
<pdfrwt beam="1">  1        4 0.12625570E+00 0.12500426E+03</pdfrwt>
<pdfrwt beam="2">  1       -4 0.73233858E-03 0.12500426E+03</pdfrwt>
<totfact> 0.37151234E+03</totfact>
</mgrwt>
</event>
<event>
 5    1  0.3514886E-002  0.1249988E+03  0.7818608E-02  0.1235071E+00
          4   -1    0    0  501    0  0.00000000000E+00  0.00000000000E+00  0.23684956082E+03  0.23685296570E+03  0.12700000000E+01 0.  1.
         -4   -1    0    0    0  501 -0.00000000000E+00 -0.00000000000E+00 -0.16464228331E+02  0.16513137634E+02  0.12700000000E+01 0.  1.
         25    2    1    2    0    0  0.00000000000E+00  0.00000000000E+00  0.22038533249E+03  0.25336610334E+03  0.12499875016E+03 0.  0.
    9000005    1    3    3    0    0  0.25514090134E+02 -0.56794214140E+02  0.99348899584E+02  0.11725082261E+03  0.10000000000E+01 0.  0.
    9000005    1    3    3    0    0 -0.25514090134E+02  0.56794214140E+02  0.12103643291E+03  0.13611528072E+03  0.10000000000E+01 0.  0.
<mgrwt>
<rscale>  0 0.12499875E+03</rscale>
<asrwt>0</asrwt>
<pdfrwt beam="1">  1        4 0.36442418E-01 0.12499875E+03</pdfrwt>
<pdfrwt beam="2">  1       -4 0.25369824E-02 0.12499875E+03</pdfrwt>
<totfact> 0.81848420E+03</totfact>
</mgrwt>
</event>
<event>
 5    1  0.3514886E-002  0.1250020E+03  0.7818608E-02  0.1235066E+00
         -4   -1    0    0    0  501 -0.00000000000E+00  0.00000000000E+00  0.44219577860E+02  0.44237811498E+02  0.12700000000E+01 0. -1.
          4   -1    0    0  501    0  0.00000000000E+00 -0.00000000000E+00 -0.88299454199E+02  0.88308586852E+02  0.12700000000E+01 0. -1.
         25    2    1    2    0    0  0.00000000000E+00  0.00000000000E+00 -0.44079876339E+02  0.13254639835E+03  0.12500204885E+03 0.  0.
    9000005    1    3    3    0    0  0.60821781536E+01 -0.17389235340E+02 -0.85360017228E+02  0.87331042235E+02  0.10000000000E+01 0.  0.
    9000005    1    3    3    0    0 -0.60821781536E+01  0.17389235340E+02  0.41280140888E+02  0.45215356115E+02  0.10000000000E+01 0.  0.
<mgrwt>
<rscale>  0 0.12500205E+03</rscale>
<asrwt>0</asrwt>
<pdfrwt beam="2">  1        4 0.13586636E-01 0.12500205E+03</pdfrwt>
<pdfrwt beam="1">  1       -4 0.68051171E-02 0.12500205E+03</pdfrwt>
<totfact> 0.10289574E+04</totfact>
</mgrwt>
</event>
<event>
 5    1  0.3514886E-002  0.1250021E+03  0.7818608E-02  0.1235066E+00
         -4   -1    0    0    0  501 -0.00000000000E+00  0.00000000000E+00  0.13106788415E+02  0.13168173850E+02  0.12700000000E+01 0.  1.
          4   -1    0    0  501    0  0.00000000000E+00 -0.00000000000E+00 -0.29728333153E+03  0.29728604425E+03  0.12700000000E+01 0.  1.
         25    2    1    2    0    0  0.00000000000E+00  0.00000000000E+00 -0.28417654312E+03  0.31045421810E+03  0.12500205550E+03 0.  0.
    9000005    1    3    3    0    0 -0.31390134743E+02  0.41749579824E+02 -0.56882193020E+02  0.77233100788E+02  0.10000000000E+01 0.  0.
    9000005    1    3    3    0    0  0.31390134743E+02 -0.41749579824E+02 -0.22729435010E+03  0.23322111731E+03  0.10000000000E+01 0.  0.
<mgrwt>
<rscale>  0 0.12500206E+03</rscale>
<asrwt>0</asrwt>
<pdfrwt beam="2">  1        4 0.45740823E-01 0.12500206E+03</pdfrwt>
<pdfrwt beam="1">  1       -4 0.20213598E-02 0.12500206E+03</pdfrwt>
<totfact> 0.74302532E+03</totfact>
</mgrwt>
</event>
<event>
 5    1  0.3514886E-002  0.1250004E+03  0.7818608E-02  0.1235069E+00
          4   -1    0    0  501    0  0.00000000000E+00  0.00000000000E+00  0.26837810317E+02  0.26867842537E+02  0.12700000000E+01 0.  1.
         -4   -1    0    0    0  501 -0.00000000000E+00 -0.00000000000E+00 -0.14543690662E+03  0.14544245153E+03  0.12700000000E+01 0.  1.
         25    2    1    2    0    0  0.00000000000E+00  0.00000000000E+00 -0.11859909630E+03  0.17231029407E+03  0.12500036719E+03 0.  0.
    9000005    1    3    3    0    0 -0.46624603549E+02  0.26058526335E+02 -0.14581310467E+02  0.55376123608E+02  0.10000000000E+01 0.  0.
    9000005    1    3    3    0    0  0.46624603549E+02 -0.26058526335E+02 -0.10401778583E+03  0.11693417046E+03  0.10000000000E+01 0.  0.
<mgrwt>
<rscale>  0 0.12500037E+03</rscale>
<asrwt>0</asrwt>
<pdfrwt beam="1">  1        4 0.41316307E-02 0.12500037E+03</pdfrwt>
<pdfrwt beam="2">  1       -4 0.22377645E-01 0.12500037E+03</pdfrwt>
<totfact> 0.95018992E+03</totfact>
</mgrwt>
</event>
<event>
 5    1  0.3514886E-002  0.1250008E+03  0.7818608E-02  0.1235068E+00
          4   -1    0    0  501    0  0.00000000000E+00  0.00000000000E+00  0.12312049875E+02  0.12377377433E+02  0.12700000000E+01 0.  1.
         -4   -1    0    0    0  501 -0.00000000000E+00 -0.00000000000E+00 -0.31636838219E+03  0.31637093127E+03  0.12700000000E+01 0.  1.
         25    2    1    2    0    0  0.00000000000E+00  0.00000000000E+00 -0.30405633232E+03  0.32874830870E+03  0.12500078900E+03 0.  0.
    9000005    1    3    3    0    0 -0.13769729771E+02  0.60057583937E+02 -0.12459813938E+03  0.13900437110E+03  0.10000000000E+01 0.  0.
    9000005    1    3    3    0    0  0.13769729771E+02 -0.60057583937E+02 -0.17945819293E+03  0.18974393760E+03  0.10000000000E+01 0.  0.
<mgrwt>
<rscale>  0 0.12500079E+03</rscale>
<asrwt>0</asrwt>
<pdfrwt beam="1">  1        4 0.18993830E-02 0.12500079E+03</pdfrwt>
<pdfrwt beam="2">  1       -4 0.48677274E-01 0.12500079E+03</pdfrwt>
<totfact> 0.72126312E+03</totfact>
</mgrwt>
</event>
<event>
 5    1  0.3514886E-002  0.1249577E+03  0.7818608E-02  0.1235135E+00
          4   -1    0    0  501    0  0.00000000000E+00  0.00000000000E+00  0.12027379333E+01  0.17491365116E+01  0.12700000000E+01 0.  1.
         -4   -1    0    0    0  501 -0.00000000000E+00 -0.00000000000E+00 -0.26442862453E+04  0.26442865503E+04  0.12700000000E+01 0.  1.
         25    2    1    2    0    0  0.00000000000E+00  0.00000000000E+00 -0.26430835074E+04  0.26460356868E+04  0.12495770825E+03 0.  0.
    9000005    1    3    3    0    0  0.65198304433E+01  0.34991145906E+02 -0.24086734976E+04  0.24089366755E+04  0.10000000000E+01 0.  0.
    9000005    1    3    3    0    0 -0.65198304433E+01 -0.34991145906E+02 -0.23441000982E+03  0.23709901136E+03  0.10000000000E+01 0.  0.
<mgrwt>
<rscale>  0 0.12495771E+03</rscale>
<asrwt>0</asrwt>
<pdfrwt beam="1">  1        4 0.22709284E-03 0.12495771E+03</pdfrwt>
<pdfrwt beam="2">  1       -4 0.40685153E+00 0.12495771E+03</pdfrwt>
<totfact> 0.36245502E+02</totfact>
</mgrwt>
</event>
<event>
 5    1  0.3514886E-002  0.1249992E+03  0.7818608E-02  0.1235070E+00
          4   -1    0    0  501    0  0.00000000000E+00  0.00000000000E+00  0.22132467178E+02  0.22168874653E+02  0.12700000000E+01 0.  1.
         -4   -1    0    0    0  501 -0.00000000000E+00 -0.00000000000E+00 -0.17630817352E+03  0.17631274756E+03  0.12700000000E+01 0.  1.
         25    2    1    2    0    0  0.00000000000E+00  0.00000000000E+00 -0.15417570634E+03  0.19848162221E+03  0.12499922371E+03 0.  0.
    9000005    1    3    3    0    0  0.34710453280E+02  0.20414777055E+02 -0.12082293038E+01  0.40299361126E+02  0.10000000000E+01 0.  0.
    9000005    1    3    3    0    0 -0.34710453280E+02 -0.20414777055E+02 -0.15296747704E+03  0.15818226108E+03  0.10000000000E+01 0.  0.
<mgrwt>
<rscale>  0 0.12499922E+03</rscale>
<asrwt>0</asrwt>
<pdfrwt beam="1">  1        4 0.34081475E-02 0.12499922E+03</pdfrwt>
<pdfrwt beam="2">  1       -4 0.27127486E-01 0.12499922E+03</pdfrwt>
<totfact> 0.90393695E+03</totfact>
</mgrwt>
</event>
<event>
 5    1  0.3514886E-002  0.1249997E+03  0.7818608E-02  0.1235070E+00
         -4   -1    0    0    0  501 -0.00000000000E+00  0.00000000000E+00  0.23701609336E+02  0.23735610064E+02  0.12700000000E+01 0.  1.
          4   -1    0    0  501    0  0.00000000000E+00 -0.00000000000E+00 -0.16465423626E+03  0.16465913403E+03  0.12700000000E+01 0.  1.
         25    2    1    2    0    0  0.00000000000E+00  0.00000000000E+00 -0.14095262693E+03  0.18839474409E+03  0.12499974626E+03 0.  0.
    9000005    1    3    3    0    0  0.22562380272E+02  0.46791627545E+02 -0.18120812690E+02  0.55026187078E+02  0.10000000000E+01 0.  0.
    9000005    1    3    3    0    0 -0.22562380272E+02 -0.46791627545E+02 -0.12283181424E+03  0.13336855702E+03  0.10000000000E+01 0.  0.
<mgrwt>
<rscale>  0 0.12499975E+03</rscale>
<asrwt>0</asrwt>
<pdfrwt beam="2">  1        4 0.25334412E-01 0.12499975E+03</pdfrwt>
<pdfrwt beam="1">  1       -4 0.36493937E-02 0.12499975E+03</pdfrwt>
<totfact> 0.92127900E+03</totfact>
</mgrwt>
</event>
<event>
 5    1  0.3514886E-002  0.1250067E+03  0.7818608E-02  0.1235059E+00
         -4   -1    0    0    0  501 -0.00000000000E+00  0.00000000000E+00  0.26122834649E+02  0.26153687887E+02  0.12700000000E+01 0.  1.
          4   -1    0    0  501    0  0.00000000000E+00 -0.00000000000E+00 -0.14942824931E+03  0.14943364611E+03  0.12700000000E+01 0.  1.
         25    2    1    2    0    0  0.00000000000E+00  0.00000000000E+00 -0.12330541466E+03  0.17558733400E+03  0.12500674613E+03 0.  0.
    9000005    1    3    3    0    0  0.46263829497E+02  0.41114681488E+02 -0.73810015681E+02  0.96331082048E+02  0.10000000000E+01 0.  0.
    9000005    1    3    3    0    0 -0.46263829497E+02 -0.41114681488E+02 -0.49495398976E+02  0.79256251951E+02  0.10000000000E+01 0.  0.
<mgrwt>
<rscale>  0 0.12500675E+03</rscale>
<asrwt>0</asrwt>
<pdfrwt beam="2">  1        4 0.22991749E-01 0.12500675E+03</pdfrwt>
<pdfrwt beam="1">  1       -4 0.40216862E-02 0.12500675E+03</pdfrwt>
<totfact> 0.94403095E+03</totfact>
</mgrwt>
</event>
<event>
 5    1  0.3514886E-002  0.1250007E+03  0.7818608E-02  0.1235068E+00
          4   -1    0    0  501    0  0.00000000000E+00  0.00000000000E+00  0.22298727598E+02  0.22334864058E+02  0.12700000000E+01 0. -1.
         -4   -1    0    0    0  501 -0.00000000000E+00 -0.00000000000E+00 -0.17499971035E+03  0.17500431858E+03  0.12700000000E+01 0. -1.
         25    2    1    2    0    0  0.00000000000E+00  0.00000000000E+00 -0.15270098275E+03  0.19733918264E+03  0.12500065148E+03 0.  0.
    9000005    1    3    3    0    0  0.59739809391E+02  0.17242751007E+02 -0.86226353163E+02  0.10631152933E+03  0.10000000000E+01 0.  0.
    9000005    1    3    3    0    0 -0.59739809391E+02 -0.17242751007E+02 -0.66474629585E+02  0.91027653308E+02  0.10000000000E+01 0.  0.
<mgrwt>
<rscale>  0 0.12500065E+03</rscale>
<asrwt>0</asrwt>
<pdfrwt beam="1">  1        4 0.34337078E-02 0.12500065E+03</pdfrwt>
<pdfrwt beam="2">  1       -4 0.26926166E-01 0.12500065E+03</pdfrwt>
<totfact> 0.90584449E+03</totfact>
</mgrwt>
</event>
<event>
 5    1  0.3514886E-002  0.1249986E+03  0.7818608E-02  0.1235071E+00
         -4   -1    0    0    0  501 -0.00000000000E+00  0.00000000000E+00  0.15743668695E+03  0.15744180925E+03  0.12700000000E+01 0. -1.
          4   -1    0    0  501    0  0.00000000000E+00 -0.00000000000E+00 -0.24789233099E+02  0.24821744050E+02  0.12700000000E+01 0. -1.
         25    2    1    2    0    0  0.00000000000E+00  0.00000000000E+00  0.13264745385E+03  0.18226355330E+03  0.12499862338E+03 0.  0.
    9000005    1    3    3    0    0  0.50604774221E+02  0.23447020920E+02  0.10742520162E+03  0.12104453687E+03  0.10000000000E+01 0.  0.
    9000005    1    3    3    0    0 -0.50604774221E+02 -0.23447020920E+02  0.25222252234E+02  0.61219016422E+02  0.10000000000E+01 0.  0.
<mgrwt>
<rscale>  0 0.12499862E+03</rscale>
<asrwt>0</asrwt>
<pdfrwt beam="2">  1        4 0.38166231E-02 0.12499862E+03</pdfrwt>
<pdfrwt beam="1">  1       -4 0.24223923E-01 0.12499862E+03</pdfrwt>
<totfact> 0.93214013E+03</totfact>
</mgrwt>
</event>
<event>
 5    1  0.3514886E-002  0.1249992E+03  0.7818608E-02  0.1235071E+00
         -4   -1    0    0    0  501 -0.00000000000E+00  0.00000000000E+00  0.10739611566E+03  0.10740362451E+03  0.12700000000E+01 0.  1.
          4   -1    0    0  501    0  0.00000000000E+00 -0.00000000000E+00 -0.36352034462E+02  0.36374212150E+02  0.12700000000E+01 0.  1.
         25    2    1    2    0    0  0.00000000000E+00  0.00000000000E+00  0.71044081195E+02  0.14377783666E+03  0.12499921937E+03 0.  0.
    9000005    1    3    3    0    0 -0.10965980480E+02  0.29327705569E+02  0.97728469120E+02  0.10262660824E+03  0.10000000000E+01 0.  0.
    9000005    1    3    3    0    0  0.10965980480E+02 -0.29327705569E+02 -0.26684387925E+02  0.41151228424E+02  0.10000000000E+01 0.  0.
<mgrwt>
<rscale>  0 0.12499922E+03</rscale>
<asrwt>0</asrwt>
<pdfrwt beam="2">  1        4 0.55949043E-02 0.12499922E+03</pdfrwt>
<pdfrwt beam="1">  1       -4 0.16524763E-01 0.12499922E+03</pdfrwt>
<totfact> 0.10056056E+04</totfact>
</mgrwt>
</event>
<event>
 5    1  0.3514886E-002  0.1249999E+03  0.7818608E-02  0.1235069E+00
          4   -1    0    0  501    0  0.00000000000E+00  0.00000000000E+00  0.21667741116E+02  0.21704928129E+02  0.12700000000E+01 0. -1.
         -4   -1    0    0    0  501 -0.00000000000E+00 -0.00000000000E+00 -0.18008527641E+03  0.18008975451E+03  0.12700000000E+01 0. -1.
         25    2    1    2    0    0  0.00000000000E+00  0.00000000000E+00 -0.15841753530E+03  0.20179468264E+03  0.12499991381E+03 0.  0.
    9000005    1    3    3    0    0  0.18954284010E+02  0.37160071551E+02 -0.15432605022E+03  0.15986765019E+03  0.10000000000E+01 0.  0.
    9000005    1    3    3    0    0 -0.18954284010E+02 -0.37160071551E+02 -0.40914850719E+01  0.41927032450E+02  0.10000000000E+01 0.  0.
<mgrwt>
<rscale>  0 0.12499991E+03</rscale>
<asrwt>0</asrwt>
<pdfrwt beam="1">  1        4 0.33367038E-02 0.12499991E+03</pdfrwt>
<pdfrwt beam="2">  1       -4 0.27708631E-01 0.12499991E+03</pdfrwt>
<totfact> 0.89833873E+03</totfact>
</mgrwt>
</event>
<event>
 5    1  0.3514886E-002  0.1249954E+03  0.7818608E-02  0.1235076E+00
         -4   -1    0    0    0  501 -0.00000000000E+00  0.00000000000E+00  0.34484296652E+02  0.34507674734E+02  0.12700000000E+01 0. -1.
          4   -1    0    0  501    0  0.00000000000E+00 -0.00000000000E+00 -0.11320258303E+03  0.11320970676E+03  0.12700000000E+01 0. -1.
         25    2    1    2    0    0  0.00000000000E+00  0.00000000000E+00 -0.78718286383E+02  0.14771738150E+03  0.12499542466E+03 0.  0.
    9000005    1    3    3    0    0  0.22298345298E+02  0.45192900746E+02  0.43084657556E+01  0.50588312465E+02  0.10000000000E+01 0.  0.
    9000005    1    3    3    0    0 -0.22298345298E+02 -0.45192900746E+02 -0.83026752139E+02  0.97129069035E+02  0.10000000000E+01 0.  0.
<mgrwt>
<rscale>  0 0.12499542E+03</rscale>
<asrwt>0</asrwt>
<pdfrwt beam="2">  1        4 0.17418128E-01 0.12499542E+03</pdfrwt>
<pdfrwt beam="1">  1       -4 0.53076228E-02 0.12499542E+03</pdfrwt>
<totfact> 0.99770941E+03</totfact>
</mgrwt>
</event>
<event>
 5    1  0.3514886E-002  0.1250002E+03  0.7818608E-02  0.1235069E+00
         -4   -1    0    0    0  501 -0.00000000000E+00  0.00000000000E+00  0.54759955340E+02  0.54774680362E+02  0.12700000000E+01 0. -1.
          4   -1    0    0  501    0  0.00000000000E+00 -0.00000000000E+00 -0.71304349962E+02  0.71315659034E+02  0.12700000000E+01 0. -1.
         25    2    1    2    0    0  0.00000000000E+00  0.00000000000E+00 -0.16544394622E+02  0.12609033940E+03  0.12500022678E+03 0.  0.
    9000005    1    3    3    0    0  0.41957876947E+02 -0.15516825876E+02 -0.52287913744E+02  0.68820500193E+02  0.10000000000E+01 0.  0.
    9000005    1    3    3    0    0 -0.41957876947E+02  0.15516825876E+02  0.35743519122E+02  0.57269839203E+02  0.10000000000E+01 0.  0.
<mgrwt>
<rscale>  0 0.12500023E+03</rscale>
<asrwt>0</asrwt>
<pdfrwt beam="2">  1        4 0.10971903E-01 0.12500023E+03</pdfrwt>
<pdfrwt beam="1">  1       -4 0.84266112E-02 0.12500023E+03</pdfrwt>
<totfact> 0.10428925E+04</totfact>
</mgrwt>
</event>
<event>
 5    1  0.3514886E-002  0.1249531E+03  0.7818608E-02  0.1235143E+00
          4   -1    0    0  501    0  0.00000000000E+00  0.00000000000E+00  0.12589037513E+03  0.12589678094E+03  0.12700000000E+01 0.  1.
         -4   -1    0    0    0  501 -0.00000000000E+00 -0.00000000000E+00 -0.30985497550E+02  0.31011513320E+02  0.12700000000E+01 0.  1.
         25    2    1    2    0    0  0.00000000000E+00  0.00000000000E+00  0.94904877581E+02  0.15690829426E+03  0.12495309927E+03 0.  0.
    9000005    1    3    3    0    0 -0.46860474291E+02  0.54121425359E+01  0.98878284771E+02  0.10955870817E+03  0.10000000000E+01 0.  0.
    9000005    1    3    3    0    0  0.46860474291E+02 -0.54121425359E+01 -0.39734071899E+01  0.47349586084E+02  0.10000000000E+01 0.  0.
<mgrwt>
<rscale>  0 0.12495310E+03</rscale>
<asrwt>0</asrwt>
<pdfrwt beam="1">  1        4 0.19370244E-01 0.12495310E+03</pdfrwt>
<pdfrwt beam="2">  1       -4 0.47694936E-02 0.12495310E+03</pdfrwt>
<totfact> 0.98045532E+03</totfact>
</mgrwt>
</event>
<event>
 5    1  0.3514886E-002  0.1249971E+03  0.7818608E-02  0.1235074E+00
         -4   -1    0    0    0  501 -0.00000000000E+00  0.00000000000E+00  0.98683988710E+02  0.98692160417E+02  0.12700000000E+01 0. -1.
          4   -1    0    0  501    0  0.00000000000E+00 -0.00000000000E+00 -0.39561593553E+02  0.39581972973E+02  0.12700000000E+01 0. -1.
         25    2    1    2    0    0  0.00000000000E+00  0.00000000000E+00  0.59122395157E+02  0.13827413339E+03  0.12499711339E+03 0.  0.
    9000005    1    3    3    0    0 -0.33328553137E+02  0.19636742821E+01  0.87996572728E+02  0.94122501469E+02  0.10000000000E+01 0.  0.
    9000005    1    3    3    0    0  0.33328553137E+02 -0.19636742821E+01 -0.28874177571E+02  0.44151631921E+02  0.10000000000E+01 0.  0.
<mgrwt>
<rscale>  0 0.12499711E+03</rscale>
<asrwt>0</asrwt>
<pdfrwt beam="2">  1        4 0.60885953E-02 0.12499711E+03</pdfrwt>
<pdfrwt beam="1">  1       -4 0.15184348E-01 0.12499711E+03</pdfrwt>
<totfact> 0.10170143E+04</totfact>
</mgrwt>
</event>
<event>
 5    1  0.3514886E-002  0.1249978E+03  0.7818608E-02  0.1235073E+00
          4   -1    0    0  501    0  0.00000000000E+00  0.00000000000E+00  0.60722340059E+02  0.60735619551E+02  0.12700000000E+01 0.  1.
         -4   -1    0    0    0  501 -0.00000000000E+00 -0.00000000000E+00 -0.64300808113E+02  0.64313348724E+02  0.12700000000E+01 0.  1.
         25    2    1    2    0    0  0.00000000000E+00  0.00000000000E+00 -0.35784680544E+01  0.12504896827E+03  0.12499775611E+03 0.  0.
    9000005    1    3    3    0    0  0.35990294157E+02 -0.44815100562E+02  0.22744582483E+02  0.61822411343E+02  0.10000000000E+01 0.  0.
    9000005    1    3    3    0    0 -0.35990294157E+02  0.44815100562E+02 -0.26323050537E+02  0.63226556932E+02  0.10000000000E+01 0.  0.
<mgrwt>
<rscale>  0 0.12499776E+03</rscale>
<asrwt>0</asrwt>
<pdfrwt beam="1">  1        4 0.93438847E-02 0.12499776E+03</pdfrwt>
<pdfrwt beam="2">  1       -4 0.98944182E-02 0.12499776E+03</pdfrwt>
<totfact> 0.10452329E+04</totfact>
</mgrwt>
</event>
<event>
 5    1  0.3514886E-002  0.1249995E+03  0.7818608E-02  0.1235070E+00
         -4   -1    0    0    0  501 -0.00000000000E+00  0.00000000000E+00  0.33575870774E+03  0.33576110961E+03  0.12700000000E+01 0.  1.
          4   -1    0    0  501    0  0.00000000000E+00 -0.00000000000E+00 -0.11596900205E+02  0.11666233084E+02  0.12700000000E+01 0.  1.
         25    2    1    2    0    0  0.00000000000E+00  0.00000000000E+00  0.32416180754E+03  0.34742734269E+03  0.12499952394E+03 0.  0.
    9000005    1    3    3    0    0  0.12951445969E+02  0.60403941219E+02  0.13588278398E+03  0.14926991341E+03  0.10000000000E+01 0.  0.
    9000005    1    3    3    0    0 -0.12951445969E+02 -0.60403941219E+02  0.18827902356E+03  0.19815742928E+03  0.10000000000E+01 0.  0.
<mgrwt>
<rscale>  0 0.12499952E+03</rscale>
<asrwt>0</asrwt>
<pdfrwt beam="2">  1        4 0.17896569E-02 0.12499952E+03</pdfrwt>
<pdfrwt beam="1">  1       -4 0.51660695E-01 0.12499952E+03</pdfrwt>
<totfact> 0.70009252E+03</totfact>
</mgrwt>
</event>
<event>
 5    1  0.3514886E-002  0.1250007E+03  0.7818608E-02  0.1235068E+00
          4   -1    0    0  501    0  0.00000000000E+00  0.00000000000E+00  0.15258883457E+02  0.15311643424E+02  0.12700000000E+01 0.  1.
         -4   -1    0    0    0  501 -0.00000000000E+00 -0.00000000000E+00 -0.25550510599E+03  0.25550826226E+03  0.12700000000E+01 0.  1.
         25    2    1    2    0    0  0.00000000000E+00  0.00000000000E+00 -0.24024622253E+03  0.27081990569E+03  0.12500069551E+03 0.  0.
    9000005    1    3    3    0    0 -0.55946433347E+02 -0.27397831395E+02 -0.13087951075E+03  0.14495202966E+03  0.10000000000E+01 0.  0.
    9000005    1    3    3    0    0  0.55946433347E+02  0.27397831395E+02 -0.10936671178E+03  0.12586787602E+03  0.10000000000E+01 0.  0.
<mgrwt>
<rscale>  0 0.12500070E+03</rscale>
<asrwt>0</asrwt>
<pdfrwt beam="1">  1        4 0.23518220E-02 0.12500070E+03</pdfrwt>
<pdfrwt beam="2">  1       -4 0.39312776E-01 0.12500070E+03</pdfrwt>
<totfact> 0.79409990E+03</totfact>
</mgrwt>
</event>
<event>
 5    1  0.3514886E-002  0.1250079E+03  0.7818608E-02  0.1235057E+00
          4   -1    0    0  501    0  0.00000000000E+00  0.00000000000E+00  0.92864223350E+03  0.92864310192E+03  0.12700000000E+01 0. -1.
         -4   -1    0    0    0  501 -0.00000000000E+00 -0.00000000000E+00 -0.41102065796E+01  0.43019412045E+01  0.12700000000E+01 0. -1.
         25    2    1    2    0    0  0.00000000000E+00  0.00000000000E+00  0.92453202692E+03  0.93294504313E+03  0.12500793849E+03 0.  0.
    9000005    1    3    3    0    0 -0.44725224634E+02 -0.33149876882E+02  0.25032406835E+03  0.25644180480E+03  0.10000000000E+01 0.  0.
    9000005    1    3    3    0    0  0.44725224634E+02  0.33149876882E+02  0.67420795858E+03  0.67650323832E+03  0.10000000000E+01 0.  0.
<mgrwt>
<rscale>  0 0.12500794E+03</rscale>
<asrwt>0</asrwt>
<pdfrwt beam="1">  1        4 0.14288291E+00 0.12500794E+03</pdfrwt>
<pdfrwt beam="2">  1       -4 0.64715482E-03 0.12500794E+03</pdfrwt>
<totfact> 0.32923617E+03</totfact>
</mgrwt>
</event>
<event>
 5    1  0.3514886E-002  0.1249810E+03  0.7818608E-02  0.1235099E+00
          4   -1    0    0  501    0  0.00000000000E+00  0.00000000000E+00  0.18364504823E+02  0.18408365962E+02  0.12700000000E+01 0.  1.
         -4   -1    0    0    0  501 -0.00000000000E+00 -0.00000000000E+00 -0.21234250820E+03  0.21234630604E+03  0.12700000000E+01 0.  1.
         25    2    1    2    0    0  0.00000000000E+00  0.00000000000E+00 -0.19397800338E+03  0.23075467201E+03  0.12498100999E+03 0.  0.
    9000005    1    3    3    0    0 -0.48567373008E+02 -0.31682622659E+02 -0.13995250171E+03  0.15149350163E+03  0.10000000000E+01 0.  0.
    9000005    1    3    3    0    0  0.48567373008E+02  0.31682622659E+02 -0.54025501668E+02  0.79261170380E+02  0.10000000000E+01 0.  0.
<mgrwt>
<rscale>  0 0.12498101E+03</rscale>
<asrwt>0</asrwt>
<pdfrwt beam="1">  1        4 0.28289747E-02 0.12498101E+03</pdfrwt>
<pdfrwt beam="2">  1       -4 0.32671743E-01 0.12498101E+03</pdfrwt>
<totfact> 0.85229956E+03</totfact>
</mgrwt>
</event>
<event>
 5    1  0.3514886E-002  0.1250000E+03  0.7818608E-02  0.1235069E+00
          4   -1    0    0  501    0  0.00000000000E+00  0.00000000000E+00  0.90595043364E+02  0.90603944628E+02  0.12700000000E+01 0.  1.
         -4   -1    0    0    0  501 -0.00000000000E+00 -0.00000000000E+00 -0.43097351529E+02  0.43116059755E+02  0.12700000000E+01 0.  1.
         25    2    1    2    0    0  0.00000000000E+00  0.00000000000E+00  0.47497691835E+02  0.13372000438E+03  0.12500003537E+03 0.  0.
    9000005    1    3    3    0    0  0.42149759715E+02  0.25156937116E+02  0.65122119674E+02  0.81555896169E+02  0.10000000000E+01 0.  0.
    9000005    1    3    3    0    0 -0.42149759715E+02 -0.25156937116E+02 -0.17624427839E+02  0.52164108214E+02  0.10000000000E+01 0.  0.
<mgrwt>
<rscale>  0 0.12500004E+03</rscale>
<asrwt>0</asrwt>
<pdfrwt beam="1">  1        4 0.13939823E-01 0.12500004E+03</pdfrwt>
<pdfrwt beam="2">  1       -4 0.66324856E-02 0.12500004E+03</pdfrwt>
<totfact> 0.10265113E+04</totfact>
</mgrwt>
</event>
<event>
 5    1  0.3514886E-002  0.1250010E+03  0.7818608E-02  0.1235068E+00
          4   -1    0    0  501    0  0.00000000000E+00  0.00000000000E+00  0.98279494421E+03  0.98279576478E+03  0.12700000000E+01 0.  1.
         -4   -1    0    0    0  501 -0.00000000000E+00 -0.00000000000E+00 -0.38724030890E+01  0.40753411739E+01  0.12700000000E+01 0.  1.
         25    2    1    2    0    0  0.00000000000E+00  0.00000000000E+00  0.97892254112E+03  0.98687110595E+03  0.12500095299E+03 0.  0.
    9000005    1    3    3    0    0  0.32851062471E+02  0.12846901154E+02  0.89672489049E+03  0.89741894587E+03  0.10000000000E+01 0.  0.
    9000005    1    3    3    0    0 -0.32851062471E+02 -0.12846901154E+02  0.82197650628E+02  0.89452160083E+02  0.10000000000E+01 0.  0.
<mgrwt>
<rscale>  0 0.12500095E+03</rscale>
<asrwt>0</asrwt>
<pdfrwt beam="1">  1        4 0.15121487E+00 0.12500095E+03</pdfrwt>
<pdfrwt beam="2">  1       -4 0.61142816E-03 0.12500095E+03</pdfrwt>
<totfact> 0.31041339E+03</totfact>
</mgrwt>
</event>
<event>
 5    1  0.3514886E-002  0.1250014E+03  0.7818608E-02  0.1235067E+00
          4   -1    0    0  501    0  0.00000000000E+00  0.00000000000E+00  0.16138221578E+01  0.20536119295E+01  0.12700000000E+01 0. -1.
         -4   -1    0    0    0  501 -0.00000000000E+00 -0.00000000000E+00 -0.21298430729E+04  0.21298434516E+04  0.12700000000E+01 0. -1.
         25    2    1    2    0    0  0.00000000000E+00  0.00000000000E+00 -0.21282292508E+04  0.21318970635E+04  0.12500138210E+03 0.  0.
    9000005    1    3    3    0    0 -0.14183611103E+02 -0.53931118389E+02 -0.58305631738E+03  0.58571785835E+03  0.10000000000E+01 0.  0.
    9000005    1    3    3    0    0  0.14183611103E+02  0.53931118389E+02 -0.15451729334E+04  0.15461792052E+04  0.10000000000E+01 0.  0.
<mgrwt>
<rscale>  0 0.12500138E+03</rscale>
<asrwt>0</asrwt>
<pdfrwt beam="1">  1        4 0.28214114E-03 0.12500138E+03</pdfrwt>
<pdfrwt beam="2">  1       -4 0.32770005E+00 0.12500138E+03</pdfrwt>
<totfact> 0.82363198E+02</totfact>
</mgrwt>
</event>
<event>
 5    1  0.3514886E-002  0.1249988E+03  0.7818608E-02  0.1235071E+00
          4   -1    0    0  501    0  0.00000000000E+00  0.00000000000E+00  0.87989544547E+02  0.87998709363E+02  0.12700000000E+01 0.  1.
         -4   -1    0    0    0  501 -0.00000000000E+00 -0.00000000000E+00 -0.44373062807E+02  0.44391233402E+02  0.12700000000E+01 0.  1.
         25    2    1    2    0    0  0.00000000000E+00  0.00000000000E+00  0.43616481740E+02  0.13238994276E+03  0.12499879786E+03 0.  0.
    9000005    1    3    3    0    0 -0.82558671373E+01 -0.57697664090E+02 -0.20632153226E+01  0.58330409231E+02  0.10000000000E+01 0.  0.
    9000005    1    3    3    0    0  0.82558671373E+01  0.57697664090E+02  0.45679697062E+02  0.74059533534E+02  0.10000000000E+01 0.  0.
<mgrwt>
<rscale>  0 0.12499880E+03</rscale>
<asrwt>0</asrwt>
<pdfrwt beam="1">  1        4 0.13538956E-01 0.12499880E+03</pdfrwt>
<pdfrwt beam="2">  1       -4 0.68287278E-02 0.12499880E+03</pdfrwt>
<totfact> 0.10293662E+04</totfact>
</mgrwt>
</event>
<event>
 5    1  0.3514886E-002  0.1250016E+03  0.7818608E-02  0.1235067E+00
          4   -1    0    0  501    0  0.00000000000E+00  0.00000000000E+00  0.17874291405E+02  0.17919352478E+02  0.12700000000E+01 0.  1.
         -4   -1    0    0    0  501 -0.00000000000E+00 -0.00000000000E+00 -0.21822383317E+03  0.21822752865E+03  0.12700000000E+01 0.  1.
         25    2    1    2    0    0  0.00000000000E+00  0.00000000000E+00 -0.20034954176E+03  0.23614688113E+03  0.12500164233E+03 0.  0.
    9000005    1    3    3    0    0 -0.40869503725E+02  0.23215157593E+01 -0.18937881386E+03  0.19375510551E+03  0.10000000000E+01 0.  0.
    9000005    1    3    3    0    0  0.40869503725E+02 -0.23215157593E+01 -0.10970727903E+02  0.42391775628E+02  0.10000000000E+01 0.  0.
<mgrwt>
<rscale>  0 0.12500164E+03</rscale>
<asrwt>0</asrwt>
<pdfrwt beam="1">  1        4 0.27536416E-02 0.12500164E+03</pdfrwt>
<pdfrwt beam="2">  1       -4 0.33576646E-01 0.12500164E+03</pdfrwt>
<totfact> 0.84371499E+03</totfact>
</mgrwt>
</event>
<event>
 5    1  0.3514886E-002  0.1249938E+03  0.7818608E-02  0.1235079E+00
          4   -1    0    0  501    0  0.00000000000E+00  0.00000000000E+00  0.70242322687E+01  0.71381187273E+01  0.12700000000E+01 0. -1.
         -4   -1    0    0    0  501 -0.00000000000E+00 -0.00000000000E+00 -0.55146894954E+03  0.55147041191E+03  0.12700000000E+01 0. -1.
         25    2    1    2    0    0  0.00000000000E+00  0.00000000000E+00 -0.54444471727E+03  0.55860853063E+03  0.12499376117E+03 0.  0.
    9000005    1    3    3    0    0 -0.20276243675E+02 -0.11400817980E+02 -0.53142022929E+03  0.53193003751E+03  0.10000000000E+01 0.  0.
    9000005    1    3    3    0    0  0.20276243675E+02  0.11400817980E+02 -0.13024487986E+02  0.26678493126E+02  0.10000000000E+01 0.  0.
<mgrwt>
<rscale>  0 0.12499376E+03</rscale>
<asrwt>0</asrwt>
<pdfrwt beam="1">  1        4 0.10895245E-02 0.12499376E+03</pdfrwt>
<pdfrwt beam="2">  1       -4 0.84850216E-01 0.12499376E+03</pdfrwt>
<totfact> 0.51596211E+03</totfact>
</mgrwt>
</event>
<event>
 5    1  0.3514886E-002  0.1250029E+03  0.7818608E-02  0.1235065E+00
         -4   -1    0    0    0  501 -0.00000000000E+00  0.00000000000E+00  0.31179750343E+04  0.31179752929E+04  0.12700000000E+01 0.  1.
          4   -1    0    0  501    0  0.00000000000E+00 -0.00000000000E+00 -0.93070942013E+00  0.15745221576E+01  0.12700000000E+01 0.  1.
         25    2    1    2    0    0  0.00000000000E+00  0.00000000000E+00  0.31170443248E+04  0.31195498151E+04  0.12500290254E+03 0.  0.
    9000005    1    3    3    0    0  0.44536431610E+02  0.43832971012E+02  0.15779864629E+04  0.15792235751E+04  0.10000000000E+01 0.  0.
    9000005    1    3    3    0    0 -0.44536431610E+02 -0.43832971012E+02  0.15390578620E+04  0.15403262400E+04  0.10000000000E+01 0.  0.
<mgrwt>
<rscale>  0 0.12500290E+03</rscale>
<asrwt>0</asrwt>
<pdfrwt beam="2">  1        4 0.19273271E-03 0.12500290E+03</pdfrwt>
<pdfrwt beam="1">  1       -4 0.47973131E+00 0.12500290E+03</pdfrwt>
<totfact> 0.14069227E+02</totfact>
</mgrwt>
</event>
<event>
 5    1  0.3514886E-002  0.1250019E+03  0.7818608E-02  0.1235066E+00
          4   -1    0    0  501    0  0.00000000000E+00  0.00000000000E+00  0.68939160252E+02  0.68950857255E+02  0.12700000000E+01 0. -1.
         -4   -1    0    0    0  501 -0.00000000000E+00 -0.00000000000E+00 -0.56640382268E+02  0.56654618554E+02  0.12700000000E+01 0. -1.
         25    2    1    2    0    0  0.00000000000E+00  0.00000000000E+00  0.12298777984E+02  0.12560547581E+03  0.12500190244E+03 0.  0.
    9000005    1    3    3    0    0 -0.46389768812E+02  0.51323948300E-01  0.48224663203E+02  0.66922577846E+02  0.10000000000E+01 0.  0.
    9000005    1    3    3    0    0  0.46389768812E+02 -0.51323948300E-01 -0.35925885219E+02  0.58682897963E+02  0.10000000000E+01 0.  0.
<mgrwt>
<rscale>  0 0.12500190E+03</rscale>
<asrwt>0</asrwt>
<pdfrwt beam="1">  1        4 0.10608020E-01 0.12500190E+03</pdfrwt>
<pdfrwt beam="2">  1       -4 0.87158998E-02 0.12500190E+03</pdfrwt>
<totfact> 0.10439178E+04</totfact>
</mgrwt>
</event>
<event>
 5    1  0.3514886E-002  0.1250030E+03  0.7818608E-02  0.1235065E+00
          4   -1    0    0  501    0  0.00000000000E+00  0.00000000000E+00  0.51009264053E+01  0.52566481899E+01  0.12700000000E+01 0. -1.
         -4   -1    0    0    0  501 -0.00000000000E+00 -0.00000000000E+00 -0.75415916521E+03  0.75416023454E+03  0.12700000000E+01 0. -1.
         25    2    1    2    0    0  0.00000000000E+00  0.00000000000E+00 -0.74905823880E+03  0.75941688273E+03  0.12500302662E+03 0.  0.
    9000005    1    3    3    0    0 -0.28242841940E+02 -0.52045932172E+02 -0.25317703237E+03  0.26001162839E+03  0.10000000000E+01 0.  0.
    9000005    1    3    3    0    0  0.28242841940E+02  0.52045932172E+02 -0.49588120643E+03  0.49940525435E+03  0.10000000000E+01 0.  0.
<mgrwt>
<rscale>  0 0.12500303E+03</rscale>
<asrwt>0</asrwt>
<pdfrwt beam="1">  1        4 0.79681936E-03 0.12500303E+03</pdfrwt>
<pdfrwt beam="2">  1       -4 0.11603646E+00 0.12500303E+03</pdfrwt>
<totfact> 0.40125100E+03</totfact>
</mgrwt>
</event>
<event>
 5    1  0.3514886E-002  0.1249995E+03  0.7818608E-02  0.1235070E+00
          4   -1    0    0  501    0  0.00000000000E+00  0.00000000000E+00  0.52406145513E+02  0.52421531717E+02  0.12700000000E+01 0.  1.
         -4   -1    0    0    0  501 -0.00000000000E+00 -0.00000000000E+00 -0.74505716414E+02  0.74516539630E+02  0.12700000000E+01 0.  1.
         25    2    1    2    0    0  0.00000000000E+00  0.00000000000E+00 -0.22099570901E+02  0.12693807135E+03  0.12499953169E+03 0.  0.
    9000005    1    3    3    0    0 -0.51216697856E+02  0.34462464051E+02 -0.11826615102E+01  0.61751196393E+02  0.10000000000E+01 0.  0.
    9000005    1    3    3    0    0  0.51216697856E+02 -0.34462464051E+02 -0.20916909391E+02  0.65186874954E+02  0.10000000000E+01 0.  0.
<mgrwt>
<rscale>  0 0.12499953E+03</rscale>
<asrwt>0</asrwt>
<pdfrwt beam="1">  1        4 0.80645000E-02 0.12499953E+03</pdfrwt>
<pdfrwt beam="2">  1       -4 0.11464434E-01 0.12499953E+03</pdfrwt>
<totfact> 0.10410601E+04</totfact>
</mgrwt>
</event>
<event>
 5    1  0.3514886E-002  0.1249952E+03  0.7818608E-02  0.1235077E+00
          4   -1    0    0  501    0  0.00000000000E+00  0.00000000000E+00  0.17473582684E+03  0.17474044203E+03  0.12700000000E+01 0.  1.
         -4   -1    0    0    0  501 -0.00000000000E+00 -0.00000000000E+00 -0.22330496846E+02  0.22366581978E+02  0.12700000000E+01 0.  1.
         25    2    1    2    0    0  0.00000000000E+00  0.00000000000E+00  0.15240532999E+03  0.19710702401E+03  0.12499517712E+03 0.  0.
    9000005    1    3    3    0    0  0.29507878812E+02 -0.47075058216E+02  0.12130835170E+03  0.13342972761E+03  0.10000000000E+01 0.  0.
    9000005    1    3    3    0    0 -0.29507878812E+02  0.47075058216E+02  0.31096978298E+02  0.63677296404E+02  0.10000000000E+01 0.  0.
<mgrwt>
<rscale>  0 0.12499518E+03</rscale>
<asrwt>0</asrwt>
<pdfrwt beam="1">  1        4 0.26885565E-01 0.12499518E+03</pdfrwt>
<pdfrwt beam="2">  1       -4 0.34385920E-02 0.12499518E+03</pdfrwt>
<totfact> 0.90634994E+03</totfact>
</mgrwt>
</event>
<event>
 5    1  0.3514886E-002  0.1250036E+03  0.7818608E-02  0.1235064E+00
          4   -1    0    0  501    0  0.00000000000E+00  0.00000000000E+00  0.10578252407E+04  0.10578260031E+04  0.12700000000E+01 0.  1.
         -4   -1    0    0    0  501 -0.00000000000E+00 -0.00000000000E+00 -0.35829546098E+01  0.38013765580E+01  0.12700000000E+01 0.  1.
         25    2    1    2    0    0  0.00000000000E+00  0.00000000000E+00  0.10542422861E+04  0.10616273797E+04  0.12500358150E+03 0.  0.
    9000005    1    3    3    0    0 -0.31712939752E+02 -0.34857726342E+02  0.17853411031E+03  0.18465156424E+03  0.10000000000E+01 0.  0.
    9000005    1    3    3    0    0  0.31712939752E+02  0.34857726342E+02  0.87570817582E+03  0.87697581542E+03  0.10000000000E+01 0.  0.
<mgrwt>
<rscale>  0 0.12500358E+03</rscale>
<asrwt>0</asrwt>
<pdfrwt beam="1">  1        4 0.16275928E+00 0.12500358E+03</pdfrwt>
<pdfrwt beam="2">  1       -4 0.56808387E-03 0.12500358E+03</pdfrwt>
<totfact> 0.28632226E+03</totfact>
</mgrwt>
</event>
<event>
 5    1  0.3514886E-002  0.1250044E+03  0.7818608E-02  0.1235062E+00
          4   -1    0    0  501    0  0.00000000000E+00  0.00000000000E+00  0.49170411413E+01  0.50784046300E+01  0.12700000000E+01 0.  1.
         -4   -1    0    0    0  501 -0.00000000000E+00 -0.00000000000E+00 -0.78149850987E+03  0.78149954179E+03  0.12700000000E+01 0.  1.
         25    2    1    2    0    0  0.00000000000E+00  0.00000000000E+00 -0.77658146872E+03  0.78657794642E+03  0.12500435285E+03 0.  0.
    9000005    1    3    3    0    0  0.50656658905E+02 -0.19878930294E+02 -0.19493331612E+03  0.20238889963E+03  0.10000000000E+01 0.  0.
    9000005    1    3    3    0    0 -0.50656658905E+02  0.19878930294E+02 -0.58164815260E+03  0.58418904679E+03  0.10000000000E+01 0.  0.
<mgrwt>
<rscale>  0 0.12500435E+03</rscale>
<asrwt>0</asrwt>
<pdfrwt beam="1">  1        4 0.76896044E-03 0.12500435E+03</pdfrwt>
<pdfrwt beam="2">  1       -4 0.12024293E+00 0.12500435E+03</pdfrwt>
<totfact> 0.38867323E+03</totfact>
</mgrwt>
</event>
<event>
 5    1  0.3514886E-002  0.1249994E+03  0.7818608E-02  0.1235070E+00
          4   -1    0    0  501    0  0.00000000000E+00  0.00000000000E+00  0.37974663027E+01  0.40042040807E+01  0.12700000000E+01 0. -1.
         -4   -1    0    0    0  501 -0.00000000000E+00 -0.00000000000E+00 -0.10011710341E+04  0.10011718396E+04  0.12700000000E+01 0. -1.
         25    2    1    2    0    0  0.00000000000E+00  0.00000000000E+00 -0.99737356776E+03  0.10051760437E+04  0.12499938024E+03 0.  0.
    9000005    1    3    3    0    0 -0.50958538857E+02 -0.10885092096E+02 -0.77608217322E+03  0.77783018552E+03  0.10000000000E+01 0.  0.
    9000005    1    3    3    0    0  0.50958538857E+02  0.10885092096E+02 -0.22129139454E+03  0.22734585813E+03  0.10000000000E+01 0.  0.
<mgrwt>
<rscale>  0 0.12499938E+03</rscale>
<asrwt>0</asrwt>
<pdfrwt beam="1">  1        4 0.60019125E-03 0.12499938E+03</pdfrwt>
<pdfrwt beam="2">  1       -4 0.15404207E+00 0.12499938E+03</pdfrwt>
<totfact> 0.30434642E+03</totfact>
</mgrwt>
</event>
<event>
 5    1  0.3514886E-002  0.1249507E+03  0.7818608E-02  0.1235146E+00
         -4   -1    0    0    0  501 -0.00000000000E+00  0.00000000000E+00  0.93391617693E+01  0.94251176414E+01  0.12700000000E+01 0. -1.
          4   -1    0    0  501    0  0.00000000000E+00 -0.00000000000E+00 -0.41593422710E+03  0.41593616599E+03  0.12700000000E+01 0. -1.
         25    2    1    2    0    0  0.00000000000E+00  0.00000000000E+00 -0.40659506534E+03  0.42536128363E+03  0.12495068810E+03 0.  0.
    9000005    1    3    3    0    0  0.33123895419E+02  0.88614422425E+01 -0.25544035110E+02  0.42769327047E+02  0.10000000000E+01 0.  0.
    9000005    1    3    3    0    0 -0.33123895419E+02 -0.88614422425E+01 -0.38105103023E+03  0.38259195658E+03  0.10000000000E+01 0.  0.
<mgrwt>
<rscale>  0 0.12495069E+03</rscale>
<asrwt>0</asrwt>
<pdfrwt beam="2">  1        4 0.63996628E-01 0.12495069E+03</pdfrwt>
<pdfrwt beam="1">  1       -4 0.14435556E-02 0.12495069E+03</pdfrwt>
<totfact> 0.62226375E+03</totfact>
</mgrwt>
</event>
<event>
 5    1  0.3514886E-002  0.1249960E+03  0.7818608E-02  0.1235075E+00
          4   -1    0    0  501    0  0.00000000000E+00  0.00000000000E+00  0.15634978698E+02  0.15686473756E+02  0.12700000000E+01 0.  1.
         -4   -1    0    0    0  501 -0.00000000000E+00 -0.00000000000E+00 -0.24936069059E+03  0.24936392464E+03  0.12700000000E+01 0.  1.
         25    2    1    2    0    0  0.00000000000E+00  0.00000000000E+00 -0.23372571189E+03  0.26505039839E+03  0.12499602110E+03 0.  0.
    9000005    1    3    3    0    0  0.42879635523E+02  0.98511738224E+01 -0.21096237248E+03  0.21550366904E+03  0.10000000000E+01 0.  0.
    9000005    1    3    3    0    0 -0.42879635523E+02 -0.98511738224E+01 -0.22763339410E+02  0.49546729351E+02  0.10000000000E+01 0.  0.
<mgrwt>
<rscale>  0 0.12499602E+03</rscale>
<asrwt>0</asrwt>
<pdfrwt beam="1">  1        4 0.24095915E-02 0.12499602E+03</pdfrwt>
<pdfrwt beam="2">  1       -4 0.38367390E-01 0.12499602E+03</pdfrwt>
<totfact> 0.80209595E+03</totfact>
</mgrwt>
</event>
<event>
 5    1  0.3514886E-002  0.1249983E+03  0.7818608E-02  0.1235072E+00
         -4   -1    0    0    0  501 -0.00000000000E+00  0.00000000000E+00  0.63662065161E+02  0.63674731570E+02  0.12700000000E+01 0.  1.
          4   -1    0    0  501    0  0.00000000000E+00 -0.00000000000E+00 -0.61332128656E+02  0.61345276146E+02  0.12700000000E+01 0.  1.
         25    2    1    2    0    0  0.00000000000E+00  0.00000000000E+00  0.23299365048E+01  0.12502000772E+03  0.12499829489E+03 0.  0.
    9000005    1    3    3    0    0 -0.20219968893E+02  0.56784128782E+02 -0.15326043313E+02  0.62202668972E+02  0.10000000000E+01 0.  0.
    9000005    1    3    3    0    0  0.20219968893E+02 -0.56784128782E+02  0.17655979818E+02  0.62817338744E+02  0.10000000000E+01 0.  0.
<mgrwt>
<rscale>  0 0.12499829E+03</rscale>
<asrwt>0</asrwt>
<pdfrwt beam="2">  1        4 0.94376978E-02 0.12499829E+03</pdfrwt>
<pdfrwt beam="1">  1       -4 0.97961496E-02 0.12499829E+03</pdfrwt>
<totfact> 0.10452831E+04</totfact>
</mgrwt>
</event>
<event>
 5    1  0.3514886E-002  0.1249966E+03  0.7818608E-02  0.1235075E+00
         -4   -1    0    0    0  501 -0.00000000000E+00  0.00000000000E+00  0.42499696532E+02  0.42518667727E+02  0.12700000000E+01 0.  1.
          4   -1    0    0  501    0  0.00000000000E+00 -0.00000000000E+00 -0.91863501112E+02  0.91872279478E+02  0.12700000000E+01 0.  1.
         25    2    1    2    0    0  0.00000000000E+00  0.00000000000E+00 -0.49363804580E+02  0.13439094721E+03  0.12499656591E+03 0.  0.
    9000005    1    3    3    0    0 -0.27845112998E+02  0.55507654475E+02 -0.32176090507E+02  0.69948201002E+02  0.10000000000E+01 0.  0.
    9000005    1    3    3    0    0  0.27845112998E+02 -0.55507654475E+02 -0.17187714073E+02  0.64442746203E+02  0.10000000000E+01 0.  0.
<mgrwt>
<rscale>  0 0.12499657E+03</rscale>
<asrwt>0</asrwt>
<pdfrwt beam="2">  1        4 0.14134981E-01 0.12499657E+03</pdfrwt>
<pdfrwt beam="1">  1       -4 0.65405495E-02 0.12499657E+03</pdfrwt>
<totfact> 0.10251718E+04</totfact>
</mgrwt>
</event>
<event>
 5    1  0.3514886E-002  0.1249914E+03  0.7818608E-02  0.1235083E+00
         -4   -1    0    0    0  501 -0.00000000000E+00  0.00000000000E+00  0.22374050068E+03  0.22374410505E+03  0.12700000000E+01 0. -1.
          4   -1    0    0  501    0  0.00000000000E+00 -0.00000000000E+00 -0.17429589701E+02  0.17475797468E+02  0.12700000000E+01 0. -1.
         25    2    1    2    0    0  0.00000000000E+00  0.00000000000E+00  0.20631091098E+03  0.24121990252E+03  0.12499139723E+03 0.  0.
    9000005    1    3    3    0    0 -0.25727891913E+02  0.36991815490E+02  0.18670871572E+03  0.19207150585E+03  0.10000000000E+01 0.  0.
    9000005    1    3    3    0    0  0.25727891913E+02 -0.36991815490E+02  0.19602195260E+02  0.49148396663E+02  0.10000000000E+01 0.  0.
<mgrwt>
<rscale>  0 0.12499140E+03</rscale>
<asrwt>0</asrwt>
<pdfrwt beam="2">  1        4 0.26853072E-02 0.12499140E+03</pdfrwt>
<pdfrwt beam="1">  1       -4 0.34425445E-01 0.12499140E+03</pdfrwt>
<totfact> 0.83632057E+03</totfact>
</mgrwt>
</event>
<event>
 5    1  0.3514886E-002  0.1250062E+03  0.7818608E-02  0.1235060E+00
         -4   -1    0    0    0  501 -0.00000000000E+00  0.00000000000E+00  0.81610010441E+02  0.81619891596E+02  0.12700000000E+01 0. -1.
          4   -1    0    0  501    0  0.00000000000E+00 -0.00000000000E+00 -0.47848357553E+02  0.47865208874E+02  0.12700000000E+01 0. -1.
         25    2    1    2    0    0  0.00000000000E+00  0.00000000000E+00  0.33761652888E+02  0.12948510047E+03  0.12500616800E+03 0.  0.
    9000005    1    3    3    0    0  0.21337323478E+01 -0.49553409118E+01  0.81373410556E+02  0.81558201076E+02  0.10000000000E+01 0.  0.
    9000005    1    3    3    0    0 -0.21337323478E+01  0.49553409118E+01 -0.47611757668E+02  0.47926899394E+02  0.10000000000E+01 0.  0.
<mgrwt>
<rscale>  0 0.12500617E+03</rscale>
<asrwt>0</asrwt>
<pdfrwt beam="2">  1        4 0.73633421E-02 0.12500617E+03</pdfrwt>
<pdfrwt beam="1">  1       -4 0.12557443E-01 0.12500617E+03</pdfrwt>
<totfact> 0.10354093E+04</totfact>
</mgrwt>
</event>
<event>
 5    1  0.3514886E-002  0.1249986E+03  0.7818608E-02  0.1235071E+00
          4   -1    0    0  501    0  0.00000000000E+00  0.00000000000E+00  0.47431122255E+02  0.47448121758E+02  0.12700000000E+01 0. -1.
         -4   -1    0    0    0  501 -0.00000000000E+00 -0.00000000000E+00 -0.82317792361E+02  0.82327588566E+02  0.12700000000E+01 0. -1.
         25    2    1    2    0    0  0.00000000000E+00  0.00000000000E+00 -0.34886670106E+02  0.12977571032E+03  0.12499862095E+03 0.  0.
    9000005    1    3    3    0    0  0.11058081164E+02 -0.60933351334E+02 -0.87564074251E+01  0.62552610935E+02  0.10000000000E+01 0.  0.
    9000005    1    3    3    0    0 -0.11058081164E+02  0.60933351334E+02 -0.26130262681E+02  0.67223099390E+02  0.10000000000E+01 0.  0.
<mgrwt>
<rscale>  0 0.12499862E+03</rscale>
<asrwt>0</asrwt>
<pdfrwt beam="1">  1        4 0.72991570E-02 0.12499862E+03</pdfrwt>
<pdfrwt beam="2">  1       -4 0.12666337E-01 0.12499862E+03</pdfrwt>
<totfact> 0.10349630E+04</totfact>
</mgrwt>
</event>
<event>
 5    1  0.3514886E-002  0.1249966E+03  0.7818608E-02  0.1235075E+00
         -4   -1    0    0    0  501 -0.00000000000E+00  0.00000000000E+00  0.10234529196E+04  0.10234537076E+04  0.12700000000E+01 0. -1.
          4   -1    0    0  501    0  0.00000000000E+00 -0.00000000000E+00 -0.37100652158E+01  0.39214135086E+01  0.12700000000E+01 0. -1.
         25    2    1    2    0    0  0.00000000000E+00  0.00000000000E+00  0.10197428544E+04  0.10273751211E+04  0.12499660132E+03 0.  0.
    9000005    1    3    3    0    0  0.41120856739E+02  0.61895313475E+01  0.89326123969E+03  0.89422920859E+03  0.10000000000E+01 0.  0.
    9000005    1    3    3    0    0 -0.41120856739E+02 -0.61895313475E+01  0.12648161468E+03  0.13314591248E+03  0.10000000000E+01 0.  0.
<mgrwt>
<rscale>  0 0.12499660E+03</rscale>
<asrwt>0</asrwt>
<pdfrwt beam="2">  1        4 0.58709740E-03 0.12499660E+03</pdfrwt>
<pdfrwt beam="1">  1       -4 0.15747062E+00 0.12499660E+03</pdfrwt>
<totfact> 0.29714049E+03</totfact>
</mgrwt>
</event>
<event>
 5    1  0.3514886E-002  0.1249997E+03  0.7818608E-02  0.1235070E+00
         -4   -1    0    0    0  501 -0.00000000000E+00  0.00000000000E+00  0.42353360060E+03  0.42353550470E+03  0.12700000000E+01 0.  1.
          4   -1    0    0  501    0  0.00000000000E+00 -0.00000000000E+00 -0.91772968218E+01  0.92647545545E+01  0.12700000000E+01 0.  1.
         25    2    1    2    0    0  0.00000000000E+00  0.00000000000E+00  0.41435630378E+03  0.43280025925E+03  0.12499967170E+03 0.  0.
    9000005    1    3    3    0    0 -0.19878628056E+02 -0.18966496065E+02  0.40151603498E+03  0.40245622641E+03  0.10000000000E+01 0.  0.
    9000005    1    3    3    0    0  0.19878628056E+02  0.18966496065E+02  0.12840268796E+02  0.30344032842E+02  0.10000000000E+01 0.  0.
<mgrwt>
<rscale>  0 0.12499967E+03</rscale>
<asrwt>0</asrwt>
<pdfrwt beam="2">  1        4 0.14187656E-02 0.12499967E+03</pdfrwt>
<pdfrwt beam="1">  1       -4 0.65165899E-01 0.12499967E+03</pdfrwt>
<totfact> 0.61483420E+03</totfact>
</mgrwt>
</event>
<event>
 5    1  0.3514886E-002  0.1249976E+03  0.7818608E-02  0.1235073E+00
          4   -1    0    0  501    0  0.00000000000E+00  0.00000000000E+00  0.17893482438E+03  0.17893933127E+03  0.12700000000E+01 0.  1.
         -4   -1    0    0    0  501 -0.00000000000E+00 -0.00000000000E+00 -0.21806490988E+02  0.21843441790E+02  0.12700000000E+01 0.  1.
         25    2    1    2    0    0  0.00000000000E+00  0.00000000000E+00  0.15712833339E+03  0.20078277306E+03  0.12499763519E+03 0.  0.
    9000005    1    3    3    0    0 -0.56625177463E+02 -0.71085864783E+01  0.11945873132E+03  0.13239460416E+03  0.10000000000E+01 0.  0.
    9000005    1    3    3    0    0  0.56625177463E+02  0.71085864783E+01  0.37669602076E+02  0.68388168897E+02  0.10000000000E+01 0.  0.
<mgrwt>
<rscale>  0 0.12499764E+03</rscale>
<asrwt>0</asrwt>
<pdfrwt beam="1">  1        4 0.27531625E-01 0.12499764E+03</pdfrwt>
<pdfrwt beam="2">  1       -4 0.33580337E-02 0.12499764E+03</pdfrwt>
<totfact> 0.90008414E+03</totfact>
</mgrwt>
</event>
<event>
 5    1  0.3514886E-002  0.1250495E+03  0.7818608E-02  0.1234992E+00
         -4   -1    0    0    0  501 -0.00000000000E+00  0.00000000000E+00  0.87954930674E+03  0.87955022363E+03  0.12700000000E+01 0. -1.
          4   -1    0    0  501    0  0.00000000000E+00 -0.00000000000E+00 -0.43530515250E+01  0.45345294772E+01  0.12700000000E+01 0. -1.
         25    2    1    2    0    0  0.00000000000E+00  0.00000000000E+00  0.87519625522E+03  0.88408475311E+03  0.12504945235E+03 0.  0.
    9000005    1    3    3    0    0 -0.45958883120E+02  0.40335375723E+02  0.34564076588E+03  0.35100954476E+03  0.10000000000E+01 0.  0.
    9000005    1    3    3    0    0  0.45958883120E+02 -0.40335375723E+02  0.52955548934E+03  0.53307520836E+03  0.10000000000E+01 0.  0.
<mgrwt>
<rscale>  0 0.12504945E+03</rscale>
<asrwt>0</asrwt>
<pdfrwt beam="2">  1        4 0.68373030E-03 0.12504945E+03</pdfrwt>
<pdfrwt beam="1">  1       -4 0.13532937E+00 0.12504945E+03</pdfrwt>
<totfact> 0.34734125E+03</totfact>
</mgrwt>
</event>
<event>
 5    1  0.3514886E-002  0.1250000E+03  0.7818608E-02  0.1235069E+00
          4   -1    0    0  501    0  0.00000000000E+00  0.00000000000E+00  0.12777509781E+03  0.12778140913E+03  0.12700000000E+01 0. -1.
         -4   -1    0    0    0  501 -0.00000000000E+00 -0.00000000000E+00 -0.30551037464E+02  0.30577422882E+02  0.12700000000E+01 0. -1.
         25    2    1    2    0    0  0.00000000000E+00  0.00000000000E+00  0.97224060346E+02  0.15835883202E+03  0.12500000707E+03 0.  0.
    9000005    1    3    3    0    0  0.29652795783E+02  0.54217621415E+02  0.60388590391E+02  0.86409609530E+02  0.10000000000E+01 0.  0.
    9000005    1    3    3    0    0 -0.29652795783E+02 -0.54217621415E+02  0.36835469955E+02  0.71949222487E+02  0.10000000000E+01 0.  0.
<mgrwt>
<rscale>  0 0.12500001E+03</rscale>
<asrwt>0</asrwt>
<pdfrwt beam="1">  1        4 0.19660222E-01 0.12500001E+03</pdfrwt>
<pdfrwt beam="2">  1       -4 0.47026748E-02 0.12500001E+03</pdfrwt>
<totfact> 0.97660110E+03</totfact>
</mgrwt>
</event>
<event>
 5    1  0.3514886E-002  0.1249980E+03  0.7818608E-02  0.1235072E+00
         -4   -1    0    0    0  501 -0.00000000000E+00  0.00000000000E+00  0.37156093222E+02  0.37177791268E+02  0.12700000000E+01 0. -1.
          4   -1    0    0  501    0  0.00000000000E+00 -0.00000000000E+00 -0.10507116111E+03  0.10507883611E+03  0.12700000000E+01 0. -1.
         25    2    1    2    0    0  0.00000000000E+00  0.00000000000E+00 -0.67915067889E+02  0.14225662737E+03  0.12499796632E+03 0.  0.
    9000005    1    3    3    0    0  0.21198281634E+02 -0.25986749901E+02  0.26052888314E+02  0.42478598190E+02  0.10000000000E+01 0.  0.
    9000005    1    3    3    0    0 -0.21198281634E+02  0.25986749901E+02 -0.93967956203E+02  0.99778029183E+02  0.10000000000E+01 0.  0.
<mgrwt>
<rscale>  0 0.12499797E+03</rscale>
<asrwt>0</asrwt>
<pdfrwt beam="2">  1        4 0.16167053E-01 0.12499797E+03</pdfrwt>
<pdfrwt beam="1">  1       -4 0.57185816E-02 0.12499797E+03</pdfrwt>
<totfact> 0.10087490E+04</totfact>
</mgrwt>
</event>
<event>
 5    1  0.3514886E-002  0.1249765E+03  0.7818608E-02  0.1235106E+00
          4   -1    0    0  501    0  0.00000000000E+00  0.00000000000E+00  0.10681577504E+03  0.10682332469E+03  0.12700000000E+01 0.  1.
         -4   -1    0    0    0  501 -0.00000000000E+00 -0.00000000000E+00 -0.36536337318E+02  0.36558403201E+02  0.12700000000E+01 0.  1.
         25    2    1    2    0    0  0.00000000000E+00  0.00000000000E+00  0.70279437725E+02  0.14338172789E+03  0.12497647989E+03 0.  0.
    9000005    1    3    3    0    0  0.98758405760E+01 -0.21120272505E+02 -0.31364151633E+02  0.39093581896E+02  0.10000000000E+01 0.  0.
    9000005    1    3    3    0    0 -0.98758405760E+01  0.21120272505E+02  0.10164358936E+03  0.10428814600E+03  0.10000000000E+01 0.  0.
<mgrwt>
<rscale>  0 0.12497648E+03</rscale>
<asrwt>0</asrwt>
<pdfrwt beam="1">  1        4 0.16435474E-01 0.12497648E+03</pdfrwt>
<pdfrwt beam="2">  1       -4 0.56232532E-02 0.12497648E+03</pdfrwt>
<totfact> 0.10069305E+04</totfact>
</mgrwt>
</event>
<event>
 5    1  0.3514886E-002  0.1250052E+03  0.7818608E-02  0.1235061E+00
         -4   -1    0    0    0  501 -0.00000000000E+00  0.00000000000E+00  0.78265122948E+02  0.78275426349E+02  0.12700000000E+01 0. -1.
          4   -1    0    0  501    0  0.00000000000E+00 -0.00000000000E+00 -0.49892992609E+02  0.49909153584E+02  0.12700000000E+01 0. -1.
         25    2    1    2    0    0  0.00000000000E+00  0.00000000000E+00  0.28372130339E+02  0.12818457993E+03  0.12500523490E+03 0.  0.
    9000005    1    3    3    0    0  0.33657944334E+02  0.49153084526E+02 -0.51806354933E+01  0.59805701395E+02  0.10000000000E+01 0.  0.
    9000005    1    3    3    0    0 -0.33657944334E+02 -0.49153084526E+02  0.33552765832E+02  0.68378878539E+02  0.10000000000E+01 0.  0.
<mgrwt>
<rscale>  0 0.12500523E+03</rscale>
<asrwt>0</asrwt>
<pdfrwt beam="2">  1        4 0.76778807E-02 0.12500523E+03</pdfrwt>
<pdfrwt beam="1">  1       -4 0.12042824E-01 0.12500523E+03</pdfrwt>
<totfact> 0.10382276E+04</totfact>
</mgrwt>
</event>
<event>
 5    1  0.3514886E-002  0.1249992E+03  0.7818608E-02  0.1235071E+00
          4   -1    0    0  501    0  0.00000000000E+00  0.00000000000E+00  0.75534930630E+02  0.75545606393E+02  0.12700000000E+01 0.  1.
         -4   -1    0    0    0  501 -0.00000000000E+00 -0.00000000000E+00 -0.51691677470E+02  0.51707276274E+02  0.12700000000E+01 0.  1.
         25    2    1    2    0    0  0.00000000000E+00  0.00000000000E+00  0.23843253160E+02  0.12725288267E+03  0.12499918170E+03 0.  0.
    9000005    1    3    3    0    0 -0.40908180907E+02 -0.21669914734E+02 -0.30813005805E+02  0.55619293383E+02  0.10000000000E+01 0.  0.
    9000005    1    3    3    0    0  0.40908180907E+02  0.21669914734E+02  0.54656258964E+02  0.71633589284E+02  0.10000000000E+01 0.  0.
<mgrwt>
<rscale>  0 0.12499918E+03</rscale>
<asrwt>0</asrwt>
<pdfrwt beam="1">  1        4 0.11622780E-01 0.12499918E+03</pdfrwt>
<pdfrwt beam="2">  1       -4 0.79545869E-02 0.12499918E+03</pdfrwt>
<totfact> 0.10403848E+04</totfact>
</mgrwt>
</event>
<event>
 5    1  0.3514886E-002  0.1250007E+03  0.7818608E-02  0.1235068E+00
         -4   -1    0    0    0  501 -0.00000000000E+00  0.00000000000E+00  0.49241692204E+03  0.49241855977E+03  0.12700000000E+01 0.  1.
          4   -1    0    0  501    0  0.00000000000E+00 -0.00000000000E+00 -0.78804073526E+01  0.79820874490E+01  0.12700000000E+01 0.  1.
         25    2    1    2    0    0  0.00000000000E+00  0.00000000000E+00  0.48453651469E+03  0.50040064722E+03  0.12500069471E+03 0.  0.
    9000005    1    3    3    0    0  0.19460353478E+02 -0.30296531575E+02  0.37803627433E+02  0.52217807596E+02  0.10000000000E+01 0.  0.
    9000005    1    3    3    0    0 -0.19460353478E+02  0.30296531575E+02  0.44673288725E+03  0.44818283963E+03  0.10000000000E+01 0.  0.
<mgrwt>
<rscale>  0 0.12500069E+03</rscale>
<asrwt>0</asrwt>
<pdfrwt beam="2">  1        4 0.12203176E-02 0.12500069E+03</pdfrwt>
<pdfrwt beam="1">  1       -4 0.75764416E-01 0.12500069E+03</pdfrwt>
<totfact> 0.55832431E+03</totfact>
</mgrwt>
</event>
<event>
 5    1  0.3514886E-002  0.1250013E+03  0.7818608E-02  0.1235067E+00
         -4   -1    0    0    0  501 -0.00000000000E+00  0.00000000000E+00  0.92869679114E+03  0.92869765951E+03  0.12700000000E+01 0.  1.
          4   -1    0    0  501    0  0.00000000000E+00 -0.00000000000E+00 -0.41094975956E+01  0.43012638245E+01  0.12700000000E+01 0.  1.
         25    2    1    2    0    0  0.00000000000E+00  0.00000000000E+00  0.92458729355E+03  0.93299892333E+03  0.12500131021E+03 0.  0.
    9000005    1    3    3    0    0 -0.38114291651E+02  0.12693181347E+01  0.83181550838E+03  0.83268982843E+03  0.10000000000E+01 0.  0.
    9000005    1    3    3    0    0  0.38114291651E+02 -0.12693181347E+01  0.92771785170E+02  0.10030909490E+03  0.10000000000E+01 0.  0.
<mgrwt>
<rscale>  0 0.12500131E+03</rscale>
<asrwt>0</asrwt>
<pdfrwt beam="2">  1        4 0.64704749E-03 0.12500131E+03</pdfrwt>
<pdfrwt beam="1">  1       -4 0.14289146E+00 0.12500131E+03</pdfrwt>
<totfact> 0.32926381E+03</totfact>
</mgrwt>
</event>
<event>
 5    1  0.3514886E-002  0.1250002E+03  0.7818608E-02  0.1235069E+00
          4   -1    0    0  501    0  0.00000000000E+00  0.00000000000E+00  0.27063915486E+03  0.27064213464E+03  0.12700000000E+01 0.  1.
         -4   -1    0    0    0  501 -0.00000000000E+00 -0.00000000000E+00 -0.14402467586E+02  0.14458353037E+02  0.12700000000E+01 0.  1.
         25    2    1    2    0    0  0.00000000000E+00  0.00000000000E+00  0.25623668728E+03  0.28510048768E+03  0.12500019268E+03 0.  0.
    9000005    1    3    3    0    0 -0.28305842994E+02 -0.34125962572E+02  0.27673490463E+02  0.52274507587E+02  0.10000000000E+01 0.  0.
    9000005    1    3    3    0    0  0.28305842994E+02  0.34125962572E+02  0.22856319681E+03  0.23282598009E+03  0.10000000000E+01 0.  0.
<mgrwt>
<rscale>  0 0.12500019E+03</rscale>
<asrwt>0</asrwt>
<pdfrwt beam="1">  1        4 0.41641320E-01 0.12500019E+03</pdfrwt>
<pdfrwt beam="2">  1       -4 0.22202924E-02 0.12500019E+03</pdfrwt>
<totfact> 0.77506310E+03</totfact>
</mgrwt>
</event>
<event>
 5    1  0.3514886E-002  0.1249991E+03  0.7818608E-02  0.1235071E+00
         -4   -1    0    0    0  501 -0.00000000000E+00  0.00000000000E+00  0.15363613903E+02  0.15416015444E+02  0.12700000000E+01 0.  1.
          4   -1    0    0  501    0  0.00000000000E+00 -0.00000000000E+00 -0.25376293794E+03  0.25376611588E+03  0.12700000000E+01 0.  1.
         25    2    1    2    0    0  0.00000000000E+00  0.00000000000E+00 -0.23839932404E+03  0.26918213133E+03  0.12499912850E+03 0.  0.
    9000005    1    3    3    0    0 -0.32500545783E+02 -0.33607811841E+02 -0.20849542773E+03  0.21367525331E+03  0.10000000000E+01 0.  0.
    9000005    1    3    3    0    0  0.32500545783E+02  0.33607811841E+02 -0.29903896303E+02  0.55506878016E+02  0.10000000000E+01 0.  0.
<mgrwt>
<rscale>  0 0.12499913E+03</rscale>
<asrwt>0</asrwt>
<pdfrwt beam="2">  1        4 0.39044724E-01 0.12499913E+03</pdfrwt>
<pdfrwt beam="1">  1       -4 0.23679084E-02 0.12499913E+03</pdfrwt>
<totfact> 0.79636047E+03</totfact>
</mgrwt>
</event>
<event>
 5    1  0.3514886E-002  0.1250010E+03  0.7818608E-02  0.1235068E+00
         -4   -1    0    0    0  501 -0.00000000000E+00  0.00000000000E+00  0.22755895018E+02  0.22791306634E+02  0.12700000000E+01 0. -1.
          4   -1    0    0  501    0  0.00000000000E+00 -0.00000000000E+00 -0.17149033232E+03  0.17149503485E+03  0.12700000000E+01 0. -1.
         25    2    1    2    0    0  0.00000000000E+00  0.00000000000E+00 -0.14873443730E+03  0.19428634148E+03  0.12500099859E+03 0.  0.
    9000005    1    3    3    0    0 -0.47799704619E+02  0.31576526881E+02 -0.11317514232E+03  0.12685228280E+03  0.10000000000E+01 0.  0.
    9000005    1    3    3    0    0  0.47799704619E+02 -0.31576526881E+02 -0.35559294977E+02  0.67434058685E+02  0.10000000000E+01 0.  0.
<mgrwt>
<rscale>  0 0.12500100E+03</rscale>
<asrwt>0</asrwt>
<pdfrwt beam="2">  1        4 0.26386213E-01 0.12500100E+03</pdfrwt>
<pdfrwt beam="1">  1       -4 0.35039927E-02 0.12500100E+03</pdfrwt>
<totfact> 0.91104771E+03</totfact>
</mgrwt>
</event>
<event>
 5    1  0.3514886E-002  0.1250004E+03  0.7818608E-02  0.1235069E+00
         -4   -1    0    0    0  501 -0.00000000000E+00  0.00000000000E+00  0.10847197942E+03  0.10847941380E+03  0.12700000000E+01 0. -1.
          4   -1    0    0  501    0  0.00000000000E+00 -0.00000000000E+00 -0.35991961252E+02  0.36014360674E+02  0.12700000000E+01 0. -1.
         25    2    1    2    0    0  0.00000000000E+00  0.00000000000E+00  0.72480018163E+02  0.14449377447E+03  0.12500039131E+03 0.  0.
    9000005    1    3    3    0    0  0.61078109820E+02  0.11471790658E+02  0.43832121269E+02  0.76055192689E+02  0.10000000000E+01 0.  0.
    9000005    1    3    3    0    0 -0.61078109820E+02 -0.11471790658E+02  0.28647896895E+02  0.68438581784E+02  0.10000000000E+01 0.  0.
<mgrwt>
<rscale>  0 0.12500039E+03</rscale>
<asrwt>0</asrwt>
<pdfrwt beam="2">  1        4 0.55395197E-02 0.12500039E+03</pdfrwt>
<pdfrwt beam="1">  1       -4 0.16690292E-01 0.12500039E+03</pdfrwt>
<totfact> 0.10041195E+04</totfact>
</mgrwt>
</event>
<event>
 5    1  0.3514886E-002  0.1250009E+03  0.7818608E-02  0.1235068E+00
         -4   -1    0    0    0  501 -0.00000000000E+00  0.00000000000E+00  0.28270206653E+03  0.28270491916E+03  0.12700000000E+01 0. -1.
          4   -1    0    0  501    0  0.00000000000E+00 -0.00000000000E+00 -0.13785631273E+02  0.13844006992E+02  0.12700000000E+01 0. -1.
         25    2    1    2    0    0  0.00000000000E+00  0.00000000000E+00  0.26891643525E+03  0.29654892615E+03  0.12500086581E+03 0.  0.
    9000005    1    3    3    0    0  0.17648860386E+02  0.48790729402E+02  0.51823027835E+02  0.73339237537E+02  0.10000000000E+01 0.  0.
    9000005    1    3    3    0    0 -0.17648860386E+02 -0.48790729402E+02  0.21709340742E+03  0.22320968862E+03  0.10000000000E+01 0.  0.
<mgrwt>
<rscale>  0 0.12500087E+03</rscale>
<asrwt>0</asrwt>
<pdfrwt beam="2">  1        4 0.21255763E-02 0.12500087E+03</pdfrwt>
<pdfrwt beam="1">  1       -4 0.43497334E-01 0.12500087E+03</pdfrwt>
<totfact> 0.76032322E+03</totfact>
</mgrwt>
</event>
<event>
 5    1  0.3514886E-002  0.1250020E+03  0.7818608E-02  0.1235066E+00
         -4   -1    0    0    0  501 -0.00000000000E+00  0.00000000000E+00  0.59760344593E+02  0.59773837804E+02  0.12700000000E+01 0. -1.
          4   -1    0    0  501    0  0.00000000000E+00 -0.00000000000E+00 -0.65340349989E+02  0.65352691121E+02  0.12700000000E+01 0. -1.
         25    2    1    2    0    0  0.00000000000E+00  0.00000000000E+00 -0.55800053966E+01  0.12512652893E+03  0.12500204711E+03 0.  0.
    9000005    1    3    3    0    0  0.54732679925E+02 -0.12278219370E+02  0.24786606449E+02  0.61333488258E+02  0.10000000000E+01 0.  0.
    9000005    1    3    3    0    0 -0.54732679925E+02  0.12278219370E+02 -0.30366611846E+02  0.63793040667E+02  0.10000000000E+01 0.  0.
<mgrwt>
<rscale>  0 0.12500205E+03</rscale>
<asrwt>0</asrwt>
<pdfrwt beam="2">  1        4 0.10054349E-01 0.12500205E+03</pdfrwt>
<pdfrwt beam="1">  1       -4 0.91958864E-02 0.12500205E+03</pdfrwt>
<totfact> 0.10449632E+04</totfact>
</mgrwt>
</event>
<event>
 5    1  0.3514886E-002  0.1249997E+03  0.7818608E-02  0.1235070E+00
         -4   -1    0    0    0  501 -0.00000000000E+00  0.00000000000E+00  0.30791546528E+02  0.30817726029E+02  0.12700000000E+01 0. -1.
          4   -1    0    0  501    0  0.00000000000E+00 -0.00000000000E+00 -0.12677714706E+03  0.12678350806E+03  0.12700000000E+01 0. -1.
         25    2    1    2    0    0  0.00000000000E+00  0.00000000000E+00 -0.95985600529E+02  0.15760123409E+03  0.12499965391E+03 0.  0.
    9000005    1    3    3    0    0 -0.26846002777E+02 -0.42377260791E+02 -0.10084541402E+01  0.50185227677E+02  0.10000000000E+01 0.  0.
    9000005    1    3    3    0    0  0.26846002777E+02  0.42377260791E+02 -0.94977146389E+02  0.10741600641E+03  0.10000000000E+01 0.  0.
<mgrwt>
<rscale>  0 0.12499965E+03</rscale>
<asrwt>0</asrwt>
<pdfrwt beam="2">  1        4 0.19506679E-01 0.12499965E+03</pdfrwt>
<pdfrwt beam="1">  1       -4 0.47396642E-02 0.12499965E+03</pdfrwt>
<totfact> 0.97808012E+03</totfact>
</mgrwt>
</event>
<event>
 5    1  0.3514886E-002  0.1249953E+03  0.7818608E-02  0.1235077E+00
          4   -1    0    0  501    0  0.00000000000E+00  0.00000000000E+00  0.75048423110E+03  0.75048530567E+03  0.12700000000E+01 0.  1.
         -4   -1    0    0    0  501 -0.00000000000E+00 -0.00000000000E+00 -0.51260142812E+01  0.52809963464E+01  0.12700000000E+01 0.  1.
         25    2    1    2    0    0  0.00000000000E+00  0.00000000000E+00  0.74535821682E+03  0.75576630202E+03  0.12499532746E+03 0.  0.
    9000005    1    3    3    0    0  0.14298670781E+02 -0.63066656249E+01  0.68504619303E+01  0.17092537730E+02  0.10000000000E+01 0.  0.
    9000005    1    3    3    0    0 -0.14298670781E+02  0.63066656249E+01  0.73850775489E+03  0.73867376429E+03  0.10000000000E+01 0.  0.
<mgrwt>
<rscale>  0 0.12499533E+03</rscale>
<asrwt>0</asrwt>
<pdfrwt beam="1">  1        4 0.11547115E+00 0.12499533E+03</pdfrwt>
<pdfrwt beam="2">  1       -4 0.80062170E-03 0.12499533E+03</pdfrwt>
<totfact> 0.40303947E+03</totfact>
</mgrwt>
</event>
<event>
 5    1  0.3514886E-002  0.1249992E+03  0.7818608E-02  0.1235071E+00
         -4   -1    0    0    0  501 -0.00000000000E+00  0.00000000000E+00  0.23294726050E+02  0.23329319787E+02  0.12700000000E+01 0.  1.
          4   -1    0    0  501    0  0.00000000000E+00 -0.00000000000E+00 -0.16752455510E+03  0.16752936896E+03  0.12700000000E+01 0.  1.
         25    2    1    2    0    0  0.00000000000E+00  0.00000000000E+00 -0.14422982905E+03  0.19085868874E+03  0.12499918192E+03 0.  0.
    9000005    1    3    3    0    0  0.16493643675E+02  0.42888206742E+02 -0.74472807298E+01  0.46560718954E+02  0.10000000000E+01 0.  0.
    9000005    1    3    3    0    0 -0.16493643675E+02 -0.42888206742E+02 -0.13678254832E+03  0.14429796979E+03  0.10000000000E+01 0.  0.
<mgrwt>
<rscale>  0 0.12499918E+03</rscale>
<asrwt>0</asrwt>
<pdfrwt beam="2">  1        4 0.25776039E-01 0.12499918E+03</pdfrwt>
<pdfrwt beam="1">  1       -4 0.35868355E-02 0.12499918E+03</pdfrwt>
<totfact> 0.91699801E+03</totfact>
</mgrwt>
</event>
<event>
 5    1  0.3514886E-002  0.1250019E+03  0.7818608E-02  0.1235066E+00
          4   -1    0    0  501    0  0.00000000000E+00  0.00000000000E+00  0.27204433434E+03  0.27204729874E+03  0.12700000000E+01 0. -1.
         -4   -1    0    0    0  501 -0.00000000000E+00 -0.00000000000E+00 -0.14328181144E+02  0.14384355213E+02  0.12700000000E+01 0. -1.
         25    2    1    2    0    0  0.00000000000E+00  0.00000000000E+00  0.25771615320E+03  0.28643165395E+03  0.12500190704E+03 0.  0.
    9000005    1    3    3    0    0 -0.52896986373E+02  0.18508621526E+02  0.19222351726E+03  0.20022872128E+03  0.10000000000E+01 0.  0.
    9000005    1    3    3    0    0  0.52896986373E+02 -0.18508621526E+02  0.65492635944E+02  0.86202932670E+02  0.10000000000E+01 0.  0.
<mgrwt>
<rscale>  0 0.12500191E+03</rscale>
<asrwt>0</asrwt>
<pdfrwt beam="1">  1        4 0.41857526E-01 0.12500191E+03</pdfrwt>
<pdfrwt beam="2">  1       -4 0.22088846E-02 0.12500191E+03</pdfrwt>
<totfact> 0.77329691E+03</totfact>
</mgrwt>
</event>
<event>
 5    1  0.3514886E-002  0.1249998E+03  0.7818608E-02  0.1235070E+00
         -4   -1    0    0    0  501 -0.00000000000E+00  0.00000000000E+00  0.14643745849E+02  0.14698713974E+02  0.12700000000E+01 0.  1.
          4   -1    0    0  501    0  0.00000000000E+00 -0.00000000000E+00 -0.26619514495E+03  0.26619817447E+03  0.12700000000E+01 0.  1.
         25    2    1    2    0    0  0.00000000000E+00  0.00000000000E+00 -0.25155139910E+03  0.28089688845E+03  0.12499982221E+03 0.  0.
    9000005    1    3    3    0    0 -0.99339059414E+01 -0.16413874020E+02  0.78726893921E+01  0.20762393548E+02  0.10000000000E+01 0.  0.
    9000005    1    3    3    0    0  0.99339059414E+01  0.16413874020E+02 -0.25942408849E+03  0.26013449490E+03  0.10000000000E+01 0.  0.
<mgrwt>
<rscale>  0 0.12499982E+03</rscale>
<asrwt>0</asrwt>
<pdfrwt beam="2">  1        4 0.40957557E-01 0.12499982E+03</pdfrwt>
<pdfrwt beam="1">  1       -4 0.22573455E-02 0.12499982E+03</pdfrwt>
<totfact> 0.78059645E+03</totfact>
</mgrwt>
</event>
<event>
 5    1  0.3514886E-002  0.1250001E+03  0.7818608E-02  0.1235069E+00
          4   -1    0    0  501    0  0.00000000000E+00  0.00000000000E+00  0.11524165415E+03  0.11524865184E+03  0.12700000000E+01 0. -1.
         -4   -1    0    0    0  501 -0.00000000000E+00 -0.00000000000E+00 -0.33876302835E+02  0.33900100203E+02  0.12700000000E+01 0. -1.
         25    2    1    2    0    0  0.00000000000E+00  0.00000000000E+00  0.81365351313E+02  0.14914875204E+03  0.12500011937E+03 0.  0.
    9000005    1    3    3    0    0 -0.23259768985E+02  0.46706349590E+02  0.81717922881E+02  0.96960398437E+02  0.10000000000E+01 0.  0.
    9000005    1    3    3    0    0  0.23259768985E+02 -0.46706349590E+02 -0.35257156746E+00  0.52188353604E+02  0.10000000000E+01 0.  0.
<mgrwt>
<rscale>  0 0.12500012E+03</rscale>
<asrwt>0</asrwt>
<pdfrwt beam="1">  1        4 0.17731854E-01 0.12500012E+03</pdfrwt>
<pdfrwt beam="2">  1       -4 0.52141078E-02 0.12500012E+03</pdfrwt>
<totfact> 0.99473385E+03</totfact>
</mgrwt>
</event>
<event>
 5    1  0.3514886E-002  0.1249998E+03  0.7818608E-02  0.1235070E+00
         -4   -1    0    0    0  501 -0.00000000000E+00  0.00000000000E+00  0.15490046291E+03  0.15490566907E+03  0.12700000000E+01 0.  1.
          4   -1    0    0  501    0  0.00000000000E+00 -0.00000000000E+00 -0.25196101187E+02  0.25228087820E+02  0.12700000000E+01 0.  1.
         25    2    1    2    0    0  0.00000000000E+00  0.00000000000E+00  0.12970436172E+03  0.18013375689E+03  0.12499979568E+03 0.  0.
    9000005    1    3    3    0    0  0.17437020975E+02 -0.44839639077E+02  0.12232539882E+03  0.13145016595E+03  0.10000000000E+01 0.  0.
    9000005    1    3    3    0    0 -0.17437020975E+02  0.44839639077E+02  0.73789629074E+01  0.48683590939E+02  0.10000000000E+01 0.  0.
<mgrwt>
<rscale>  0 0.12499980E+03</rscale>
<asrwt>0</asrwt>
<pdfrwt beam="2">  1        4 0.38791843E-02 0.12499980E+03</pdfrwt>
<pdfrwt beam="1">  1       -4 0.23833701E-01 0.12499980E+03</pdfrwt>
<totfact> 0.93593361E+03</totfact>
</mgrwt>
</event>
<event>
 5    1  0.3514886E-002  0.1249979E+03  0.7818608E-02  0.1235073E+00
          4   -1    0    0  501    0  0.00000000000E+00  0.00000000000E+00  0.43067515290E+01  0.44901011941E+01  0.12700000000E+01 0.  1.
         -4   -1    0    0    0  501 -0.00000000000E+00 -0.00000000000E+00 -0.88788750317E+03  0.88788841145E+03  0.12700000000E+01 0.  1.
         25    2    1    2    0    0  0.00000000000E+00  0.00000000000E+00 -0.88358075164E+03  0.89237851265E+03  0.12499786061E+03 0.  0.
    9000005    1    3    3    0    0 -0.31512100475E+02  0.50750920717E+02 -0.31084040405E+03  0.31653029115E+03  0.10000000000E+01 0.  0.
    9000005    1    3    3    0    0  0.31512100475E+02 -0.50750920717E+02 -0.57274034760E+03  0.57584822149E+03  0.10000000000E+01 0.  0.
<mgrwt>
<rscale>  0 0.12499786E+03</rscale>
<asrwt>0</asrwt>
<pdfrwt beam="1">  1        4 0.67675155E-03 0.12499786E+03</pdfrwt>
<pdfrwt beam="2">  1       -4 0.13661211E+00 0.12499786E+03</pdfrwt>
<totfact> 0.34454636E+03</totfact>
</mgrwt>
</event>
<event>
 5    1  0.3514886E-002  0.1250011E+03  0.7818608E-02  0.1235068E+00
          4   -1    0    0  501    0  0.00000000000E+00  0.00000000000E+00  0.45220838304E+03  0.45221016640E+03  0.12700000000E+01 0.  1.
         -4   -1    0    0    0  501 -0.00000000000E+00 -0.00000000000E+00 -0.85898279145E+01  0.86832046850E+01  0.12700000000E+01 0.  1.
         25    2    1    2    0    0  0.00000000000E+00  0.00000000000E+00  0.44361855513E+03  0.46089337109E+03  0.12500110821E+03 0.  0.
    9000005    1    3    3    0    0 -0.71605183431E+01 -0.36125814710E+01 -0.67024520106E+01  0.10499839560E+02  0.10000000000E+01 0.  0.
    9000005    1    3    3    0    0  0.71605183431E+01  0.36125814710E+01  0.45032100714E+03  0.45039353153E+03  0.10000000000E+01 0.  0.
<mgrwt>
<rscale>  0 0.12500111E+03</rscale>
<asrwt>0</asrwt>
<pdfrwt beam="1">  1        4 0.69577827E-01 0.12500111E+03</pdfrwt>
<pdfrwt beam="2">  1       -4 0.13288323E-02 0.12500111E+03</pdfrwt>
<totfact> 0.59030150E+03</totfact>
</mgrwt>
</event>
<event>
 5    1  0.3514886E-002  0.1250166E+03  0.7818608E-02  0.1235043E+00
         -4   -1    0    0    0  501 -0.00000000000E+00  0.00000000000E+00  0.43603634211E+02  0.43622125308E+02  0.12700000000E+01 0. -1.
          4   -1    0    0  501    0  0.00000000000E+00 -0.00000000000E+00 -0.89567265450E+02  0.89576268845E+02  0.12700000000E+01 0. -1.
         25    2    1    2    0    0  0.00000000000E+00  0.00000000000E+00 -0.45963631240E+02  0.13319839415E+03  0.12501662613E+03 0.  0.
    9000005    1    3    3    0    0  0.60892576791E+01  0.62150313486E+02 -0.20255300022E+02  0.65658340707E+02  0.10000000000E+01 0.  0.
    9000005    1    3    3    0    0 -0.60892576791E+01 -0.62150313486E+02 -0.25708331218E+02  0.67540053446E+02  0.10000000000E+01 0.  0.
<mgrwt>
<rscale>  0 0.12501663E+03</rscale>
<asrwt>0</asrwt>
<pdfrwt beam="2">  1        4 0.13781694E-01 0.12501663E+03</pdfrwt>
<pdfrwt beam="1">  1       -4 0.67103664E-02 0.12501663E+03</pdfrwt>
<totfact> 0.10272332E+04</totfact>
</mgrwt>
</event>
<event>
 5    1  0.3514886E-002  0.1250036E+03  0.7818608E-02  0.1235064E+00
          4   -1    0    0  501    0  0.00000000000E+00  0.00000000000E+00  0.19955066162E+02  0.19995438618E+02  0.12700000000E+01 0. -1.
         -4   -1    0    0    0  501 -0.00000000000E+00 -0.00000000000E+00 -0.19552326896E+03  0.19552739349E+03  0.12700000000E+01 0. -1.
         25    2    1    2    0    0  0.00000000000E+00  0.00000000000E+00 -0.17556820280E+03  0.21552283211E+03  0.12500358925E+03 0.  0.
    9000005    1    3    3    0    0 -0.19668036572E+02  0.29908264094E+02  0.53693793070E+00  0.35813743536E+02  0.10000000000E+01 0.  0.
    9000005    1    3    3    0    0  0.19668036572E+02 -0.29908264094E+02 -0.17610514073E+03  0.17970908857E+03  0.10000000000E+01 0.  0.
<mgrwt>
<rscale>  0 0.12500359E+03</rscale>
<asrwt>0</asrwt>
<pdfrwt beam="1">  1        4 0.30734332E-02 0.12500359E+03</pdfrwt>
<pdfrwt beam="2">  1       -4 0.30083924E-01 0.12500359E+03</pdfrwt>
<totfact> 0.87574775E+03</totfact>
</mgrwt>
</event>
<event>
 5    1  0.3514886E-002  0.1249997E+03  0.7818608E-02  0.1235070E+00
         -4   -1    0    0    0  501 -0.00000000000E+00  0.00000000000E+00  0.22111069388E+02  0.22147512038E+02  0.12700000000E+01 0.  1.
          4   -1    0    0  501    0  0.00000000000E+00 -0.00000000000E+00 -0.17647997204E+03  0.17648454162E+03  0.12700000000E+01 0.  1.
         25    2    1    2    0    0  0.00000000000E+00  0.00000000000E+00 -0.15436890265E+03  0.19863205365E+03  0.12499973854E+03 0.  0.
    9000005    1    3    3    0    0 -0.12089666263E+01 -0.50754744065E+02 -0.13508661430E+03  0.14431527642E+03  0.10000000000E+01 0.  0.
    9000005    1    3    3    0    0  0.12089666263E+01  0.50754744065E+02 -0.19282288353E+02  0.54316777238E+02  0.10000000000E+01 0.  0.
<mgrwt>
<rscale>  0 0.12499974E+03</rscale>
<asrwt>0</asrwt>
<pdfrwt beam="2">  1        4 0.27153919E-01 0.12499974E+03</pdfrwt>
<pdfrwt beam="1">  1       -4 0.34048579E-02 0.12499974E+03</pdfrwt>
<totfact> 0.90367209E+03</totfact>
</mgrwt>
</event>
<event>
 5    1  0.3514886E-002  0.1250003E+03  0.7818608E-02  0.1235069E+00
          4   -1    0    0  501    0  0.00000000000E+00  0.00000000000E+00  0.11287543198E+03  0.11288257635E+03  0.12700000000E+01 0.  1.
         -4   -1    0    0    0  501 -0.00000000000E+00 -0.00000000000E+00 -0.34587023903E+02  0.34610332597E+02  0.12700000000E+01 0.  1.
         25    2    1    2    0    0  0.00000000000E+00  0.00000000000E+00  0.78288408073E+02  0.14749290895E+03  0.12500033341E+03 0.  0.
    9000005    1    3    3    0    0  0.60707300029E+02  0.10178546987E+02  0.51868518937E+02  0.80500449392E+02  0.10000000000E+01 0.  0.
    9000005    1    3    3    0    0 -0.60707300029E+02 -0.10178546987E+02  0.26419889136E+02  0.66992459557E+02  0.10000000000E+01 0.  0.
<mgrwt>
<rscale>  0 0.12500033E+03</rscale>
<asrwt>0</asrwt>
<pdfrwt beam="1">  1        4 0.17367793E-01 0.12500033E+03</pdfrwt>
<pdfrwt beam="2">  1       -4 0.53234232E-02 0.12500033E+03</pdfrwt>
<totfact> 0.99805068E+03</totfact>
</mgrwt>
</event>
<event>
 5    1  0.3514886E-002  0.1250014E+03  0.7818608E-02  0.1235067E+00
          4   -1    0    0  501    0  0.00000000000E+00  0.00000000000E+00  0.45697594143E+03  0.45697770619E+03  0.12700000000E+01 0.  1.
         -4   -1    0    0    0  501 -0.00000000000E+00 -0.00000000000E+00 -0.84992731958E+01  0.85936339727E+01  0.12700000000E+01 0.  1.
         25    2    1    2    0    0  0.00000000000E+00  0.00000000000E+00  0.44847666824E+03  0.46557134016E+03  0.12500140328E+03 0.  0.
    9000005    1    3    3    0    0 -0.44029482503E+02 -0.44108016956E+02  0.24139754890E+03  0.24931483931E+03  0.10000000000E+01 0.  0.
    9000005    1    3    3    0    0  0.44029482503E+02  0.44108016956E+02  0.20707911934E+03  0.21625650084E+03  0.10000000000E+01 0.  0.
<mgrwt>
<rscale>  0 0.12500140E+03</rscale>
<asrwt>0</asrwt>
<pdfrwt beam="1">  1        4 0.70311368E-01 0.12500140E+03</pdfrwt>
<pdfrwt beam="2">  1       -4 0.13149751E-02 0.12500140E+03</pdfrwt>
<totfact> 0.58636388E+03</totfact>
</mgrwt>
</event>
<event>
 5    1  0.3514886E-002  0.1250003E+03  0.7818608E-02  0.1235069E+00
          4   -1    0    0  501    0  0.00000000000E+00  0.00000000000E+00  0.12125646638E+02  0.12191973031E+02  0.12700000000E+01 0.  1.
         -4   -1    0    0    0  501 -0.00000000000E+00 -0.00000000000E+00 -0.32120324391E+03  0.32120575461E+03  0.12700000000E+01 0.  1.
         25    2    1    2    0    0  0.00000000000E+00  0.00000000000E+00 -0.30907759727E+03  0.33339772765E+03  0.12500033466E+03 0.  0.
    9000005    1    3    3    0    0 -0.24451886419E+02 -0.42871228562E+02 -0.52297468399E+02  0.71915660247E+02  0.10000000000E+01 0.  0.
    9000005    1    3    3    0    0  0.24451886419E+02  0.42871228562E+02 -0.25678012887E+03  0.26148206740E+03  0.10000000000E+01 0.  0.
<mgrwt>
<rscale>  0 0.12500033E+03</rscale>
<asrwt>0</asrwt>
<pdfrwt beam="1">  1        4 0.18707795E-02 0.12500033E+03</pdfrwt>
<pdfrwt beam="2">  1       -4 0.49421173E-01 0.12500033E+03</pdfrwt>
<totfact> 0.71589947E+03</totfact>
</mgrwt>
</event>
<event>
 5    1  0.3514886E-002  0.1249992E+03  0.7818608E-02  0.1235070E+00
         -4   -1    0    0    0  501 -0.00000000000E+00  0.00000000000E+00  0.24789548287E+02  0.24822058824E+02  0.12700000000E+01 0. -1.
          4   -1    0    0  501    0  0.00000000000E+00 -0.00000000000E+00 -0.15743625396E+03  0.15744137627E+03  0.12700000000E+01 0. -1.
         25    2    1    2    0    0  0.00000000000E+00  0.00000000000E+00 -0.13264670567E+03  0.18226343509E+03  0.12499924498E+03 0.  0.
    9000005    1    3    3    0    0 -0.43781091674E+02 -0.31392840760E+02 -0.20146663821E+02  0.57525494368E+02  0.10000000000E+01 0.  0.
    9000005    1    3    3    0    0  0.43781091674E+02  0.31392840760E+02 -0.11250004185E+03  0.12473794072E+03  0.10000000000E+01 0.  0.
<mgrwt>
<rscale>  0 0.12499924E+03</rscale>
<asrwt>0</asrwt>
<pdfrwt beam="2">  1        4 0.24223856E-01 0.12499924E+03</pdfrwt>
<pdfrwt beam="1">  1       -4 0.38166716E-02 0.12499924E+03</pdfrwt>
<totfact> 0.93212735E+03</totfact>
</mgrwt>
</event>
<event>
 5    1  0.3514886E-002  0.1250030E+03  0.7818608E-02  0.1235065E+00
         -4   -1    0    0    0  501 -0.00000000000E+00  0.00000000000E+00  0.56126637659E+02  0.56141004221E+02  0.12700000000E+01 0.  1.
          4   -1    0    0  501    0  0.00000000000E+00 -0.00000000000E+00 -0.69571319366E+02  0.69582910102E+02  0.12700000000E+01 0.  1.
         25    2    1    2    0    0  0.00000000000E+00  0.00000000000E+00 -0.13444681707E+02  0.12572391432E+03  0.12500297263E+03 0.  0.
    9000005    1    3    3    0    0  0.53463206532E+02 -0.22280477299E+02 -0.30324718230E+02  0.65385951527E+02  0.10000000000E+01 0.  0.
    9000005    1    3    3    0    0 -0.53463206532E+02  0.22280477299E+02  0.16880036523E+02  0.60337962796E+02  0.10000000000E+01 0.  0.
<mgrwt>
<rscale>  0 0.12500297E+03</rscale>
<asrwt>0</asrwt>
<pdfrwt beam="2">  1        4 0.10705277E-01 0.12500297E+03</pdfrwt>
<pdfrwt beam="1">  1       -4 0.86368640E-02 0.12500297E+03</pdfrwt>
<totfact> 0.10436318E+04</totfact>
</mgrwt>
</event>
<event>
 5    1  0.3514886E-002  0.1250043E+03  0.7818608E-02  0.1235063E+00
         -4   -1    0    0    0  501 -0.00000000000E+00  0.00000000000E+00  0.81870557275E+02  0.81880406988E+02  0.12700000000E+01 0.  1.
          4   -1    0    0  501    0  0.00000000000E+00 -0.00000000000E+00 -0.47694592684E+02  0.47711498313E+02  0.12700000000E+01 0.  1.
         25    2    1    2    0    0  0.00000000000E+00  0.00000000000E+00  0.34175964591E+02  0.12959190530E+03  0.12500426138E+03 0.  0.
    9000005    1    3    3    0    0 -0.30178740497E+02  0.14101233016E+02  0.71904955735E+02  0.79252279524E+02  0.10000000000E+01 0.  0.
    9000005    1    3    3    0    0  0.30178740497E+02 -0.14101233016E+02 -0.37728991144E+02  0.50339625776E+02  0.10000000000E+01 0.  0.
<mgrwt>
<rscale>  0 0.12500426E+03</rscale>
<asrwt>0</asrwt>
<pdfrwt beam="2">  1        4 0.73396878E-02 0.12500426E+03</pdfrwt>
<pdfrwt beam="1">  1       -4 0.12597528E-01 0.12500426E+03</pdfrwt>
<totfact> 0.10352249E+04</totfact>
</mgrwt>
</event>
<event>
 5    1  0.3514886E-002  0.1250038E+03  0.7818608E-02  0.1235063E+00
         -4   -1    0    0    0  501 -0.00000000000E+00  0.00000000000E+00  0.37407101891E+02  0.37428654423E+02  0.12700000000E+01 0.  1.
          4   -1    0    0  501    0  0.00000000000E+00 -0.00000000000E+00 -0.10437626831E+03  0.10438399440E+03  0.12700000000E+01 0.  1.
         25    2    1    2    0    0  0.00000000000E+00  0.00000000000E+00 -0.66969166419E+02  0.14181264882E+03  0.12500383240E+03 0.  0.
    9000005    1    3    3    0    0  0.19041167113E+02 -0.36947157916E+02 -0.86426995930E+02  0.95907685555E+02  0.10000000000E+01 0.  0.
    9000005    1    3    3    0    0 -0.19041167113E+02  0.36947157916E+02  0.19457829511E+02  0.45904963265E+02  0.10000000000E+01 0.  0.
<mgrwt>
<rscale>  0 0.12500383E+03</rscale>
<asrwt>0</asrwt>
<pdfrwt beam="2">  1        4 0.16060140E-01 0.12500383E+03</pdfrwt>
<pdfrwt beam="1">  1       -4 0.57571910E-02 0.12500383E+03</pdfrwt>
<totfact> 0.10095283E+04</totfact>
</mgrwt>
</event>
<event>
 5    1  0.3514886E-002  0.1250033E+03  0.7818608E-02  0.1235064E+00
          4   -1    0    0  501    0  0.00000000000E+00  0.00000000000E+00  0.53378379978E+01  0.54868401190E+01  0.12700000000E+01 0.  1.
         -4   -1    0    0    0  501 -0.00000000000E+00 -0.00000000000E+00 -0.72161886037E+03  0.72161997793E+03  0.12700000000E+01 0.  1.
         25    2    1    2    0    0  0.00000000000E+00  0.00000000000E+00 -0.71628102238E+03  0.72710681805E+03  0.12500328730E+03 0.  0.
    9000005    1    3    3    0    0  0.15390124116E+02  0.54853019974E+02 -0.20873552911E+03  0.21637289764E+03  0.10000000000E+01 0.  0.
    9000005    1    3    3    0    0 -0.15390124116E+02 -0.54853019974E+02 -0.50754549327E+03  0.51073392041E+03  0.10000000000E+01 0.  0.
<mgrwt>
<rscale>  0 0.12500329E+03</rscale>
<asrwt>0</asrwt>
<pdfrwt beam="1">  1        4 0.83275408E-03 0.12500329E+03</pdfrwt>
<pdfrwt beam="2">  1       -4 0.11102976E+00 0.12500329E+03</pdfrwt>
<totfact> 0.41690799E+03</totfact>
</mgrwt>
</event>
<event>
 5    1  0.3514886E-002  0.1250073E+03  0.7818608E-02  0.1235058E+00
         -4   -1    0    0    0  501 -0.00000000000E+00  0.00000000000E+00  0.97151508160E+02  0.97159808758E+02  0.12700000000E+01 0.  1.
          4   -1    0    0  501    0  0.00000000000E+00 -0.00000000000E+00 -0.40192469056E+02  0.40212528754E+02  0.12700000000E+01 0.  1.
         25    2    1    2    0    0  0.00000000000E+00  0.00000000000E+00  0.56959039105E+02  0.13737233751E+03  0.12500730770E+03 0.  0.
    9000005    1    3    3    0    0 -0.14736887268E+02 -0.18466409327E+02 -0.35101230494E+02  0.42323521852E+02  0.10000000000E+01 0.  0.
    9000005    1    3    3    0    0  0.14736887268E+02  0.18466409327E+02  0.92060269598E+02  0.95048815660E+02  0.10000000000E+01 0.  0.
<mgrwt>
<rscale>  0 0.12500731E+03</rscale>
<asrwt>0</asrwt>
<pdfrwt beam="2">  1        4 0.61856384E-02 0.12500731E+03</pdfrwt>
<pdfrwt beam="1">  1       -4 0.14948567E-01 0.12500731E+03</pdfrwt>
<totfact> 0.10186628E+04</totfact>
</mgrwt>
</event>
<event>
 5    1  0.3514886E-002  0.1250152E+03  0.7818608E-02  0.1235045E+00
          4   -1    0    0  501    0  0.00000000000E+00  0.00000000000E+00  0.30864867589E+03  0.30865128872E+03  0.12700000000E+01 0. -1.
         -4   -1    0    0    0  501 -0.00000000000E+00 -0.00000000000E+00 -0.12624532772E+02  0.12688251562E+02  0.12700000000E+01 0. -1.
         25    2    1    2    0    0  0.00000000000E+00  0.00000000000E+00  0.29602414311E+03  0.32133954028E+03  0.12501522643E+03 0.  0.
    9000005    1    3    3    0    0 -0.60965680710E+02  0.20498923544E+01  0.11303329143E+03  0.12844664750E+03  0.10000000000E+01 0.  0.
    9000005    1    3    3    0    0  0.60965680710E+02 -0.20498923544E+01  0.18299085168E+03  0.19289289277E+03  0.10000000000E+01 0.  0.
<mgrwt>
<rscale>  0 0.12501523E+03</rscale>
<asrwt>0</asrwt>
<pdfrwt beam="1">  1        4 0.47489515E-01 0.12501523E+03</pdfrwt>
<pdfrwt beam="2">  1       -4 0.19473382E-02 0.12501523E+03</pdfrwt>
<totfact> 0.72972454E+03</totfact>
</mgrwt>
</event>
<event>
 5    1  0.3514886E-002  0.1250061E+03  0.7818608E-02  0.1235060E+00
          4   -1    0    0  501    0  0.00000000000E+00  0.00000000000E+00  0.26817309531E+03  0.26817610249E+03  0.12700000000E+01 0. -1.
         -4   -1    0    0    0  501 -0.00000000000E+00 -0.00000000000E+00 -0.14536791942E+02  0.14592162964E+02  0.12700000000E+01 0. -1.
         25    2    1    2    0    0  0.00000000000E+00  0.00000000000E+00  0.25363630337E+03  0.28276826546E+03  0.12500607010E+03 0.  0.
    9000005    1    3    3    0    0 -0.22822333839E+02 -0.57981648444E+02  0.13764263049E+03  0.15109342874E+03  0.10000000000E+01 0.  0.
    9000005    1    3    3    0    0  0.22822333839E+02  0.57981648444E+02  0.11599367288E+03  0.13167483672E+03  0.10000000000E+01 0.  0.
<mgrwt>
<rscale>  0 0.12500607E+03</rscale>
<asrwt>0</asrwt>
<pdfrwt beam="1">  1        4 0.41261882E-01 0.12500607E+03</pdfrwt>
<pdfrwt beam="2">  1       -4 0.22409206E-02 0.12500607E+03</pdfrwt>
<totfact> 0.77801989E+03</totfact>
</mgrwt>
</event>
<event>
 5    1  0.3514886E-002  0.1250024E+03  0.7818608E-02  0.1235066E+00
          4   -1    0    0  501    0  0.00000000000E+00  0.00000000000E+00  0.72707441873E+02  0.72718532739E+02  0.12700000000E+01 0. -1.
         -4   -1    0    0    0  501 -0.00000000000E+00 -0.00000000000E+00 -0.53704959825E+02  0.53719974030E+02  0.12700000000E+01 0. -1.
         25    2    1    2    0    0  0.00000000000E+00  0.00000000000E+00  0.19002482048E+02  0.12643850677E+03  0.12500240666E+03 0.  0.
    9000005    1    3    3    0    0  0.28592056244E+02 -0.11025381030E+02 -0.45588551116E+02  0.54939791590E+02  0.10000000000E+01 0.  0.
    9000005    1    3    3    0    0 -0.28592056244E+02  0.11025381030E+02  0.64591033163E+02  0.71498715179E+02  0.10000000000E+01 0.  0.
<mgrwt>
<rscale>  0 0.12500241E+03</rscale>
<asrwt>0</asrwt>
<pdfrwt beam="1">  1        4 0.11187768E-01 0.12500241E+03</pdfrwt>
<pdfrwt beam="2">  1       -4 0.82643096E-02 0.12500241E+03</pdfrwt>
<totfact> 0.10420803E+04</totfact>
</mgrwt>
</event>
<event>
 5    1  0.3514886E-002  0.1250019E+03  0.7818608E-02  0.1235066E+00
          4   -1    0    0  501    0  0.00000000000E+00  0.00000000000E+00  0.45258273093E+02  0.45276088429E+02  0.12700000000E+01 0.  1.
         -4   -1    0    0    0  501 -0.00000000000E+00 -0.00000000000E+00 -0.86273348836E+02  0.86282695944E+02  0.12700000000E+01 0.  1.
         25    2    1    2    0    0  0.00000000000E+00  0.00000000000E+00 -0.41015075743E+02  0.13155878437E+03  0.12500190922E+03 0.  0.
    9000005    1    3    3    0    0  0.28042706762E+02 -0.14477747054E+02 -0.77275426375E+02  0.83477482495E+02  0.10000000000E+01 0.  0.
    9000005    1    3    3    0    0 -0.28042706762E+02  0.14477747054E+02  0.36260350632E+02  0.48081301878E+02  0.10000000000E+01 0.  0.
<mgrwt>
<rscale>  0 0.12500191E+03</rscale>
<asrwt>0</asrwt>
<pdfrwt beam="1">  1        4 0.69649007E-02 0.12500191E+03</pdfrwt>
<pdfrwt beam="2">  1       -4 0.13274912E-01 0.12500191E+03</pdfrwt>
<totfact> 0.10310681E+04</totfact>
</mgrwt>
</event>
<event>
 5    1  0.3514886E-002  0.1250026E+03  0.7818608E-02  0.1235065E+00
          4   -1    0    0  501    0  0.00000000000E+00  0.00000000000E+00  0.40919781054E+02  0.40939484382E+02  0.12700000000E+01 0. -1.
         -4   -1    0    0    0  501 -0.00000000000E+00 -0.00000000000E+00 -0.95418237695E+02  0.95426689060E+02  0.12700000000E+01 0. -1.
         25    2    1    2    0    0  0.00000000000E+00  0.00000000000E+00 -0.54498456642E+02  0.13636617344E+03  0.12500260590E+03 0.  0.
    9000005    1    3    3    0    0 -0.90312395257E+01 -0.19928840110E+02  0.36610204038E+02  0.42661797843E+02  0.10000000000E+01 0.  0.
    9000005    1    3    3    0    0  0.90312395257E+01  0.19928840110E+02 -0.91108660680E+02  0.93704375599E+02  0.10000000000E+01 0.  0.
<mgrwt>
<rscale>  0 0.12500261E+03</rscale>
<asrwt>0</asrwt>
<pdfrwt beam="1">  1        4 0.62975167E-02 0.12500261E+03</pdfrwt>
<pdfrwt beam="2">  1       -4 0.14681895E-01 0.12500261E+03</pdfrwt>
<totfact> 0.10208755E+04</totfact>
</mgrwt>
</event>
<event>
 5    1  0.3514886E-002  0.1249979E+03  0.7818608E-02  0.1235073E+00
          4   -1    0    0  501    0  0.00000000000E+00  0.00000000000E+00  0.38601583001E+02  0.38622468981E+02  0.12700000000E+01 0.  1.
         -4   -1    0    0    0  501 -0.00000000000E+00 -0.00000000000E+00 -0.10113832954E+03  0.10114630296E+03  0.12700000000E+01 0.  1.
         25    2    1    2    0    0  0.00000000000E+00  0.00000000000E+00 -0.62536746543E+02  0.13976877194E+03  0.12499785975E+03 0.  0.
    9000005    1    3    3    0    0 -0.47798346617E+02 -0.38379358098E+02 -0.44846612696E+02  0.75959698115E+02  0.10000000000E+01 0.  0.
    9000005    1    3    3    0    0  0.47798346617E+02  0.38379358098E+02 -0.17690133847E+02  0.63809073828E+02  0.10000000000E+01 0.  0.
<mgrwt>
<rscale>  0 0.12499786E+03</rscale>
<asrwt>0</asrwt>
<pdfrwt beam="1">  1        4 0.59409251E-02 0.12499786E+03</pdfrwt>
<pdfrwt beam="2">  1       -4 0.15561963E-01 0.12499786E+03</pdfrwt>
<totfact> 0.10138869E+04</totfact>
</mgrwt>
</event>
<event>
 5    1  0.3514886E-002  0.1249859E+03  0.7818608E-02  0.1235091E+00
         -4   -1    0    0    0  501 -0.00000000000E+00  0.00000000000E+00  0.35115247347E+03  0.35115477005E+03  0.12700000000E+01 0. -1.
          4   -1    0    0  501    0  0.00000000000E+00 -0.00000000000E+00 -0.11082982425E+02  0.11155509824E+02  0.12700000000E+01 0. -1.
         25    2    1    2    0    0  0.00000000000E+00  0.00000000000E+00  0.34006949105E+03  0.36231027987E+03  0.12498591984E+03 0.  0.
    9000005    1    3    3    0    0 -0.36471047376E+02  0.17442338572E+02  0.31922476057E+02  0.51521034046E+02  0.10000000000E+01 0.  0.
    9000005    1    3    3    0    0  0.36471047376E+02 -0.17442338572E+02  0.30814701499E+03  0.31078924583E+03  0.10000000000E+01 0.  0.
<mgrwt>
<rscale>  0 0.12498592E+03</rscale>
<asrwt>0</asrwt>
<pdfrwt beam="2">  1        4 0.17108302E-02 0.12498592E+03</pdfrwt>
<pdfrwt beam="1">  1       -4 0.54029205E-01 0.12498592E+03</pdfrwt>
<totfact> 0.68412478E+03</totfact>
</mgrwt>
</event>
<event>
 5    1  0.3514886E-002  0.1249983E+03  0.7818608E-02  0.1235072E+00
         -4   -1    0    0    0  501 -0.00000000000E+00  0.00000000000E+00  0.10896756558E+01  0.16734076117E+01  0.12700000000E+01 0.  1.
          4   -1    0    0  501    0  0.00000000000E+00 -0.00000000000E+00 -0.28267954156E+04  0.28267957009E+04  0.12700000000E+01 0.  1.
         25    2    1    2    0    0  0.00000000000E+00  0.00000000000E+00 -0.28257057399E+04  0.28284691085E+04  0.12499827592E+03 0.  0.
    9000005    1    3    3    0    0 -0.51816167215E+02 -0.15724895240E+01 -0.22024894512E+04  0.22030996733E+04  0.10000000000E+01 0.  0.
    9000005    1    3    3    0    0  0.51816167215E+02  0.15724895240E+01 -0.62321628872E+03  0.62536943516E+03  0.10000000000E+01 0.  0.
<mgrwt>
<rscale>  0 0.12499828E+03</rscale>
<asrwt>0</asrwt>
<pdfrwt beam="2">  1        4 0.43493190E+00 0.12499828E+03</pdfrwt>
<pdfrwt beam="1">  1       -4 0.21256907E-03 0.12499828E+03</pdfrwt>
<totfact> 0.25719842E+02</totfact>
</mgrwt>
</event>
<event>
 5    1  0.3514886E-002  0.1250002E+03  0.7818608E-02  0.1235069E+00
         -4   -1    0    0    0  501 -0.00000000000E+00  0.00000000000E+00  0.24669046655E+02  0.24701715788E+02  0.12700000000E+01 0.  1.
          4   -1    0    0  501    0  0.00000000000E+00 -0.00000000000E+00 -0.15820667439E+03  0.15821177175E+03  0.12700000000E+01 0.  1.
         25    2    1    2    0    0  0.00000000000E+00  0.00000000000E+00 -0.13353762773E+03  0.18291348754E+03  0.12500018361E+03 0.  0.
    9000005    1    3    3    0    0  0.53481198748E+02 -0.26911344551E+02 -0.40559607073E+02  0.72322477909E+02  0.10000000000E+01 0.  0.
    9000005    1    3    3    0    0 -0.53481198748E+02  0.26911344551E+02 -0.92978020662E+02  0.11059100963E+03  0.10000000000E+01 0.  0.
<mgrwt>
<rscale>  0 0.12500018E+03</rscale>
<asrwt>0</asrwt>
<pdfrwt beam="2">  1        4 0.24342393E-01 0.12500018E+03</pdfrwt>
<pdfrwt beam="1">  1       -4 0.37981432E-02 0.12500018E+03</pdfrwt>
<totfact> 0.93094796E+03</totfact>
</mgrwt>
</event>
<event>
 5    1  0.3514886E-002  0.1249948E+03  0.7818608E-02  0.1235077E+00
          4   -1    0    0  501    0  0.00000000000E+00  0.00000000000E+00  0.94146927843E+02  0.94155493319E+02  0.12700000000E+01 0.  1.
         -4   -1    0    0    0  501 -0.00000000000E+00 -0.00000000000E+00 -0.41467379169E+02  0.41486822428E+02  0.12700000000E+01 0.  1.
         25    2    1    2    0    0  0.00000000000E+00  0.00000000000E+00  0.52679548673E+02  0.13564231575E+03  0.12499481178E+03 0.  0.
    9000005    1    3    3    0    0  0.20286341934E+02 -0.35696122702E+02 -0.24781205585E+02  0.47967249194E+02  0.10000000000E+01 0.  0.
    9000005    1    3    3    0    0 -0.20286341934E+02  0.35696122702E+02  0.77460754258E+02  0.87675066554E+02  0.10000000000E+01 0.  0.
<mgrwt>
<rscale>  0 0.12499481E+03</rscale>
<asrwt>0</asrwt>
<pdfrwt beam="1">  1        4 0.14486297E-01 0.12499481E+03</pdfrwt>
<pdfrwt beam="2">  1       -4 0.63817514E-02 0.12499481E+03</pdfrwt>
<totfact> 0.10225747E+04</totfact>
</mgrwt>
</event>
<event>
 5    1  0.3514886E-002  0.1250033E+03  0.7818608E-02  0.1235064E+00
          4   -1    0    0  501    0  0.00000000000E+00  0.00000000000E+00  0.23246250152E+02  0.23280915921E+02  0.12700000000E+01 0. -1.
         -4   -1    0    0    0  501 -0.00000000000E+00 -0.00000000000E+00 -0.16788432863E+03  0.16788913216E+03  0.12700000000E+01 0. -1.
         25    2    1    2    0    0  0.00000000000E+00  0.00000000000E+00 -0.14463807848E+03  0.19117004808E+03  0.12500325412E+03 0.  0.
    9000005    1    3    3    0    0 -0.58950482702E+02 -0.18181005430E+02 -0.87592734870E+02  0.10714100789E+03  0.10000000000E+01 0.  0.
    9000005    1    3    3    0    0  0.58950482702E+02  0.18181005430E+02 -0.57045343605E+02  0.84029040196E+02  0.10000000000E+01 0.  0.
<mgrwt>
<rscale>  0 0.12500325E+03</rscale>
<asrwt>0</asrwt>
<pdfrwt beam="1">  1        4 0.35793824E-02 0.12500325E+03</pdfrwt>
<pdfrwt beam="2">  1       -4 0.25831394E-01 0.12500325E+03</pdfrwt>
<totfact> 0.91637449E+03</totfact>
</mgrwt>
</event>
<event>
 5    1  0.3514886E-002  0.1250060E+03  0.7818608E-02  0.1235060E+00
         -4   -1    0    0    0  501 -0.00000000000E+00  0.00000000000E+00  0.96930616220E+01  0.97759062806E+01  0.12700000000E+01 0. -1.
          4   -1    0    0  501    0  0.00000000000E+00 -0.00000000000E+00 -0.40123413852E+03  0.40123614844E+03  0.12700000000E+01 0. -1.
         25    2    1    2    0    0  0.00000000000E+00  0.00000000000E+00 -0.39154107690E+03  0.41101205472E+03  0.12500597676E+03 0.  0.
    9000005    1    3    3    0    0 -0.31531553663E+02 -0.40642857338E+02 -0.79081448906E+02  0.94344879511E+02  0.10000000000E+01 0.  0.
    9000005    1    3    3    0    0  0.31531553663E+02  0.40642857338E+02 -0.31245962799E+03  0.31666717521E+03  0.10000000000E+01 0.  0.
<mgrwt>
<rscale>  0 0.12500598E+03</rscale>
<asrwt>0</asrwt>
<pdfrwt beam="2">  1        4 0.61734844E-01 0.12500598E+03</pdfrwt>
<pdfrwt beam="1">  1       -4 0.14977678E-02 0.12500598E+03</pdfrwt>
<totfact> 0.63487311E+03</totfact>
</mgrwt>
</event>
<event>
 5    1  0.3514886E-002  0.1249943E+03  0.7818608E-02  0.1235078E+00
         -4   -1    0    0    0  501 -0.00000000000E+00  0.00000000000E+00  0.12227915830E+03  0.12228575327E+03  0.12700000000E+01 0. -1.
          4   -1    0    0  501    0  0.00000000000E+00 -0.00000000000E+00 -0.31922328490E+02  0.31947581383E+02  0.12700000000E+01 0. -1.
         25    2    1    2    0    0  0.00000000000E+00  0.00000000000E+00  0.90356829807E+02  0.15423333466E+03  0.12499425917E+03 0.  0.
    9000005    1    3    3    0    0 -0.49559550982E+02 -0.36091375977E+02  0.30260965809E+02  0.68377354184E+02  0.10000000000E+01 0.  0.
    9000005    1    3    3    0    0  0.49559550982E+02  0.36091375977E+02  0.60095863998E+02  0.85855980473E+02  0.10000000000E+01 0.  0.
<mgrwt>
<rscale>  0 0.12499426E+03</rscale>
<asrwt>0</asrwt>
<pdfrwt beam="2">  1        4 0.49135773E-02 0.12499426E+03</pdfrwt>
<pdfrwt beam="1">  1       -4 0.18814628E-01 0.12499426E+03</pdfrwt>
<totfact> 0.98478930E+03</totfact>
</mgrwt>
</event>
<event>
 5    1  0.3514886E-002  0.1250037E+03  0.7818608E-02  0.1235063E+00
         -4   -1    0    0    0  501 -0.00000000000E+00  0.00000000000E+00  0.21567445541E+04  0.21567449280E+04  0.12700000000E+01 0.  1.
          4   -1    0    0  501    0  0.00000000000E+00 -0.00000000000E+00 -0.15882483945E+01  0.20335763970E+01  0.12700000000E+01 0.  1.
         25    2    1    2    0    0  0.00000000000E+00  0.00000000000E+00  0.21551563057E+04  0.21587785044E+04  0.12500371639E+03 0.  0.
    9000005    1    3    3    0    0  0.41063592120E+02  0.46147879727E+02  0.91407410169E+03  0.91615954330E+03  0.10000000000E+01 0.  0.
    9000005    1    3    3    0    0 -0.41063592120E+02 -0.46147879727E+02  0.12410822040E+04  0.12426189611E+04  0.10000000000E+01 0.  0.
<mgrwt>
<rscale>  0 0.12500372E+03</rscale>
<asrwt>0</asrwt>
<pdfrwt beam="2">  1        4 0.27863011E-03 0.12500372E+03</pdfrwt>
<pdfrwt beam="1">  1       -4 0.33184181E+00 0.12500372E+03</pdfrwt>
<totfact> 0.79278576E+02</totfact>
</mgrwt>
</event>
<event>
 5    1  0.3514886E-002  0.1250047E+03  0.7818608E-02  0.1235062E+00
         -4   -1    0    0    0  501 -0.00000000000E+00  0.00000000000E+00  0.77979738955E+01  0.79007149598E+01  0.12700000000E+01 0. -1.
          4   -1    0    0  501    0  0.00000000000E+00 -0.00000000000E+00 -0.49758670223E+03  0.49758832295E+03  0.12700000000E+01 0. -1.
         25    2    1    2    0    0  0.00000000000E+00  0.00000000000E+00 -0.48978872833E+03  0.50548903791E+03  0.12500467609E+03 0.  0.
    9000005    1    3    3    0    0 -0.51074489659E+02 -0.29125561883E+02 -0.15924292234E+03  0.16975338042E+03  0.10000000000E+01 0.  0.
    9000005    1    3    3    0    0  0.51074489659E+02  0.29125561883E+02 -0.33054580599E+03  0.33573565749E+03  0.10000000000E+01 0.  0.
<mgrwt>
<rscale>  0 0.12500468E+03</rscale>
<asrwt>0</asrwt>
<pdfrwt beam="2">  1        4 0.76559803E-01 0.12500468E+03</pdfrwt>
<pdfrwt beam="1">  1       -4 0.12077165E-02 0.12500468E+03</pdfrwt>
<totfact> 0.55435298E+03</totfact>
</mgrwt>
</event>
<event>
 5    1  0.3514886E-002  0.1250029E+03  0.7818608E-02  0.1235065E+00
         -4   -1    0    0    0  501 -0.00000000000E+00  0.00000000000E+00  0.11538562962E+03  0.11539261858E+03  0.12700000000E+01 0.  1.
          4   -1    0    0  501    0  0.00000000000E+00 -0.00000000000E+00 -0.33835497447E+02  0.33859323495E+02  0.12700000000E+01 0.  1.
         25    2    1    2    0    0  0.00000000000E+00  0.00000000000E+00  0.81550132176E+02  0.14925194208E+03  0.12500287259E+03 0.  0.
    9000005    1    3    3    0    0 -0.44012521522E+02  0.26066479280E+02  0.83640172469E+02  0.98047140924E+02  0.10000000000E+01 0.  0.
    9000005    1    3    3    0    0  0.44012521522E+02 -0.26066479280E+02 -0.20900402931E+01  0.51204801154E+02  0.10000000000E+01 0.  0.
<mgrwt>
<rscale>  0 0.12500287E+03</rscale>
<asrwt>0</asrwt>
<pdfrwt beam="2">  1        4 0.52078315E-02 0.12500287E+03</pdfrwt>
<pdfrwt beam="1">  1       -4 0.17754006E-01 0.12500287E+03</pdfrwt>
<totfact> 0.99446591E+03</totfact>
</mgrwt>
</event>
<event>
 5    1  0.3514886E-002  0.1250011E+03  0.7818608E-02  0.1235068E+00
         -4   -1    0    0    0  501 -0.00000000000E+00  0.00000000000E+00  0.23250818087E+01  0.26493216900E+01  0.12700000000E+01 0. -1.
          4   -1    0    0  501    0  0.00000000000E+00 -0.00000000000E+00 -0.15702419788E+04  0.15702424924E+04  0.12700000000E+01 0. -1.
         25    2    1    2    0    0  0.00000000000E+00  0.00000000000E+00 -0.15679168970E+04  0.15728918141E+04  0.12500105162E+03 0.  0.
    9000005    1    3    3    0    0 -0.49522907006E+02  0.15785071454E+02 -0.12205059369E+04  0.12216126345E+04  0.10000000000E+01 0.  0.
    9000005    1    3    3    0    0  0.49522907006E+02 -0.15785071454E+02 -0.34741096008E+03  0.35127917954E+03  0.10000000000E+01 0.  0.
<mgrwt>
<rscale>  0 0.12500105E+03</rscale>
<asrwt>0</asrwt>
<pdfrwt beam="2">  1        4 0.24159988E+00 0.12500105E+03</pdfrwt>
<pdfrwt beam="1">  1       -4 0.38268719E-03 0.12500105E+03</pdfrwt>
<totfact> 0.16540959E+03</totfact>
</mgrwt>
</event>
<event>
 5    1  0.3514886E-002  0.1249955E+03  0.7818608E-02  0.1235076E+00
          4   -1    0    0  501    0  0.00000000000E+00  0.00000000000E+00  0.22856086768E+02  0.22891343393E+02  0.12700000000E+01 0.  1.
         -4   -1    0    0    0  501 -0.00000000000E+00 -0.00000000000E+00 -0.17072481419E+03  0.17072953781E+03  0.12700000000E+01 0.  1.
         25    2    1    2    0    0  0.00000000000E+00  0.00000000000E+00 -0.14786872742E+03  0.19362088120E+03  0.12499554027E+03 0.  0.
    9000005    1    3    3    0    0 -0.40074824077E+02  0.47437870683E+02 -0.63132426526E+02  0.88560975485E+02  0.10000000000E+01 0.  0.
    9000005    1    3    3    0    0  0.40074824077E+02 -0.47437870683E+02 -0.84736300898E+02  0.10505990572E+03  0.10000000000E+01 0.  0.
<mgrwt>
<rscale>  0 0.12499554E+03</rscale>
<asrwt>0</asrwt>
<pdfrwt beam="1">  1        4 0.35193966E-02 0.12499554E+03</pdfrwt>
<pdfrwt beam="2">  1       -4 0.26268431E-01 0.12499554E+03</pdfrwt>
<totfact> 0.91230193E+03</totfact>
</mgrwt>
</event>
<event>
 5    1  0.3514886E-002  0.1249975E+03  0.7818608E-02  0.1235073E+00
          4   -1    0    0  501    0  0.00000000000E+00  0.00000000000E+00  0.26481033738E+02  0.26511470119E+02  0.12700000000E+01 0.  1.
         -4   -1    0    0    0  501 -0.00000000000E+00 -0.00000000000E+00 -0.14738748817E+03  0.14739295970E+03  0.12700000000E+01 0.  1.
         25    2    1    2    0    0  0.00000000000E+00  0.00000000000E+00 -0.12090645443E+03  0.17390442982E+03  0.12499751992E+03 0.  0.
    9000005    1    3    3    0    0  0.76562641982E+01  0.10836467974E+02 -0.14541199614E+03  0.14601950569E+03  0.10000000000E+01 0.  0.
    9000005    1    3    3    0    0 -0.76562641982E+01 -0.10836467974E+02  0.24505541706E+02  0.27884924134E+02  0.10000000000E+01 0.  0.
<mgrwt>
<rscale>  0 0.12499752E+03</rscale>
<asrwt>0</asrwt>
<pdfrwt beam="1">  1        4 0.40767674E-02 0.12499752E+03</pdfrwt>
<pdfrwt beam="2">  1       -4 0.22677760E-01 0.12499752E+03</pdfrwt>
<totfact> 0.94731147E+03</totfact>
</mgrwt>
</event>
<event>
 5    1  0.3514886E-002  0.1250085E+03  0.7818608E-02  0.1235056E+00
          4   -1    0    0  501    0  0.00000000000E+00  0.00000000000E+00  0.35638891884E+02  0.35661513074E+02  0.12700000000E+01 0. -1.
         -4   -1    0    0    0  501 -0.00000000000E+00 -0.00000000000E+00 -0.10956014426E+03  0.10956750481E+03  0.12700000000E+01 0. -1.
         25    2    1    2    0    0  0.00000000000E+00  0.00000000000E+00 -0.73921252381E+02  0.14522901789E+03  0.12500846405E+03 0.  0.
    9000005    1    3    3    0    0 -0.40679636552E+02  0.74456799462E+01  0.17474783688E+02  0.44907004407E+02  0.10000000000E+01 0.  0.
    9000005    1    3    3    0    0  0.40679636552E+02 -0.74456799462E+01 -0.91396036069E+02  0.10032201348E+03  0.10000000000E+01 0.  0.
<mgrwt>
<rscale>  0 0.12500846E+03</rscale>
<asrwt>0</asrwt>
<pdfrwt beam="1">  1        4 0.54852128E-02 0.12500846E+03</pdfrwt>
<pdfrwt beam="2">  1       -4 0.16857713E-01 0.12500846E+03</pdfrwt>
<totfact> 0.10024427E+04</totfact>
</mgrwt>
</event>
<event>
 5    1  0.3514886E-002  0.1250059E+03  0.7818608E-02  0.1235060E+00
         -4   -1    0    0    0  501 -0.00000000000E+00  0.00000000000E+00  0.53403631303E+01  0.54892967093E+01  0.12700000000E+01 0. -1.
          4   -1    0    0  501    0  0.00000000000E+00 -0.00000000000E+00 -0.72131720403E+03  0.72131832205E+03  0.12700000000E+01 0. -1.
         25    2    1    2    0    0  0.00000000000E+00  0.00000000000E+00 -0.71597684090E+03  0.72680761876E+03  0.12500591181E+03 0.  0.
    9000005    1    3    3    0    0 -0.89009398590E+00  0.62102908332E+02 -0.39829377589E+03  0.40310854048E+03  0.10000000000E+01 0.  0.
    9000005    1    3    3    0    0  0.89009398590E+00 -0.62102908332E+02 -0.31768306500E+03  0.32369907828E+03  0.10000000000E+01 0.  0.
<mgrwt>
<rscale>  0 0.12500591E+03</rscale>
<asrwt>0</asrwt>
<pdfrwt beam="2">  1        4 0.11098334E+00 0.12500591E+03</pdfrwt>
<pdfrwt beam="1">  1       -4 0.83313733E-03 0.12500591E+03</pdfrwt>
<totfact> 0.41703373E+03</totfact>
</mgrwt>
</event>
<event>
 5    1  0.3514886E-002  0.1250082E+03  0.7818608E-02  0.1235056E+00
         -4   -1    0    0    0  501 -0.00000000000E+00  0.00000000000E+00  0.17003384897E+03  0.17003859178E+03  0.12700000000E+01 0. -1.
          4   -1    0    0  501    0  0.00000000000E+00 -0.00000000000E+00 -0.22953766119E+02  0.22988872939E+02  0.12700000000E+01 0. -1.
         25    2    1    2    0    0  0.00000000000E+00  0.00000000000E+00  0.14708008285E+03  0.19302746472E+03  0.12500820519E+03 0.  0.
    9000005    1    3    3    0    0 -0.37624850734E+02 -0.21016520370E+02  0.36537268843E+01  0.43262839035E+02  0.10000000000E+01 0.  0.
    9000005    1    3    3    0    0  0.37624850734E+02  0.21016520370E+02  0.14342635597E+03  0.14976462569E+03  0.10000000000E+01 0.  0.
<mgrwt>
<rscale>  0 0.12500821E+03</rscale>
<asrwt>0</asrwt>
<pdfrwt beam="2">  1        4 0.35344141E-02 0.12500821E+03</pdfrwt>
<pdfrwt beam="1">  1       -4 0.26162118E-01 0.12500821E+03</pdfrwt>
<totfact> 0.91306421E+03</totfact>
</mgrwt>
</event>
<event>
 5    1  0.3514886E-002  0.1250146E+03  0.7818608E-02  0.1235046E+00
          4   -1    0    0  501    0  0.00000000000E+00  0.00000000000E+00  0.17053170957E+03  0.17053643854E+03  0.12700000000E+01 0.  1.
         -4   -1    0    0    0  501 -0.00000000000E+00 -0.00000000000E+00 -0.22889014044E+02  0.22924220028E+02  0.12700000000E+01 0.  1.
         25    2    1    2    0    0  0.00000000000E+00  0.00000000000E+00  0.14764269553E+03  0.19346065857E+03  0.12501464263E+03 0.  0.
    9000005    1    3    3    0    0 -0.91383009400E+01  0.13200605381E+02  0.16729367222E+03  0.16806527688E+03  0.10000000000E+01 0.  0.
    9000005    1    3    3    0    0  0.91383009400E+01 -0.13200605381E+02 -0.19650976690E+02  0.25395381693E+02  0.10000000000E+01 0.  0.
<mgrwt>
<rscale>  0 0.12501464E+03</rscale>
<asrwt>0</asrwt>
<pdfrwt beam="1">  1        4 0.26238720E-01 0.12501464E+03</pdfrwt>
<pdfrwt beam="2">  1       -4 0.35244587E-02 0.12501464E+03</pdfrwt>
<totfact> 0.91218721E+03</totfact>
</mgrwt>
</event>
<event>
 5    1  0.3514886E-002  0.1250020E+03  0.7818608E-02  0.1235066E+00
          4   -1    0    0  501    0  0.00000000000E+00  0.00000000000E+00  0.14255082911E+03  0.14255648627E+03  0.12700000000E+01 0.  1.
         -4   -1    0    0    0  501 -0.00000000000E+00 -0.00000000000E+00 -0.27382484399E+02  0.27411919886E+02  0.12700000000E+01 0.  1.
         25    2    1    2    0    0  0.00000000000E+00  0.00000000000E+00  0.11516834471E+03  0.16996840616E+03  0.12500204586E+03 0.  0.
    9000005    1    3    3    0    0  0.49751391446E+02 -0.37735176636E+02  0.54189387783E+02  0.82683941941E+02  0.10000000000E+01 0.  0.
    9000005    1    3    3    0    0 -0.49751391446E+02  0.37735176636E+02  0.60978956925E+02  0.87284464221E+02  0.10000000000E+01 0.  0.
<mgrwt>
<rscale>  0 0.12500205E+03</rscale>
<asrwt>0</asrwt>
<pdfrwt beam="1">  1        4 0.21933596E-01 0.12500205E+03</pdfrwt>
<pdfrwt beam="2">  1       -4 0.42153893E-02 0.12500205E+03</pdfrwt>
<totfact> 0.95450142E+03</totfact>
</mgrwt>
</event>
<event>
 5    1  0.3514886E-002  0.1250173E+03  0.7818608E-02  0.1235042E+00
         -4   -1    0    0    0  501 -0.00000000000E+00  0.00000000000E+00  0.25472710803E+01  0.28463116408E+01  0.12700000000E+01 0.  1.
          4   -1    0    0  501    0  0.00000000000E+00 -0.00000000000E+00 -0.14485824866E+04  0.14485830433E+04  0.12700000000E+01 0.  1.
         25    2    1    2    0    0  0.00000000000E+00  0.00000000000E+00 -0.14460352155E+04  0.14514293550E+04  0.12501731044E+03 0.  0.
    9000005    1    3    3    0    0  0.53529466407E+00 -0.19048546686E+02 -0.31945315578E+02  0.37210708924E+02  0.10000000000E+01 0.  0.
    9000005    1    3    3    0    0 -0.53529466407E+00  0.19048546686E+02 -0.14140898999E+04  0.14142186460E+04  0.10000000000E+01 0.  0.
<mgrwt>
<rscale>  0 0.12501731E+03</rscale>
<asrwt>0</asrwt>
<pdfrwt beam="2">  1        4 0.22288127E+00 0.12501731E+03</pdfrwt>
<pdfrwt beam="1">  1       -4 0.41493496E-03 0.12501731E+03</pdfrwt>
<totfact> 0.18896409E+03</totfact>
</mgrwt>
</event>
<event>
 5    1  0.3514886E-002  0.1250007E+03  0.7818608E-02  0.1235068E+00
         -4   -1    0    0    0  501 -0.00000000000E+00  0.00000000000E+00  0.55253330631E+02  0.55267924204E+02  0.12700000000E+01 0. -1.
          4   -1    0    0  501    0  0.00000000000E+00 -0.00000000000E+00 -0.70668289153E+02  0.70679699998E+02  0.12700000000E+01 0. -1.
         25    2    1    2    0    0  0.00000000000E+00  0.00000000000E+00 -0.15414958522E+02  0.12594762420E+03  0.12500073238E+03 0.  0.
    9000005    1    3    3    0    0  0.49103955272E+02  0.21967679922E+02 -0.39752777176E+02  0.66895894326E+02  0.10000000000E+01 0.  0.
    9000005    1    3    3    0    0 -0.49103955272E+02 -0.21967679922E+02  0.24337818654E+02  0.59051729876E+02  0.10000000000E+01 0.  0.
<mgrwt>
<rscale>  0 0.12500073E+03</rscale>
<asrwt>0</asrwt>
<pdfrwt beam="2">  1        4 0.10874045E-01 0.12500073E+03</pdfrwt>
<pdfrwt beam="1">  1       -4 0.85025127E-02 0.12500073E+03</pdfrwt>
<totfact> 0.10431933E+04</totfact>
</mgrwt>
</event>
<event>
 5    1  0.3514886E-002  0.1249999E+03  0.7818608E-02  0.1235069E+00
          4   -1    0    0  501    0  0.00000000000E+00  0.00000000000E+00  0.57968863887E+03  0.57969003005E+03  0.12700000000E+01 0.  1.
         -4   -1    0    0    0  501 -0.00000000000E+00 -0.00000000000E+00 -0.66772714678E+01  0.67969739042E+01  0.12700000000E+01 0.  1.
         25    2    1    2    0    0  0.00000000000E+00  0.00000000000E+00  0.57301136740E+03  0.58648700395E+03  0.12499991452E+03 0.  0.
    9000005    1    3    3    0    0 -0.17540615561E+02  0.59354006871E+02  0.24596123109E+03  0.25363063404E+03  0.10000000000E+01 0.  0.
    9000005    1    3    3    0    0  0.17540615561E+02 -0.59354006871E+02  0.32705013632E+03  0.33285636991E+03  0.10000000000E+01 0.  0.
<mgrwt>
<rscale>  0 0.12499991E+03</rscale>
<asrwt>0</asrwt>
<pdfrwt beam="1">  1        4 0.89192184E-01 0.12499991E+03</pdfrwt>
<pdfrwt beam="2">  1       -4 0.10365874E-02 0.12499991E+03</pdfrwt>
<totfact> 0.49731944E+03</totfact>
</mgrwt>
</event>
<event>
 5    1  0.3514886E-002  0.1250034E+03  0.7818608E-02  0.1235064E+00
         -4   -1    0    0    0  501 -0.00000000000E+00  0.00000000000E+00  0.17373969507E+02  0.17420324809E+02  0.12700000000E+01 0. -1.
          4   -1    0    0  501    0  0.00000000000E+00 -0.00000000000E+00 -0.22449796667E+03  0.22450155887E+03  0.12700000000E+01 0. -1.
         25    2    1    2    0    0  0.00000000000E+00  0.00000000000E+00 -0.20712399716E+03  0.24192188368E+03  0.12500339038E+03 0.  0.
    9000005    1    3    3    0    0 -0.53259652415E+00  0.43142287815E+02 -0.19105744312E+03  0.19587109850E+03  0.10000000000E+01 0.  0.
    9000005    1    3    3    0    0  0.53259652415E+00 -0.43142287815E+02 -0.16066554036E+02  0.46050785178E+02  0.10000000000E+01 0.  0.
<mgrwt>
<rscale>  0 0.12500339E+03</rscale>
<asrwt>0</asrwt>
<pdfrwt beam="2">  1        4 0.34541989E-01 0.12500339E+03</pdfrwt>
<pdfrwt beam="1">  1       -4 0.26767607E-02 0.12500339E+03</pdfrwt>
<totfact> 0.83505657E+03</totfact>
</mgrwt>
</event>
<event>
 5    1  0.3514886E-002  0.1250001E+03  0.7818608E-02  0.1235069E+00
          4   -1    0    0  501    0  0.00000000000E+00  0.00000000000E+00  0.35777119856E+03  0.35777345265E+03  0.12700000000E+01 0.  1.
         -4   -1    0    0    0  501 -0.00000000000E+00 -0.00000000000E+00 -0.10879079265E+02  0.10952956937E+02  0.12700000000E+01 0.  1.
         25    2    1    2    0    0  0.00000000000E+00  0.00000000000E+00  0.34689211930E+03  0.36872640959E+03  0.12500009078E+03 0.  0.
    9000005    1    3    3    0    0  0.28339973736E+02  0.48146894838E+02  0.90852558530E+02  0.10666051277E+03  0.10000000000E+01 0.  0.
    9000005    1    3    3    0    0 -0.28339973736E+02 -0.48146894838E+02  0.25603956077E+03  0.26206589681E+03  0.10000000000E+01 0.  0.
<mgrwt>
<rscale>  0 0.12500009E+03</rscale>
<asrwt>0</asrwt>
<pdfrwt beam="1">  1        4 0.55047580E-01 0.12500009E+03</pdfrwt>
<pdfrwt beam="2">  1       -4 0.16795608E-02 0.12500009E+03</pdfrwt>
<totfact> 0.67712251E+03</totfact>
</mgrwt>
</event>
<event>
 5    1  0.3514886E-002  0.1250031E+03  0.7818608E-02  0.1235064E+00
          4   -1    0    0  501    0  0.00000000000E+00  0.00000000000E+00  0.57537193552E+03  0.57537333713E+03  0.12700000000E+01 0.  1.
         -4   -1    0    0    0  501 -0.00000000000E+00 -0.00000000000E+00 -0.67286110890E+01  0.68474160956E+01  0.12700000000E+01 0.  1.
         25    2    1    2    0    0  0.00000000000E+00  0.00000000000E+00  0.56864332443E+03  0.58222075323E+03  0.12500310024E+03 0.  0.
    9000005    1    3    3    0    0 -0.69640258743E+00  0.45728262471E+02  0.85953601036E+02  0.97368272534E+02  0.10000000000E+01 0.  0.
    9000005    1    3    3    0    0  0.69640258743E+00 -0.45728262471E+02  0.48268972339E+03  0.48485248069E+03  0.10000000000E+01 0.  0.
<mgrwt>
<rscale>  0 0.12500310E+03</rscale>
<asrwt>0</asrwt>
<pdfrwt beam="1">  1        4 0.88528015E-01 0.12500310E+03</pdfrwt>
<pdfrwt beam="2">  1       -4 0.10444175E-02 0.12500310E+03</pdfrwt>
<totfact> 0.50006064E+03</totfact>
</mgrwt>
</event>
<event>
 5    1  0.3514886E-002  0.1250007E+03  0.7818608E-02  0.1235068E+00
         -4   -1    0    0    0  501 -0.00000000000E+00  0.00000000000E+00  0.22770709123E+03  0.22771063281E+03  0.12700000000E+01 0. -1.
          4   -1    0    0  501    0  0.00000000000E+00 -0.00000000000E+00 -0.17127710390E+02  0.17174730367E+02  0.12700000000E+01 0. -1.
         25    2    1    2    0    0  0.00000000000E+00  0.00000000000E+00  0.21057938084E+03  0.24488536318E+03  0.12500066186E+03 0.  0.
    9000005    1    3    3    0    0 -0.19585485171E+02  0.35223179552E+02  0.19885520293E+03  0.20290060458E+03  0.10000000000E+01 0.  0.
    9000005    1    3    3    0    0  0.19585485171E+02 -0.35223179552E+02  0.11724177912E+02  0.41984758602E+02  0.10000000000E+01 0.  0.
<mgrwt>
<rscale>  0 0.12500066E+03</rscale>
<asrwt>0</asrwt>
<pdfrwt beam="2">  1        4 0.26389219E-02 0.12500066E+03</pdfrwt>
<pdfrwt beam="1">  1       -4 0.35035747E-01 0.12500066E+03</pdfrwt>
<totfact> 0.83073893E+03</totfact>
</mgrwt>
</event>
<event>
 5    1  0.3514886E-002  0.1250030E+03  0.7818608E-02  0.1235065E+00
         -4   -1    0    0    0  501 -0.00000000000E+00  0.00000000000E+00  0.41520503516E+02  0.41539921909E+02  0.12700000000E+01 0.  1.
          4   -1    0    0  501    0  0.00000000000E+00 -0.00000000000E+00 -0.94038788585E+02  0.94047363911E+02  0.12700000000E+01 0.  1.
         25    2    1    2    0    0  0.00000000000E+00  0.00000000000E+00 -0.52518285069E+02  0.13558728582E+03  0.12500296720E+03 0.  0.
    9000005    1    3    3    0    0  0.46306880352E+02  0.22322059273E+02  0.12286187658E+02  0.52863521499E+02  0.10000000000E+01 0.  0.
    9000005    1    3    3    0    0 -0.46306880352E+02 -0.22322059273E+02 -0.64804472727E+02  0.82723764321E+02  0.10000000000E+01 0.  0.
<mgrwt>
<rscale>  0 0.12500297E+03</rscale>
<asrwt>0</asrwt>
<pdfrwt beam="2">  1        4 0.14469659E-01 0.12500297E+03</pdfrwt>
<pdfrwt beam="1">  1       -4 0.63899232E-02 0.12500297E+03</pdfrwt>
<totfact> 0.10225023E+04</totfact>
</mgrwt>
</event>
<event>
 5    1  0.3514886E-002  0.1249998E+03  0.7818608E-02  0.1235070E+00
          4   -1    0    0  501    0  0.00000000000E+00  0.00000000000E+00  0.16484516349E+02  0.16533365637E+02  0.12700000000E+01 0.  1.
         -4   -1    0    0    0  501 -0.00000000000E+00 -0.00000000000E+00 -0.23656290890E+03  0.23656631791E+03  0.12700000000E+01 0.  1.
         25    2    1    2    0    0  0.00000000000E+00  0.00000000000E+00 -0.22007839256E+03  0.25309968355E+03  0.12499980377E+03 0.  0.
    9000005    1    3    3    0    0 -0.54422351158E+02 -0.30679667739E+02 -0.11304479258E+03  0.12916330535E+03  0.10000000000E+01 0.  0.
    9000005    1    3    3    0    0  0.54422351158E+02  0.30679667739E+02 -0.10703359998E+03  0.12393637820E+03  0.10000000000E+01 0.  0.
<mgrwt>
<rscale>  0 0.12499980E+03</rscale>
<asrwt>0</asrwt>
<pdfrwt beam="1">  1        4 0.25400995E-02 0.12499980E+03</pdfrwt>
<pdfrwt beam="2">  1       -4 0.36398311E-01 0.12499980E+03</pdfrwt>
<totfact> 0.81884640E+03</totfact>
</mgrwt>
</event>
<event>
 5    1  0.3514886E-002  0.1250062E+03  0.7818608E-02  0.1235060E+00
         -4   -1    0    0    0  501 -0.00000000000E+00  0.00000000000E+00  0.23587416102E+02  0.23621581199E+02  0.12700000000E+01 0. -1.
          4   -1    0    0  501    0  0.00000000000E+00 -0.00000000000E+00 -0.16546729243E+03  0.16547216613E+03  0.12700000000E+01 0. -1.
         25    2    1    2    0    0  0.00000000000E+00  0.00000000000E+00 -0.14187987633E+03  0.18909374733E+03  0.12500618374E+03 0.  0.
    9000005    1    3    3    0    0 -0.47479537833E+02 -0.40493446864E+02 -0.76094308826E+02  0.98414275324E+02  0.10000000000E+01 0.  0.
    9000005    1    3    3    0    0  0.47479537833E+02  0.40493446864E+02 -0.65785567499E+02  0.90679472004E+02  0.10000000000E+01 0.  0.
<mgrwt>
<rscale>  0 0.12500618E+03</rscale>
<asrwt>0</asrwt>
<pdfrwt beam="2">  1        4 0.25459509E-01 0.12500618E+03</pdfrwt>
<pdfrwt beam="1">  1       -4 0.36318363E-02 0.12500618E+03</pdfrwt>
<totfact> 0.91992495E+03</totfact>
</mgrwt>
</event>
<event>
 5    1  0.3514886E-002  0.1249996E+03  0.7818608E-02  0.1235070E+00
         -4   -1    0    0    0  501 -0.00000000000E+00  0.00000000000E+00  0.18136526416E+02  0.18180937556E+02  0.12700000000E+01 0. -1.
          4   -1    0    0  501    0  0.00000000000E+00 -0.00000000000E+00 -0.21506924216E+03  0.21507299185E+03  0.12700000000E+01 0. -1.
         25    2    1    2    0    0  0.00000000000E+00  0.00000000000E+00 -0.19693271575E+03  0.23325392941E+03  0.12499960421E+03 0.  0.
    9000005    1    3    3    0    0  0.52511954565E+02  0.50097033737E-01 -0.35248786128E+02  0.63253338295E+02  0.10000000000E+01 0.  0.
    9000005    1    3    3    0    0 -0.52511954565E+02 -0.50097033737E-01 -0.16168392962E+03  0.17000059111E+03  0.10000000000E+01 0.  0.
<mgrwt>
<rscale>  0 0.12499960E+03</rscale>
<asrwt>0</asrwt>
<pdfrwt beam="2">  1        4 0.33091279E-01 0.12499960E+03</pdfrwt>
<pdfrwt beam="1">  1       -4 0.27939397E-02 0.12499960E+03</pdfrwt>
<totfact> 0.84813194E+03</totfact>
</mgrwt>
</event>
<event>
 5    1  0.3514886E-002  0.1249999E+03  0.7818608E-02  0.1235069E+00
          4   -1    0    0  501    0  0.00000000000E+00  0.00000000000E+00  0.37313538977E+02  0.37335145520E+02  0.12700000000E+01 0. -1.
         -4   -1    0    0    0  501 -0.00000000000E+00 -0.00000000000E+00 -0.10463124559E+03  0.10463895285E+03  0.12700000000E+01 0. -1.
         25    2    1    2    0    0  0.00000000000E+00  0.00000000000E+00 -0.67317706616E+02  0.14197409837E+03  0.12499988394E+03 0.  0.
    9000005    1    3    3    0    0 -0.62274806032E+02  0.21162620121E+01 -0.28257832328E+02  0.68426128921E+02  0.10000000000E+01 0.  0.
    9000005    1    3    3    0    0  0.62274806032E+02 -0.21162620121E+01 -0.39059874288E+02  0.73547969453E+02  0.10000000000E+01 0.  0.
<mgrwt>
<rscale>  0 0.12499988E+03</rscale>
<asrwt>0</asrwt>
<pdfrwt beam="1">  1        4 0.57427994E-02 0.12499988E+03</pdfrwt>
<pdfrwt beam="2">  1       -4 0.16099370E-01 0.12499988E+03</pdfrwt>
<totfact> 0.10092861E+04</totfact>
</mgrwt>
</event>
<event>
 5    1  0.3514886E-002  0.1250037E+03  0.7818608E-02  0.1235064E+00
          4   -1    0    0  501    0  0.00000000000E+00  0.00000000000E+00  0.17347113301E+02  0.17393540176E+02  0.12700000000E+01 0. -1.
         -4   -1    0    0    0  501 -0.00000000000E+00 -0.00000000000E+00 -0.22484557091E+03  0.22484915757E+03  0.12700000000E+01 0. -1.
         25    2    1    2    0    0  0.00000000000E+00  0.00000000000E+00 -0.20749845761E+03  0.24224269774E+03  0.12500365874E+03 0.  0.
    9000005    1    3    3    0    0  0.56225105842E+01  0.62144291877E+02 -0.11044910989E+03  0.12686028344E+03  0.10000000000E+01 0.  0.
    9000005    1    3    3    0    0 -0.56225105842E+01 -0.62144291877E+02 -0.97049347719E+02  0.11538241430E+03  0.10000000000E+01 0.  0.
<mgrwt>
<rscale>  0 0.12500366E+03</rscale>
<asrwt>0</asrwt>
<pdfrwt beam="1">  1        4 0.26726340E-02 0.12500366E+03</pdfrwt>
<pdfrwt beam="2">  1       -4 0.34595472E-01 0.12500366E+03</pdfrwt>
<totfact> 0.83457682E+03</totfact>
</mgrwt>
</event>
<event>
 5    1  0.3514886E-002  0.1250009E+03  0.7818608E-02  0.1235068E+00
          4   -1    0    0  501    0  0.00000000000E+00  0.00000000000E+00  0.13120916232E+04  0.13120922378E+04  0.12700000000E+01 0.  1.
         -4   -1    0    0    0  501 -0.00000000000E+00 -0.00000000000E+00 -0.28410785272E+01  0.31120133672E+01  0.12700000000E+01 0.  1.
         25    2    1    2    0    0  0.00000000000E+00  0.00000000000E+00  0.13092505446E+04  0.13152042512E+04  0.12500093455E+03 0.  0.
    9000005    1    3    3    0    0 -0.38360322039E+02 -0.47598839908E+02  0.51819167462E+03  0.52178613963E+03  0.10000000000E+01 0.  0.
    9000005    1    3    3    0    0  0.38360322039E+02  0.47598839908E+02  0.79105887003E+03  0.79341811154E+03  0.10000000000E+01 0.  0.
<mgrwt>
<rscale>  0 0.12500093E+03</rscale>
<asrwt>0</asrwt>
<pdfrwt beam="1">  1        4 0.20188174E+00 0.12500093E+03</pdfrwt>
<pdfrwt beam="2">  1       -4 0.45797606E-03 0.12500093E+03</pdfrwt>
<totfact> 0.21871954E+03</totfact>
</mgrwt>
</event>
<event>
 5    1  0.3514886E-002  0.1250004E+03  0.7818608E-02  0.1235069E+00
          4   -1    0    0  501    0  0.00000000000E+00  0.00000000000E+00  0.17394256331E+02  0.17440557712E+02  0.12700000000E+01 0. -1.
         -4   -1    0    0    0  501 -0.00000000000E+00 -0.00000000000E+00 -0.22422620587E+03  0.22422980243E+03  0.12700000000E+01 0. -1.
         25    2    1    2    0    0  0.00000000000E+00  0.00000000000E+00 -0.20683194953E+03  0.24167036014E+03  0.12500043049E+03 0.  0.
    9000005    1    3    3    0    0  0.35535819008E+02 -0.24627526238E+02 -0.16179663568E+02  0.46174570863E+02  0.10000000000E+01 0.  0.
    9000005    1    3    3    0    0 -0.35535819008E+02  0.24627526238E+02 -0.19065228597E+03  0.19549578928E+03  0.10000000000E+01 0.  0.
<mgrwt>
<rscale>  0 0.12500043E+03</rscale>
<asrwt>0</asrwt>
<pdfrwt beam="1">  1        4 0.26798779E-02 0.12500043E+03</pdfrwt>
<pdfrwt beam="2">  1       -4 0.34500176E-01 0.12500043E+03</pdfrwt>
<totfact> 0.83548423E+03</totfact>
</mgrwt>
</event>
<event>
 5    1  0.3514886E-002  0.1250023E+03  0.7818608E-02  0.1235066E+00
         -4   -1    0    0    0  501 -0.00000000000E+00  0.00000000000E+00  0.46837401084E+01  0.48528673383E+01  0.12700000000E+01 0.  1.
          4   -1    0    0  501    0  0.00000000000E+00 -0.00000000000E+00 -0.81907228184E+03  0.81907326643E+03  0.12700000000E+01 0.  1.
         25    2    1    2    0    0  0.00000000000E+00  0.00000000000E+00 -0.81438854173E+03  0.82392613377E+03  0.12500230798E+03 0.  0.
    9000005    1    3    3    0    0  0.31343614159E+01 -0.45147651830E+02 -0.12313658269E+03  0.13119356952E+03  0.10000000000E+01 0.  0.
    9000005    1    3    3    0    0 -0.31343614159E+01  0.45147651830E+02 -0.69125195904E+03  0.69273256425E+03  0.10000000000E+01 0.  0.
<mgrwt>
<rscale>  0 0.12500231E+03</rscale>
<asrwt>0</asrwt>
<pdfrwt beam="2">  1        4 0.12602409E+00 0.12500231E+03</pdfrwt>
<pdfrwt beam="1">  1       -4 0.73366157E-03 0.12500231E+03</pdfrwt>
<totfact> 0.37216813E+03</totfact>
</mgrwt>
</event>
<event>
 5    1  0.3514886E-002  0.1250008E+03  0.7818608E-02  0.1235068E+00
          4   -1    0    0  501    0  0.00000000000E+00  0.00000000000E+00  0.51877888795E+03  0.51878044247E+03  0.12700000000E+01 0. -1.
         -4   -1    0    0    0  501 -0.00000000000E+00 -0.00000000000E+00 -0.74746751522E+01  0.75817985089E+01  0.12700000000E+01 0. -1.
         25    2    1    2    0    0  0.00000000000E+00  0.00000000000E+00  0.51130421280E+03  0.52636224098E+03  0.12500084278E+03 0.  0.
    9000005    1    3    3    0    0 -0.44471215108E+01 -0.59104729898E+02  0.17226448245E+03  0.18217902706E+03  0.10000000000E+01 0.  0.
    9000005    1    3    3    0    0  0.44471215108E+01  0.59104729898E+02  0.33903973035E+03  0.34418321392E+03  0.10000000000E+01 0.  0.
<mgrwt>
<rscale>  0 0.12500084E+03</rscale>
<asrwt>0</asrwt>
<pdfrwt beam="1">  1        4 0.79820472E-01 0.12500084E+03</pdfrwt>
<pdfrwt beam="2">  1       -4 0.11583102E-02 0.12500084E+03</pdfrwt>
<totfact> 0.53874476E+03</totfact>
</mgrwt>
</event>
<event>
 5    1  0.3514886E-002  0.1249997E+03  0.7818608E-02  0.1235070E+00
         -4   -1    0    0    0  501 -0.00000000000E+00  0.00000000000E+00  0.12809885282E+03  0.12810514820E+03  0.12700000000E+01 0.  1.
          4   -1    0    0  501    0  0.00000000000E+00 -0.00000000000E+00 -0.30473628951E+02  0.30500081335E+02  0.12700000000E+01 0.  1.
         25    2    1    2    0    0  0.00000000000E+00  0.00000000000E+00  0.97625223874E+02  0.15860522953E+03  0.12499973800E+03 0.  0.
    9000005    1    3    3    0    0  0.39535498892E+02  0.41770916023E+02  0.79824597189E+02  0.98391216145E+02  0.10000000000E+01 0.  0.
    9000005    1    3    3    0    0 -0.39535498892E+02 -0.41770916023E+02  0.17800626685E+02  0.60214013389E+02  0.10000000000E+01 0.  0.
<mgrwt>
<rscale>  0 0.12499974E+03</rscale>
<asrwt>0</asrwt>
<pdfrwt beam="2">  1        4 0.46907696E-02 0.12499974E+03</pdfrwt>
<pdfrwt beam="1">  1       -4 0.19710035E-01 0.12499974E+03</pdfrwt>
<totfact> 0.97612936E+03</totfact>
</mgrwt>
</event>
<event>
 5    1  0.3514886E-002  0.1250040E+03  0.7818608E-02  0.1235063E+00
          4   -1    0    0  501    0  0.00000000000E+00  0.00000000000E+00  0.18569739680E+03  0.18570173956E+03  0.12700000000E+01 0. -1.
         -4   -1    0    0    0  501 -0.00000000000E+00 -0.00000000000E+00 -0.21013147941E+02  0.21051491310E+02  0.12700000000E+01 0. -1.
         25    2    1    2    0    0  0.00000000000E+00  0.00000000000E+00  0.16468424886E+03  0.20675323087E+03  0.12500398656E+03 0.  0.
    9000005    1    3    3    0    0  0.53313409055E+02  0.32176428049E+02  0.91071758854E+02  0.11032999306E+03  0.10000000000E+01 0.  0.
    9000005    1    3    3    0    0 -0.53313409055E+02 -0.32176428049E+02  0.73612490002E+02  0.96423237818E+02  0.10000000000E+01 0.  0.
<mgrwt>
<rscale>  0 0.12500399E+03</rscale>
<asrwt>0</asrwt>
<pdfrwt beam="1">  1        4 0.28572113E-01 0.12500399E+03</pdfrwt>
<pdfrwt beam="2">  1       -4 0.32360756E-02 0.12500399E+03</pdfrwt>
<totfact> 0.89000946E+03</totfact>
</mgrwt>
</event>
<event>
 5    1  0.3514886E-002  0.1249685E+03  0.7818608E-02  0.1235119E+00
          4   -1    0    0  501    0  0.00000000000E+00  0.00000000000E+00  0.73376623275E+01  0.74467569070E+01  0.12700000000E+01 0. -1.
         -4   -1    0    0    0  501 -0.00000000000E+00 -0.00000000000E+00 -0.52805150737E+03  0.52805303459E+03  0.12700000000E+01 0. -1.
         25    2    1    2    0    0  0.00000000000E+00  0.00000000000E+00 -0.52071384504E+03  0.53549979150E+03  0.12496846911E+03 0.  0.
    9000005    1    3    3    0    0  0.18282501817E+01  0.71769352601E+01 -0.52618483271E+03  0.52623790160E+03  0.10000000000E+01 0.  0.
    9000005    1    3    3    0    0 -0.18282501817E+01 -0.71769352601E+01  0.54709876682E+01  0.92618899000E+01  0.10000000000E+01 0.  0.
<mgrwt>
<rscale>  0 0.12496847E+03</rscale>
<asrwt>0</asrwt>
<pdfrwt beam="1">  1        4 0.11373809E-02 0.12496847E+03</pdfrwt>
<pdfrwt beam="2">  1       -4 0.81247174E-01 0.12496847E+03</pdfrwt>
<totfact> 0.53248398E+03</totfact>
</mgrwt>
</event>
<event>
 5    1  0.3514886E-002  0.1250035E+03  0.7818608E-02  0.1235064E+00
          4   -1    0    0  501    0  0.00000000000E+00  0.00000000000E+00  0.15923389734E+02  0.15973955071E+02  0.12700000000E+01 0.  1.
         -4   -1    0    0    0  501 -0.00000000000E+00 -0.00000000000E+00 -0.24488799210E+03  0.24489128522E+03  0.12700000000E+01 0.  1.
         25    2    1    2    0    0  0.00000000000E+00  0.00000000000E+00 -0.22896460237E+03  0.26086524029E+03  0.12500353776E+03 0.  0.
    9000005    1    3    3    0    0  0.27277017349E+01 -0.57005869053E+02 -0.61344623603E+02  0.83793032576E+02  0.10000000000E+01 0.  0.
    9000005    1    3    3    0    0 -0.27277017349E+01  0.57005869053E+02 -0.16761997876E+03  0.17707220771E+03  0.10000000000E+01 0.  0.
<mgrwt>
<rscale>  0 0.12500354E+03</rscale>
<asrwt>0</asrwt>
<pdfrwt beam="1">  1        4 0.24538954E-02 0.12500354E+03</pdfrwt>
<pdfrwt beam="2">  1       -4 0.37679216E-01 0.12500354E+03</pdfrwt>
<totfact> 0.80778430E+03</totfact>
</mgrwt>
</event>
<event>
 5    1  0.3514886E-002  0.1250007E+03  0.7818608E-02  0.1235068E+00
          4   -1    0    0  501    0  0.00000000000E+00  0.00000000000E+00  0.27474623805E+02  0.27503960682E+02  0.12700000000E+01 0.  1.
         -4   -1    0    0    0  501 -0.00000000000E+00 -0.00000000000E+00 -0.14207021605E+03  0.14207589236E+03  0.12700000000E+01 0.  1.
         25    2    1    2    0    0  0.00000000000E+00  0.00000000000E+00 -0.11459559225E+03  0.16957985304E+03  0.12500070718E+03 0.  0.
    9000005    1    3    3    0    0  0.58990836329E+02 -0.11552128385E+02 -0.80476892692E+02  0.10045347529E+03  0.10000000000E+01 0.  0.
    9000005    1    3    3    0    0 -0.58990836329E+02  0.11552128385E+02 -0.34118699556E+02  0.69126377747E+02  0.10000000000E+01 0.  0.
<mgrwt>
<rscale>  0 0.12500071E+03</rscale>
<asrwt>0</asrwt>
<pdfrwt beam="1">  1        4 0.42295586E-02 0.12500071E+03</pdfrwt>
<pdfrwt beam="2">  1       -4 0.21859649E-01 0.12500071E+03</pdfrwt>
<totfact> 0.95525485E+03</totfact>
</mgrwt>
</event>
<event>
 5    1  0.3514886E-002  0.1249988E+03  0.7818608E-02  0.1235071E+00
          4   -1    0    0  501    0  0.00000000000E+00  0.00000000000E+00  0.25182548744E+02  0.25214552568E+02  0.12700000000E+01 0. -1.
         -4   -1    0    0    0  501 -0.00000000000E+00 -0.00000000000E+00 -0.15498118654E+03  0.15498638999E+03  0.12700000000E+01 0. -1.
         25    2    1    2    0    0  0.00000000000E+00  0.00000000000E+00 -0.12979863779E+03  0.18020094255E+03  0.12499877329E+03 0.  0.
    9000005    1    3    3    0    0  0.46537819380E+02 -0.40564446170E+02 -0.78871184696E+02  0.10016439837E+03  0.10000000000E+01 0.  0.
    9000005    1    3    3    0    0 -0.46537819380E+02  0.40564446170E+02 -0.50927453099E+02  0.80036544184E+02  0.10000000000E+01 0.  0.
<mgrwt>
<rscale>  0 0.12499877E+03</rscale>
<asrwt>0</asrwt>
<pdfrwt beam="1">  1        4 0.38771005E-02 0.12499877E+03</pdfrwt>
<pdfrwt beam="2">  1       -4 0.23846121E-01 0.12499877E+03</pdfrwt>
<totfact> 0.93583420E+03</totfact>
</mgrwt>
</event>
<event>
 5    1  0.3514886E-002  0.1249998E+03  0.7818608E-02  0.1235070E+00
         -4   -1    0    0    0  501 -0.00000000000E+00  0.00000000000E+00  0.64217239347E+01  0.65461009994E+01  0.12700000000E+01 0.  1.
          4   -1    0    0  501    0  0.00000000000E+00 -0.00000000000E+00 -0.60232579640E+03  0.60232713529E+03  0.12700000000E+01 0.  1.
         25    2    1    2    0    0  0.00000000000E+00  0.00000000000E+00 -0.59590407246E+03  0.60887323629E+03  0.12499981716E+03 0.  0.
    9000005    1    3    3    0    0 -0.15469442094E+02  0.58921422769E+02 -0.23007183897E+03  0.23800228736E+03  0.10000000000E+01 0.  0.
    9000005    1    3    3    0    0  0.15469442094E+02 -0.58921422769E+02 -0.36583223349E+03  0.37087094893E+03  0.10000000000E+01 0.  0.
<mgrwt>
<rscale>  0 0.12499982E+03</rscale>
<asrwt>0</asrwt>
<pdfrwt beam="2">  1        4 0.92675133E-01 0.12499982E+03</pdfrwt>
<pdfrwt beam="1">  1       -4 0.99762846E-03 0.12499982E+03</pdfrwt>
<totfact> 0.48312465E+03</totfact>
</mgrwt>
</event>
<event>
 5    1  0.3514886E-002  0.1250008E+03  0.7818608E-02  0.1235068E+00
         -4   -1    0    0    0  501 -0.00000000000E+00  0.00000000000E+00  0.29087167013E+02  0.29114879097E+02  0.12700000000E+01 0.  1.
          4   -1    0    0  501    0  0.00000000000E+00 -0.00000000000E+00 -0.13420161155E+03  0.13420762066E+03  0.12700000000E+01 0.  1.
         25    2    1    2    0    0  0.00000000000E+00  0.00000000000E+00 -0.10511444454E+03  0.16332249975E+03  0.12500076990E+03 0.  0.
    9000005    1    3    3    0    0 -0.22477921992E+02  0.46803046625E+02 -0.71171374071E+01  0.52415987975E+02  0.10000000000E+01 0.  0.
    9000005    1    3    3    0    0  0.22477921992E+02 -0.46803046625E+02 -0.97997307128E+02  0.11090651178E+03  0.10000000000E+01 0.  0.
<mgrwt>
<rscale>  0 0.12500077E+03</rscale>
<asrwt>0</asrwt>
<pdfrwt beam="2">  1        4 0.20648995E-01 0.12500077E+03</pdfrwt>
<pdfrwt beam="1">  1       -4 0.44775428E-02 0.12500077E+03</pdfrwt>
<totfact> 0.96704358E+03</totfact>
</mgrwt>
</event>
<event>
 5    1  0.3514886E-002  0.1250007E+03  0.7818608E-02  0.1235068E+00
          4   -1    0    0  501    0  0.00000000000E+00  0.00000000000E+00  0.13296134069E+03  0.13296740585E+03  0.12700000000E+01 0.  1.
         -4   -1    0    0    0  501 -0.00000000000E+00 -0.00000000000E+00 -0.29358729056E+02  0.29386185050E+02  0.12700000000E+01 0.  1.
         25    2    1    2    0    0  0.00000000000E+00  0.00000000000E+00  0.10360261163E+03  0.16235359090E+03  0.12500074936E+03 0.  0.
    9000005    1    3    3    0    0  0.48337227077E+02 -0.39579859917E+02  0.49855672683E+02  0.79935229601E+02  0.10000000000E+01 0.  0.
    9000005    1    3    3    0    0 -0.48337227077E+02  0.39579859917E+02  0.53746938951E+02  0.82418361299E+02  0.10000000000E+01 0.  0.
<mgrwt>
<rscale>  0 0.12500075E+03</rscale>
<asrwt>0</asrwt>
<pdfrwt beam="1">  1        4 0.20458169E-01 0.12500075E+03</pdfrwt>
<pdfrwt beam="2">  1       -4 0.45193061E-02 0.12500075E+03</pdfrwt>
<totfact> 0.96889309E+03</totfact>
</mgrwt>
</event>
<event>
 5    1  0.3514886E-002  0.1250009E+03  0.7818608E-02  0.1235068E+00
         -4   -1    0    0    0  501 -0.00000000000E+00  0.00000000000E+00  0.96651590340E+01  0.97482408235E+01  0.12700000000E+01 0. -1.
          4   -1    0    0  501    0  0.00000000000E+00 -0.00000000000E+00 -0.40234976575E+03  0.40235177009E+03  0.12700000000E+01 0. -1.
         25    2    1    2    0    0  0.00000000000E+00  0.00000000000E+00 -0.39268460671E+03  0.41210001091E+03  0.12500087459E+03 0.  0.
    9000005    1    3    3    0    0  0.40983235928E+02  0.23128895986E+01 -0.40996939572E+02  0.58023479211E+02  0.10000000000E+01 0.  0.
    9000005    1    3    3    0    0 -0.40983235928E+02 -0.23128895986E+01 -0.35168766714E+03  0.35407653170E+03  0.10000000000E+01 0.  0.
<mgrwt>
<rscale>  0 0.12500087E+03</rscale>
<asrwt>0</asrwt>
<pdfrwt beam="2">  1        4 0.61906496E-01 0.12500087E+03</pdfrwt>
<pdfrwt beam="1">  1       -4 0.14934929E-02 0.12500087E+03</pdfrwt>
<totfact> 0.63391510E+03</totfact>
</mgrwt>
</event>
<event>
 5    1  0.3514886E-002  0.1249980E+03  0.7818608E-02  0.1235072E+00
          4   -1    0    0  501    0  0.00000000000E+00  0.00000000000E+00  0.76563260682E+02  0.76573793078E+02  0.12700000000E+01 0. -1.
         -4   -1    0    0    0  501 -0.00000000000E+00 -0.00000000000E+00 -0.50996307741E+02  0.51012119180E+02  0.12700000000E+01 0. -1.
         25    2    1    2    0    0  0.00000000000E+00  0.00000000000E+00  0.25566952942E+02  0.12758591226E+03  0.12499798368E+03 0.  0.
    9000005    1    3    3    0    0  0.56749687890E+02  0.22869508835E+02 -0.19120899271E+00  0.61192957690E+02  0.10000000000E+01 0.  0.
    9000005    1    3    3    0    0 -0.56749687890E+02 -0.22869508835E+02  0.25758161934E+02  0.66392954567E+02  0.10000000000E+01 0.  0.
<mgrwt>
<rscale>  0 0.12499798E+03</rscale>
<asrwt>0</asrwt>
<pdfrwt beam="1">  1        4 0.11780990E-01 0.12499798E+03</pdfrwt>
<pdfrwt beam="2">  1       -4 0.78476123E-02 0.12499798E+03</pdfrwt>
<totfact> 0.10396914E+04</totfact>
</mgrwt>
</event>
<event>
 5    1  0.3514886E-002  0.1249981E+03  0.7818608E-02  0.1235072E+00
         -4   -1    0    0    0  501 -0.00000000000E+00  0.00000000000E+00  0.12683643527E+02  0.12747066844E+02  0.12700000000E+01 0. -1.
          4   -1    0    0  501    0  0.00000000000E+00 -0.00000000000E+00 -0.30713320297E+03  0.30713582870E+03  0.12700000000E+01 0. -1.
         25    2    1    2    0    0  0.00000000000E+00  0.00000000000E+00 -0.29444955945E+03  0.31988289554E+03  0.12499809519E+03 0.  0.
    9000005    1    3    3    0    0 -0.16314234533E+02  0.56960545466E+02 -0.19805198657E+03  0.20672747126E+03  0.10000000000E+01 0.  0.
    9000005    1    3    3    0    0  0.16314234533E+02 -0.56960545466E+02 -0.96397572877E+02  0.11315542428E+03  0.10000000000E+01 0.  0.
<mgrwt>
<rscale>  0 0.12499810E+03</rscale>
<asrwt>0</asrwt>
<pdfrwt beam="2">  1        4 0.47256337E-01 0.12499810E+03</pdfrwt>
<pdfrwt beam="1">  1       -4 0.19564107E-02 0.12499810E+03</pdfrwt>
<totfact> 0.73173147E+03</totfact>
</mgrwt>
</event>
<event>
 5    1  0.3514886E-002  0.1250015E+03  0.7818608E-02  0.1235067E+00
          4   -1    0    0  501    0  0.00000000000E+00  0.00000000000E+00  0.21296875573E+02  0.21334709025E+02  0.12700000000E+01 0.  1.
         -4   -1    0    0    0  501 -0.00000000000E+00 -0.00000000000E+00 -0.18322048092E+03  0.18322488239E+03  0.12700000000E+01 0.  1.
         25    2    1    2    0    0  0.00000000000E+00  0.00000000000E+00 -0.16192360535E+03  0.20455959142E+03  0.12500148988E+03 0.  0.
    9000005    1    3    3    0    0  0.43330905793E+02  0.43984170509E+02 -0.65166093431E+02  0.89776357607E+02  0.10000000000E+01 0.  0.
    9000005    1    3    3    0    0 -0.43330905793E+02 -0.43984170509E+02 -0.96757511916E+02  0.11478323381E+03  0.10000000000E+01 0.  0.
<mgrwt>
<rscale>  0 0.12500149E+03</rscale>
<asrwt>0</asrwt>
<pdfrwt beam="1">  1        4 0.32796914E-02 0.12500149E+03</pdfrwt>
<pdfrwt beam="2">  1       -4 0.28191014E-01 0.12500149E+03</pdfrwt>
<totfact> 0.89369173E+03</totfact>
</mgrwt>
</event>
<event>
 5    1  0.3514886E-002  0.1250017E+03  0.7818608E-02  0.1235067E+00
         -4   -1    0    0    0  501 -0.00000000000E+00  0.00000000000E+00  0.23769044116E+02  0.23802948519E+02  0.12700000000E+01 0.  1.
          4   -1    0    0  501    0  0.00000000000E+00 -0.00000000000E+00 -0.16419297968E+03  0.16419789121E+03  0.12700000000E+01 0.  1.
         25    2    1    2    0    0  0.00000000000E+00  0.00000000000E+00 -0.14042393557E+03  0.18800083973E+03  0.12500173622E+03 0.  0.
    9000005    1    3    3    0    0  0.12927674579E+02  0.56717864436E+02 -0.10455154444E+03  0.11964976540E+03  0.10000000000E+01 0.  0.
    9000005    1    3    3    0    0 -0.12927674579E+02 -0.56717864436E+02 -0.35872391132E+02  0.68351074328E+02  0.10000000000E+01 0.  0.
<mgrwt>
<rscale>  0 0.12500174E+03</rscale>
<asrwt>0</asrwt>
<pdfrwt beam="2">  1        4 0.25263444E-01 0.12500174E+03</pdfrwt>
<pdfrwt beam="1">  1       -4 0.36597620E-02 0.12500174E+03</pdfrwt>
<totfact> 0.92192744E+03</totfact>
</mgrwt>
</event>
<event>
 5    1  0.3514886E-002  0.1249981E+03  0.7818608E-02  0.1235072E+00
          4   -1    0    0  501    0  0.00000000000E+00  0.00000000000E+00  0.42399484988E+03  0.42399675190E+03  0.12700000000E+01 0. -1.
         -4   -1    0    0    0  501 -0.00000000000E+00 -0.00000000000E+00 -0.91669871500E+01  0.92545423122E+01  0.12700000000E+01 0. -1.
         25    2    1    2    0    0  0.00000000000E+00  0.00000000000E+00  0.41482786273E+03  0.43325129422E+03  0.12499811296E+03 0.  0.
    9000005    1    3    3    0    0  0.25659810298E+02 -0.24116446643E+02  0.38634816072E+03  0.38795093781E+03  0.10000000000E+01 0.  0.
    9000005    1    3    3    0    0 -0.25659810298E+02  0.24116446643E+02  0.28479702014E+02  0.45300356401E+02  0.10000000000E+01 0.  0.
<mgrwt>
<rscale>  0 0.12499811E+03</rscale>
<asrwt>0</asrwt>
<pdfrwt beam="1">  1        4 0.65236855E-01 0.12499811E+03</pdfrwt>
<pdfrwt beam="2">  1       -4 0.14171871E-02 0.12499811E+03</pdfrwt>
<totfact> 0.61444939E+03</totfact>
</mgrwt>
</event>
<event>
 5    1  0.3514886E-002  0.1250001E+03  0.7818608E-02  0.1235069E+00
         -4   -1    0    0    0  501 -0.00000000000E+00  0.00000000000E+00  0.25559036969E+02  0.25590569958E+02  0.12700000000E+01 0. -1.
          4   -1    0    0  501    0  0.00000000000E+00 -0.00000000000E+00 -0.15270424809E+03  0.15270952912E+03  0.12700000000E+01 0. -1.
         25    2    1    2    0    0  0.00000000000E+00  0.00000000000E+00 -0.12714521112E+03  0.17830009908E+03  0.12500008248E+03 0.  0.
    9000005    1    3    3    0    0 -0.13768333326E+02 -0.57066455142E+02 -0.94135792958E+02  0.11094455742E+03  0.10000000000E+01 0.  0.
    9000005    1    3    3    0    0  0.13768333326E+02  0.57066455142E+02 -0.33009418164E+02  0.67355541662E+02  0.10000000000E+01 0.  0.
<mgrwt>
<rscale>  0 0.12500008E+03</rscale>
<asrwt>0</asrwt>
<pdfrwt beam="2">  1        4 0.23495792E-01 0.12500008E+03</pdfrwt>
<pdfrwt beam="1">  1       -4 0.39349915E-02 0.12500008E+03</pdfrwt>
<totfact> 0.93923715E+03</totfact>
</mgrwt>
</event>
<event>
 5    1  0.3514886E-002  0.1250006E+03  0.7818608E-02  0.1235068E+00
         -4   -1    0    0    0  501 -0.00000000000E+00  0.00000000000E+00  0.21099119766E+02  0.21137307182E+02  0.12700000000E+01 0. -1.
          4   -1    0    0  501    0  0.00000000000E+00 -0.00000000000E+00 -0.18493221250E+03  0.18493657323E+03  0.12700000000E+01 0. -1.
         25    2    1    2    0    0  0.00000000000E+00  0.00000000000E+00 -0.16383309273E+03  0.20607388041E+03  0.12500064766E+03 0.  0.
    9000005    1    3    3    0    0  0.39976671139E+02 -0.40801594697E+02 -0.40132667095E+02  0.69817872593E+02  0.10000000000E+01 0.  0.
    9000005    1    3    3    0    0 -0.39976671139E+02  0.40801594697E+02 -0.12370042564E+03  0.13625600782E+03  0.10000000000E+01 0.  0.
<mgrwt>
<rscale>  0 0.12500065E+03</rscale>
<asrwt>0</asrwt>
<pdfrwt beam="2">  1        4 0.28454382E-01 0.12500065E+03</pdfrwt>
<pdfrwt beam="1">  1       -4 0.32492915E-02 0.12500065E+03</pdfrwt>
<totfact> 0.89119818E+03</totfact>
</mgrwt>
</event>
<event>
 5    1  0.3514886E-002  0.1249996E+03  0.7818608E-02  0.1235070E+00
         -4   -1    0    0    0  501 -0.00000000000E+00  0.00000000000E+00  0.11692300395E+04  0.11692307292E+04  0.12700000000E+01 0.  1.
          4   -1    0    0  501    0  0.00000000000E+00 -0.00000000000E+00 -0.32194427268E+01  0.34608830479E+01  0.12700000000E+01 0.  1.
         25    2    1    2    0    0  0.00000000000E+00  0.00000000000E+00  0.11660105967E+04  0.11726916122E+04  0.12499962285E+03 0.  0.
    9000005    1    3    3    0    0 -0.43471284014E+02 -0.19681951249E+02  0.96154805988E+03  0.96273194774E+03  0.10000000000E+01 0.  0.
    9000005    1    3    3    0    0  0.43471284014E+02  0.19681951249E+02  0.20446253686E+03  0.20995966450E+03  0.10000000000E+01 0.  0.
<mgrwt>
<rscale>  0 0.12499962E+03</rscale>
<asrwt>0</asrwt>
<pdfrwt beam="2">  1        4 0.51392423E-03 0.12499962E+03</pdfrwt>
<pdfrwt beam="1">  1       -4 0.17990018E+00 0.12499962E+03</pdfrwt>
<totfact> 0.25439149E+03</totfact>
</mgrwt>
</event>
<event>
 5    1  0.3514886E-002  0.1249982E+03  0.7818608E-02  0.1235072E+00
          4   -1    0    0  501    0  0.00000000000E+00  0.00000000000E+00  0.44654538831E+01  0.46425400787E+01  0.12700000000E+01 0.  1.
         -4   -1    0    0    0  501 -0.00000000000E+00 -0.00000000000E+00 -0.85756136717E+03  0.85756230757E+03  0.12700000000E+01 0.  1.
         25    2    1    2    0    0  0.00000000000E+00  0.00000000000E+00 -0.85309591329E+03  0.86220484765E+03  0.12499824815E+03 0.  0.
    9000005    1    3    3    0    0  0.42461890395E+02  0.10478670338E+02 -0.11866424183E+03  0.12647140767E+03  0.10000000000E+01 0.  0.
    9000005    1    3    3    0    0 -0.42461890395E+02 -0.10478670338E+02 -0.73443167145E+03  0.73573343998E+03  0.10000000000E+01 0.  0.
<mgrwt>
<rscale>  0 0.12499825E+03</rscale>
<asrwt>0</asrwt>
<pdfrwt beam="1">  1        4 0.70068794E-03 0.12499825E+03</pdfrwt>
<pdfrwt beam="2">  1       -4 0.13194608E+00 0.12499825E+03</pdfrwt>
<totfact> 0.35634426E+03</totfact>
</mgrwt>
</event>
<event>
 5    1  0.3514886E-002  0.1250005E+03  0.7818608E-02  0.1235068E+00
         -4   -1    0    0    0  501 -0.00000000000E+00  0.00000000000E+00  0.41849607423E+01  0.43734193047E+01  0.12700000000E+01 0.  1.
          4   -1    0    0  501    0  0.00000000000E+00 -0.00000000000E+00 -0.91266675330E+03  0.91266763692E+03  0.12700000000E+01 0.  1.
         25    2    1    2    0    0  0.00000000000E+00  0.00000000000E+00 -0.90848179256E+03  0.91704105622E+03  0.12500052556E+03 0.  0.
    9000005    1    3    3    0    0  0.38029392820E+02 -0.95780003969E+00 -0.81797115399E+03  0.81885588528E+03  0.10000000000E+01 0.  0.
    9000005    1    3    3    0    0 -0.38029392820E+02  0.95780003969E+00 -0.90510638570E+02  0.98185170945E+02  0.10000000000E+01 0.  0.
<mgrwt>
<rscale>  0 0.12500053E+03</rscale>
<asrwt>0</asrwt>
<pdfrwt beam="2">  1        4 0.14042468E+00 0.12500053E+03</pdfrwt>
<pdfrwt beam="1">  1       -4 0.65840563E-03 0.12500053E+03</pdfrwt>
<totfact> 0.33515405E+03</totfact>
</mgrwt>
</event>
<event>
 5    1  0.3514886E-002  0.1249902E+03  0.7818608E-02  0.1235085E+00
          4   -1    0    0  501    0  0.00000000000E+00  0.00000000000E+00  0.64920372473E+02  0.64932793426E+02  0.12700000000E+01 0. -1.
         -4   -1    0    0    0  501 -0.00000000000E+00 -0.00000000000E+00 -0.60135580849E+02  0.60148989884E+02  0.12700000000E+01 0. -1.
         25    2    1    2    0    0  0.00000000000E+00  0.00000000000E+00  0.47847916241E+01  0.12508178331E+03  0.12499023276E+03 0.  0.
    9000005    1    3    3    0    0 -0.22766033637E+02  0.57582015590E+02  0.10804429565E+02  0.62862679749E+02  0.10000000000E+01 0.  0.
    9000005    1    3    3    0    0  0.22766033637E+02 -0.57582015590E+02 -0.60196379412E+01  0.62219103561E+02  0.10000000000E+01 0.  0.
<mgrwt>
<rscale>  0 0.12499023E+03</rscale>
<asrwt>0</asrwt>
<pdfrwt beam="1">  1        4 0.99897365E-02 0.12499023E+03</pdfrwt>
<pdfrwt beam="2">  1       -4 0.92536147E-02 0.12499023E+03</pdfrwt>
<totfact> 0.10453394E+04</totfact>
</mgrwt>
</event>
<event>
 4    1  0.3514886E-002  0.1249344E+03  0.7818608E-02  0.1235172E+00
         -4   -1    0    0    0  501 -0.00000000000E+00  0.00000000000E+00  0.19357306107E+02  0.19398922643E+02  0.12700000000E+01 0.  1.
          4   -1    0    0  501    0  0.00000000000E+00 -0.00000000000E+00 -0.20132539766E+03  0.20132940332E+03  0.12700000000E+01 0.  1.
    9000005    1    1    2    0    0 -0.59539647257E+02  0.77571806275E+01 -0.60587233946E+02  0.85305078184E+02  0.10000000000E+01 0.  0.
    9000005    1    1    2    0    0  0.59539647257E+02 -0.77571806275E+01 -0.12138085760E+03  0.13542324778E+03  0.10000000000E+01 0.  0.
<mgrwt>
<rscale>  0 0.12493441E+03</rscale>
<asrwt>0</asrwt>
<pdfrwt beam="2">  1        4 0.30976646E-01 0.12493441E+03</pdfrwt>
<pdfrwt beam="1">  1       -4 0.29815566E-02 0.12493441E+03</pdfrwt>
<totfact> 0.86880440E+03</totfact>
</mgrwt>
</event>
<event>
 5    1  0.3514886E-002  0.1250095E+03  0.7818608E-02  0.1235055E+00
          4   -1    0    0  501    0  0.00000000000E+00  0.00000000000E+00  0.17300108338E+03  0.17300574485E+03  0.12700000000E+01 0. -1.
         -4   -1    0    0    0  501 -0.00000000000E+00 -0.00000000000E+00 -0.22559930208E+02  0.22595648939E+02  0.12700000000E+01 0. -1.
         25    2    1    2    0    0  0.00000000000E+00  0.00000000000E+00  0.15044115317E+03  0.19560139379E+03  0.12500945838E+03 0.  0.
    9000005    1    3    3    0    0 -0.35905422623E+02 -0.44886261232E+02  0.11360709658E+03  0.12732457820E+03  0.10000000000E+01 0.  0.
    9000005    1    3    3    0    0  0.35905422623E+02  0.44886261232E+02  0.36834056589E+02  0.68276815581E+02  0.10000000000E+01 0.  0.
<mgrwt>
<rscale>  0 0.12500946E+03</rscale>
<asrwt>0</asrwt>
<pdfrwt beam="1">  1        4 0.26618656E-01 0.12500946E+03</pdfrwt>
<pdfrwt beam="2">  1       -4 0.34738649E-02 0.12500946E+03</pdfrwt>
<totfact> 0.90862481E+03</totfact>
</mgrwt>
</event>
<event>
 5    1  0.3514886E-002  0.1250001E+03  0.7818608E-02  0.1235069E+00
         -4   -1    0    0    0  501 -0.00000000000E+00  0.00000000000E+00  0.13678855224E+03  0.13679444771E+03  0.12700000000E+01 0.  1.
          4   -1    0    0  501    0  0.00000000000E+00 -0.00000000000E+00 -0.28536243321E+02  0.28564489893E+02  0.12700000000E+01 0.  1.
         25    2    1    2    0    0  0.00000000000E+00  0.00000000000E+00  0.10825230892E+03  0.16535893760E+03  0.12500006343E+03 0.  0.
    9000005    1    3    3    0    0 -0.43113272453E+02 -0.35208465263E+02  0.16549550941E+02  0.58079927033E+02  0.10000000000E+01 0.  0.
    9000005    1    3    3    0    0  0.43113272453E+02  0.35208465263E+02  0.91702757979E+02  0.10727901057E+03  0.10000000000E+01 0.  0.
<mgrwt>
<rscale>  0 0.12500006E+03</rscale>
<asrwt>0</asrwt>
<pdfrwt beam="2">  1        4 0.43928176E-02 0.12500006E+03</pdfrwt>
<pdfrwt beam="1">  1       -4 0.21047019E-01 0.12500006E+03</pdfrwt>
<totfact> 0.96319321E+03</totfact>
</mgrwt>
</event>
<event>
 5    1  0.3514886E-002  0.1250019E+03  0.7818608E-02  0.1235066E+00
         -4   -1    0    0    0  501 -0.00000000000E+00  0.00000000000E+00  0.15937660543E+03  0.15938166538E+03  0.12700000000E+01 0. -1.
          4   -1    0    0  501    0  0.00000000000E+00 -0.00000000000E+00 -0.24488383389E+02  0.24521293217E+02  0.12700000000E+01 0. -1.
         25    2    1    2    0    0  0.00000000000E+00  0.00000000000E+00  0.13488822204E+03  0.18390295859E+03  0.12500186292E+03 0.  0.
    9000005    1    3    3    0    0  0.37024145774E+01  0.36877716704E+02  0.14146899140E+03  0.14624687823E+03  0.10000000000E+01 0.  0.
    9000005    1    3    3    0    0 -0.37024145774E+01 -0.36877716704E+02 -0.65807693633E+01  0.37656080364E+02  0.10000000000E+01 0.  0.
<mgrwt>
<rscale>  0 0.12500186E+03</rscale>
<asrwt>0</asrwt>
<pdfrwt beam="2">  1        4 0.37703644E-02 0.12500186E+03</pdfrwt>
<pdfrwt beam="1">  1       -4 0.24522398E-01 0.12500186E+03</pdfrwt>
<totfact> 0.92915258E+03</totfact>
</mgrwt>
</event>
<event>
 5    1  0.3514886E-002  0.1249990E+03  0.7818608E-02  0.1235071E+00
          4   -1    0    0  501    0  0.00000000000E+00  0.00000000000E+00  0.61919661394E+01  0.63208658166E+01  0.12700000000E+01 0. -1.
         -4   -1    0    0    0  501 -0.00000000000E+00 -0.00000000000E+00 -0.62422001114E+03  0.62422130307E+03  0.12700000000E+01 0. -1.
         25    2    1    2    0    0  0.00000000000E+00  0.00000000000E+00 -0.61802804500E+03  0.63054216889E+03  0.12499904935E+03 0.  0.
    9000005    1    3    3    0    0  0.25423646508E+02 -0.42927261778E+02 -0.49883804151E+03  0.50132774037E+03  0.10000000000E+01 0.  0.
    9000005    1    3    3    0    0 -0.25423646508E+02  0.42927261778E+02 -0.11919000349E+03  0.12921442852E+03  0.10000000000E+01 0.  0.
<mgrwt>
<rscale>  0 0.12499905E+03</rscale>
<asrwt>0</asrwt>
<pdfrwt beam="1">  1        4 0.96262541E-03 0.12499905E+03</pdfrwt>
<pdfrwt beam="2">  1       -4 0.96043813E-01 0.12499905E+03</pdfrwt>
<totfact> 0.46995759E+03</totfact>
</mgrwt>
</event>
<event>
 5    1  0.3514886E-002  0.1250004E+03  0.7818608E-02  0.1235069E+00
         -4   -1    0    0    0  501 -0.00000000000E+00  0.00000000000E+00  0.10117391576E+03  0.10118188637E+03  0.12700000000E+01 0.  1.
          4   -1    0    0  501    0  0.00000000000E+00 -0.00000000000E+00 -0.38589544063E+02  0.38610436555E+02  0.12700000000E+01 0.  1.
         25    2    1    2    0    0  0.00000000000E+00  0.00000000000E+00  0.62584371696E+02  0.13979232293E+03  0.12500035988E+03 0.  0.
    9000005    1    3    3    0    0 -0.36507782017E+02 -0.23324347066E+02  0.81659869986E+02  0.92445538994E+02  0.10000000000E+01 0.  0.
    9000005    1    3    3    0    0  0.36507782017E+02  0.23324347066E+02 -0.19075498290E+02  0.47346783934E+02  0.10000000000E+01 0.  0.
<mgrwt>
<rscale>  0 0.12500036E+03</rscale>
<asrwt>0</asrwt>
<pdfrwt beam="2">  1        4 0.59390732E-02 0.12500036E+03</pdfrwt>
<pdfrwt beam="1">  1       -4 0.15567438E-01 0.12500036E+03</pdfrwt>
<totfact> 0.10137810E+04</totfact>
</mgrwt>
</event>
<event>
 5    1  0.3514886E-002  0.1249999E+03  0.7818608E-02  0.1235069E+00
         -4   -1    0    0    0  501 -0.00000000000E+00  0.00000000000E+00  0.11532665051E+04  0.11532672044E+04  0.12700000000E+01 0.  1.
          4   -1    0    0  501    0  0.00000000000E+00 -0.00000000000E+00 -0.32673419380E+01  0.35054847511E+01  0.12700000000E+01 0.  1.
         25    2    1    2    0    0  0.00000000000E+00  0.00000000000E+00  0.11499991631E+04  0.11567726891E+04  0.12499991613E+03 0.  0.
    9000005    1    3    3    0    0  0.31538765154E+02  0.45259976856E+02  0.84671450178E+03  0.84851022783E+03  0.10000000000E+01 0.  0.
    9000005    1    3    3    0    0 -0.31538765154E+02 -0.45259976856E+02  0.30328466136E+03  0.30826246127E+03  0.10000000000E+01 0.  0.
<mgrwt>
<rscale>  0 0.12499992E+03</rscale>
<asrwt>0</asrwt>
<pdfrwt beam="2">  1        4 0.52103962E-03 0.12499992E+03</pdfrwt>
<pdfrwt beam="1">  1       -4 0.17744427E+00 0.12499992E+03</pdfrwt>
<totfact> 0.25873057E+03</totfact>
</mgrwt>
</event>
<event>
 5    1  0.3514886E-002  0.1249949E+03  0.7818608E-02  0.1235077E+00
          4   -1    0    0  501    0  0.00000000000E+00  0.00000000000E+00  0.23829062807E+03  0.23829401236E+03  0.12700000000E+01 0. -1.
         -4   -1    0    0    0  501 -0.00000000000E+00 -0.00000000000E+00 -0.16363364916E+02  0.16412574794E+02  0.12700000000E+01 0. -1.
         25    2    1    2    0    0  0.00000000000E+00  0.00000000000E+00  0.22192726315E+03  0.25470658715E+03  0.12499494153E+03 0.  0.
    9000005    1    3    3    0    0  0.28659787323E+02 -0.55470375860E+02  0.10573341816E+03  0.12279617959E+03  0.10000000000E+01 0.  0.
    9000005    1    3    3    0    0 -0.28659787323E+02  0.55470375860E+02  0.11619384499E+03  0.13191040756E+03  0.10000000000E+01 0.  0.
<mgrwt>
<rscale>  0 0.12499494E+03</rscale>
<asrwt>0</asrwt>
<pdfrwt beam="1">  1        4 0.36664140E-01 0.12499494E+03</pdfrwt>
<pdfrwt beam="2">  1       -4 0.25214866E-02 0.12499494E+03</pdfrwt>
<totfact> 0.81663903E+03</totfact>
</mgrwt>
</event>
<event>
 5    1  0.3514886E-002  0.1249967E+03  0.7818608E-02  0.1235074E+00
         -4   -1    0    0    0  501 -0.00000000000E+00  0.00000000000E+00  0.47743945130E+02  0.47760833290E+02  0.12700000000E+01 0.  1.
          4   -1    0    0  501    0  0.00000000000E+00 -0.00000000000E+00 -0.81776087830E+02  0.81785948920E+02  0.12700000000E+01 0.  1.
         25    2    1    2    0    0  0.00000000000E+00  0.00000000000E+00 -0.34032142700E+02  0.12954678221E+03  0.12499672813E+03 0.  0.
    9000005    1    3    3    0    0  0.19636596883E+02 -0.52660440039E+02  0.11297375590E+02  0.57335404224E+02  0.10000000000E+01 0.  0.
    9000005    1    3    3    0    0 -0.19636596883E+02  0.52660440039E+02 -0.45329518290E+02  0.72211377987E+02  0.10000000000E+01 0.  0.
<mgrwt>
<rscale>  0 0.12499673E+03</rscale>
<asrwt>0</asrwt>
<pdfrwt beam="2">  1        4 0.12582994E-01 0.12499673E+03</pdfrwt>
<pdfrwt beam="1">  1       -4 0.73472800E-02 0.12499673E+03</pdfrwt>
<totfact> 0.10354977E+04</totfact>
</mgrwt>
</event>
<event>
 5    1  0.3514886E-002  0.1250018E+03  0.7818608E-02  0.1235066E+00
         -4   -1    0    0    0  501 -0.00000000000E+00  0.00000000000E+00  0.10064785867E+02  0.10144595337E+02  0.12700000000E+01 0.  1.
          4   -1    0    0  501    0  0.00000000000E+00 -0.00000000000E+00 -0.38650839121E+03  0.38651047771E+03  0.12700000000E+01 0.  1.
         25    2    1    2    0    0  0.00000000000E+00  0.00000000000E+00 -0.37644360534E+03  0.39665507304E+03  0.12500183585E+03 0.  0.
    9000005    1    3    3    0    0  0.55693757990E+02  0.23493863142E+02 -0.13788805831E+03  0.15055853649E+03  0.10000000000E+01 0.  0.
    9000005    1    3    3    0    0 -0.55693757990E+02 -0.23493863142E+02 -0.23855554703E+03  0.24609653655E+03  0.10000000000E+01 0.  0.
<mgrwt>
<rscale>  0 0.12500184E+03</rscale>
<asrwt>0</asrwt>
<pdfrwt beam="2">  1        4 0.59469118E-01 0.12500184E+03</pdfrwt>
<pdfrwt beam="1">  1       -4 0.15547286E-02 0.12500184E+03</pdfrwt>
<totfact> 0.64876793E+03</totfact>
</mgrwt>
</event>
<event>
 5    1  0.3514886E-002  0.1249983E+03  0.7818608E-02  0.1235072E+00
          4   -1    0    0  501    0  0.00000000000E+00  0.00000000000E+00  0.24234630743E+02  0.24267884688E+02  0.12700000000E+01 0. -1.
         -4   -1    0    0    0  501 -0.00000000000E+00 -0.00000000000E+00 -0.16103403136E+03  0.16103903923E+03  0.12700000000E+01 0. -1.
         25    2    1    2    0    0  0.00000000000E+00  0.00000000000E+00 -0.13679940061E+03  0.18530692391E+03  0.12499832016E+03 0.  0.
    9000005    1    3    3    0    0  0.44116670990E+02 -0.13352407642E+02 -0.58438519285E+01  0.46472766804E+02  0.10000000000E+01 0.  0.
    9000005    1    3    3    0    0 -0.44116670990E+02  0.13352407642E+02 -0.13095554868E+03  0.13883415711E+03  0.10000000000E+01 0.  0.
<mgrwt>
<rscale>  0 0.12499832E+03</rscale>
<asrwt>0</asrwt>
<pdfrwt beam="1">  1        4 0.37313480E-02 0.12499832E+03</pdfrwt>
<pdfrwt beam="2">  1       -4 0.24777409E-01 0.12499832E+03</pdfrwt>
<totfact> 0.92673857E+03</totfact>
</mgrwt>
</event>
<event>
 5    1  0.3514886E-002  0.1250056E+03  0.7818608E-02  0.1235061E+00
         -4   -1    0    0    0  501 -0.00000000000E+00  0.00000000000E+00  0.57130741514E+01  0.58525307568E+01  0.12700000000E+01 0. -1.
          4   -1    0    0  501    0  0.00000000000E+00 -0.00000000000E+00 -0.67541461245E+03  0.67541580645E+03  0.12700000000E+01 0. -1.
         25    2    1    2    0    0  0.00000000000E+00  0.00000000000E+00 -0.66970153829E+03  0.68126833721E+03  0.12500558743E+03 0.  0.
    9000005    1    3    3    0    0  0.16997996777E+01  0.61916354710E+02 -0.38014563563E+03  0.38516000388E+03  0.10000000000E+01 0.  0.
    9000005    1    3    3    0    0 -0.16997996777E+01 -0.61916354710E+02 -0.28955590267E+03  0.29610833333E+03  0.10000000000E+01 0.  0.
<mgrwt>
<rscale>  0 0.12500559E+03</rscale>
<asrwt>0</asrwt>
<pdfrwt beam="2">  1        4 0.10392070E+00 0.12500559E+03</pdfrwt>
<pdfrwt beam="1">  1       -4 0.88975430E-03 0.12500559E+03</pdfrwt>
<totfact> 0.44088765E+03</totfact>
</mgrwt>
</event>
<event>
 5    1  0.3514886E-002  0.1249977E+03  0.7818608E-02  0.1235073E+00
          4   -1    0    0  501    0  0.00000000000E+00  0.00000000000E+00  0.22484975834E+02  0.22520813445E+02  0.12700000000E+01 0. -1.
         -4   -1    0    0    0  501 -0.00000000000E+00 -0.00000000000E+00 -0.17354430448E+03  0.17354895136E+03  0.12700000000E+01 0. -1.
         25    2    1    2    0    0  0.00000000000E+00  0.00000000000E+00 -0.15105932864E+03  0.19606976480E+03  0.12499772757E+03 0.  0.
    9000005    1    3    3    0    0  0.66587369550E+01  0.61026339989E+02 -0.93859659567E+02  0.11215698215E+03  0.10000000000E+01 0.  0.
    9000005    1    3    3    0    0 -0.66587369550E+01 -0.61026339989E+02 -0.57199669077E+02  0.83912782655E+02  0.10000000000E+01 0.  0.
<mgrwt>
<rscale>  0 0.12499773E+03</rscale>
<asrwt>0</asrwt>
<pdfrwt beam="1">  1        4 0.34623414E-02 0.12499773E+03</pdfrwt>
<pdfrwt beam="2">  1       -4 0.26702237E-01 0.12499773E+03</pdfrwt>
<totfact> 0.90806409E+03</totfact>
</mgrwt>
</event>
<event>
 5    1  0.3514886E-002  0.1249982E+03  0.7818608E-02  0.1235072E+00
          4   -1    0    0  501    0  0.00000000000E+00  0.00000000000E+00  0.29343640489E+01  0.31974040050E+01  0.12700000000E+01 0.  1.
         -4   -1    0    0    0  501 -0.00000000000E+00 -0.00000000000E+00 -0.12738022044E+04  0.12738028375E+04  0.12700000000E+01 0.  1.
         25    2    1    2    0    0  0.00000000000E+00  0.00000000000E+00 -0.12708678404E+04  0.12770002415E+04  0.12499819669E+03 0.  0.
    9000005    1    3    3    0    0 -0.24580063598E+02 -0.50591350530E+01 -0.50755660174E+02  0.56629598389E+02  0.10000000000E+01 0.  0.
    9000005    1    3    3    0    0  0.24580063598E+02  0.50591350530E+01 -0.12201121802E+04  0.12203706432E+04  0.10000000000E+01 0.  0.
<mgrwt>
<rscale>  0 0.12499820E+03</rscale>
<asrwt>0</asrwt>
<pdfrwt beam="1">  1        4 0.47172418E-03 0.12499820E+03</pdfrwt>
<pdfrwt beam="2">  1       -4 0.19598943E+00 0.12499820E+03</pdfrwt>
<totfact> 0.22778907E+03</totfact>
</mgrwt>
</event>
<event>
 5    1  0.3514886E-002  0.1250529E+03  0.7818608E-02  0.1234987E+00
         -4   -1    0    0    0  501 -0.00000000000E+00  0.00000000000E+00  0.40999881697E+02  0.41019546550E+02  0.12700000000E+01 0.  1.
          4   -1    0    0  501    0  0.00000000000E+00 -0.00000000000E+00 -0.95308605636E+02  0.95317066721E+02  0.12700000000E+01 0.  1.
         25    2    1    2    0    0  0.00000000000E+00  0.00000000000E+00 -0.54308723939E+02  0.13633661327E+03  0.12505292728E+03 0.  0.
    9000005    1    3    3    0    0  0.25256082330E+02 -0.51789059205E+02 -0.70457120255E+00  0.57632219883E+02  0.10000000000E+01 0.  0.
    9000005    1    3    3    0    0 -0.25256082330E+02  0.51789059205E+02 -0.53604152737E+02  0.78704393389E+02  0.10000000000E+01 0.  0.
<mgrwt>
<rscale>  0 0.12505293E+03</rscale>
<asrwt>0</asrwt>
<pdfrwt beam="2">  1        4 0.14665026E-01 0.12505293E+03</pdfrwt>
<pdfrwt beam="1">  1       -4 0.63098377E-02 0.12505293E+03</pdfrwt>
<totfact> 0.10197799E+04</totfact>
</mgrwt>
</event>
<event>
 5    1  0.3514886E-002  0.1250007E+03  0.7818608E-02  0.1235068E+00
          4   -1    0    0  501    0  0.00000000000E+00  0.00000000000E+00  0.15645722450E+03  0.15646237886E+03  0.12700000000E+01 0. -1.
         -4   -1    0    0    0  501 -0.00000000000E+00 -0.00000000000E+00 -0.24945461086E+02  0.24977768691E+02  0.12700000000E+01 0. -1.
         25    2    1    2    0    0  0.00000000000E+00  0.00000000000E+00  0.13151176342E+03  0.18144014755E+03  0.12500073291E+03 0.  0.
    9000005    1    3    3    0    0 -0.13757739482E+02  0.58737434703E+02  0.42085355783E+02  0.73563161993E+02  0.10000000000E+01 0.  0.
    9000005    1    3    3    0    0  0.13757739482E+02 -0.58737434703E+02  0.89426407634E+02  0.10787698556E+03  0.10000000000E+01 0.  0.
<mgrwt>
<rscale>  0 0.12500073E+03</rscale>
<asrwt>0</asrwt>
<pdfrwt beam="1">  1        4 0.24073224E-01 0.12500073E+03</pdfrwt>
<pdfrwt beam="2">  1       -4 0.38406449E-02 0.12500073E+03</pdfrwt>
<totfact> 0.93356878E+03</totfact>
</mgrwt>
</event>
<event>
 5    1  0.3514886E-002  0.1250037E+03  0.7818608E-02  0.1235063E+00
          4   -1    0    0  501    0  0.00000000000E+00  0.00000000000E+00  0.21756467974E+03  0.21756838642E+03  0.12700000000E+01 0.  1.
         -4   -1    0    0    0  501 -0.00000000000E+00 -0.00000000000E+00 -0.17929175040E+02  0.17974098520E+02  0.12700000000E+01 0.  1.
         25    2    1    2    0    0  0.00000000000E+00  0.00000000000E+00  0.19963550470E+03  0.23554248494E+03  0.12500370985E+03 0.  0.
    9000005    1    3    3    0    0 -0.69723687851E+01 -0.61959439862E+02  0.91846595456E+02  0.11101523865E+03  0.10000000000E+01 0.  0.
    9000005    1    3    3    0    0  0.69723687851E+01  0.61959439862E+02  0.10778890924E+03  0.12452724630E+03  0.10000000000E+01 0.  0.
<mgrwt>
<rscale>  0 0.12500371E+03</rscale>
<asrwt>0</asrwt>
<pdfrwt beam="1">  1        4 0.33475228E-01 0.12500371E+03</pdfrwt>
<pdfrwt beam="2">  1       -4 0.27620756E-02 0.12500371E+03</pdfrwt>
<totfact> 0.84458759E+03</totfact>
</mgrwt>
</event>
<event>
 5    1  0.3514886E-002  0.1249708E+03  0.7818608E-02  0.1235115E+00
          4   -1    0    0  501    0  0.00000000000E+00  0.00000000000E+00  0.16502470582E+02  0.16551266880E+02  0.12700000000E+01 0.  1.
         -4   -1    0    0    0  501 -0.00000000000E+00 -0.00000000000E+00 -0.23619679430E+03  0.23620020858E+03  0.12700000000E+01 0.  1.
         25    2    1    2    0    0  0.00000000000E+00  0.00000000000E+00 -0.21969432371E+03  0.25275147546E+03  0.12497084651E+03 0.  0.
    9000005    1    3    3    0    0  0.16880159128E+02 -0.28655376692E+01 -0.23136925817E+03  0.23200406182E+03  0.10000000000E+01 0.  0.
    9000005    1    3    3    0    0 -0.16880159128E+02  0.28655376692E+01  0.11674934453E+02  0.20747413641E+02  0.10000000000E+01 0.  0.
<mgrwt>
<rscale>  0 0.12497085E+03</rscale>
<asrwt>0</asrwt>
<pdfrwt beam="1">  1        4 0.25428580E-02 0.12497085E+03</pdfrwt>
<pdfrwt beam="2">  1       -4 0.36341982E-01 0.12497085E+03</pdfrwt>
<totfact> 0.81987397E+03</totfact>
</mgrwt>
</event>
<event>
 5    1  0.3514886E-002  0.1249987E+03  0.7818608E-02  0.1235071E+00
          4   -1    0    0  501    0  0.00000000000E+00  0.00000000000E+00  0.30245711945E+03  0.30245978577E+03  0.12700000000E+01 0. -1.
         -4   -1    0    0    0  501 -0.00000000000E+00 -0.00000000000E+00 -0.12880828201E+02  0.12943285330E+02  0.12700000000E+01 0. -1.
         25    2    1    2    0    0  0.00000000000E+00  0.00000000000E+00  0.28957629125E+03  0.31540307110E+03  0.12499867521E+03 0.  0.
    9000005    1    3    3    0    0  0.11346113531E+02  0.23814116086E+02  0.28773252121E+03  0.28894091122E+03  0.10000000000E+01 0.  0.
    9000005    1    3    3    0    0 -0.11346113531E+02 -0.23814116086E+02  0.18437700406E+01  0.26462159874E+02  0.10000000000E+01 0.  0.
<mgrwt>
<rscale>  0 0.12499868E+03</rscale>
<asrwt>0</asrwt>
<pdfrwt beam="1">  1        4 0.46536875E-01 0.12499868E+03</pdfrwt>
<pdfrwt beam="2">  1       -4 0.19866753E-02 0.12499868E+03</pdfrwt>
<totfact> 0.73708387E+03</totfact>
</mgrwt>
</event>
<event>
 5    1  0.3514886E-002  0.1250056E+03  0.7818608E-02  0.1235061E+00
          4   -1    0    0  501    0  0.00000000000E+00  0.00000000000E+00  0.15547461096E+03  0.15547979789E+03  0.12700000000E+01 0. -1.
         -4   -1    0    0    0  501 -0.00000000000E+00 -0.00000000000E+00 -0.25105270982E+02  0.25137373194E+02  0.12700000000E+01 0. -1.
         25    2    1    2    0    0  0.00000000000E+00  0.00000000000E+00  0.13036933998E+03  0.18061717109E+03  0.12500559062E+03 0.  0.
    9000005    1    3    3    0    0 -0.34422314089E+01 -0.75870848161E+01  0.15467569078E+03  0.15490313790E+03  0.10000000000E+01 0.  0.
    9000005    1    3    3    0    0  0.34422314089E+01  0.75870848161E+01 -0.24306350806E+02  0.25714033184E+02  0.10000000000E+01 0.  0.
<mgrwt>
<rscale>  0 0.12500559E+03</rscale>
<asrwt>0</asrwt>
<pdfrwt beam="1">  1        4 0.23922040E-01 0.12500559E+03</pdfrwt>
<pdfrwt beam="2">  1       -4 0.38652177E-02 0.12500559E+03</pdfrwt>
<totfact> 0.93494308E+03</totfact>
</mgrwt>
</event>
<event>
 5    1  0.3514886E-002  0.1250012E+03  0.7818608E-02  0.1235067E+00
          4   -1    0    0  501    0  0.00000000000E+00  0.00000000000E+00  0.12069905333E+04  0.12069912014E+04  0.12700000000E+01 0.  1.
         -4   -1    0    0    0  501 -0.00000000000E+00 -0.00000000000E+00 -0.31111347445E+01  0.33603659619E+01  0.12700000000E+01 0.  1.
         25    2    1    2    0    0  0.00000000000E+00  0.00000000000E+00  0.12038793985E+04  0.12103515674E+04  0.12500124186E+03 0.  0.
    9000005    1    3    3    0    0 -0.59075775178E+02  0.17944030564E+02  0.69551310687E+03  0.69824882189E+03  0.10000000000E+01 0.  0.
    9000005    1    3    3    0    0  0.59075775178E+02 -0.17944030564E+02  0.50836629165E+03  0.51210274548E+03  0.10000000000E+01 0.  0.
<mgrwt>
<rscale>  0 0.12500124E+03</rscale>
<asrwt>0</asrwt>
<pdfrwt beam="1">  1        4 0.18571029E+00 0.12500124E+03</pdfrwt>
<pdfrwt beam="2">  1       -4 0.49785857E-03 0.12500124E+03</pdfrwt>
<totfact> 0.24442698E+03</totfact>
</mgrwt>
</event>
<event>
 5    1  0.3514886E-002  0.1249972E+03  0.7818608E-02  0.1235074E+00
          4   -1    0    0  501    0  0.00000000000E+00  0.00000000000E+00  0.20370739899E+02  0.20410290151E+02  0.12700000000E+01 0. -1.
         -4   -1    0    0    0  501 -0.00000000000E+00 -0.00000000000E+00 -0.19152178735E+03  0.19152599805E+03  0.12700000000E+01 0. -1.
         25    2    1    2    0    0  0.00000000000E+00  0.00000000000E+00 -0.17115104745E+03  0.21193628820E+03  0.12499723682E+03 0.  0.
    9000005    1    3    3    0    0  0.59671308642E+02 -0.17995856684E+02 -0.93263834715E+02  0.11217690849E+03  0.10000000000E+01 0.  0.
    9000005    1    3    3    0    0 -0.59671308642E+02  0.17995856684E+02 -0.77887212738E+02  0.99759379714E+02  0.10000000000E+01 0.  0.
<mgrwt>
<rscale>  0 0.12499724E+03</rscale>
<asrwt>0</asrwt>
<pdfrwt beam="1">  1        4 0.31373263E-02 0.12499724E+03</pdfrwt>
<pdfrwt beam="2">  1       -4 0.29468255E-01 0.12499724E+03</pdfrwt>
<totfact> 0.88166079E+03</totfact>
</mgrwt>
</event>
<event>
 5    1  0.3514886E-002  0.1250017E+03  0.7818608E-02  0.1235067E+00
          4   -1    0    0  501    0  0.00000000000E+00  0.00000000000E+00  0.84562491210E+02  0.84572027407E+02  0.12700000000E+01 0.  1.
         -4   -1    0    0    0  501 -0.00000000000E+00 -0.00000000000E+00 -0.46174022077E+02  0.46191484224E+02  0.12700000000E+01 0.  1.
         25    2    1    2    0    0  0.00000000000E+00  0.00000000000E+00  0.38388469133E+02  0.13076351163E+03  0.12500168563E+03 0.  0.
    9000005    1    3    3    0    0  0.35519067968E+02  0.42153525152E+02  0.49993335789E+02  0.74423500962E+02  0.10000000000E+01 0.  0.
    9000005    1    3    3    0    0 -0.35519067968E+02 -0.42153525152E+02 -0.11604866656E+02  0.56340010669E+02  0.10000000000E+01 0.  0.
<mgrwt>
<rscale>  0 0.12500169E+03</rscale>
<asrwt>0</asrwt>
<pdfrwt beam="1">  1        4 0.13011691E-01 0.12500169E+03</pdfrwt>
<pdfrwt beam="2">  1       -4 0.71057726E-02 0.12500169E+03</pdfrwt>
<totfact> 0.10327769E+04</totfact>
</mgrwt>
</event>
<event>
 5    1  0.3514886E-002  0.1249917E+03  0.7818608E-02  0.1235082E+00
          4   -1    0    0  501    0  0.00000000000E+00  0.00000000000E+00  0.75935654949E+02  0.75946274382E+02  0.12700000000E+01 0. -1.
         -4   -1    0    0    0  501 -0.00000000000E+00 -0.00000000000E+00 -0.51412661751E+02  0.51428345184E+02  0.12700000000E+01 0. -1.
         25    2    1    2    0    0  0.00000000000E+00  0.00000000000E+00  0.24522993198E+02  0.12737461957E+03  0.12499166578E+03 0.  0.
    9000005    1    3    3    0    0 -0.55619082280E+02  0.28471862640E+02  0.13050763974E+02  0.63839264690E+02  0.10000000000E+01 0.  0.
    9000005    1    3    3    0    0  0.55619082280E+02 -0.28471862640E+02  0.11472229224E+02  0.63535354876E+02  0.10000000000E+01 0.  0.
<mgrwt>
<rscale>  0 0.12499167E+03</rscale>
<asrwt>0</asrwt>
<pdfrwt beam="1">  1        4 0.11684432E-01 0.12499167E+03</pdfrwt>
<pdfrwt beam="2">  1       -4 0.79116636E-02 0.12499167E+03</pdfrwt>
<totfact> 0.10402974E+04</totfact>
</mgrwt>
</event>
<event>
 5    1  0.3514886E-002  0.1249993E+03  0.7818608E-02  0.1235070E+00
          4   -1    0    0  501    0  0.00000000000E+00  0.00000000000E+00  0.12091811815E+03  0.12092478735E+03  0.12700000000E+01 0. -1.
         -4   -1    0    0    0  501 -0.00000000000E+00 -0.00000000000E+00 -0.32284519165E+02  0.32309488973E+02  0.12700000000E+01 0. -1.
         25    2    1    2    0    0  0.00000000000E+00  0.00000000000E+00  0.88633598983E+02  0.15323427633E+03  0.12499931429E+03 0.  0.
    9000005    1    3    3    0    0  0.60374406900E+02  0.15609686556E+02  0.49292701433E+02  0.79495293807E+02  0.10000000000E+01 0.  0.
    9000005    1    3    3    0    0 -0.60374406900E+02 -0.15609686556E+02  0.39340897550E+02  0.73738982519E+02  0.10000000000E+01 0.  0.
<mgrwt>
<rscale>  0 0.12499931E+03</rscale>
<asrwt>0</asrwt>
<pdfrwt beam="1">  1        4 0.18605221E-01 0.12499931E+03</pdfrwt>
<pdfrwt beam="2">  1       -4 0.49692828E-02 0.12499931E+03</pdfrwt>
<totfact> 0.98664379E+03</totfact>
</mgrwt>
</event>
<event>
 5    1  0.3514886E-002  0.1250026E+03  0.7818608E-02  0.1235065E+00
          4   -1    0    0  501    0  0.00000000000E+00  0.00000000000E+00  0.13306358572E+03  0.13306964622E+03  0.12700000000E+01 0.  1.
         -4   -1    0    0    0  501 -0.00000000000E+00 -0.00000000000E+00 -0.29337004783E+02  0.29364481089E+02  0.12700000000E+01 0.  1.
         25    2    1    2    0    0  0.00000000000E+00  0.00000000000E+00  0.10372658093E+03  0.16243412730E+03  0.12500256846E+03 0.  0.
    9000005    1    3    3    0    0 -0.59148546193E+01  0.53061153753E+02  0.96575023562E+01  0.54265448441E+02  0.10000000000E+01 0.  0.
    9000005    1    3    3    0    0  0.59148546193E+01 -0.53061153753E+02  0.94069078577E+02  0.10816867886E+03  0.10000000000E+01 0.  0.
<mgrwt>
<rscale>  0 0.12500257E+03</rscale>
<asrwt>0</asrwt>
<pdfrwt beam="1">  1        4 0.20473901E-01 0.12500257E+03</pdfrwt>
<pdfrwt beam="2">  1       -4 0.45159651E-02 0.12500257E+03</pdfrwt>
<totfact> 0.96869955E+03</totfact>
</mgrwt>
</event>
<event>
 5    1  0.3514886E-002  0.1249916E+03  0.7818608E-02  0.1235082E+00
          4   -1    0    0  501    0  0.00000000000E+00  0.00000000000E+00  0.19417756490E+02  0.19459243744E+02  0.12700000000E+01 0.  1.
         -4   -1    0    0    0  501 -0.00000000000E+00 -0.00000000000E+00 -0.20088377219E+03  0.20088778666E+03  0.12700000000E+01 0.  1.
         25    2    1    2    0    0  0.00000000000E+00  0.00000000000E+00 -0.18146601570E+03  0.22034703041E+03  0.12499159553E+03 0.  0.
    9000005    1    3    3    0    0  0.33730760541E+01 -0.62233192377E+02 -0.82775170593E+02  0.10361986654E+03  0.10000000000E+01 0.  0.
    9000005    1    3    3    0    0 -0.33730760541E+01  0.62233192377E+02 -0.98690845109E+02  0.11672716386E+03  0.10000000000E+01 0.  0.
<mgrwt>
<rscale>  0 0.12499160E+03</rscale>
<asrwt>0</asrwt>
<pdfrwt beam="1">  1        4 0.29908474E-02 0.12499160E+03</pdfrwt>
<pdfrwt beam="2">  1       -4 0.30908694E-01 0.12499160E+03</pdfrwt>
<totfact> 0.86829766E+03</totfact>
</mgrwt>
</event>
<event>
 5    1  0.3514886E-002  0.1250049E+03  0.7818608E-02  0.1235062E+00
          4   -1    0    0  501    0  0.00000000000E+00  0.00000000000E+00  0.23323394695E+03  0.23323740461E+03  0.12700000000E+01 0.  1.
         -4   -1    0    0    0  501 -0.00000000000E+00 -0.00000000000E+00 -0.16721865602E+02  0.16770023530E+02  0.12700000000E+01 0.  1.
         25    2    1    2    0    0  0.00000000000E+00  0.00000000000E+00  0.21651208135E+03  0.25000742814E+03  0.12500493093E+03 0.  0.
    9000005    1    3    3    0    0 -0.49158959011E+01 -0.23497939828E+01  0.23276780986E+03  0.23283371936E+03  0.10000000000E+01 0.  0.
    9000005    1    3    3    0    0  0.49158959011E+01  0.23497939828E+01 -0.16255728505E+02  0.17173708787E+02  0.10000000000E+01 0.  0.
<mgrwt>
<rscale>  0 0.12500493E+03</rscale>
<asrwt>0</asrwt>
<pdfrwt beam="1">  1        4 0.35886114E-01 0.12500493E+03</pdfrwt>
<pdfrwt beam="2">  1       -4 0.25765653E-02 0.12500493E+03</pdfrwt>
<totfact> 0.82320112E+03</totfact>
</mgrwt>
</event>
<event>
 5    1  0.3514886E-002  0.1250022E+03  0.7818608E-02  0.1235066E+00
         -4   -1    0    0    0  501 -0.00000000000E+00  0.00000000000E+00  0.32473983657E+03  0.32474231993E+03  0.12700000000E+01 0. -1.
          4   -1    0    0  501    0  0.00000000000E+00 -0.00000000000E+00 -0.11993227885E+02  0.12060282546E+02  0.12700000000E+01 0. -1.
         25    2    1    2    0    0  0.00000000000E+00  0.00000000000E+00  0.31274660868E+03  0.33680260248E+03  0.12500220715E+03 0.  0.
    9000005    1    3    3    0    0 -0.18208871163E+02  0.59152657480E+02  0.13307233833E+03  0.14676459759E+03  0.10000000000E+01 0.  0.
    9000005    1    3    3    0    0  0.18208871163E+02 -0.59152657480E+02  0.17967427036E+03  0.19003800489E+03  0.10000000000E+01 0.  0.
<mgrwt>
<rscale>  0 0.12500221E+03</rscale>
<asrwt>0</asrwt>
<pdfrwt beam="2">  1        4 0.18504611E-02 0.12500221E+03</pdfrwt>
<pdfrwt beam="1">  1       -4 0.49965322E-01 0.12500221E+03</pdfrwt>
<totfact> 0.71197776E+03</totfact>
</mgrwt>
</event>
<event>
 5    1  0.3514886E-002  0.1250005E+03  0.7818608E-02  0.1235069E+00
          4   -1    0    0  501    0  0.00000000000E+00  0.00000000000E+00  0.12629559217E+02  0.12693252776E+02  0.12700000000E+01 0. -1.
         -4   -1    0    0    0  501 -0.00000000000E+00 -0.00000000000E+00 -0.30845370261E+03  0.30845631709E+03  0.12700000000E+01 0. -1.
         25    2    1    2    0    0  0.00000000000E+00  0.00000000000E+00 -0.29582414340E+03  0.32114956987E+03  0.12500048965E+03 0.  0.
    9000005    1    3    3    0    0 -0.29290955797E+02 -0.36365802460E+02 -0.41210415278E+02  0.62287478737E+02  0.10000000000E+01 0.  0.
    9000005    1    3    3    0    0  0.29290955797E+02  0.36365802460E+02 -0.25461372812E+03  0.25886209113E+03  0.10000000000E+01 0.  0.
<mgrwt>
<rscale>  0 0.12500049E+03</rscale>
<asrwt>0</asrwt>
<pdfrwt beam="1">  1        4 0.19481100E-02 0.12500049E+03</pdfrwt>
<pdfrwt beam="2">  1       -4 0.47459511E-01 0.12500049E+03</pdfrwt>
<totfact> 0.73018817E+03</totfact>
</mgrwt>
</event>
<event>
 5    1  0.3514886E-002  0.1249969E+03  0.7818608E-02  0.1235074E+00
         -4   -1    0    0    0  501 -0.00000000000E+00  0.00000000000E+00  0.40676581186E+03  0.40676779445E+03  0.12700000000E+01 0.  1.
          4   -1    0    0  501    0  0.00000000000E+00 -0.00000000000E+00 -0.95587130536E+01  0.96427120273E+01  0.12700000000E+01 0.  1.
         25    2    1    2    0    0  0.00000000000E+00  0.00000000000E+00  0.39720709881E+03  0.41641050648E+03  0.12499692220E+03 0.  0.
    9000005    1    3    3    0    0 -0.53537373157E+02 -0.12104515520E+02  0.99091678813E+02  0.11328252482E+03  0.10000000000E+01 0.  0.
    9000005    1    3    3    0    0  0.53537373157E+02  0.12104515520E+02  0.29811542000E+03  0.30312798165E+03  0.10000000000E+01 0.  0.
<mgrwt>
<rscale>  0 0.12499692E+03</rscale>
<asrwt>0</asrwt>
<pdfrwt beam="2">  1        4 0.14771852E-02 0.12499692E+03</pdfrwt>
<pdfrwt beam="1">  1       -4 0.62585970E-01 0.12499692E+03</pdfrwt>
<totfact> 0.62991690E+03</totfact>
</mgrwt>
</event>
<event>
 5    1  0.3514886E-002  0.1250009E+03  0.7818608E-02  0.1235068E+00
         -4   -1    0    0    0  501 -0.00000000000E+00  0.00000000000E+00  0.76553137330E+02  0.76563671118E+02  0.12700000000E+01 0. -1.
          4   -1    0    0  501    0  0.00000000000E+00 -0.00000000000E+00 -0.51005458610E+02  0.51021267213E+02  0.12700000000E+01 0. -1.
         25    2    1    2    0    0  0.00000000000E+00  0.00000000000E+00  0.25547678721E+02  0.12758493833E+03  0.12500093040E+03 0.  0.
    9000005    1    3    3    0    0  0.17980511147E+02 -0.12932024574E+01  0.73846679310E+02  0.76021728465E+02  0.10000000000E+01 0.  0.
    9000005    1    3    3    0    0 -0.17980511147E+02  0.12932024574E+01 -0.48299000590E+02  0.51563209866E+02  0.10000000000E+01 0.  0.
<mgrwt>
<rscale>  0 0.12500093E+03</rscale>
<asrwt>0</asrwt>
<pdfrwt beam="2">  1        4 0.78490200E-02 0.12500093E+03</pdfrwt>
<pdfrwt beam="1">  1       -4 0.11779432E-01 0.12500093E+03</pdfrwt>
<totfact> 0.10396243E+04</totfact>
</mgrwt>
</event>
<event>
 5    1  0.3514886E-002  0.1250040E+03  0.7818608E-02  0.1235063E+00
         -4   -1    0    0    0  501 -0.00000000000E+00  0.00000000000E+00  0.13178966848E+03  0.13179578756E+03  0.12700000000E+01 0. -1.
          4   -1    0    0  501    0  0.00000000000E+00 -0.00000000000E+00 -0.29621536344E+02  0.29648748969E+02  0.12700000000E+01 0. -1.
         25    2    1    2    0    0  0.00000000000E+00  0.00000000000E+00  0.10216813214E+03  0.16144453653E+03  0.12500404454E+03 0.  0.
    9000005    1    3    3    0    0  0.29498411046E+02  0.54048816817E+02  0.37290114713E+02  0.71992940688E+02  0.10000000000E+01 0.  0.
    9000005    1    3    3    0    0 -0.29498411046E+02 -0.54048816817E+02  0.64878017424E+02  0.89451595840E+02  0.10000000000E+01 0.  0.
<mgrwt>
<rscale>  0 0.12500404E+03</rscale>
<asrwt>0</asrwt>
<pdfrwt beam="2">  1        4 0.45597234E-02 0.12500404E+03</pdfrwt>
<pdfrwt beam="1">  1       -4 0.20277898E-01 0.12500404E+03</pdfrwt>
<totfact> 0.97056188E+03</totfact>
</mgrwt>
</event>
<event>
 5    1  0.3514886E-002  0.1249999E+03  0.7818608E-02  0.1235069E+00
         -4   -1    0    0    0  501 -0.00000000000E+00  0.00000000000E+00  0.61382969854E+02  0.61396106457E+02  0.12700000000E+01 0.  1.
          4   -1    0    0  501    0  0.00000000000E+00 -0.00000000000E+00 -0.63610940034E+02  0.63623616622E+02  0.12700000000E+01 0.  1.
         25    2    1    2    0    0  0.00000000000E+00  0.00000000000E+00 -0.22279701805E+01  0.12501972308E+03  0.12499986923E+03 0.  0.
    9000005    1    3    3    0    0 -0.15951050113E+02 -0.95077158604E+01  0.58564656504E+02  0.61446331477E+02  0.10000000000E+01 0.  0.
    9000005    1    3    3    0    0  0.15951050113E+02  0.95077158604E+01 -0.60792626684E+02  0.63573391602E+02  0.10000000000E+01 0.  0.
<mgrwt>
<rscale>  0 0.12499987E+03</rscale>
<asrwt>0</asrwt>
<pdfrwt beam="2">  1        4 0.97882841E-02 0.12499987E+03</pdfrwt>
<pdfrwt beam="1">  1       -4 0.94455195E-02 0.12499987E+03</pdfrwt>
<totfact> 0.10452465E+04</totfact>
</mgrwt>
</event>
<event>
 5    1  0.3514886E-002  0.1250009E+03  0.7818608E-02  0.1235068E+00
          4   -1    0    0  501    0  0.00000000000E+00  0.00000000000E+00  0.19016489039E+03  0.19016913113E+03  0.12700000000E+01 0.  1.
         -4   -1    0    0    0  501 -0.00000000000E+00 -0.00000000000E+00 -0.20517564434E+02  0.20556832205E+02  0.12700000000E+01 0.  1.
         25    2    1    2    0    0  0.00000000000E+00  0.00000000000E+00  0.16964732595E+03  0.21072596334E+03  0.12500086568E+03 0.  0.
    9000005    1    3    3    0    0 -0.52110686505E+02 -0.34337486348E+02  0.79304775436E+02  0.10091993868E+03  0.10000000000E+01 0.  0.
    9000005    1    3    3    0    0  0.52110686505E+02  0.34337486348E+02  0.90342550517E+02  0.10980602466E+03  0.10000000000E+01 0.  0.
<mgrwt>
<rscale>  0 0.12500087E+03</rscale>
<asrwt>0</asrwt>
<pdfrwt beam="1">  1        4 0.29259484E-01 0.12500087E+03</pdfrwt>
<pdfrwt beam="2">  1       -4 0.31598951E-02 0.12500087E+03</pdfrwt>
<totfact> 0.88355748E+03</totfact>
</mgrwt>
</event>
<event>
 5    1  0.3514886E-002  0.1250007E+03  0.7818608E-02  0.1235068E+00
          4   -1    0    0  501    0  0.00000000000E+00  0.00000000000E+00  0.34014463554E+03  0.34014700644E+03  0.12700000000E+01 0. -1.
         -4   -1    0    0    0  501 -0.00000000000E+00 -0.00000000000E+00 -0.11446693272E+02  0.11516930445E+02  0.12700000000E+01 0. -1.
         25    2    1    2    0    0  0.00000000000E+00  0.00000000000E+00  0.32869794227E+03  0.35166393688E+03  0.12500074900E+03 0.  0.
    9000005    1    3    3    0    0 -0.20136410344E+02 -0.56003671862E+02  0.21797973361E+03  0.22596028534E+03  0.10000000000E+01 0.  0.
    9000005    1    3    3    0    0  0.20136410344E+02  0.56003671862E+02  0.11071820866E+03  0.12570365155E+03  0.10000000000E+01 0.  0.
<mgrwt>
<rscale>  0 0.12500075E+03</rscale>
<asrwt>0</asrwt>
<pdfrwt beam="1">  1        4 0.52335533E-01 0.12500075E+03</pdfrwt>
<pdfrwt beam="2">  1       -4 0.17666148E-02 0.12500075E+03</pdfrwt>
<totfact> 0.69540733E+03</totfact>
</mgrwt>
</event>
<event>
 5    1  0.3514886E-002  0.1250036E+03  0.7818608E-02  0.1235064E+00
         -4   -1    0    0    0  501 -0.00000000000E+00  0.00000000000E+00  0.34170446087E+03  0.34170682094E+03  0.12700000000E+01 0. -1.
          4   -1    0    0  501    0  0.00000000000E+00 -0.00000000000E+00 -0.11394638513E+02  0.11465194584E+02  0.12700000000E+01 0. -1.
         25    2    1    2    0    0  0.00000000000E+00  0.00000000000E+00  0.33030982236E+03  0.35317201553E+03  0.12500357517E+03 0.  0.
    9000005    1    3    3    0    0 -0.23762251696E+02 -0.22213073533E+02  0.31591580932E+03  0.31758756875E+03  0.10000000000E+01 0.  0.
    9000005    1    3    3    0    0  0.23762251696E+02  0.22213073533E+02  0.14394013033E+02  0.35584446780E+02  0.10000000000E+01 0.  0.
<mgrwt>
<rscale>  0 0.12500358E+03</rscale>
<asrwt>0</asrwt>
<pdfrwt beam="2">  1        4 0.17586305E-02 0.12500358E+03</pdfrwt>
<pdfrwt beam="1">  1       -4 0.52575519E-01 0.12500358E+03</pdfrwt>
<totfact> 0.69371514E+03</totfact>
</mgrwt>
</event>
<event>
 5    1  0.3514886E-002  0.1250037E+03  0.7818608E-02  0.1235064E+00
          4   -1    0    0  501    0  0.00000000000E+00  0.00000000000E+00  0.24226667359E+02  0.24259932220E+02  0.12700000000E+01 0. -1.
         -4   -1    0    0    0  501 -0.00000000000E+00 -0.00000000000E+00 -0.16110066428E+03  0.16110567007E+03  0.12700000000E+01 0. -1.
         25    2    1    2    0    0  0.00000000000E+00  0.00000000000E+00 -0.13687399692E+03  0.18536560229E+03  0.12500366187E+03 0.  0.
    9000005    1    3    3    0    0  0.40338010468E+02 -0.25083107127E+02 -0.82173789106E+01  0.48216622319E+02  0.10000000000E+01 0.  0.
    9000005    1    3    3    0    0 -0.40338010468E+02  0.25083107127E+02 -0.12865661801E+03  0.13714897998E+03  0.10000000000E+01 0.  0.
<mgrwt>
<rscale>  0 0.12500366E+03</rscale>
<asrwt>0</asrwt>
<pdfrwt beam="1">  1        4 0.37301236E-02 0.12500366E+03</pdfrwt>
<pdfrwt beam="2">  1       -4 0.24787661E-01 0.12500366E+03</pdfrwt>
<totfact> 0.92652393E+03</totfact>
</mgrwt>
</event>
<event>
 5    1  0.3514886E-002  0.1250024E+03  0.7818608E-02  0.1235066E+00
         -4   -1    0    0    0  501 -0.00000000000E+00  0.00000000000E+00  0.46797131176E+02  0.46814360898E+02  0.12700000000E+01 0.  1.
          4   -1    0    0  501    0  0.00000000000E+00 -0.00000000000E+00 -0.83437713484E+02  0.83447378218E+02  0.12700000000E+01 0.  1.
         25    2    1    2    0    0  0.00000000000E+00  0.00000000000E+00 -0.36640582308E+02  0.13026173912E+03  0.12500235360E+03 0.  0.
    9000005    1    3    3    0    0 -0.24819155019E+02  0.35432071053E+01  0.41331998380E+02  0.48351616959E+02  0.10000000000E+01 0.  0.
    9000005    1    3    3    0    0  0.24819155019E+02 -0.35432071053E+01 -0.77972580688E+02  0.81910122156E+02  0.10000000000E+01 0.  0.
<mgrwt>
<rscale>  0 0.12500235E+03</rscale>
<asrwt>0</asrwt>
<pdfrwt beam="2">  1        4 0.12838640E-01 0.12500235E+03</pdfrwt>
<pdfrwt beam="1">  1       -4 0.72016274E-02 0.12500235E+03</pdfrwt>
<totfact> 0.10338362E+04</totfact>
</mgrwt>
</event>
<event>
 5    1  0.3514886E-002  0.1249995E+03  0.7818608E-02  0.1235070E+00
         -4   -1    0    0    0  501 -0.00000000000E+00  0.00000000000E+00  0.19678007973E+02  0.19718947685E+02  0.12700000000E+01 0.  1.
          4   -1    0    0  501    0  0.00000000000E+00 -0.00000000000E+00 -0.19825747528E+03  0.19826154293E+03  0.12700000000E+01 0.  1.
         25    2    1    2    0    0  0.00000000000E+00  0.00000000000E+00 -0.17857946731E+03  0.21798049061E+03  0.12499947258E+03 0.  0.
    9000005    1    3    3    0    0  0.55797271793E+02 -0.18096018469E+02 -0.51709207986E+02  0.78202580613E+02  0.10000000000E+01 0.  0.
    9000005    1    3    3    0    0 -0.55797271793E+02  0.18096018469E+02 -0.12687025932E+03  0.13977791000E+03  0.10000000000E+01 0.  0.
<mgrwt>
<rscale>  0 0.12499947E+03</rscale>
<asrwt>0</asrwt>
<pdfrwt beam="2">  1        4 0.30504611E-01 0.12499947E+03</pdfrwt>
<pdfrwt beam="1">  1       -4 0.30308481E-02 0.12499947E+03</pdfrwt>
<totfact> 0.87189951E+03</totfact>
</mgrwt>
</event>
<event>
 5    1  0.3514886E-002  0.1249977E+03  0.7818608E-02  0.1235073E+00
          4   -1    0    0  501    0  0.00000000000E+00  0.00000000000E+00  0.86336401459E+02  0.86345741742E+02  0.12700000000E+01 0.  1.
         -4   -1    0    0    0  501 -0.00000000000E+00 -0.00000000000E+00 -0.45222158156E+02  0.45239987713E+02  0.12700000000E+01 0.  1.
         25    2    1    2    0    0  0.00000000000E+00  0.00000000000E+00  0.41114243304E+02  0.13158572945E+03  0.12499769275E+03 0.  0.
    9000005    1    3    3    0    0 -0.37133711226E+02  0.43086595497E+02 -0.66861620684E+01  0.57280642316E+02  0.10000000000E+01 0.  0.
    9000005    1    3    3    0    0  0.37133711226E+02 -0.43086595497E+02  0.47800405372E+02  0.74305087139E+02  0.10000000000E+01 0.  0.
<mgrwt>
<rscale>  0 0.12499769E+03</rscale>
<asrwt>0</asrwt>
<pdfrwt beam="1">  1        4 0.13284613E-01 0.12499769E+03</pdfrwt>
<pdfrwt beam="2">  1       -4 0.69593451E-02 0.12499769E+03</pdfrwt>
<totfact> 0.10311085E+04</totfact>
</mgrwt>
</event>
<event>
 5    1  0.3514886E-002  0.1249962E+03  0.7818608E-02  0.1235075E+00
          4   -1    0    0  501    0  0.00000000000E+00  0.00000000000E+00  0.16774435140E+03  0.16774915894E+03  0.12700000000E+01 0. -1.
         -4   -1    0    0    0  501 -0.00000000000E+00 -0.00000000000E+00 -0.23263040899E+02  0.23297681684E+02  0.12700000000E+01 0. -1.
         25    2    1    2    0    0  0.00000000000E+00  0.00000000000E+00  0.14448131050E+03  0.19104684063E+03  0.12499618486E+03 0.  0.
    9000005    1    3    3    0    0  0.20415091917E+01  0.62286531582E+02  0.79283308690E+02  0.10084950577E+03  0.10000000000E+01 0.  0.
    9000005    1    3    3    0    0 -0.20415091917E+01 -0.62286531582E+02  0.65198001811E+02  0.90197334863E+02  0.10000000000E+01 0.  0.
<mgrwt>
<rscale>  0 0.12499618E+03</rscale>
<asrwt>0</asrwt>
<pdfrwt beam="1">  1        4 0.25809857E-01 0.12499618E+03</pdfrwt>
<pdfrwt beam="2">  1       -4 0.35819640E-02 0.12499618E+03</pdfrwt>
<totfact> 0.91673320E+03</totfact>
</mgrwt>
</event>
<event>
 5    1  0.3514886E-002  0.1250037E+03  0.7818608E-02  0.1235064E+00
          4   -1    0    0  501    0  0.00000000000E+00  0.00000000000E+00  0.24766198665E+03  0.24766524288E+03  0.12700000000E+01 0.  1.
         -4   -1    0    0    0  501 -0.00000000000E+00 -0.00000000000E+00 -0.15744509025E+02  0.15795647009E+02  0.12700000000E+01 0.  1.
         25    2    1    2    0    0  0.00000000000E+00  0.00000000000E+00  0.23191747763E+03  0.26346088989E+03  0.12500369624E+03 0.  0.
    9000005    1    3    3    0    0 -0.55778350996E+02  0.21051785958E+02  0.15544951372E+03  0.16649310330E+03  0.10000000000E+01 0.  0.
    9000005    1    3    3    0    0  0.55778350996E+02 -0.21051785958E+02  0.76467963911E+02  0.96967786592E+02  0.10000000000E+01 0.  0.
<mgrwt>
<rscale>  0 0.12500370E+03</rscale>
<asrwt>0</asrwt>
<pdfrwt beam="1">  1        4 0.38106024E-01 0.12500370E+03</pdfrwt>
<pdfrwt beam="2">  1       -4 0.24264166E-02 0.12500370E+03</pdfrwt>
<totfact> 0.80416201E+03</totfact>
</mgrwt>
</event>
<event>
 5    1  0.3514886E-002  0.1249992E+03  0.7818608E-02  0.1235070E+00
         -4   -1    0    0    0  501 -0.00000000000E+00  0.00000000000E+00  0.17467640782E+03  0.17468102458E+03  0.12700000000E+01 0.  1.
          4   -1    0    0  501    0  0.00000000000E+00 -0.00000000000E+00 -0.22339554319E+02  0.22375624845E+02  0.12700000000E+01 0.  1.
         25    2    1    2    0    0  0.00000000000E+00  0.00000000000E+00  0.15233685350E+03  0.19705664942E+03  0.12499922459E+03 0.  0.
    9000005    1    3    3    0    0 -0.17536939348E+02  0.59042953285E+02  0.59515502606E+02  0.85654594884E+02  0.10000000000E+01 0.  0.
    9000005    1    3    3    0    0  0.17536939348E+02 -0.59042953285E+02  0.92821350891E+02  0.11140205454E+03  0.10000000000E+01 0.  0.
<mgrwt>
<rscale>  0 0.12499922E+03</rscale>
<asrwt>0</asrwt>
<pdfrwt beam="2">  1        4 0.34399844E-02 0.12499922E+03</pdfrwt>
<pdfrwt beam="1">  1       -4 0.26876423E-01 0.12499922E+03</pdfrwt>
<totfact> 0.90635344E+03</totfact>
</mgrwt>
</event>
<event>
 5    1  0.3514886E-002  0.1249983E+03  0.7818608E-02  0.1235072E+00
          4   -1    0    0  501    0  0.00000000000E+00  0.00000000000E+00  0.11420197900E+03  0.11420904040E+03  0.12700000000E+01 0. -1.
         -4   -1    0    0    0  501 -0.00000000000E+00 -0.00000000000E+00 -0.34183921180E+02  0.34207504546E+02  0.12700000000E+01 0. -1.
         25    2    1    2    0    0  0.00000000000E+00  0.00000000000E+00  0.80018057822E+02  0.14841654494E+03  0.12499832493E+03 0.  0.
    9000005    1    3    3    0    0 -0.21063919889E+02  0.47723922413E+02 -0.84479061971E+00  0.52182134517E+02  0.10000000000E+01 0.  0.
    9000005    1    3    3    0    0  0.21063919889E+02 -0.47723922413E+02  0.80862848442E+02  0.96234410424E+02  0.10000000000E+01 0.  0.
<mgrwt>
<rscale>  0 0.12499832E+03</rscale>
<asrwt>0</asrwt>
<pdfrwt beam="1">  1        4 0.17571893E-01 0.12499832E+03</pdfrwt>
<pdfrwt beam="2">  1       -4 0.52614220E-02 0.12499832E+03</pdfrwt>
<totfact> 0.99624033E+03</totfact>
</mgrwt>
</event>
<event>
 5    1  0.3514886E-002  0.1250020E+03  0.7818608E-02  0.1235066E+00
         -4   -1    0    0    0  501 -0.00000000000E+00  0.00000000000E+00  0.79392708287E+02  0.79402865371E+02  0.12700000000E+01 0.  1.
          4   -1    0    0  501    0  0.00000000000E+00 -0.00000000000E+00 -0.49181724664E+02  0.49198119282E+02  0.12700000000E+01 0.  1.
         25    2    1    2    0    0  0.00000000000E+00  0.00000000000E+00  0.30210983623E+02  0.12860098465E+03  0.12500203887E+03 0.  0.
    9000005    1    3    3    0    0 -0.96298239734E+01  0.29370860407E+02 -0.40772134119E+02  0.51173702929E+02  0.10000000000E+01 0.  0.
    9000005    1    3    3    0    0  0.96298239734E+01 -0.29370860407E+02  0.70983117742E+02  0.77427281725E+02  0.10000000000E+01 0.  0.
<mgrwt>
<rscale>  0 0.12500204E+03</rscale>
<asrwt>0</asrwt>
<pdfrwt beam="2">  1        4 0.75684617E-02 0.12500204E+03</pdfrwt>
<pdfrwt beam="1">  1       -4 0.12216305E-01 0.12500204E+03</pdfrwt>
<totfact> 0.10374052E+04</totfact>
</mgrwt>
</event>
<event>
 5    1  0.3514886E-002  0.1249994E+03  0.7818608E-02  0.1235070E+00
         -4   -1    0    0    0  501 -0.00000000000E+00  0.00000000000E+00  0.15009344478E+03  0.15009881767E+03  0.12700000000E+01 0. -1.
          4   -1    0    0  501    0  0.00000000000E+00 -0.00000000000E+00 -0.26003849090E+02  0.26034843335E+02  0.12700000000E+01 0. -1.
         25    2    1    2    0    0  0.00000000000E+00  0.00000000000E+00  0.12408959569E+03  0.17613366101E+03  0.12499935512E+03 0.  0.
    9000005    1    3    3    0    0  0.12366440518E+02 -0.53253219153E+02  0.10469993307E+03  0.11811820429E+03  0.10000000000E+01 0.  0.
    9000005    1    3    3    0    0 -0.12366440518E+02  0.53253219153E+02  0.19389662628E+02  0.58015456717E+02  0.10000000000E+01 0.  0.
<mgrwt>
<rscale>  0 0.12499936E+03</rscale>
<asrwt>0</asrwt>
<pdfrwt beam="2">  1        4 0.40033896E-02 0.12499936E+03</pdfrwt>
<pdfrwt beam="1">  1       -4 0.23094097E-01 0.12499936E+03</pdfrwt>
<totfact> 0.94318986E+03</totfact>
</mgrwt>
</event>
<event>
 5    1  0.3514886E-002  0.1250049E+03  0.7818608E-02  0.1235062E+00
          4   -1    0    0  501    0  0.00000000000E+00  0.00000000000E+00  0.53326880037E+02  0.53342000661E+02  0.12700000000E+01 0.  1.
         -4   -1    0    0    0  501 -0.00000000000E+00 -0.00000000000E+00 -0.73225736354E+02  0.73236748730E+02  0.12700000000E+01 0.  1.
         25    2    1    2    0    0  0.00000000000E+00  0.00000000000E+00 -0.19898856317E+02  0.12657874939E+03  0.12500486116E+03 0.  0.
    9000005    1    3    3    0    0 -0.48512958768E+01 -0.31648111271E+02  0.44395809385E+02  0.54746012728E+02  0.10000000000E+01 0.  0.
    9000005    1    3    3    0    0  0.48512958768E+01  0.31648111271E+02 -0.64294665702E+02  0.71832736662E+02  0.10000000000E+01 0.  0.
<mgrwt>
<rscale>  0 0.12500486E+03</rscale>
<asrwt>0</asrwt>
<pdfrwt beam="1">  1        4 0.82061456E-02 0.12500486E+03</pdfrwt>
<pdfrwt beam="2">  1       -4 0.11267508E-01 0.12500486E+03</pdfrwt>
<totfact> 0.10417168E+04</totfact>
</mgrwt>
</event>
<event>
 5    1  0.3514886E-002  0.1249964E+03  0.7818608E-02  0.1235075E+00
          4   -1    0    0  501    0  0.00000000000E+00  0.00000000000E+00  0.34149591639E+02  0.34173198696E+02  0.12700000000E+01 0. -1.
         -4   -1    0    0    0  501 -0.00000000000E+00 -0.00000000000E+00 -0.11431313547E+03  0.11432019000E+03  0.12700000000E+01 0. -1.
         25    2    1    2    0    0  0.00000000000E+00  0.00000000000E+00 -0.80163543834E+02  0.14849338870E+03  0.12499637085E+03 0.  0.
    9000005    1    3    3    0    0  0.53502874125E+02 -0.16109130375E+02 -0.73323220023E+02  0.92191953095E+02  0.10000000000E+01 0.  0.
    9000005    1    3    3    0    0 -0.53502874125E+02  0.16109130375E+02 -0.68403238116E+01  0.56301435602E+02  0.10000000000E+01 0.  0.
<mgrwt>
<rscale>  0 0.12499637E+03</rscale>
<asrwt>0</asrwt>
<pdfrwt beam="1">  1        4 0.52561419E-02 0.12499637E+03</pdfrwt>
<pdfrwt beam="2">  1       -4 0.17588995E-01 0.12499637E+03</pdfrwt>
<totfact> 0.99613007E+03</totfact>
</mgrwt>
</event>
<event>
 5    1  0.3514886E-002  0.1250049E+03  0.7818608E-02  0.1235062E+00
         -4   -1    0    0    0  501 -0.00000000000E+00  0.00000000000E+00  0.13684887225E+03  0.13685476512E+03  0.12700000000E+01 0.  1.
          4   -1    0    0  501    0  0.00000000000E+00 -0.00000000000E+00 -0.28525870327E+02  0.28554127161E+02  0.12700000000E+01 0.  1.
         25    2    1    2    0    0  0.00000000000E+00  0.00000000000E+00  0.10832300193E+03  0.16540889228E+03  0.12500491550E+03 0.  0.
    9000005    1    3    3    0    0 -0.10126910514E+02  0.50635487292E+02  0.10073900768E+03  0.11320713122E+03  0.10000000000E+01 0.  0.
    9000005    1    3    3    0    0  0.10126910514E+02 -0.50635487292E+02  0.75839942465E+01  0.52201761068E+02  0.10000000000E+01 0.  0.
<mgrwt>
<rscale>  0 0.12500492E+03</rscale>
<asrwt>0</asrwt>
<pdfrwt beam="2">  1        4 0.43912224E-02 0.12500492E+03</pdfrwt>
<pdfrwt beam="1">  1       -4 0.21056299E-01 0.12500492E+03</pdfrwt>
<totfact> 0.96299377E+03</totfact>
</mgrwt>
</event>
<event>
 5    1  0.3514886E-002  0.1250023E+03  0.7818608E-02  0.1235066E+00
          4   -1    0    0  501    0  0.00000000000E+00  0.00000000000E+00  0.61031077363E+02  0.61044289693E+02  0.12700000000E+01 0.  1.
         -4   -1    0    0    0  501 -0.00000000000E+00 -0.00000000000E+00 -0.63980163904E+02  0.63992767351E+02  0.12700000000E+01 0.  1.
         25    2    1    2    0    0  0.00000000000E+00  0.00000000000E+00 -0.29490865413E+01  0.12503705704E+03  0.12500227407E+03 0.  0.
    9000005    1    3    3    0    0  0.49917311609E+02  0.69594305523E+01  0.35484627898E+02  0.61646820591E+02  0.10000000000E+01 0.  0.
    9000005    1    3    3    0    0 -0.49917311609E+02 -0.69594305523E+01 -0.38433714439E+02  0.63390236453E+02  0.10000000000E+01 0.  0.
<mgrwt>
<rscale>  0 0.12500227E+03</rscale>
<asrwt>0</asrwt>
<pdfrwt beam="1">  1        4 0.93913824E-02 0.12500227E+03</pdfrwt>
<pdfrwt beam="2">  1       -4 0.98450880E-02 0.12500227E+03</pdfrwt>
<totfact> 0.10451521E+04</totfact>
</mgrwt>
</event>
<event>
 5    1  0.3514886E-002  0.1249933E+03  0.7818608E-02  0.1235080E+00
         -4   -1    0    0    0  501 -0.00000000000E+00  0.00000000000E+00  0.28559088414E+01  0.31255583998E+01  0.12700000000E+01 0.  1.
          4   -1    0    0  501    0  0.00000000000E+00 -0.00000000000E+00 -0.13057086627E+04  0.13057092804E+04  0.12700000000E+01 0.  1.
         25    2    1    2    0    0  0.00000000000E+00  0.00000000000E+00 -0.13028527539E+04  0.13088348388E+04  0.12499334721E+03 0.  0.
    9000005    1    3    3    0    0 -0.18131659565E+02  0.36871493031E+02 -0.15843572185E+03  0.16367999888E+03  0.10000000000E+01 0.  0.
    9000005    1    3    3    0    0  0.18131659565E+02 -0.36871493031E+02 -0.11444170320E+04  0.11451548399E+04  0.10000000000E+01 0.  0.
<mgrwt>
<rscale>  0 0.12499335E+03</rscale>
<asrwt>0</asrwt>
<pdfrwt beam="2">  1        4 0.20089859E+00 0.12499335E+03</pdfrwt>
<pdfrwt beam="1">  1       -4 0.46016142E-03 0.12499335E+03</pdfrwt>
<totfact> 0.22024221E+03</totfact>
</mgrwt>
</event>
<event>
 5    1  0.3514886E-002  0.1250008E+03  0.7818608E-02  0.1235068E+00
          4   -1    0    0  501    0  0.00000000000E+00  0.00000000000E+00  0.91378018307E+02  0.91386843308E+02  0.12700000000E+01 0. -1.
         -4   -1    0    0    0  501 -0.00000000000E+00 -0.00000000000E+00 -0.42728439954E+02  0.42747309634E+02  0.12700000000E+01 0. -1.
         25    2    1    2    0    0  0.00000000000E+00  0.00000000000E+00  0.48649578353E+02  0.13413415294E+03  0.12500075804E+03 0.  0.
    9000005    1    3    3    0    0 -0.45465947994E+02 -0.33495660686E+02  0.53041820155E+02  0.77482555437E+02  0.10000000000E+01 0.  0.
    9000005    1    3    3    0    0  0.45465947994E+02  0.33495660686E+02 -0.43922418019E+01  0.56651597504E+02  0.10000000000E+01 0.  0.
<mgrwt>
<rscale>  0 0.12500076E+03</rscale>
<asrwt>0</asrwt>
<pdfrwt beam="1">  1        4 0.14060287E-01 0.12500076E+03</pdfrwt>
<pdfrwt beam="2">  1       -4 0.65757365E-02 0.12500076E+03</pdfrwt>
<totfact> 0.10256178E+04</totfact>
</mgrwt>
</event>
<event>
 5    1  0.3514886E-002  0.1250019E+03  0.7818608E-02  0.1235066E+00
         -4   -1    0    0    0  501 -0.00000000000E+00  0.00000000000E+00  0.18158547350E+02  0.18202904764E+02  0.12700000000E+01 0.  1.
          4   -1    0    0  501    0  0.00000000000E+00 -0.00000000000E+00 -0.21481689734E+03  0.21482065143E+03  0.12700000000E+01 0.  1.
         25    2    1    2    0    0  0.00000000000E+00  0.00000000000E+00 -0.19665834999E+03  0.23302355620E+03  0.12500188448E+03 0.  0.
    9000005    1    3    3    0    0  0.59354410149E+02  0.11930677663E+02 -0.12721347826E+03  0.14088845278E+03  0.10000000000E+01 0.  0.
    9000005    1    3    3    0    0 -0.59354410149E+02 -0.11930677663E+02 -0.69444871724E+02  0.92135103421E+02  0.10000000000E+01 0.  0.
<mgrwt>
<rscale>  0 0.12500188E+03</rscale>
<asrwt>0</asrwt>
<pdfrwt beam="2">  1        4 0.33052452E-01 0.12500188E+03</pdfrwt>
<pdfrwt beam="1">  1       -4 0.27973237E-02 0.12500188E+03</pdfrwt>
<totfact> 0.84843914E+03</totfact>
</mgrwt>
</event>
<event>
 5    1  0.3514886E-002  0.1250024E+03  0.7818608E-02  0.1235066E+00
         -4   -1    0    0    0  501 -0.00000000000E+00  0.00000000000E+00  0.25415906240E+02  0.25447616587E+02  0.12700000000E+01 0.  1.
          4   -1    0    0  501    0  0.00000000000E+00 -0.00000000000E+00 -0.15356888690E+03  0.15357413820E+03  0.12700000000E+01 0.  1.
         25    2    1    2    0    0  0.00000000000E+00  0.00000000000E+00 -0.12815298066E+03  0.17902175479E+03  0.12500240892E+03 0.  0.
    9000005    1    3    3    0    0  0.25035800251E+02  0.37283574855E+02 -0.12631382949E+03  0.13406356615E+03  0.10000000000E+01 0.  0.
    9000005    1    3    3    0    0 -0.25035800251E+02 -0.37283574855E+02 -0.18391511659E+01  0.44958188633E+02  0.10000000000E+01 0.  0.
<mgrwt>
<rscale>  0 0.12500241E+03</rscale>
<asrwt>0</asrwt>
<pdfrwt beam="2">  1        4 0.23628825E-01 0.12500241E+03</pdfrwt>
<pdfrwt beam="1">  1       -4 0.39129827E-02 0.12500241E+03</pdfrwt>
<totfact> 0.93788321E+03</totfact>
</mgrwt>
</event>
<event>
 5    1  0.3514886E-002  0.1249995E+03  0.7818608E-02  0.1235070E+00
          4   -1    0    0  501    0  0.00000000000E+00  0.00000000000E+00  0.21379751364E+03  0.21380128563E+03  0.12700000000E+01 0.  1.
         -4   -1    0    0    0  501 -0.00000000000E+00 -0.00000000000E+00 -0.18244624903E+02  0.18288773547E+02  0.12700000000E+01 0.  1.
         25    2    1    2    0    0  0.00000000000E+00  0.00000000000E+00  0.19555288873E+03  0.23209005918E+03  0.12499945311E+03 0.  0.
    9000005    1    3    3    0    0 -0.38492589602E+02  0.48651544775E+02  0.11174066746E+03  0.12781091122E+03  0.10000000000E+01 0.  0.
    9000005    1    3    3    0    0  0.38492589602E+02 -0.48651544775E+02  0.83812221277E+02  0.10427914796E+03  0.10000000000E+01 0.  0.
<mgrwt>
<rscale>  0 0.12499945E+03</rscale>
<asrwt>0</asrwt>
<pdfrwt beam="1">  1        4 0.32895611E-01 0.12499945E+03</pdfrwt>
<pdfrwt beam="2">  1       -4 0.28105516E-02 0.12499945E+03</pdfrwt>
<totfact> 0.84990733E+03</totfact>
</mgrwt>
</event>
<event>
 5    1  0.3514886E-002  0.1250016E+03  0.7818608E-02  0.1235067E+00
          4   -1    0    0  501    0  0.00000000000E+00  0.00000000000E+00  0.18443267809E+04  0.18443272182E+04  0.12700000000E+01 0.  1.
         -4   -1    0    0    0  501 -0.00000000000E+00 -0.00000000000E+00 -0.19271836103E+01  0.23080157426E+01  0.12700000000E+01 0.  1.
         25    2    1    2    0    0  0.00000000000E+00  0.00000000000E+00  0.18423995973E+04  0.18466352339E+04  0.12500164397E+03 0.  0.
    9000005    1    3    3    0    0  0.22821586218E+02 -0.47072617530E+02  0.14262287659E+04  0.14271881967E+04  0.10000000000E+01 0.  0.
    9000005    1    3    3    0    0 -0.22821586218E+02  0.47072617530E+02  0.41617083142E+03  0.41944703723E+03  0.10000000000E+01 0.  0.
<mgrwt>
<rscale>  0 0.12500164E+03</rscale>
<asrwt>0</asrwt>
<pdfrwt beam="1">  1        4 0.28377272E+00 0.12500164E+03</pdfrwt>
<pdfrwt beam="2">  1       -4 0.32581727E-03 0.12500164E+03</pdfrwt>
<totfact> 0.11998077E+03</totfact>
</mgrwt>
</event>
<event>
 5    1  0.3514886E-002  0.1249963E+03  0.7818608E-02  0.1235075E+00
         -4   -1    0    0    0  501 -0.00000000000E+00  0.00000000000E+00  0.33651055817E+03  0.33651295467E+03  0.12700000000E+01 0. -1.
          4   -1    0    0  501    0  0.00000000000E+00 -0.00000000000E+00 -0.11570231132E+02  0.11639722868E+02  0.12700000000E+01 0. -1.
         25    2    1    2    0    0  0.00000000000E+00  0.00000000000E+00  0.32494032704E+03  0.34815267754E+03  0.12499628291E+03 0.  0.
    9000005    1    3    3    0    0  0.32981638014E+02 -0.45889539890E+01  0.30975379531E+03  0.31154014293E+03  0.10000000000E+01 0.  0.
    9000005    1    3    3    0    0 -0.32981638014E+02  0.45889539890E+01  0.15186531730E+02  0.36612534613E+02  0.10000000000E+01 0.  0.
<mgrwt>
<rscale>  0 0.12499628E+03</rscale>
<asrwt>0</asrwt>
<pdfrwt beam="2">  1        4 0.17855653E-02 0.12499628E+03</pdfrwt>
<pdfrwt beam="1">  1       -4 0.51776387E-01 0.12499628E+03</pdfrwt>
<totfact> 0.69934013E+03</totfact>
</mgrwt>
</event>
<event>
 5    1  0.3514886E-002  0.1249681E+03  0.7818608E-02  0.1235119E+00
          4   -1    0    0  501    0  0.00000000000E+00  0.00000000000E+00  0.16514266524E+02  0.16563028070E+02  0.12700000000E+01 0. -1.
         -4   -1    0    0    0  501 -0.00000000000E+00 -0.00000000000E+00 -0.23601833251E+03  0.23602174938E+03  0.12700000000E+01 0. -1.
         25    2    1    2    0    0  0.00000000000E+00  0.00000000000E+00 -0.21950406599E+03  0.25258477745E+03  0.12496813520E+03 0.  0.
    9000005    1    3    3    0    0  0.61184385651E+02  0.89519699819E+01 -0.12778396630E+03  0.14196270234E+03  0.10000000000E+01 0.  0.
    9000005    1    3    3    0    0 -0.61184385651E+02 -0.89519699819E+01 -0.91720099689E+02  0.11062207511E+03  0.10000000000E+01 0.  0.
<mgrwt>
<rscale>  0 0.12496814E+03</rscale>
<asrwt>0</asrwt>
<pdfrwt beam="1">  1        4 0.25446703E-02 0.12496814E+03</pdfrwt>
<pdfrwt beam="2">  1       -4 0.36314524E-01 0.12496814E+03</pdfrwt>
<totfact> 0.82016270E+03</totfact>
</mgrwt>
</event>
<event>
 5    1  0.3514886E-002  0.1249954E+03  0.7818608E-02  0.1235076E+00
          4   -1    0    0  501    0  0.00000000000E+00  0.00000000000E+00  0.95543728054E+02  0.95552168319E+02  0.12700000000E+01 0. -1.
         -4   -1    0    0    0  501 -0.00000000000E+00 -0.00000000000E+00 -0.40861327186E+02  0.40881058687E+02  0.12700000000E+01 0. -1.
         25    2    1    2    0    0  0.00000000000E+00  0.00000000000E+00  0.54682400869E+02  0.13643322701E+03  0.12499544178E+03 0.  0.
    9000005    1    3    3    0    0  0.45328518088E+02  0.36793148225E+02  0.51663776564E+02  0.77965095506E+02  0.10000000000E+01 0.  0.
    9000005    1    3    3    0    0 -0.45328518088E+02 -0.36793148225E+02  0.30186243042E+01  0.58468131500E+02  0.10000000000E+01 0.  0.
<mgrwt>
<rscale>  0 0.12499544E+03</rscale>
<asrwt>0</asrwt>
<pdfrwt beam="1">  1        4 0.14701202E-01 0.12499544E+03</pdfrwt>
<pdfrwt beam="2">  1       -4 0.62885251E-02 0.12499544E+03</pdfrwt>
<totfact> 0.10208999E+04</totfact>
</mgrwt>
</event>
<event>
 5    1  0.3514886E-002  0.1250009E+03  0.7818608E-02  0.1235068E+00
         -4   -1    0    0    0  501 -0.00000000000E+00  0.00000000000E+00  0.23871773827E+02  0.23905532532E+02  0.12700000000E+01 0. -1.
          4   -1    0    0  501    0  0.00000000000E+00 -0.00000000000E+00 -0.16348517398E+03  0.16349010677E+03  0.12700000000E+01 0. -1.
         25    2    1    2    0    0  0.00000000000E+00  0.00000000000E+00 -0.13961340016E+03  0.18739563930E+03  0.12500089650E+03 0.  0.
    9000005    1    3    3    0    0 -0.51173789065E+02 -0.28154546412E+02 -0.36490684671E+02  0.68876739461E+02  0.10000000000E+01 0.  0.
    9000005    1    3    3    0    0  0.51173789065E+02  0.28154546412E+02 -0.10312271548E+03  0.11851889984E+03  0.10000000000E+01 0.  0.
<mgrwt>
<rscale>  0 0.12500090E+03</rscale>
<asrwt>0</asrwt>
<pdfrwt beam="2">  1        4 0.25154541E-01 0.12500090E+03</pdfrwt>
<pdfrwt beam="1">  1       -4 0.36755570E-02 0.12500090E+03</pdfrwt>
<totfact> 0.92300596E+03</totfact>
</mgrwt>
</event>
<event>
 5    1  0.3514886E-002  0.1249995E+03  0.7818608E-02  0.1235070E+00
          4   -1    0    0  501    0  0.00000000000E+00  0.00000000000E+00  0.12635154809E+02  0.12698820302E+02  0.12700000000E+01 0. -1.
         -4   -1    0    0    0  501 -0.00000000000E+00 -0.00000000000E+00 -0.30831282019E+03  0.30831543587E+03  0.12700000000E+01 0. -1.
         25    2    1    2    0    0  0.00000000000E+00  0.00000000000E+00 -0.29567766539E+03  0.32101425617E+03  0.12499948343E+03 0.  0.
    9000005    1    3    3    0    0 -0.18014756250E+02 -0.31182525769E+02 -0.27899777298E+03  0.28131412813E+03  0.10000000000E+01 0.  0.
    9000005    1    3    3    0    0  0.18014756250E+02  0.31182525769E+02 -0.16679892403E+02  0.39700128044E+02  0.10000000000E+01 0.  0.
<mgrwt>
<rscale>  0 0.12499948E+03</rscale>
<asrwt>0</asrwt>
<pdfrwt beam="1">  1        4 0.19489688E-02 0.12499948E+03</pdfrwt>
<pdfrwt beam="2">  1       -4 0.47437834E-01 0.12499948E+03</pdfrwt>
<totfact> 0.73036494E+03</totfact>
</mgrwt>
</event>
<event>
 5    1  0.3514886E-002  0.1249997E+03  0.7818608E-02  0.1235070E+00
          4   -1    0    0  501    0  0.00000000000E+00  0.00000000000E+00  0.18507880723E+03  0.18508316452E+03  0.12700000000E+01 0. -1.
         -4   -1    0    0    0  501 -0.00000000000E+00 -0.00000000000E+00 -0.21082057483E+02  0.21120275750E+02  0.12700000000E+01 0. -1.
         25    2    1    2    0    0  0.00000000000E+00  0.00000000000E+00  0.16399674975E+03  0.20620344027E+03  0.12499969939E+03 0.  0.
    9000005    1    3    3    0    0 -0.43581440792E+02 -0.14195550530E+01  0.81531948638E+01  0.44371519070E+02  0.10000000000E+01 0.  0.
    9000005    1    3    3    0    0  0.43581440792E+02  0.14195550530E+01  0.15584355489E+03  0.16183192120E+03  0.10000000000E+01 0.  0.
<mgrwt>
<rscale>  0 0.12499970E+03</rscale>
<asrwt>0</asrwt>
<pdfrwt beam="1">  1        4 0.28476939E-01 0.12499970E+03</pdfrwt>
<pdfrwt beam="2">  1       -4 0.32466684E-02 0.12499970E+03</pdfrwt>
<totfact> 0.89100284E+03</totfact>
</mgrwt>
</event>
<event>
 4    1  0.3514886E-002  0.1250874E+03  0.7818608E-02  0.1234933E+00
         -4   -1    0    0    0  501 -0.00000000000E+00  0.00000000000E+00  0.10747953170E+02  0.10822725967E+02  0.12700000000E+01 0. -1.
          4   -1    0    0  501    0  0.00000000000E+00 -0.00000000000E+00 -0.36261228785E+03  0.36261451185E+03  0.12700000000E+01 0. -1.
    9000005    1    1    2    0    0 -0.41571906800E+02  0.41768603053E+02 -0.11346104025E+03  0.12785635413E+03  0.10000000000E+01 0.  0.
    9000005    1    1    2    0    0  0.41571906800E+02 -0.41768603053E+02 -0.23840329443E+03  0.24558088369E+03  0.10000000000E+01 0.  0.
<mgrwt>
<rscale>  0 0.12508741E+03</rscale>
<asrwt>0</asrwt>
<pdfrwt beam="2">  1        4 0.55792419E-01 0.12508741E+03</pdfrwt>
<pdfrwt beam="1">  1       -4 0.16594544E-02 0.12508741E+03</pdfrwt>
<totfact> 0.67091152E+03</totfact>
</mgrwt>
</event>
<event>
 5    1  0.3514886E-002  0.1250176E+03  0.7818608E-02  0.1235042E+00
          4   -1    0    0  501    0  0.00000000000E+00  0.00000000000E+00  0.56872096172E+03  0.56872237972E+03  0.12700000000E+01 0. -1.
         -4   -1    0    0    0  501 -0.00000000000E+00 -0.00000000000E+00 -0.68102855053E+01  0.69276899948E+01  0.12700000000E+01 0. -1.
         25    2    1    2    0    0  0.00000000000E+00  0.00000000000E+00  0.56191067621E+03  0.57565006972E+03  0.12501757766E+03 0.  0.
    9000005    1    3    3    0    0  0.58427284958E+02 -0.34137620373E+01  0.38193553642E+03  0.38639507681E+03  0.10000000000E+01 0.  0.
    9000005    1    3    3    0    0 -0.58427284958E+02  0.34137620373E+01  0.17997513979E+03  0.18925499291E+03  0.10000000000E+01 0.  0.
<mgrwt>
<rscale>  0 0.12501758E+03</rscale>
<asrwt>0</asrwt>
<pdfrwt beam="1">  1        4 0.87504674E-01 0.12501758E+03</pdfrwt>
<pdfrwt beam="2">  1       -4 0.10568764E-02 0.12501758E+03</pdfrwt>
<totfact> 0.50422178E+03</totfact>
</mgrwt>
</event>
<event>
 5    1  0.3514886E-002  0.1250077E+03  0.7818608E-02  0.1235057E+00
          4   -1    0    0  501    0  0.00000000000E+00  0.00000000000E+00  0.40320870127E+02  0.40340865978E+02  0.12700000000E+01 0. -1.
         -4   -1    0    0    0  501 -0.00000000000E+00 -0.00000000000E+00 -0.96842928579E+02  0.96851255623E+02  0.12700000000E+01 0. -1.
         25    2    1    2    0    0  0.00000000000E+00  0.00000000000E+00 -0.56522058452E+02  0.13719212160E+03  0.12500774031E+03 0.  0.
    9000005    1    3    3    0    0 -0.60549624744E+02 -0.14618942720E+02 -0.22690550499E+02  0.66301068052E+02  0.10000000000E+01 0.  0.
    9000005    1    3    3    0    0  0.60549624744E+02  0.14618942720E+02 -0.33831507953E+02  0.70891053549E+02  0.10000000000E+01 0.  0.
<mgrwt>
<rscale>  0 0.12500774E+03</rscale>
<asrwt>0</asrwt>
<pdfrwt beam="1">  1        4 0.62053895E-02 0.12500774E+03</pdfrwt>
<pdfrwt beam="2">  1       -4 0.14901091E-01 0.12500774E+03</pdfrwt>
<totfact> 0.10190292E+04</totfact>
</mgrwt>
</event>
<event>
 5    1  0.3514886E-002  0.1250227E+03  0.7818608E-02  0.1235034E+00
          4   -1    0    0  501    0  0.00000000000E+00  0.00000000000E+00  0.53587213236E+02  0.53602260422E+02  0.12700000000E+01 0.  1.
         -4   -1    0    0    0  501 -0.00000000000E+00 -0.00000000000E+00 -0.72890885406E+02  0.72901948364E+02  0.12700000000E+01 0.  1.
         25    2    1    2    0    0  0.00000000000E+00  0.00000000000E+00 -0.19303672170E+02  0.12650420879E+03  0.12502273026E+03 0.  0.
    9000005    1    3    3    0    0  0.69787786163E+01 -0.57477576297E+02 -0.33474302758E+02  0.66887248957E+02  0.10000000000E+01 0.  0.
    9000005    1    3    3    0    0 -0.69787786163E+01  0.57477576297E+02  0.14170630588E+02  0.59616959829E+02  0.10000000000E+01 0.  0.
<mgrwt>
<rscale>  0 0.12502273E+03</rscale>
<asrwt>0</asrwt>
<pdfrwt beam="1">  1        4 0.82461952E-02 0.12502273E+03</pdfrwt>
<pdfrwt beam="2">  1       -4 0.11215991E-01 0.12502273E+03</pdfrwt>
<totfact> 0.10414592E+04</totfact>
</mgrwt>
</event>
<event>
 5    1  0.3514886E-002  0.1249981E+03  0.7818608E-02  0.1235072E+00
          4   -1    0    0  501    0  0.00000000000E+00  0.00000000000E+00  0.28061595238E+03  0.28061882622E+03  0.12700000000E+01 0.  1.
         -4   -1    0    0    0  501 -0.00000000000E+00 -0.00000000000E+00 -0.13887936262E+02  0.13945883752E+02  0.12700000000E+01 0.  1.
         25    2    1    2    0    0  0.00000000000E+00  0.00000000000E+00  0.26672801612E+03  0.29456470998E+03  0.12499813511E+03 0.  0.
    9000005    1    3    3    0    0 -0.17751702343E+02  0.57751636027E+02  0.95750660417E+02  0.11322351068E+03  0.10000000000E+01 0.  0.
    9000005    1    3    3    0    0  0.17751702343E+02 -0.57751636027E+02  0.17097735570E+03  0.18134119930E+03  0.10000000000E+01 0.  0.
<mgrwt>
<rscale>  0 0.12499814E+03</rscale>
<asrwt>0</asrwt>
<pdfrwt beam="1">  1        4 0.43176361E-01 0.12499814E+03</pdfrwt>
<pdfrwt beam="2">  1       -4 0.21412843E-02 0.12499814E+03</pdfrwt>
<totfact> 0.76288889E+03</totfact>
</mgrwt>
</event>
<event>
 5    1  0.3514886E-002  0.1250005E+03  0.7818608E-02  0.1235068E+00
         -4   -1    0    0    0  501 -0.00000000000E+00  0.00000000000E+00  0.24617410891E+01  0.27700305395E+01  0.12700000000E+01 0. -1.
          4   -1    0    0  501    0  0.00000000000E+00 -0.00000000000E+00 -0.14929843720E+04  0.14929849122E+04  0.12700000000E+01 0. -1.
         25    2    1    2    0    0  0.00000000000E+00  0.00000000000E+00 -0.14905226309E+04  0.14957549427E+04  0.12500054140E+03 0.  0.
    9000005    1    3    3    0    0 -0.32922227450E+02  0.47845704451E+02 -0.10213100240E+04  0.10229605318E+04  0.10000000000E+01 0.  0.
    9000005    1    3    3    0    0  0.32922227450E+02 -0.47845704451E+02 -0.46921260690E+03  0.47279441089E+03  0.10000000000E+01 0.  0.
<mgrwt>
<rscale>  0 0.12500054E+03</rscale>
<asrwt>0</asrwt>
<pdfrwt beam="2">  1        4 0.22971298E+00 0.12500054E+03</pdfrwt>
<pdfrwt beam="1">  1       -4 0.40248671E-03 0.12500054E+03</pdfrwt>
<totfact> 0.18013933E+03</totfact>
</mgrwt>
</event>
<event>
 5    1  0.3514886E-002  0.1249631E+03  0.7818608E-02  0.1235127E+00
          4   -1    0    0  501    0  0.00000000000E+00  0.00000000000E+00  0.38619716546E+02  0.38640592724E+02  0.12700000000E+01 0. -1.
         -4   -1    0    0    0  501 -0.00000000000E+00 -0.00000000000E+00 -0.10103463607E+03  0.10104261767E+03  0.12700000000E+01 0. -1.
         25    2    1    2    0    0  0.00000000000E+00  0.00000000000E+00 -0.62414919523E+02  0.13968321039E+03  0.12496310290E+03 0.  0.
    9000005    1    3    3    0    0  0.38068667993E+02  0.43141569919E+02 -0.58416674992E+02  0.81999551553E+02  0.10000000000E+01 0.  0.
    9000005    1    3    3    0    0 -0.38068667993E+02 -0.43141569919E+02 -0.39982445314E+01  0.57683658840E+02  0.10000000000E+01 0.  0.
<mgrwt>
<rscale>  0 0.12496310E+03</rscale>
<asrwt>0</asrwt>
<pdfrwt beam="1">  1        4 0.59437147E-02 0.12496310E+03</pdfrwt>
<pdfrwt beam="2">  1       -4 0.15546010E-01 0.12496310E+03</pdfrwt>
<totfact> 0.10148590E+04</totfact>
</mgrwt>
</event>
<event>
 5    1  0.3514886E-002  0.1249989E+03  0.7818608E-02  0.1235071E+00
         -4   -1    0    0    0  501 -0.00000000000E+00  0.00000000000E+00  0.13639540220E+03  0.13640131466E+03  0.12700000000E+01 0. -1.
          4   -1    0    0  501    0  0.00000000000E+00 -0.00000000000E+00 -0.28618041999E+02  0.28646207914E+02  0.12700000000E+01 0. -1.
         25    2    1    2    0    0  0.00000000000E+00  0.00000000000E+00  0.10777736020E+03  0.16504752258E+03  0.12499890134E+03 0.  0.
    9000005    1    3    3    0    0 -0.29035104577E+02  0.48678441485E+02  0.88636650087E+02  0.10521446527E+03  0.10000000000E+01 0.  0.
    9000005    1    3    3    0    0  0.29035104577E+02 -0.48678441485E+02  0.19140710116E+02  0.59833057309E+02  0.10000000000E+01 0.  0.
<mgrwt>
<rscale>  0 0.12499890E+03</rscale>
<asrwt>0</asrwt>
<pdfrwt beam="2">  1        4 0.44053971E-02 0.12499890E+03</pdfrwt>
<pdfrwt beam="1">  1       -4 0.20986529E-01 0.12499890E+03</pdfrwt>
<totfact> 0.96380772E+03</totfact>
</mgrwt>
</event>
<event>
 5    1  0.3514886E-002  0.1249948E+03  0.7818608E-02  0.1235077E+00
          4   -1    0    0  501    0  0.00000000000E+00  0.00000000000E+00  0.36892299171E+02  0.36914152274E+02  0.12700000000E+01 0. -1.
         -4   -1    0    0    0  501 -0.00000000000E+00 -0.00000000000E+00 -0.10581672357E+03  0.10582434450E+03  0.12700000000E+01 0. -1.
         25    2    1    2    0    0  0.00000000000E+00  0.00000000000E+00 -0.68924424403E+02  0.14273849677E+03  0.12499480861E+03 0.  0.
    9000005    1    3    3    0    0 -0.52070206246E+02  0.18394682430E+02 -0.67858401131E+02  0.87495333157E+02  0.10000000000E+01 0.  0.
    9000005    1    3    3    0    0  0.52070206246E+02 -0.18394682430E+02 -0.10660232727E+01  0.55243163612E+02  0.10000000000E+01 0.  0.
<mgrwt>
<rscale>  0 0.12499481E+03</rscale>
<asrwt>0</asrwt>
<pdfrwt beam="1">  1        4 0.56780056E-02 0.12499481E+03</pdfrwt>
<pdfrwt beam="2">  1       -4 0.16281763E-01 0.12499481E+03</pdfrwt>
<totfact> 0.10078319E+04</totfact>
</mgrwt>
</event>
<event>
 5    1  0.3514886E-002  0.1250099E+03  0.7818608E-02  0.1235054E+00
         -4   -1    0    0    0  501 -0.00000000000E+00  0.00000000000E+00  0.49772970611E+02  0.49789170544E+02  0.12700000000E+01 0.  1.
          4   -1    0    0  501    0  0.00000000000E+00 -0.00000000000E+00 -0.78459665058E+02  0.78469942914E+02  0.12700000000E+01 0.  1.
         25    2    1    2    0    0  0.00000000000E+00  0.00000000000E+00 -0.28686694447E+02  0.12825911346E+03  0.12500989460E+03 0.  0.
    9000005    1    3    3    0    0 -0.16700593247E+02  0.53523257416E+02  0.13982563562E+02  0.57794125852E+02  0.10000000000E+01 0.  0.
    9000005    1    3    3    0    0  0.16700593247E+02 -0.53523257416E+02 -0.42669258009E+02  0.70464987606E+02  0.10000000000E+01 0.  0.
<mgrwt>
<rscale>  0 0.12500989E+03</rscale>
<asrwt>0</asrwt>
<pdfrwt beam="2">  1        4 0.12072755E-01 0.12500989E+03</pdfrwt>
<pdfrwt beam="1">  1       -4 0.76594168E-02 0.12500989E+03</pdfrwt>
<totfact> 0.10379577E+04</totfact>
</mgrwt>
</event>
<event>
 5    1  0.3514886E-002  0.1250407E+03  0.7818608E-02  0.1235006E+00
         -4   -1    0    0    0  501 -0.00000000000E+00  0.00000000000E+00  0.99063907764E+01  0.99874660558E+01  0.12700000000E+01 0. -1.
          4   -1    0    0  501    0  0.00000000000E+00 -0.00000000000E+00 -0.39288264694E+03  0.39288469958E+03  0.12700000000E+01 0. -1.
         25    2    1    2    0    0  0.00000000000E+00  0.00000000000E+00 -0.38297625616E+03  0.40287216564E+03  0.12504066963E+03 0.  0.
    9000005    1    3    3    0    0  0.29433713401E+02 -0.52342741099E+02 -0.24745019157E+03  0.25463445042E+03  0.10000000000E+01 0.  0.
    9000005    1    3    3    0    0 -0.29433713401E+02  0.52342741099E+02 -0.13552606459E+03  0.14823771522E+03  0.10000000000E+01 0.  0.
<mgrwt>
<rscale>  0 0.12504067E+03</rscale>
<asrwt>0</asrwt>
<pdfrwt beam="2">  1        4 0.60449867E-01 0.12504067E+03</pdfrwt>
<pdfrwt beam="1">  1       -4 0.15304549E-02 0.12504067E+03</pdfrwt>
<totfact> 0.64216739E+03</totfact>
</mgrwt>
</event>
<event>
 5    1  0.3514886E-002  0.1250449E+03  0.7818608E-02  0.1234999E+00
          4   -1    0    0  501    0  0.00000000000E+00  0.00000000000E+00  0.20587795350E+03  0.20588187059E+03  0.12700000000E+01 0.  1.
         -4   -1    0    0    0  501 -0.00000000000E+00 -0.00000000000E+00 -0.18961908805E+02  0.19004391217E+02  0.12700000000E+01 0.  1.
         25    2    1    2    0    0  0.00000000000E+00  0.00000000000E+00  0.18691604470E+03  0.22488626181E+03  0.12504488388E+03 0.  0.
    9000005    1    3    3    0    0  0.12250484188E+01  0.29656084096E+02 -0.54902806365E+01  0.30201444485E+02  0.10000000000E+01 0.  0.
    9000005    1    3    3    0    0 -0.12250484188E+01 -0.29656084096E+02  0.19240632533E+03  0.19468481732E+03  0.10000000000E+01 0.  0.
<mgrwt>
<rscale>  0 0.12504488E+03</rscale>
<asrwt>0</asrwt>
<pdfrwt beam="1">  1        4 0.31677099E-01 0.12504488E+03</pdfrwt>
<pdfrwt beam="2">  1       -4 0.29207860E-02 0.12504488E+03</pdfrwt>
<totfact> 0.86014793E+03</totfact>
</mgrwt>
</event>
<event>
 5    1  0.3514886E-002  0.1250025E+03  0.7818608E-02  0.1235065E+00
          4   -1    0    0  501    0  0.00000000000E+00  0.00000000000E+00  0.88315423517E+01  0.89223898317E+01  0.12700000000E+01 0. -1.
         -4   -1    0    0    0  501 -0.00000000000E+00 -0.00000000000E+00 -0.43996924072E+03  0.43997107368E+03  0.12700000000E+01 0. -1.
         25    2    1    2    0    0  0.00000000000E+00  0.00000000000E+00 -0.43113769836E+03  0.44889346351E+03  0.12500250651E+03 0.  0.
    9000005    1    3    3    0    0 -0.45697291866E+02 -0.53360483815E+01 -0.36744591288E+03  0.37031637121E+03  0.10000000000E+01 0.  0.
    9000005    1    3    3    0    0  0.45697291866E+02  0.53360483815E+01 -0.63691785487E+02  0.78577092302E+02  0.10000000000E+01 0.  0.
<mgrwt>
<rscale>  0 0.12500251E+03</rscale>
<asrwt>0</asrwt>
<pdfrwt beam="1">  1        4 0.13658284E-02 0.12500251E+03</pdfrwt>
<pdfrwt beam="2">  1       -4 0.67694688E-01 0.12500251E+03</pdfrwt>
<totfact> 0.60056465E+03</totfact>
</mgrwt>
</event>
<event>
 5    1  0.3514886E-002  0.1250000E+03  0.7818608E-02  0.1235069E+00
         -4   -1    0    0    0  501 -0.00000000000E+00  0.00000000000E+00  0.39498214894E+01  0.41489745478E+01  0.12700000000E+01 0. -1.
          4   -1    0    0  501    0  0.00000000000E+00 -0.00000000000E+00 -0.96444948048E+03  0.96445031665E+03  0.12700000000E+01 0. -1.
         25    2    1    2    0    0  0.00000000000E+00  0.00000000000E+00 -0.96049965899E+03  0.96859929120E+03  0.12499996800E+03 0.  0.
    9000005    1    3    3    0    0 -0.61075746865E+02 -0.11799137156E+02 -0.43389835441E+03  0.43833577135E+03  0.10000000000E+01 0.  0.
    9000005    1    3    3    0    0  0.61075746865E+02  0.11799137156E+02 -0.52660130458E+03  0.53026351985E+03  0.10000000000E+01 0.  0.
<mgrwt>
<rscale>  0 0.12499997E+03</rscale>
<asrwt>0</asrwt>
<pdfrwt beam="2">  1        4 0.14839204E+00 0.12499997E+03</pdfrwt>
<pdfrwt beam="1">  1       -4 0.62304940E-03 0.12499997E+03</pdfrwt>
<totfact> 0.31664754E+03</totfact>
</mgrwt>
</event>
<event>
 5    1  0.3514886E-002  0.1250021E+03  0.7818608E-02  0.1235066E+00
         -4   -1    0    0    0  501 -0.00000000000E+00  0.00000000000E+00  0.51852589003E+02  0.51868139415E+02  0.12700000000E+01 0. -1.
          4   -1    0    0  501    0  0.00000000000E+00 -0.00000000000E+00 -0.75304140378E+02  0.75314848855E+02  0.12700000000E+01 0. -1.
         25    2    1    2    0    0  0.00000000000E+00  0.00000000000E+00 -0.23451551375E+02  0.12718298827E+03  0.12500214895E+03 0.  0.
    9000005    1    3    3    0    0 -0.46142145017E+02  0.40149718641E+02 -0.24766837592E+02  0.65996164267E+02  0.10000000000E+01 0.  0.
    9000005    1    3    3    0    0  0.46142145017E+02 -0.40149718641E+02  0.13152862177E+01  0.61186824002E+02  0.10000000000E+01 0.  0.
<mgrwt>
<rscale>  0 0.12500215E+03</rscale>
<asrwt>0</asrwt>
<pdfrwt beam="2">  1        4 0.11587272E-01 0.12500215E+03</pdfrwt>
<pdfrwt beam="1">  1       -4 0.79793413E-02 0.12500215E+03</pdfrwt>
<totfact> 0.10404668E+04</totfact>
</mgrwt>
</event>
<event>
 5    1  0.3514886E-002  0.1249995E+03  0.7818608E-02  0.1235070E+00
          4   -1    0    0  501    0  0.00000000000E+00  0.00000000000E+00  0.16366465416E+02  0.16415666000E+02  0.12700000000E+01 0. -1.
         -4   -1    0    0    0  501 -0.00000000000E+00 -0.00000000000E+00 -0.23826286097E+03  0.23826624566E+03  0.12700000000E+01 0. -1.
         25    2    1    2    0    0  0.00000000000E+00  0.00000000000E+00 -0.22189639556E+03  0.25468191166E+03  0.12499946305E+03 0.  0.
    9000005    1    3    3    0    0 -0.39825610147E+02  0.35223841795E+02 -0.44039349365E+02  0.69045365861E+02  0.10000000000E+01 0.  0.
    9000005    1    3    3    0    0  0.39825610147E+02 -0.35223841795E+02 -0.17785704619E+03  0.18563654580E+03  0.10000000000E+01 0.  0.
<mgrwt>
<rscale>  0 0.12499946E+03</rscale>
<asrwt>0</asrwt>
<pdfrwt beam="1">  1        4 0.25219629E-02 0.12499946E+03</pdfrwt>
<pdfrwt beam="2">  1       -4 0.36659867E-01 0.12499946E+03</pdfrwt>
<totfact> 0.81659198E+03</totfact>
</mgrwt>
</event>
<event>
 5    1  0.3514886E-002  0.1249997E+03  0.7818608E-02  0.1235070E+00
         -4   -1    0    0    0  501 -0.00000000000E+00  0.00000000000E+00  0.60598374497E+03  0.60598507578E+03  0.12700000000E+01 0.  1.
          4   -1    0    0  501    0  0.00000000000E+00 -0.00000000000E+00 -0.63821935998E+01  0.65073262670E+01  0.12700000000E+01 0.  1.
         25    2    1    2    0    0  0.00000000000E+00  0.00000000000E+00  0.59960155137E+03  0.61249240205E+03  0.12499968864E+03 0.  0.
    9000005    1    3    3    0    0 -0.42781320208E+02  0.32376532166E+02  0.45680957480E+03  0.45995050692E+03  0.10000000000E+01 0.  0.
    9000005    1    3    3    0    0  0.42781320208E+02 -0.32376532166E+02  0.14279197658E+03  0.15254189512E+03  0.10000000000E+01 0.  0.
<mgrwt>
<rscale>  0 0.12499969E+03</rscale>
<asrwt>0</asrwt>
<pdfrwt beam="2">  1        4 0.99160384E-03 0.12499969E+03</pdfrwt>
<pdfrwt beam="1">  1       -4 0.93238002E-01 0.12499969E+03</pdfrwt>
<totfact> 0.48088756E+03</totfact>
</mgrwt>
</event>
<event>
 5    1  0.3514886E-002  0.1250001E+03  0.7818608E-02  0.1235069E+00
         -4   -1    0    0    0  501 -0.00000000000E+00  0.00000000000E+00  0.15573111931E+03  0.15573629770E+03  0.12700000000E+01 0.  1.
          4   -1    0    0  501    0  0.00000000000E+00 -0.00000000000E+00 -0.25061670678E+02  0.25093828667E+02  0.12700000000E+01 0.  1.
         25    2    1    2    0    0  0.00000000000E+00  0.00000000000E+00  0.13066944864E+03  0.18083012637E+03  0.12500011919E+03 0.  0.
    9000005    1    3    3    0    0  0.44671060696E+02  0.10832150655E+02  0.12658105051E+03  0.13467220017E+03  0.10000000000E+01 0.  0.
    9000005    1    3    3    0    0 -0.44671060696E+02 -0.10832150655E+02  0.40883981257E+01  0.46157926197E+02  0.10000000000E+01 0.  0.
<mgrwt>
<rscale>  0 0.12500012E+03</rscale>
<asrwt>0</asrwt>
<pdfrwt beam="2">  1        4 0.38585137E-02 0.12500012E+03</pdfrwt>
<pdfrwt beam="1">  1       -4 0.23961505E-01 0.12500012E+03</pdfrwt>
<totfact> 0.93467541E+03</totfact>
</mgrwt>
</event>
<event>
 5    1  0.3514886E-002  0.1250003E+03  0.7818608E-02  0.1235069E+00
          4   -1    0    0  501    0  0.00000000000E+00  0.00000000000E+00  0.63844618191E+02  0.63857248390E+02  0.12700000000E+01 0.  1.
         -4   -1    0    0    0  501 -0.00000000000E+00 -0.00000000000E+00 -0.61158705379E+02  0.61171890142E+02  0.12700000000E+01 0.  1.
         25    2    1    2    0    0  0.00000000000E+00  0.00000000000E+00  0.26859128125E+01  0.12502913853E+03  0.12500028542E+03 0.  0.
    9000005    1    3    3    0    0  0.29930734074E+02 -0.19062133679E+02 -0.50108727188E+02  0.61409269031E+02  0.10000000000E+01 0.  0.
    9000005    1    3    3    0    0 -0.29930734074E+02  0.19062133679E+02  0.52794640000E+02  0.63619869501E+02  0.10000000000E+01 0.  0.
<mgrwt>
<rscale>  0 0.12500029E+03</rscale>
<asrwt>0</asrwt>
<pdfrwt beam="1">  1        4 0.98242347E-02 0.12500029E+03</pdfrwt>
<pdfrwt beam="2">  1       -4 0.94110174E-02 0.12500029E+03</pdfrwt>
<totfact> 0.10452162E+04</totfact>
</mgrwt>
</event>
<event>
 5    1  0.3514886E-002  0.1249994E+03  0.7818608E-02  0.1235070E+00
         -4   -1    0    0    0  501 -0.00000000000E+00  0.00000000000E+00  0.79320695456E+03  0.79320797126E+03  0.12700000000E+01 0. -1.
          4   -1    0    0  501    0  0.00000000000E+00 -0.00000000000E+00 -0.48416654670E+01  0.50054594688E+01  0.12700000000E+01 0. -1.
         25    2    1    2    0    0  0.00000000000E+00  0.00000000000E+00  0.78836528910E+03  0.79821343073E+03  0.12499940776E+03 0.  0.
    9000005    1    3    3    0    0  0.22232003348E+02  0.50704861756E+01  0.76572290684E+03  0.76606301429E+03  0.10000000000E+01 0.  0.
    9000005    1    3    3    0    0 -0.22232003348E+02 -0.50704861756E+01  0.22642382259E+02  0.32150416440E+02  0.10000000000E+01 0.  0.
<mgrwt>
<rscale>  0 0.12499941E+03</rscale>
<asrwt>0</asrwt>
<pdfrwt beam="2">  1        4 0.75754942E-03 0.12499941E+03</pdfrwt>
<pdfrwt beam="1">  1       -4 0.12204451E+00 0.12499941E+03</pdfrwt>
<totfact> 0.38345104E+03</totfact>
</mgrwt>
</event>
<event>
 5    1  0.3514886E-002  0.1250030E+03  0.7818608E-02  0.1235065E+00
          4   -1    0    0  501    0  0.00000000000E+00  0.00000000000E+00  0.18788422953E+03  0.18788852175E+03  0.12700000000E+01 0. -1.
         -4   -1    0    0    0  501 -0.00000000000E+00 -0.00000000000E+00 -0.20767792461E+02  0.20806587988E+02  0.12700000000E+01 0. -1.
         25    2    1    2    0    0  0.00000000000E+00  0.00000000000E+00  0.16711643706E+03  0.20869510974E+03  0.12500298113E+03 0.  0.
    9000005    1    3    3    0    0  0.35454054976E+02  0.45072556273E+00 -0.23571448629E+01  0.35549251746E+02  0.10000000000E+01 0.  0.
    9000005    1    3    3    0    0 -0.35454054976E+02 -0.45072556273E+00  0.16947358193E+03  0.17314585799E+03  0.10000000000E+01 0.  0.
<mgrwt>
<rscale>  0 0.12500298E+03</rscale>
<asrwt>0</asrwt>
<pdfrwt beam="1">  1        4 0.28908579E-01 0.12500298E+03</pdfrwt>
<pdfrwt beam="2">  1       -4 0.31983596E-02 0.12500298E+03</pdfrwt>
<totfact> 0.88683520E+03</totfact>
</mgrwt>
</event>
<event>
 5    1  0.3514886E-002  0.1249913E+03  0.7818608E-02  0.1235083E+00
          4   -1    0    0  501    0  0.00000000000E+00  0.00000000000E+00  0.31286946605E+04  0.31286949183E+04  0.12700000000E+01 0. -1.
         -4   -1    0    0    0  501 -0.00000000000E+00 -0.00000000000E+00 -0.92501987855E+00  0.15711657378E+01  0.12700000000E+01 0. -1.
         25    2    1    2    0    0  0.00000000000E+00  0.00000000000E+00  0.31277696406E+04  0.31302660840E+04  0.12499132702E+03 0.  0.
    9000005    1    3    3    0    0  0.32084969989E+02  0.11347288643E+01  0.22129647315E+03  0.22361543314E+03  0.10000000000E+01 0.  0.
    9000005    1    3    3    0    0 -0.32084969989E+02 -0.11347288643E+01  0.29064731675E+04  0.29066506509E+04  0.10000000000E+01 0.  0.
<mgrwt>
<rscale>  0 0.12499133E+03</rscale>
<asrwt>0</asrwt>
<pdfrwt beam="1">  1        4 0.48138228E+00 0.12499133E+03</pdfrwt>
<pdfrwt beam="2">  1       -4 0.19203613E-03 0.12499133E+03</pdfrwt>
<totfact> 0.13745338E+02</totfact>
</mgrwt>
</event>
<event>
 5    1  0.3514886E-002  0.1250138E+03  0.7818608E-02  0.1235048E+00
          4   -1    0    0  501    0  0.00000000000E+00  0.00000000000E+00  0.27908495054E+03  0.27908784015E+03  0.12700000000E+01 0. -1.
         -4   -1    0    0    0  501 -0.00000000000E+00 -0.00000000000E+00 -0.13967959324E+02  0.14025576197E+02  0.12700000000E+01 0. -1.
         25    2    1    2    0    0  0.00000000000E+00  0.00000000000E+00  0.26511699122E+03  0.29311341635E+03  0.12501382247E+03 0.  0.
    9000005    1    3    3    0    0 -0.10264585298E+02 -0.51058288942E+02  0.21356950870E+03  0.21983003805E+03  0.10000000000E+01 0.  0.
    9000005    1    3    3    0    0  0.10264585298E+02  0.51058288942E+02  0.51547482518E+02  0.73283378299E+02  0.10000000000E+01 0.  0.
<mgrwt>
<rscale>  0 0.12501382E+03</rscale>
<asrwt>0</asrwt>
<pdfrwt beam="1">  1        4 0.42940802E-01 0.12501382E+03</pdfrwt>
<pdfrwt beam="2">  1       -4 0.21535711E-02 0.12501382E+03</pdfrwt>
<totfact> 0.76447406E+03</totfact>
</mgrwt>
</event>
