<event>
 5    1  0.3312706E-002  0.1250206E+03  0.7818608E-02  0.1235037E+00
         -4   -1    0    0    0  501 -0.00000000000E+00  0.00000000000E+00  0.75317127036E+02  0.75327833667E+02  0.12700000000E+01 0. -1.
          4   -1    0    0  501    0  0.00000000000E+00 -0.00000000000E+00 -0.51858928340E+02  0.51874476851E+02  0.12700000000E+01 0. -1.
         25    2    1    2    0    0  0.00000000000E+00  0.00000000000E+00  0.23458198696E+02  0.12720231052E+03  0.12502056117E+03 0.  0.
    9000005    1    3    3    0    0  0.47056101522E+02 -0.17051954002E+02  0.49818878748E+02  0.70625537204E+02  0.10000000000E+01 0.  0.
    9000005    1    3    3    0    0 -0.47056101522E+02  0.17051954002E+02 -0.26360680052E+02  0.56576773313E+02  0.10000000000E+01 0.  0.
<mgrwt>
<rscale>  0 0.12502056E+03</rscale>
<asrwt>0</asrwt>
<pdfrwt beam="2">  1        4 0.79803163E-02 0.12502056E+03</pdfrwt>
<pdfrwt beam="1">  1       -4 0.11589270E-01 0.12502056E+03</pdfrwt>
<totfact> 0.10399925E+04</totfact>
</mgrwt>
</event>
<event>
 5    1  0.3312706E-002  0.1249961E+03  0.7818608E-02  0.1235075E+00
         -4   -1    0    0    0  501 -0.00000000000E+00  0.00000000000E+00  0.38145804033E+02  0.38166939428E+02  0.12700000000E+01 0.  1.
          4   -1    0    0  501    0  0.00000000000E+00 -0.00000000000E+00 -0.10234323343E+03  0.10235111299E+03  0.12700000000E+01 0.  1.
         25    2    1    2    0    0  0.00000000000E+00  0.00000000000E+00 -0.64197429399E+02  0.14051805241E+03  0.12499605239E+03 0.  0.
    9000005    1    3    3    0    0 -0.39204839298E+02  0.32457764160E+02  0.86592403644E+01  0.51638244765E+02  0.10000000000E+01 0.  0.
    9000005    1    3    3    0    0  0.39204839298E+02 -0.32457764160E+02 -0.72856669764E+02  0.88879807649E+02  0.10000000000E+01 0.  0.
<mgrwt>
<rscale>  0 0.12499605E+03</rscale>
<asrwt>0</asrwt>
<pdfrwt beam="2">  1        4 0.15747345E-01 0.12499605E+03</pdfrwt>
<pdfrwt beam="1">  1       -4 0.58708172E-02 0.12499605E+03</pdfrwt>
<totfact> 0.10123760E+04</totfact>
</mgrwt>
</event>
<event>
 5    1  0.3312706E-002  0.1250297E+03  0.7818608E-02  0.1235023E+00
         -4   -1    0    0    0  501 -0.00000000000E+00  0.00000000000E+00  0.41082361720E+02  0.41101987111E+02  0.12700000000E+01 0.  1.
          4   -1    0    0  501    0  0.00000000000E+00 -0.00000000000E+00 -0.95082045496E+02  0.95090526740E+02  0.12700000000E+01 0.  1.
         25    2    1    2    0    0  0.00000000000E+00  0.00000000000E+00 -0.53999683776E+02  0.13619251385E+03  0.12502973639E+03 0.  0.
    9000005    1    3    3    0    0 -0.19944166594E+02 -0.16898294314E+02  0.34847788445E+02  0.43573965752E+02  0.10000000000E+01 0.  0.
    9000005    1    3    3    0    0  0.19944166594E+02  0.16898294314E+02 -0.88847472221E+02  0.92618548099E+02  0.10000000000E+01 0.  0.
<mgrwt>
<rscale>  0 0.12502974E+03</rscale>
<asrwt>0</asrwt>
<pdfrwt beam="2">  1        4 0.14630169E-01 0.12502974E+03</pdfrwt>
<pdfrwt beam="1">  1       -4 0.63225254E-02 0.12502974E+03</pdfrwt>
<totfact> 0.10206151E+04</totfact>
</mgrwt>
</event>
<event>
 5    1  0.3312706E-002  0.1249977E+03  0.7818608E-02  0.1235073E+00
          4   -1    0    0  501    0  0.00000000000E+00  0.00000000000E+00  0.76188081770E+02  0.76198666024E+02  0.12700000000E+01 0. -1.
         -4   -1    0    0    0  501 -0.00000000000E+00 -0.00000000000E+00 -0.51247239636E+02  0.51262973678E+02  0.12700000000E+01 0. -1.
         25    2    1    2    0    0  0.00000000000E+00  0.00000000000E+00  0.24940842134E+02  0.12746163970E+03  0.12499769594E+03 0.  0.
    9000005    1    3    3    0    0  0.60922730817E+02  0.11146570369E+02  0.20958004443E+02  0.65391613464E+02  0.10000000000E+01 0.  0.
    9000005    1    3    3    0    0 -0.60922730817E+02 -0.11146570369E+02  0.39828376915E+01  0.62070026239E+02  0.10000000000E+01 0.  0.
<mgrwt>
<rscale>  0 0.12499770E+03</rscale>
<asrwt>0</asrwt>
<pdfrwt beam="1">  1        4 0.11723268E-01 0.12499770E+03</pdfrwt>
<pdfrwt beam="2">  1       -4 0.78862152E-02 0.12499770E+03</pdfrwt>
<totfact> 0.10399672E+04</totfact>
</mgrwt>
</event>
<event>
 5    1  0.3312706E-002  0.1249995E+03  0.7818608E-02  0.1235070E+00
         -4   -1    0    0    0  501 -0.00000000000E+00  0.00000000000E+00  0.86852252152E+01  0.87775871992E+01  0.12700000000E+01 0.  1.
          4   -1    0    0  501    0  0.00000000000E+00 -0.00000000000E+00 -0.44728210780E+03  0.44728391080E+03  0.12700000000E+01 0.  1.
         25    2    1    2    0    0  0.00000000000E+00  0.00000000000E+00 -0.43859688259E+03  0.45606149800E+03  0.12499945817E+03 0.  0.
    9000005    1    3    3    0    0  0.99579598625E+01 -0.29242840697E+02 -0.41749374835E+03  0.41863627961E+03  0.10000000000E+01 0.  0.
    9000005    1    3    3    0    0 -0.99579598625E+01  0.29242840697E+02 -0.21103134239E+02  0.37425218388E+02  0.10000000000E+01 0.  0.
<mgrwt>
<rscale>  0 0.12499946E+03</rscale>
<asrwt>0</asrwt>
<pdfrwt beam="2">  1        4 0.68819858E-01 0.12499946E+03</pdfrwt>
<pdfrwt beam="1">  1       -4 0.13434323E-02 0.12499946E+03</pdfrwt>
<totfact> 0.59442979E+03</totfact>
</mgrwt>
</event>
<event>
 5    1  0.3312706E-002  0.1250002E+03  0.7818608E-02  0.1235069E+00
          4   -1    0    0  501    0  0.00000000000E+00  0.00000000000E+00  0.22782022628E+01  0.26082763562E+01  0.12700000000E+01 0. -1.
         -4   -1    0    0    0  501 -0.00000000000E+00 -0.00000000000E+00 -0.15984740664E+04  0.15984745709E+04  0.12700000000E+01 0. -1.
         25    2    1    2    0    0  0.00000000000E+00  0.00000000000E+00 -0.15961958642E+04  0.16010828473E+04  0.12500018852E+03 0.  0.
    9000005    1    3    3    0    0 -0.35331833384E+02  0.22961211289E+02 -0.20699518848E+03  0.21124290219E+03  0.10000000000E+01 0.  0.
    9000005    1    3    3    0    0  0.35331833384E+02 -0.22961211289E+02 -0.13892006757E+04  0.13898399451E+04  0.10000000000E+01 0.  0.
<mgrwt>
<rscale>  0 0.12500019E+03</rscale>
<asrwt>0</asrwt>
<pdfrwt beam="1">  1        4 0.37592306E-03 0.12500019E+03</pdfrwt>
<pdfrwt beam="2">  1       -4 0.24594368E+00 0.12500019E+03</pdfrwt>
<totfact> 0.16026609E+03</totfact>
</mgrwt>
</event>
<event>
 5    1  0.3312706E-002  0.1249906E+03  0.7818608E-02  0.1235084E+00
         -4   -1    0    0    0  501 -0.00000000000E+00  0.00000000000E+00  0.47026738125E+03  0.47026909612E+03  0.12700000000E+01 0.  1.
          4   -1    0    0  501    0  0.00000000000E+00 -0.00000000000E+00 -0.82549050236E+01  0.83520271162E+01  0.12700000000E+01 0.  1.
         25    2    1    2    0    0  0.00000000000E+00  0.00000000000E+00  0.46201247622E+03  0.47862112323E+03  0.12499060533E+03 0.  0.
    9000005    1    3    3    0    0  0.76862864649E+01 -0.54949518142E+02  0.12094362484E+03  0.13306723463E+03  0.10000000000E+01 0.  0.
    9000005    1    3    3    0    0 -0.76862864649E+01  0.54949518142E+02  0.34106885138E+03  0.34555388860E+03  0.10000000000E+01 0.  0.
<mgrwt>
<rscale>  0 0.12499061E+03</rscale>
<asrwt>0</asrwt>
<pdfrwt beam="2">  1        4 0.12775886E-02 0.12499061E+03</pdfrwt>
<pdfrwt beam="1">  1       -4 0.72356410E-01 0.12499061E+03</pdfrwt>
<totfact> 0.57574025E+03</totfact>
</mgrwt>
</event>
<event>
 5    1  0.3312706E-002  0.1250072E+03  0.7818608E-02  0.1235058E+00
         -4   -1    0    0    0  501 -0.00000000000E+00  0.00000000000E+00  0.25650418709E+02  0.25681839497E+02  0.12700000000E+01 0. -1.
          4   -1    0    0  501    0  0.00000000000E+00 -0.00000000000E+00 -0.15217824694E+03  0.15218354622E+03  0.12700000000E+01 0. -1.
         25    2    1    2    0    0  0.00000000000E+00  0.00000000000E+00 -0.12652782823E+03  0.17786538572E+03  0.12500721628E+03 0.  0.
    9000005    1    3    3    0    0  0.96296789248E+01  0.51723867517E+02 -0.11125420768E+03  0.12307147482E+03  0.10000000000E+01 0.  0.
    9000005    1    3    3    0    0 -0.96296789248E+01 -0.51723867517E+02 -0.15273620544E+02  0.54793910899E+02  0.10000000000E+01 0.  0.
<mgrwt>
<rscale>  0 0.12500722E+03</rscale>
<asrwt>0</asrwt>
<pdfrwt beam="2">  1        4 0.23414862E-01 0.12500722E+03</pdfrwt>
<pdfrwt beam="1">  1       -4 0.39490430E-02 0.12500722E+03</pdfrwt>
<totfact> 0.93987446E+03</totfact>
</mgrwt>
</event>
<event>
 5    1  0.3312706E-002  0.1250006E+03  0.7818608E-02  0.1235068E+00
         -4   -1    0    0    0  501 -0.00000000000E+00  0.00000000000E+00  0.10257948177E+02  0.10336266289E+02  0.12700000000E+01 0. -1.
          4   -1    0    0  501    0  0.00000000000E+00 -0.00000000000E+00 -0.37927839495E+03  0.37928052122E+03  0.12700000000E+01 0. -1.
         25    2    1    2    0    0  0.00000000000E+00  0.00000000000E+00 -0.36902044678E+03  0.38961678751E+03  0.12500060388E+03 0.  0.
    9000005    1    3    3    0    0  0.34542927293E+02 -0.36137448091E+02 -0.67629543611E+02  0.84106385902E+02  0.10000000000E+01 0.  0.
    9000005    1    3    3    0    0 -0.34542927293E+02  0.36137448091E+02 -0.30139090317E+03  0.30551040161E+03  0.10000000000E+01 0.  0.
<mgrwt>
<rscale>  0 0.12500060E+03</rscale>
<asrwt>0</asrwt>
<pdfrwt beam="2">  1        4 0.58356700E-01 0.12500060E+03</pdfrwt>
<pdfrwt beam="1">  1       -4 0.15843342E-02 0.12500060E+03</pdfrwt>
<totfact> 0.65574463E+03</totfact>
</mgrwt>
</event>
<event>
 5    1  0.3312706E-002  0.1250074E+03  0.7818608E-02  0.1235058E+00
          4   -1    0    0  501    0  0.00000000000E+00  0.00000000000E+00  0.31304184871E+01  0.33782273317E+01  0.12700000000E+01 0. -1.
         -4   -1    0    0    0  501 -0.00000000000E+00 -0.00000000000E+00 -0.12002213175E+04  0.12002219894E+04  0.12700000000E+01 0. -1.
         25    2    1    2    0    0  0.00000000000E+00  0.00000000000E+00 -0.11970908990E+04  0.12036002167E+04  0.12500744481E+03 0.  0.
    9000005    1    3    3    0    0  0.24371059316E+02 -0.70160877268E+01 -0.11484969456E+04  0.11487773535E+04  0.10000000000E+01 0.  0.
    9000005    1    3    3    0    0 -0.24371059316E+02  0.70160877268E+01 -0.48593953423E+02  0.54822863191E+02  0.10000000000E+01 0.  0.
<mgrwt>
<rscale>  0 0.12500744E+03</rscale>
<asrwt>0</asrwt>
<pdfrwt beam="1">  1        4 0.50071771E-03 0.12500744E+03</pdfrwt>
<pdfrwt beam="2">  1       -4 0.18466819E+00 0.12500744E+03</pdfrwt>
<totfact> 0.24614768E+03</totfact>
</mgrwt>
</event>
<event>
 5    1  0.3312706E-002  0.1250075E+03  0.7818608E-02  0.1235057E+00
          4   -1    0    0  501    0  0.00000000000E+00  0.00000000000E+00  0.58856078465E+01  0.60210696494E+01  0.12700000000E+01 0.  1.
         -4   -1    0    0    0  501 -0.00000000000E+00 -0.00000000000E+00 -0.65608756055E+03  0.65608878973E+03  0.12700000000E+01 0.  1.
         25    2    1    2    0    0  0.00000000000E+00  0.00000000000E+00 -0.65020195270E+03  0.66210985937E+03  0.12500754612E+03 0.  0.
    9000005    1    3    3    0    0 -0.59306960783E+02  0.75440965841E+01 -0.22866684328E+03  0.23635514423E+03  0.10000000000E+01 0.  0.
    9000005    1    3    3    0    0  0.59306960783E+02 -0.75440965841E+01 -0.42153510942E+03  0.42575471514E+03  0.10000000000E+01 0.  0.
<mgrwt>
<rscale>  0 0.12500755E+03</rscale>
<asrwt>0</asrwt>
<pdfrwt beam="1">  1        4 0.91599334E-03 0.12500755E+03</pdfrwt>
<pdfrwt beam="2">  1       -4 0.10094701E+00 0.12500755E+03</pdfrwt>
<totfact> 0.45156194E+03</totfact>
</mgrwt>
</event>
<event>
 5    1  0.3312706E-002  0.1250246E+03  0.7818608E-02  0.1235031E+00
         -4   -1    0    0    0  501 -0.00000000000E+00  0.00000000000E+00  0.14008450162E+02  0.14065901178E+02  0.12700000000E+01 0. -1.
          4   -1    0    0  501    0  0.00000000000E+00 -0.00000000000E+00 -0.27832965267E+03  0.27833255011E+03  0.12700000000E+01 0. -1.
         25    2    1    2    0    0  0.00000000000E+00  0.00000000000E+00 -0.26432120250E+03  0.29239845129E+03  0.12502462248E+03 0.  0.
    9000005    1    3    3    0    0 -0.17304727757E+02  0.46077378546E+02 -0.22226111898E+03  0.22764793745E+03  0.10000000000E+01 0.  0.
    9000005    1    3    3    0    0  0.17304727757E+02 -0.46077378546E+02 -0.42060083522E+02  0.64750513838E+02  0.10000000000E+01 0.  0.
<mgrwt>
<rscale>  0 0.12502462E+03</rscale>
<asrwt>0</asrwt>
<pdfrwt beam="2">  1        4 0.42824585E-01 0.12502462E+03</pdfrwt>
<pdfrwt beam="1">  1       -4 0.21597886E-02 0.12502462E+03</pdfrwt>
<totfact> 0.76520512E+03</totfact>
</mgrwt>
</event>
<event>
 5    1  0.3312706E-002  0.1249975E+03  0.7818608E-02  0.1235073E+00
          4   -1    0    0  501    0  0.00000000000E+00  0.00000000000E+00  0.10690839630E+03  0.10691593941E+03  0.12700000000E+01 0.  1.
         -4   -1    0    0    0  501 -0.00000000000E+00 -0.00000000000E+00 -0.36516973907E+02  0.36539051484E+02  0.12700000000E+01 0.  1.
         25    2    1    2    0    0  0.00000000000E+00  0.00000000000E+00  0.70391422395E+02  0.14345499089E+03  0.12499752824E+03 0.  0.
    9000005    1    3    3    0    0 -0.59555199323E+02  0.18141818075E+02  0.41391833904E+02  0.74767848995E+02  0.10000000000E+01 0.  0.
    9000005    1    3    3    0    0  0.59555199323E+02 -0.18141818075E+02  0.28999588491E+02  0.68687141898E+02  0.10000000000E+01 0.  0.
<mgrwt>
<rscale>  0 0.12499753E+03</rscale>
<asrwt>0</asrwt>
<pdfrwt beam="1">  1        4 0.16449724E-01 0.12499753E+03</pdfrwt>
<pdfrwt beam="2">  1       -4 0.56202745E-02 0.12499753E+03</pdfrwt>
<totfact> 0.10063035E+04</totfact>
</mgrwt>
</event>
<event>
 4    1  0.3312706E-002  0.1250907E+03  0.7818608E-02  0.1234928E+00
          4   -1    0    0  501    0  0.00000000000E+00  0.00000000000E+00  0.27861470259E+03  0.27861759707E+03  0.12700000000E+01 0.  1.
         -4   -1    0    0    0  501 -0.00000000000E+00 -0.00000000000E+00 -0.14008918843E+02  0.14066367944E+02  0.12700000000E+01 0.  1.
    9000005    1    1    2    0    0 -0.59569095814E+02 -0.73439664048E+01  0.91206066329E+02  0.10918771705E+03  0.10000000000E+01 0.  0.
    9000005    1    1    2    0    0  0.59569095814E+02  0.73439664048E+01  0.17339971742E+03  0.18349624797E+03  0.10000000000E+01 0.  0.
<mgrwt>
<rscale>  0 0.12509070E+03</rscale>
<asrwt>0</asrwt>
<pdfrwt beam="1">  1        4 0.42868443E-01 0.12509070E+03</pdfrwt>
<pdfrwt beam="2">  1       -4 0.21598601E-02 0.12509070E+03</pdfrwt>
<totfact> 0.76371861E+03</totfact>
</mgrwt>
</event>
<event>
 5    1  0.3312706E-002  0.1249895E+03  0.7818608E-02  0.1235086E+00
          4   -1    0    0  501    0  0.00000000000E+00  0.00000000000E+00  0.92867879835E+01  0.93732241545E+01  0.12700000000E+01 0. -1.
         -4   -1    0    0    0  501 -0.00000000000E+00 -0.00000000000E+00 -0.41851805934E+03  0.41851998626E+03  0.12700000000E+01 0. -1.
         25    2    1    2    0    0  0.00000000000E+00  0.00000000000E+00 -0.40923127136E+03  0.42789321041E+03  0.12498946379E+03 0.  0.
    9000005    1    3    3    0    0 -0.24774999843E+01  0.32409049082E+02 -0.38731630760E+03  0.38867905346E+03  0.10000000000E+01 0.  0.
    9000005    1    3    3    0    0  0.24774999843E+01 -0.32409049082E+02 -0.21914963762E+02  0.39214156949E+02  0.10000000000E+01 0.  0.
<mgrwt>
<rscale>  0 0.12498946E+03</rscale>
<asrwt>0</asrwt>
<pdfrwt beam="1">  1        4 0.14355341E-02 0.12498946E+03</pdfrwt>
<pdfrwt beam="2">  1       -4 0.64394176E-01 0.12498946E+03</pdfrwt>
<totfact> 0.61941820E+03</totfact>
</mgrwt>
</event>
<event>
 5    1  0.3312706E-002  0.1250025E+03  0.7818608E-02  0.1235065E+00
          4   -1    0    0  501    0  0.00000000000E+00  0.00000000000E+00  0.44961221130E+03  0.44961400495E+03  0.12700000000E+01 0.  1.
         -4   -1    0    0    0  501 -0.00000000000E+00 -0.00000000000E+00 -0.86401593858E+01  0.87329980083E+01  0.12700000000E+01 0.  1.
         25    2    1    2    0    0  0.00000000000E+00  0.00000000000E+00  0.44097205191E+03  0.45834700296E+03  0.12500249819E+03 0.  0.
    9000005    1    3    3    0    0 -0.43050289907E+02 -0.41187940689E+02  0.15133856251E+03  0.16264726995E+03  0.10000000000E+01 0.  0.
    9000005    1    3    3    0    0  0.43050289907E+02  0.41187940689E+02  0.28963348940E+03  0.29569973301E+03  0.10000000000E+01 0.  0.
<mgrwt>
<rscale>  0 0.12500250E+03</rscale>
<asrwt>0</asrwt>
<pdfrwt beam="1">  1        4 0.69178371E-01 0.12500250E+03</pdfrwt>
<pdfrwt beam="2">  1       -4 0.13365350E-02 0.12500250E+03</pdfrwt>
<totfact> 0.59244203E+03</totfact>
</mgrwt>
</event>
<event>
 5    1  0.3312706E-002  0.1250012E+03  0.7818608E-02  0.1235067E+00
         -4   -1    0    0    0  501 -0.00000000000E+00  0.00000000000E+00  0.53557234266E+02  0.53572289872E+02  0.12700000000E+01 0.  1.
          4   -1    0    0  501    0  0.00000000000E+00 -0.00000000000E+00 -0.72906610650E+02  0.72917671222E+02  0.12700000000E+01 0.  1.
         25    2    1    2    0    0  0.00000000000E+00  0.00000000000E+00 -0.19349376385E+02  0.12648996109E+03  0.12500124756E+03 0.  0.
    9000005    1    3    3    0    0  0.45084603355E+02 -0.41535795613E+02 -0.21963629044E+02  0.65124839944E+02  0.10000000000E+01 0.  0.
    9000005    1    3    3    0    0 -0.45084603355E+02  0.41535795613E+02  0.26142526589E+01  0.61365121151E+02  0.10000000000E+01 0.  0.
<mgrwt>
<rscale>  0 0.12500125E+03</rscale>
<asrwt>0</asrwt>
<pdfrwt beam="2">  1        4 0.11218411E-01 0.12500125E+03</pdfrwt>
<pdfrwt beam="1">  1       -4 0.82415834E-02 0.12500125E+03</pdfrwt>
<totfact> 0.10419954E+04</totfact>
</mgrwt>
</event>
<event>
 5    1  0.3312706E-002  0.1250352E+03  0.7818608E-02  0.1235014E+00
         -4   -1    0    0    0  501 -0.00000000000E+00  0.00000000000E+00  0.10257643825E+03  0.10258429989E+03  0.12700000000E+01 0. -1.
          4   -1    0    0  501    0  0.00000000000E+00 -0.00000000000E+00 -0.38082901452E+02  0.38104071737E+02  0.12700000000E+01 0. -1.
         25    2    1    2    0    0  0.00000000000E+00  0.00000000000E+00  0.64493536797E+02  0.14068837163E+03  0.12503520153E+03 0.  0.
    9000005    1    3    3    0    0  0.62338687521E+02 -0.44392547271E+01  0.30809578073E+02  0.69685357468E+02  0.10000000000E+01 0.  0.
    9000005    1    3    3    0    0 -0.62338687521E+02  0.44392547271E+01  0.33683958724E+02  0.71003014159E+02  0.10000000000E+01 0.  0.
<mgrwt>
<rscale>  0 0.12503520E+03</rscale>
<asrwt>0</asrwt>
<pdfrwt beam="2">  1        4 0.58611413E-02 0.12503520E+03</pdfrwt>
<pdfrwt beam="1">  1       -4 0.15783223E-01 0.12503520E+03</pdfrwt>
<totfact> 0.10111318E+04</totfact>
</mgrwt>
</event>
<event>
 5    1  0.3312706E-002  0.1250005E+03  0.7818608E-02  0.1235069E+00
          4   -1    0    0  501    0  0.00000000000E+00  0.00000000000E+00  0.14123829908E+02  0.14180813491E+02  0.12700000000E+01 0. -1.
         -4   -1    0    0    0  501 -0.00000000000E+00 -0.00000000000E+00 -0.27595849167E+03  0.27596141402E+03  0.12700000000E+01 0. -1.
         25    2    1    2    0    0  0.00000000000E+00  0.00000000000E+00 -0.26183466177E+03  0.29014222751E+03  0.12500048833E+03 0.  0.
    9000005    1    3    3    0    0 -0.49249828116E+02  0.23182902545E+01 -0.41792017056E+02  0.64641261813E+02  0.10000000000E+01 0.  0.
    9000005    1    3    3    0    0  0.49249828116E+02 -0.23182902545E+01 -0.22004264471E+03  0.22550096570E+03  0.10000000000E+01 0.  0.
<mgrwt>
<rscale>  0 0.12500049E+03</rscale>
<asrwt>0</asrwt>
<pdfrwt beam="1">  1        4 0.21775053E-02 0.12500049E+03</pdfrwt>
<pdfrwt beam="2">  1       -4 0.42459757E-01 0.12500049E+03</pdfrwt>
<totfact> 0.76851423E+03</totfact>
</mgrwt>
</event>
<event>
 5    1  0.3312706E-002  0.1250037E+03  0.7818608E-02  0.1235064E+00
          4   -1    0    0  501    0  0.00000000000E+00  0.00000000000E+00  0.66195574857E+02  0.66207756574E+02  0.12700000000E+01 0.  1.
         -4   -1    0    0    0  501 -0.00000000000E+00 -0.00000000000E+00 -0.58989743876E+02  0.59003413312E+02  0.12700000000E+01 0.  1.
         25    2    1    2    0    0  0.00000000000E+00  0.00000000000E+00  0.72058309810E+01  0.12521116989E+03  0.12500365220E+03 0.  0.
    9000005    1    3    3    0    0 -0.50473048918E+02 -0.28596685972E+02  0.26883253425E+02  0.63945355033E+02  0.10000000000E+01 0.  0.
    9000005    1    3    3    0    0  0.50473048918E+02  0.28596685972E+02 -0.19677422444E+02  0.61265814853E+02  0.10000000000E+01 0.  0.
<mgrwt>
<rscale>  0 0.12500365E+03</rscale>
<asrwt>0</asrwt>
<pdfrwt beam="1">  1        4 0.10185923E-01 0.12500365E+03</pdfrwt>
<pdfrwt beam="2">  1       -4 0.90773337E-02 0.12500365E+03</pdfrwt>
<totfact> 0.10447415E+04</totfact>
</mgrwt>
</event>
<event>
 5    1  0.3312706E-002  0.1249989E+03  0.7818608E-02  0.1235071E+00
          4   -1    0    0  501    0  0.00000000000E+00  0.00000000000E+00  0.13039427442E+03  0.13040045898E+03  0.12700000000E+01 0. -1.
         -4   -1    0    0    0  501 -0.00000000000E+00 -0.00000000000E+00 -0.29936323642E+02  0.29963250378E+02  0.12700000000E+01 0. -1.
         25    2    1    2    0    0  0.00000000000E+00  0.00000000000E+00  0.10045795078E+03  0.16036370936E+03  0.12499887761E+03 0.  0.
    9000005    1    3    3    0    0 -0.15746309822E+02  0.22760843020E+02 -0.21651000619E+02  0.35153493081E+02  0.10000000000E+01 0.  0.
    9000005    1    3    3    0    0  0.15746309822E+02 -0.22760843020E+02  0.12210895140E+03  0.12521021627E+03  0.10000000000E+01 0.  0.
<mgrwt>
<rscale>  0 0.12499888E+03</rscale>
<asrwt>0</asrwt>
<pdfrwt beam="1">  1        4 0.20063205E-01 0.12499888E+03</pdfrwt>
<pdfrwt beam="2">  1       -4 0.46081353E-02 0.12499888E+03</pdfrwt>
<totfact> 0.97275164E+03</totfact>
</mgrwt>
</event>
<event>
 5    1  0.3312706E-002  0.1249999E+03  0.7818608E-02  0.1235069E+00
          4   -1    0    0  501    0  0.00000000000E+00  0.00000000000E+00  0.28708164703E+04  0.28708167512E+04  0.12700000000E+01 0.  1.
         -4   -1    0    0    0  501 -0.00000000000E+00 -0.00000000000E+00 -0.10639894180E+01  0.16567961497E+01  0.12700000000E+01 0.  1.
         25    2    1    2    0    0  0.00000000000E+00  0.00000000000E+00  0.28697524809E+04  0.28724735474E+04  0.12499991508E+03 0.  0.
    9000005    1    3    3    0    0 -0.58576087880E+02 -0.20908253745E+02  0.12952249133E+04  0.12967177369E+04  0.10000000000E+01 0.  0.
    9000005    1    3    3    0    0  0.58576087880E+02  0.20908253745E+02  0.15745275675E+04  0.15757558104E+04  0.10000000000E+01 0.  0.
<mgrwt>
<rscale>  0 0.12499992E+03</rscale>
<asrwt>0</asrwt>
<pdfrwt beam="1">  1        4 0.44170314E+00 0.12499992E+03</pdfrwt>
<pdfrwt beam="2">  1       -4 0.20931591E-03 0.12499992E+03</pdfrwt>
<totfact> 0.23584056E+02</totfact>
</mgrwt>
</event>
<event>
 5    1  0.3312706E-002  0.1250022E+03  0.7818608E-02  0.1235066E+00
         -4   -1    0    0    0  501 -0.00000000000E+00  0.00000000000E+00  0.42768236861E+01  0.44614034610E+01  0.12700000000E+01 0. -1.
          4   -1    0    0  501    0  0.00000000000E+00 -0.00000000000E+00 -0.89390696129E+03  0.89390786345E+03  0.12700000000E+01 0. -1.
         25    2    1    2    0    0  0.00000000000E+00  0.00000000000E+00 -0.88963013761E+03  0.89836926692E+03  0.12500223199E+03 0.  0.
    9000005    1    3    3    0    0 -0.23792549888E+02 -0.32246158671E+02 -0.10018527735E+03  0.10790732123E+03  0.10000000000E+01 0.  0.
    9000005    1    3    3    0    0  0.23792549888E+02  0.32246158671E+02 -0.78944486026E+03  0.79046194568E+03  0.10000000000E+01 0.  0.
<mgrwt>
<rscale>  0 0.12500223E+03</rscale>
<asrwt>0</asrwt>
<pdfrwt beam="2">  1        4 0.13753827E+00 0.12500223E+03</pdfrwt>
<pdfrwt beam="1">  1       -4 0.67224143E-03 0.12500223E+03</pdfrwt>
<totfact> 0.34220803E+03</totfact>
</mgrwt>
</event>
<event>
 5    1  0.3312706E-002  0.1250026E+03  0.7818608E-02  0.1235065E+00
         -4   -1    0    0    0  501 -0.00000000000E+00  0.00000000000E+00  0.33325486634E+02  0.33349677051E+02  0.12700000000E+01 0.  1.
          4   -1    0    0  501    0  0.00000000000E+00 -0.00000000000E+00 -0.11714978511E+03  0.11715666883E+03  0.12700000000E+01 0.  1.
         25    2    1    2    0    0  0.00000000000E+00  0.00000000000E+00 -0.83824298477E+02  0.15050634588E+03  0.12500258852E+03 0.  0.
    9000005    1    3    3    0    0  0.39206279826E+02 -0.35215198313E+02 -0.82353246221E+02  0.97776785247E+02  0.10000000000E+01 0.  0.
    9000005    1    3    3    0    0 -0.39206279826E+02  0.35215198313E+02 -0.14710522557E+01  0.52729560635E+02  0.10000000000E+01 0.  0.
<mgrwt>
<rscale>  0 0.12500259E+03</rscale>
<asrwt>0</asrwt>
<pdfrwt beam="2">  1        4 0.18025434E-01 0.12500259E+03</pdfrwt>
<pdfrwt beam="1">  1       -4 0.51293883E-02 0.12500259E+03</pdfrwt>
<totfact> 0.99197083E+03</totfact>
</mgrwt>
</event>
<event>
 5    1  0.3312706E-002  0.1249914E+03  0.7818608E-02  0.1235083E+00
         -4   -1    0    0    0  501 -0.00000000000E+00  0.00000000000E+00  0.11255738709E+03  0.11256455166E+03  0.12700000000E+01 0.  1.
          4   -1    0    0  501    0  0.00000000000E+00 -0.00000000000E+00 -0.34679838497E+02  0.34703084851E+02  0.12700000000E+01 0.  1.
         25    2    1    2    0    0  0.00000000000E+00  0.00000000000E+00  0.77877548597E+02  0.14726763651E+03  0.12499137645E+03 0.  0.
    9000005    1    3    3    0    0  0.35350032367E+02 -0.37602912926E+02  0.80446784364E+02  0.95583936743E+02  0.10000000000E+01 0.  0.
    9000005    1    3    3    0    0 -0.35350032367E+02  0.37602912926E+02 -0.25692357664E+01  0.51683699764E+02  0.10000000000E+01 0.  0.
<mgrwt>
<rscale>  0 0.12499138E+03</rscale>
<asrwt>0</asrwt>
<pdfrwt beam="2">  1        4 0.53376992E-02 0.12499138E+03</pdfrwt>
<pdfrwt beam="1">  1       -4 0.17318860E-01 0.12499138E+03</pdfrwt>
<totfact> 0.99870556E+03</totfact>
</mgrwt>
</event>
<event>
 5    1  0.3312706E-002  0.1250008E+03  0.7818608E-02  0.1235068E+00
         -4   -1    0    0    0  501 -0.00000000000E+00  0.00000000000E+00  0.69421828001E+03  0.69421944168E+03  0.12700000000E+01 0.  1.
          4   -1    0    0  501    0  0.00000000000E+00 -0.00000000000E+00 -0.55540590747E+01  0.56974092538E+01  0.12700000000E+01 0.  1.
         25    2    1    2    0    0  0.00000000000E+00  0.00000000000E+00  0.68866422094E+03  0.69991685093E+03  0.12500075607E+03 0.  0.
    9000005    1    3    3    0    0 -0.13154298975E+02 -0.28372465382E+02  0.64727783029E+03  0.64803365804E+03  0.10000000000E+01 0.  0.
    9000005    1    3    3    0    0  0.13154298975E+02  0.28372465382E+02  0.41386390651E+02  0.51883192890E+02  0.10000000000E+01 0.  0.
<mgrwt>
<rscale>  0 0.12500076E+03</rscale>
<asrwt>0</asrwt>
<pdfrwt beam="2">  1        4 0.86558725E-03 0.12500076E+03</pdfrwt>
<pdfrwt beam="1">  1       -4 0.10681389E+00 0.12500076E+03</pdfrwt>
<totfact> 0.43090380E+03</totfact>
</mgrwt>
</event>
<event>
 5    1  0.3312706E-002  0.1250022E+03  0.7818608E-02  0.1235066E+00
         -4   -1    0    0    0  501 -0.00000000000E+00  0.00000000000E+00  0.24518884640E+02  0.24551753583E+02  0.12700000000E+01 0. -1.
          4   -1    0    0  501    0  0.00000000000E+00 -0.00000000000E+00 -0.15917957783E+03  0.15918464404E+03  0.12700000000E+01 0. -1.
         25    2    1    2    0    0  0.00000000000E+00  0.00000000000E+00 -0.13466069319E+03  0.18373639762E+03  0.12500224606E+03 0.  0.
    9000005    1    3    3    0    0  0.11269048324E+02 -0.57652236617E+02 -0.98670488146E+02  0.11483743757E+03  0.10000000000E+01 0.  0.
    9000005    1    3    3    0    0 -0.11269048324E+02  0.57652236617E+02 -0.35990205043E+02  0.68898960050E+02  0.10000000000E+01 0.  0.
<mgrwt>
<rscale>  0 0.12500225E+03</rscale>
<asrwt>0</asrwt>
<pdfrwt beam="2">  1        4 0.24492083E-01 0.12500225E+03</pdfrwt>
<pdfrwt beam="1">  1       -4 0.37750543E-02 0.12500225E+03</pdfrwt>
<totfact> 0.92944052E+03</totfact>
</mgrwt>
</event>
<event>
 5    1  0.3312706E-002  0.1250008E+03  0.7818608E-02  0.1235068E+00
         -4   -1    0    0    0  501 -0.00000000000E+00  0.00000000000E+00  0.66021570788E+02  0.66033784606E+02  0.12700000000E+01 0.  1.
          4   -1    0    0  501    0  0.00000000000E+00 -0.00000000000E+00 -0.59142513843E+02  0.59156147979E+02  0.12700000000E+01 0.  1.
         25    2    1    2    0    0  0.00000000000E+00  0.00000000000E+00  0.68790569447E+01  0.12518993258E+03  0.12500079118E+03 0.  0.
    9000005    1    3    3    0    0 -0.43833515925E+01  0.94882938807E+01 -0.58265855760E+02  0.59204319431E+02  0.10000000000E+01 0.  0.
    9000005    1    3    3    0    0  0.43833515925E+01 -0.94882938807E+01  0.65144912704E+02  0.65985613153E+02  0.10000000000E+01 0.  0.
<mgrwt>
<rscale>  0 0.12500079E+03</rscale>
<asrwt>0</asrwt>
<pdfrwt beam="2">  1        4 0.91008366E-02 0.12500079E+03</pdfrwt>
<pdfrwt beam="1">  1       -4 0.10159153E-01 0.12500079E+03</pdfrwt>
<totfact> 0.10448552E+04</totfact>
</mgrwt>
</event>
<event>
 5    1  0.3312706E-002  0.1250005E+03  0.7818608E-02  0.1235069E+00
          4   -1    0    0  501    0  0.00000000000E+00  0.00000000000E+00  0.50574657033E+02  0.50590600253E+02  0.12700000000E+01 0. -1.
         -4   -1    0    0    0  501 -0.00000000000E+00 -0.00000000000E+00 -0.77204543682E+02  0.77214988604E+02  0.12700000000E+01 0. -1.
         25    2    1    2    0    0  0.00000000000E+00  0.00000000000E+00 -0.26629886649E+02  0.12780558886E+03  0.12500047072E+03 0.  0.
    9000005    1    3    3    0    0 -0.24669930621E+02  0.12924205851E+02  0.43883644824E+02  0.51984756004E+02  0.10000000000E+01 0.  0.
    9000005    1    3    3    0    0  0.24669930621E+02 -0.12924205851E+02 -0.70513531474E+02  0.75820832854E+02  0.10000000000E+01 0.  0.
<mgrwt>
<rscale>  0 0.12500047E+03</rscale>
<asrwt>0</asrwt>
<pdfrwt beam="1">  1        4 0.77827463E-02 0.12500047E+03</pdfrwt>
<pdfrwt beam="2">  1       -4 0.11879652E-01 0.12500047E+03</pdfrwt>
<totfact> 0.10391578E+04</totfact>
</mgrwt>
</event>
<event>
 5    1  0.3312706E-002  0.1250003E+03  0.7818608E-02  0.1235069E+00
         -4   -1    0    0    0  501 -0.00000000000E+00  0.00000000000E+00  0.73547202667E+02  0.73558166917E+02  0.12700000000E+01 0.  1.
          4   -1    0    0  501    0  0.00000000000E+00 -0.00000000000E+00 -0.53089929056E+02  0.53105117146E+02  0.12700000000E+01 0.  1.
         25    2    1    2    0    0  0.00000000000E+00  0.00000000000E+00  0.20457273611E+02  0.12666328406E+03  0.12500034994E+03 0.  0.
    9000005    1    3    3    0    0  0.32736362847E+02  0.24668788623E+02  0.58026636625E+02  0.71051454190E+02  0.10000000000E+01 0.  0.
    9000005    1    3    3    0    0 -0.32736362847E+02 -0.24668788623E+02 -0.37569363013E+02  0.55611829873E+02  0.10000000000E+01 0.  0.
<mgrwt>
<rscale>  0 0.12500035E+03</rscale>
<asrwt>0</asrwt>
<pdfrwt beam="2">  1        4 0.81696931E-02 0.12500035E+03</pdfrwt>
<pdfrwt beam="1">  1       -4 0.11316966E-01 0.12500035E+03</pdfrwt>
<totfact> 0.10416387E+04</totfact>
</mgrwt>
</event>
<event>
 5    1  0.3312706E-002  0.1249993E+03  0.7818608E-02  0.1235070E+00
         -4   -1    0    0    0  501 -0.00000000000E+00  0.00000000000E+00  0.14021557294E+02  0.14078954824E+02  0.12700000000E+01 0. -1.
          4   -1    0    0  501    0  0.00000000000E+00 -0.00000000000E+00 -0.27795769785E+03  0.27796059917E+03  0.12700000000E+01 0. -1.
         25    2    1    2    0    0  0.00000000000E+00  0.00000000000E+00 -0.26393614056E+03  0.29203955400E+03  0.12499925923E+03 0.  0.
    9000005    1    3    3    0    0  0.53452283479E+02 -0.31300291531E+02 -0.11265284307E+03  0.12856328368E+03  0.10000000000E+01 0.  0.
    9000005    1    3    3    0    0 -0.53452283479E+02  0.31300291531E+02 -0.15128329748E+03  0.16347627032E+03  0.10000000000E+01 0.  0.
<mgrwt>
<rscale>  0 0.12499926E+03</rscale>
<asrwt>0</asrwt>
<pdfrwt beam="2">  1        4 0.42767357E-01 0.12499926E+03</pdfrwt>
<pdfrwt beam="1">  1       -4 0.21618012E-02 0.12499926E+03</pdfrwt>
<totfact> 0.76609619E+03</totfact>
</mgrwt>
</event>
<event>
 5    1  0.3312706E-002  0.1249964E+03  0.7818608E-02  0.1235075E+00
          4   -1    0    0  501    0  0.00000000000E+00  0.00000000000E+00  0.21676260995E+03  0.21676633035E+03  0.12700000000E+01 0. -1.
         -4   -1    0    0    0  501 -0.00000000000E+00 -0.00000000000E+00 -0.17993583737E+02  0.18038346811E+02  0.12700000000E+01 0. -1.
         25    2    1    2    0    0  0.00000000000E+00  0.00000000000E+00  0.19876902621E+03  0.23480467716E+03  0.12499644248E+03 0.  0.
    9000005    1    3    3    0    0  0.23461708646E+02 -0.28309432466E+02  0.19430225973E+03  0.19775298702E+03  0.10000000000E+01 0.  0.
    9000005    1    3    3    0    0 -0.23461708646E+02  0.28309432466E+02  0.44667664813E+01  0.37051690137E+02  0.10000000000E+01 0.  0.
<mgrwt>
<rscale>  0 0.12499644E+03</rscale>
<asrwt>0</asrwt>
<pdfrwt beam="1">  1        4 0.33351823E-01 0.12499644E+03</pdfrwt>
<pdfrwt beam="2">  1       -4 0.27719732E-02 0.12499644E+03</pdfrwt>
<totfact> 0.84583964E+03</totfact>
</mgrwt>
</event>
<event>
 5    1  0.3312706E-002  0.1250011E+03  0.7818608E-02  0.1235068E+00
          4   -1    0    0  501    0  0.00000000000E+00  0.00000000000E+00  0.11556274677E+03  0.11556972502E+03  0.12700000000E+01 0.  1.
         -4   -1    0    0    0  501 -0.00000000000E+00 -0.00000000000E+00 -0.33782649003E+02  0.33806512296E+02  0.12700000000E+01 0.  1.
         25    2    1    2    0    0  0.00000000000E+00  0.00000000000E+00  0.81780097765E+02  0.14937623731E+03  0.12500110353E+03 0.  0.
    9000005    1    3    3    0    0 -0.27204232686E+02 -0.38006914606E+02  0.90460533846E+02  0.10182683348E+03  0.10000000000E+01 0.  0.
    9000005    1    3    3    0    0  0.27204232686E+02  0.38006914606E+02 -0.86804360807E+01  0.47549403829E+02  0.10000000000E+01 0.  0.
<mgrwt>
<rscale>  0 0.12500110E+03</rscale>
<asrwt>0</asrwt>
<pdfrwt beam="1">  1        4 0.17781257E-01 0.12500110E+03</pdfrwt>
<pdfrwt beam="2">  1       -4 0.51997030E-02 0.12500110E+03</pdfrwt>
<totfact> 0.99425711E+03</totfact>
</mgrwt>
</event>
<event>
 5    1  0.3312706E-002  0.1250067E+03  0.7818608E-02  0.1235059E+00
          4   -1    0    0  501    0  0.00000000000E+00  0.00000000000E+00  0.28015863796E+03  0.28016151649E+03  0.12700000000E+01 0.  1.
         -4   -1    0    0    0  501 -0.00000000000E+00 -0.00000000000E+00 -0.13912604746E+02  0.13970449915E+02  0.12700000000E+01 0.  1.
         25    2    1    2    0    0  0.00000000000E+00  0.00000000000E+00  0.26624603321E+03  0.29413196640E+03  0.12500665366E+03 0.  0.
    9000005    1    3    3    0    0  0.29032242778E+02  0.54823327160E+02  0.11532802509E+03  0.13095809136E+03  0.10000000000E+01 0.  0.
    9000005    1    3    3    0    0 -0.29032242778E+02 -0.54823327160E+02  0.15091800812E+03  0.16317387505E+03  0.10000000000E+01 0.  0.
<mgrwt>
<rscale>  0 0.12500665E+03</rscale>
<asrwt>0</asrwt>
<pdfrwt beam="1">  1        4 0.43105999E-01 0.12500665E+03</pdfrwt>
<pdfrwt beam="2">  1       -4 0.21450718E-02 0.12500665E+03</pdfrwt>
<totfact> 0.76329580E+03</totfact>
</mgrwt>
</event>
<event>
 4    1  0.3312706E-002  0.1249362E+03  0.7818608E-02  0.1235169E+00
         -4   -1    0    0    0  501 -0.00000000000E+00  0.00000000000E+00  0.11554726012E+02  0.11624310440E+02  0.12700000000E+01 0.  1.
          4   -1    0    0  501    0  0.00000000000E+00 -0.00000000000E+00 -0.33663532113E+03  0.33663771674E+03  0.12700000000E+01 0.  1.
    9000005    1    1    2    0    0 -0.35261918417E+02 -0.24443438553E+02 -0.36010945271E+02  0.56023858828E+02  0.10000000000E+01 0.  0.
    9000005    1    1    2    0    0  0.35261918417E+02  0.24443438553E+02 -0.28906964985E+03  0.29223816835E+03  0.10000000000E+01 0.  0.
<mgrwt>
<rscale>  0 0.12493617E+03</rscale>
<asrwt>0</asrwt>
<pdfrwt beam="2">  1        4 0.51795579E-01 0.12493617E+03</pdfrwt>
<pdfrwt beam="1">  1       -4 0.17831873E-02 0.12493617E+03</pdfrwt>
<totfact> 0.70015047E+03</totfact>
</mgrwt>
</event>
<event>
 5    1  0.3312706E-002  0.1249916E+03  0.7818608E-02  0.1235082E+00
          4   -1    0    0  501    0  0.00000000000E+00  0.00000000000E+00  0.95070955452E+01  0.95915465753E+01  0.12700000000E+01 0.  1.
         -4   -1    0    0    0  501 -0.00000000000E+00 -0.00000000000E+00 -0.40892035121E+03  0.40892232335E+03  0.12700000000E+01 0.  1.
         25    2    1    2    0    0  0.00000000000E+00  0.00000000000E+00 -0.39941325567E+03  0.41851386993E+03  0.12499164180E+03 0.  0.
    9000005    1    3    3    0    0  0.53615185947E+02 -0.13355594059E+02 -0.29742797242E+03  0.30251836115E+03  0.10000000000E+01 0.  0.
    9000005    1    3    3    0    0 -0.53615185947E+02  0.13355594059E+02 -0.10198528325E+03  0.11599550877E+03  0.10000000000E+01 0.  0.
<mgrwt>
<rscale>  0 0.12499164E+03</rscale>
<asrwt>0</asrwt>
<pdfrwt beam="1">  1        4 0.14692783E-02 0.12499164E+03</pdfrwt>
<pdfrwt beam="2">  1       -4 0.62917458E-01 0.12499164E+03</pdfrwt>
<totfact> 0.62802705E+03</totfact>
</mgrwt>
</event>
<event>
 5    1  0.3312706E-002  0.1250010E+03  0.7818608E-02  0.1235068E+00
          4   -1    0    0  501    0  0.00000000000E+00  0.00000000000E+00  0.90760330010E+03  0.90760418865E+03  0.12700000000E+01 0. -1.
         -4   -1    0    0    0  501 -0.00000000000E+00 -0.00000000000E+00 -0.42093936578E+01  0.43968050863E+01  0.12700000000E+01 0. -1.
         25    2    1    2    0    0  0.00000000000E+00  0.00000000000E+00  0.90339390644E+03  0.91200099373E+03  0.12500104950E+03 0.  0.
    9000005    1    3    3    0    0 -0.35251795656E+02  0.37775554574E+02  0.70816104831E+03  0.71004419015E+03  0.10000000000E+01 0.  0.
    9000005    1    3    3    0    0  0.35251795656E+02 -0.37775554574E+02  0.19523285813E+03  0.20195680359E+03  0.10000000000E+01 0.  0.
<mgrwt>
<rscale>  0 0.12500105E+03</rscale>
<asrwt>0</asrwt>
<pdfrwt beam="1">  1        4 0.13964575E+00 0.12500105E+03</pdfrwt>
<pdfrwt beam="2">  1       -4 0.66208371E-03 0.12500105E+03</pdfrwt>
<totfact> 0.33703770E+03</totfact>
</mgrwt>
</event>
<event>
 5    1  0.3312706E-002  0.1249990E+03  0.7818608E-02  0.1235071E+00
          4   -1    0    0  501    0  0.00000000000E+00  0.00000000000E+00  0.80507555543E+03  0.80507655713E+03  0.12700000000E+01 0. -1.
         -4   -1    0    0    0  501 -0.00000000000E+00 -0.00000000000E+00 -0.47678271674E+01  0.49340729522E+01  0.12700000000E+01 0. -1.
         25    2    1    2    0    0  0.00000000000E+00  0.00000000000E+00  0.80030772826E+03  0.81001063009E+03  0.12499904376E+03 0.  0.
    9000005    1    3    3    0    0  0.48573322991E+01  0.47965199071E+02  0.65781042437E+03  0.65957547590E+03  0.10000000000E+01 0.  0.
    9000005    1    3    3    0    0 -0.48573322991E+01 -0.47965199071E+02  0.14249730389E+03  0.15043515418E+03  0.10000000000E+01 0.  0.
<mgrwt>
<rscale>  0 0.12499904E+03</rscale>
<asrwt>0</asrwt>
<pdfrwt beam="1">  1        4 0.12387077E+00 0.12499904E+03</pdfrwt>
<pdfrwt beam="2">  1       -4 0.74637633E-03 0.12499904E+03</pdfrwt>
<totfact> 0.37822469E+03</totfact>
</mgrwt>
</event>
<event>
 5    1  0.3312706E-002  0.1250016E+03  0.7818608E-02  0.1235067E+00
          4   -1    0    0  501    0  0.00000000000E+00  0.00000000000E+00  0.38614763640E+01  0.40649599887E+01  0.12700000000E+01 0. -1.
         -4   -1    0    0    0  501 -0.00000000000E+00 -0.00000000000E+00 -0.98544771732E+03  0.98544853568E+03  0.12700000000E+01 0. -1.
         25    2    1    2    0    0  0.00000000000E+00  0.00000000000E+00 -0.98158624096E+03  0.98951349567E+03  0.12500163868E+03 0.  0.
    9000005    1    3    3    0    0  0.42996333958E+02 -0.24857988225E+02 -0.19053248604E+03  0.19690158087E+03  0.10000000000E+01 0.  0.
    9000005    1    3    3    0    0 -0.42996333958E+02  0.24857988225E+02 -0.79105375492E+03  0.79261191480E+03  0.10000000000E+01 0.  0.
<mgrwt>
<rscale>  0 0.12500164E+03</rscale>
<asrwt>0</asrwt>
<pdfrwt beam="1">  1        4 0.60978961E-03 0.12500164E+03</pdfrwt>
<pdfrwt beam="2">  1       -4 0.15162286E+00 0.12500164E+03</pdfrwt>
<totfact> 0.30952210E+03</totfact>
</mgrwt>
</event>
<event>
 5    1  0.3312706E-002  0.1250016E+03  0.7818608E-02  0.1235067E+00
          4   -1    0    0  501    0  0.00000000000E+00  0.00000000000E+00  0.24666584931E+02  0.24699257320E+02  0.12700000000E+01 0.  1.
         -4   -1    0    0    0  501 -0.00000000000E+00 -0.00000000000E+00 -0.15822614654E+03  0.15823124327E+03  0.12700000000E+01 0.  1.
         25    2    1    2    0    0  0.00000000000E+00  0.00000000000E+00 -0.13355956161E+03  0.18293050059E+03  0.12500164619E+03 0.  0.
    9000005    1    3    3    0    0 -0.15792114482E+02 -0.49195788383E+02 -0.15335948659E+02  0.53905545130E+02  0.10000000000E+01 0.  0.
    9000005    1    3    3    0    0  0.15792114482E+02  0.49195788383E+02 -0.11822361295E+03  0.12902495546E+03  0.10000000000E+01 0.  0.
<mgrwt>
<rscale>  0 0.12500165E+03</rscale>
<asrwt>0</asrwt>
<pdfrwt beam="1">  1        4 0.37977646E-02 0.12500165E+03</pdfrwt>
<pdfrwt beam="2">  1       -4 0.24345389E-01 0.12500165E+03</pdfrwt>
<totfact> 0.93088713E+03</totfact>
</mgrwt>
</event>
<event>
 5    1  0.3312706E-002  0.1249975E+03  0.7818608E-02  0.1235073E+00
         -4   -1    0    0    0  501 -0.00000000000E+00  0.00000000000E+00  0.13550191212E+02  0.13609576844E+02  0.12700000000E+01 0.  1.
          4   -1    0    0  501    0  0.00000000000E+00 -0.00000000000E+00 -0.28757721603E+03  0.28758002030E+03  0.12700000000E+01 0.  1.
         25    2    1    2    0    0  0.00000000000E+00  0.00000000000E+00 -0.27402702482E+03  0.30118959715E+03  0.12499745238E+03 0.  0.
    9000005    1    3    3    0    0  0.91667839752E+01 -0.40574208276E+02 -0.24644150170E+02  0.48359388368E+02  0.10000000000E+01 0.  0.
    9000005    1    3    3    0    0 -0.91667839752E+01  0.40574208276E+02 -0.24938287465E+03  0.25283020878E+03  0.10000000000E+01 0.  0.
<mgrwt>
<rscale>  0 0.12499745E+03</rscale>
<asrwt>0</asrwt>
<pdfrwt beam="2">  1        4 0.44247428E-01 0.12499745E+03</pdfrwt>
<pdfrwt beam="1">  1       -4 0.20894289E-02 0.12499745E+03</pdfrwt>
<totfact> 0.75454129E+03</totfact>
</mgrwt>
</event>
<event>
 5    1  0.3312706E-002  0.1249964E+03  0.7818608E-02  0.1235075E+00
          4   -1    0    0  501    0  0.00000000000E+00  0.00000000000E+00  0.20067748628E+03  0.20068150488E+03  0.12700000000E+01 0. -1.
         -4   -1    0    0    0  501 -0.00000000000E+00 -0.00000000000E+00 -0.19439258957E+02  0.19480700419E+02  0.12700000000E+01 0. -1.
         25    2    1    2    0    0  0.00000000000E+00  0.00000000000E+00  0.18123822732E+03  0.22016220530E+03  0.12499640634E+03 0.  0.
    9000005    1    3    3    0    0 -0.57667665879E+02  0.37806338188E+01  0.48745951598E+02  0.75610982517E+02  0.10000000000E+01 0.  0.
    9000005    1    3    3    0    0  0.57667665879E+02 -0.37806338188E+01  0.13249227573E+03  0.14455122278E+03  0.10000000000E+01 0.  0.
<mgrwt>
<rscale>  0 0.12499641E+03</rscale>
<asrwt>0</asrwt>
<pdfrwt beam="1">  1        4 0.30876959E-01 0.12499641E+03</pdfrwt>
<pdfrwt beam="2">  1       -4 0.29941519E-02 0.12499641E+03</pdfrwt>
<totfact> 0.86849657E+03</totfact>
</mgrwt>
</event>
<event>
 5    1  0.3312706E-002  0.1249962E+03  0.7818608E-02  0.1235075E+00
          4   -1    0    0  501    0  0.00000000000E+00  0.00000000000E+00  0.65071217664E+02  0.65083609828E+02  0.12700000000E+01 0.  1.
         -4   -1    0    0    0  501 -0.00000000000E+00 -0.00000000000E+00 -0.60001888257E+02  0.60015327162E+02  0.12700000000E+01 0.  1.
         25    2    1    2    0    0  0.00000000000E+00  0.00000000000E+00  0.50693294073E+01  0.12509893699E+03  0.12499618368E+03 0.  0.
    9000005    1    3    3    0    0 -0.44225501127E+02  0.11761884916E+02  0.45122842887E+02  0.64275250578E+02  0.10000000000E+01 0.  0.
    9000005    1    3    3    0    0  0.44225501127E+02 -0.11761884916E+02 -0.40053513480E+02  0.60823686412E+02  0.10000000000E+01 0.  0.
<mgrwt>
<rscale>  0 0.12499618E+03</rscale>
<asrwt>0</asrwt>
<pdfrwt beam="1">  1        4 0.10012944E-01 0.12499618E+03</pdfrwt>
<pdfrwt beam="2">  1       -4 0.92330467E-02 0.12499618E+03</pdfrwt>
<totfact> 0.10451616E+04</totfact>
</mgrwt>
</event>
<event>
 5    1  0.3312706E-002  0.1249985E+03  0.7818608E-02  0.1235072E+00
          4   -1    0    0  501    0  0.00000000000E+00  0.00000000000E+00  0.21345566297E+01  0.24837938733E+01  0.12700000000E+01 0. -1.
         -4   -1    0    0    0  501 -0.00000000000E+00 -0.00000000000E+00 -0.16912320841E+04  0.16912325609E+04  0.12700000000E+01 0. -1.
         25    2    1    2    0    0  0.00000000000E+00  0.00000000000E+00 -0.16890975275E+04  0.16937163548E+04  0.12499853304E+03 0.  0.
    9000005    1    3    3    0    0  0.21642207828E+02 -0.11023565457E+02 -0.64369902001E+02  0.68806892378E+02  0.10000000000E+01 0.  0.
    9000005    1    3    3    0    0 -0.21642207828E+02  0.11023565457E+02 -0.16247276255E+04  0.16249094624E+04  0.10000000000E+01 0.  0.
<mgrwt>
<rscale>  0 0.12499853E+03</rscale>
<asrwt>0</asrwt>
<pdfrwt beam="1">  1        4 0.35529576E-03 0.12499853E+03</pdfrwt>
<pdfrwt beam="2">  1       -4 0.26021546E+00 0.12499853E+03</pdfrwt>
<totfact> 0.14413593E+03</totfact>
</mgrwt>
</event>
<event>
 5    1  0.3312706E-002  0.1250047E+03  0.7818608E-02  0.1235062E+00
          4   -1    0    0  501    0  0.00000000000E+00  0.00000000000E+00  0.68315211478E+03  0.68315329526E+03  0.12700000000E+01 0.  1.
         -4   -1    0    0    0  501 -0.00000000000E+00 -0.00000000000E+00 -0.56466980316E+01  0.57877541984E+01  0.12700000000E+01 0.  1.
         25    2    1    2    0    0  0.00000000000E+00  0.00000000000E+00  0.67750541675E+03  0.68894104946E+03  0.12500471955E+03 0.  0.
    9000005    1    3    3    0    0 -0.40698889079E+02  0.37354774074E+02  0.49978951351E+03  0.50283430326E+03  0.10000000000E+01 0.  0.
    9000005    1    3    3    0    0  0.40698889079E+02 -0.37354774074E+02  0.17771590323E+03  0.18610674620E+03  0.10000000000E+01 0.  0.
<mgrwt>
<rscale>  0 0.12500472E+03</rscale>
<asrwt>0</asrwt>
<pdfrwt beam="1">  1        4 0.10511131E+00 0.12500472E+03</pdfrwt>
<pdfrwt beam="2">  1       -4 0.87966371E-03 0.12500472E+03</pdfrwt>
<totfact> 0.43672417E+03</totfact>
</mgrwt>
</event>
<event>
 5    1  0.3312706E-002  0.1250007E+03  0.7818608E-02  0.1235068E+00
         -4   -1    0    0    0  501 -0.00000000000E+00  0.00000000000E+00  0.99680327903E+01  0.10048610735E+02  0.12700000000E+01 0. -1.
          4   -1    0    0  501    0  0.00000000000E+00 -0.00000000000E+00 -0.39022306362E+03  0.39022513025E+03  0.12700000000E+01 0. -1.
         25    2    1    2    0    0  0.00000000000E+00  0.00000000000E+00 -0.38025503083E+03  0.40027374099E+03  0.12500071701E+03 0.  0.
    9000005    1    3    3    0    0  0.10311417645E+02 -0.51763037185E+02 -0.82983531587E+02  0.98351430428E+02  0.10000000000E+01 0.  0.
    9000005    1    3    3    0    0 -0.10311417645E+02  0.51763037185E+02 -0.29727149924E+03  0.30192231056E+03  0.10000000000E+01 0.  0.
<mgrwt>
<rscale>  0 0.12500072E+03</rscale>
<asrwt>0</asrwt>
<pdfrwt beam="2">  1        4 0.60040663E-01 0.12500072E+03</pdfrwt>
<pdfrwt beam="1">  1       -4 0.15399011E-02 0.12500072E+03</pdfrwt>
<totfact> 0.64525158E+03</totfact>
</mgrwt>
</event>
<event>
 5    1  0.3312706E-002  0.1249965E+03  0.7818608E-02  0.1235075E+00
         -4   -1    0    0    0  501 -0.00000000000E+00  0.00000000000E+00  0.34022965910E+02  0.34046660766E+02  0.12700000000E+01 0. -1.
          4   -1    0    0  501    0  0.00000000000E+00 -0.00000000000E+00 -0.11473847779E+03  0.11474550616E+03  0.12700000000E+01 0. -1.
         25    2    1    2    0    0  0.00000000000E+00  0.00000000000E+00 -0.80715511875E+02  0.14879216693E+03  0.12499646028E+03 0.  0.
    9000005    1    3    3    0    0  0.53315117483E+02 -0.25015227009E+02 -0.65235241642E+02  0.87891410767E+02  0.10000000000E+01 0.  0.
    9000005    1    3    3    0    0 -0.53315117483E+02  0.25015227009E+02 -0.15480270234E+02  0.60900756162E+02  0.10000000000E+01 0.  0.
<mgrwt>
<rscale>  0 0.12499646E+03</rscale>
<asrwt>0</asrwt>
<pdfrwt beam="2">  1        4 0.17654437E-01 0.12499646E+03</pdfrwt>
<pdfrwt beam="1">  1       -4 0.52366658E-02 0.12499646E+03</pdfrwt>
<totfact> 0.99552940E+03</totfact>
</mgrwt>
</event>
<event>
 5    1  0.3312706E-002  0.1250029E+03  0.7818608E-02  0.1235065E+00
          4   -1    0    0  501    0  0.00000000000E+00  0.00000000000E+00  0.22618970812E+02  0.22654596456E+02  0.12700000000E+01 0. -1.
         -4   -1    0    0    0  501 -0.00000000000E+00 -0.00000000000E+00 -0.17253219004E+03  0.17253686418E+03  0.12700000000E+01 0. -1.
         25    2    1    2    0    0  0.00000000000E+00  0.00000000000E+00 -0.14991321923E+03  0.19519146063E+03  0.12500293198E+03 0.  0.
    9000005    1    3    3    0    0 -0.16373599401E+01 -0.38626992898E+02 -0.15162439066E+03  0.15647901256E+03  0.10000000000E+01 0.  0.
    9000005    1    3    3    0    0  0.16373599401E+01  0.38626992898E+02  0.17111714365E+01  0.38712448071E+02  0.10000000000E+01 0.  0.
<mgrwt>
<rscale>  0 0.12500293E+03</rscale>
<asrwt>0</asrwt>
<pdfrwt beam="1">  1        4 0.34829418E-02 0.12500293E+03</pdfrwt>
<pdfrwt beam="2">  1       -4 0.26546513E-01 0.12500293E+03</pdfrwt>
<totfact> 0.90945812E+03</totfact>
</mgrwt>
</event>
<event>
 5    1  0.3312706E-002  0.1250002E+03  0.7818608E-02  0.1235069E+00
         -4   -1    0    0    0  501 -0.00000000000E+00  0.00000000000E+00  0.46283826397E+02  0.46301247132E+02  0.12700000000E+01 0. -1.
          4   -1    0    0  501    0  0.00000000000E+00 -0.00000000000E+00 -0.84359922278E+02  0.84369481370E+02  0.12700000000E+01 0. -1.
         25    2    1    2    0    0  0.00000000000E+00  0.00000000000E+00 -0.38076095880E+02  0.13067072850E+03  0.12500020084E+03 0.  0.
    9000005    1    3    3    0    0 -0.24043789840E+02  0.36969260571E+01  0.41136180355E+02  0.47801217833E+02  0.10000000000E+01 0.  0.
    9000005    1    3    3    0    0  0.24043789840E+02 -0.36969260571E+01 -0.79212276235E+02  0.82869510669E+02  0.10000000000E+01 0.  0.
<mgrwt>
<rscale>  0 0.12500020E+03</rscale>
<asrwt>0</asrwt>
<pdfrwt beam="2">  1        4 0.12980525E-01 0.12500020E+03</pdfrwt>
<pdfrwt beam="1">  1       -4 0.71226640E-02 0.12500020E+03</pdfrwt>
<totfact> 0.10330107E+04</totfact>
</mgrwt>
</event>
<event>
 5    1  0.3312706E-002  0.1250028E+03  0.7818608E-02  0.1235065E+00
         -4   -1    0    0    0  501 -0.00000000000E+00  0.00000000000E+00  0.98974437022E+03  0.98974518502E+03  0.12700000000E+01 0. -1.
          4   -1    0    0  501    0  0.00000000000E+00 -0.00000000000E+00 -0.38438999100E+01  0.40482671006E+01  0.12700000000E+01 0. -1.
         25    2    1    2    0    0  0.00000000000E+00  0.00000000000E+00  0.98590047031E+03  0.99379345212E+03  0.12500275250E+03 0.  0.
    9000005    1    3    3    0    0 -0.31763101354E+02  0.53126943855E+02  0.56136573691E+03  0.56476885303E+03  0.10000000000E+01 0.  0.
    9000005    1    3    3    0    0  0.31763101354E+02 -0.53126943855E+02  0.42453473339E+03  0.42902459909E+03  0.10000000000E+01 0.  0.
<mgrwt>
<rscale>  0 0.12500275E+03</rscale>
<asrwt>0</asrwt>
<pdfrwt beam="2">  1        4 0.60715175E-03 0.12500275E+03</pdfrwt>
<pdfrwt beam="1">  1       -4 0.15228432E+00 0.12500275E+03</pdfrwt>
<totfact> 0.30808410E+03</totfact>
</mgrwt>
</event>
<event>
 5    1  0.3312706E-002  0.1250012E+03  0.7818608E-02  0.1235067E+00
         -4   -1    0    0    0  501 -0.00000000000E+00  0.00000000000E+00  0.20514072604E+02  0.20553347046E+02  0.12700000000E+01 0. -1.
          4   -1    0    0  501    0  0.00000000000E+00 -0.00000000000E+00 -0.19019808781E+03  0.19020232782E+03  0.12700000000E+01 0. -1.
         25    2    1    2    0    0  0.00000000000E+00  0.00000000000E+00 -0.16968401521E+03  0.21075567486E+03  0.12500115788E+03 0.  0.
    9000005    1    3    3    0    0 -0.39648146034E+02 -0.42433785536E+01 -0.16597036581E+03  0.17069605757E+03  0.10000000000E+01 0.  0.
    9000005    1    3    3    0    0  0.39648146034E+02  0.42433785536E+01 -0.37136494008E+01  0.40059617289E+02  0.10000000000E+01 0.  0.
<mgrwt>
<rscale>  0 0.12500116E+03</rscale>
<asrwt>0</asrwt>
<pdfrwt beam="2">  1        4 0.29264590E-01 0.12500116E+03</pdfrwt>
<pdfrwt beam="1">  1       -4 0.31593586E-02 0.12500116E+03</pdfrwt>
<totfact> 0.88350331E+03</totfact>
</mgrwt>
</event>
<event>
 5    1  0.3312706E-002  0.1249965E+03  0.7818608E-02  0.1235075E+00
         -4   -1    0    0    0  501 -0.00000000000E+00  0.00000000000E+00  0.87597314889E+02  0.87606520737E+02  0.12700000000E+01 0. -1.
          4   -1    0    0  501    0  0.00000000000E+00 -0.00000000000E+00 -0.44570140779E+02  0.44588231060E+02  0.12700000000E+01 0. -1.
         25    2    1    2    0    0  0.00000000000E+00  0.00000000000E+00  0.43027174109E+02  0.13219475180E+03  0.12499645871E+03 0.  0.
    9000005    1    3    3    0    0  0.89148513758E+01 -0.39624656375E+02  0.71740005631E+02  0.82445232585E+02  0.10000000000E+01 0.  0.
    9000005    1    3    3    0    0 -0.89148513758E+01  0.39624656375E+02 -0.28712831522E+02  0.49749519213E+02  0.10000000000E+01 0.  0.
<mgrwt>
<rscale>  0 0.12499646E+03</rscale>
<asrwt>0</asrwt>
<pdfrwt beam="2">  1        4 0.68590444E-02 0.12499646E+03</pdfrwt>
<pdfrwt beam="1">  1       -4 0.13478610E-01 0.12499646E+03</pdfrwt>
<totfact> 0.10298366E+04</totfact>
</mgrwt>
</event>
<event>
 5    1  0.3312706E-002  0.1250103E+03  0.7818608E-02  0.1235053E+00
         -4   -1    0    0    0  501 -0.00000000000E+00  0.00000000000E+00  0.12369785140E+02  0.12434809384E+02  0.12700000000E+01 0. -1.
          4   -1    0    0  501    0  0.00000000000E+00 -0.00000000000E+00 -0.31494741613E+03  0.31494997670E+03  0.12700000000E+01 0. -1.
         25    2    1    2    0    0  0.00000000000E+00  0.00000000000E+00 -0.30257763099E+03  0.32738478609E+03  0.12501030112E+03 0.  0.
    9000005    1    3    3    0    0 -0.38076848221E+02  0.48487205133E+02 -0.12444855222E+03  0.13888591570E+03  0.10000000000E+01 0.  0.
    9000005    1    3    3    0    0  0.38076848221E+02 -0.48487205133E+02 -0.17812907877E+03  0.18849887038E+03  0.10000000000E+01 0.  0.
<mgrwt>
<rscale>  0 0.12501030E+03</rscale>
<asrwt>0</asrwt>
<pdfrwt beam="2">  1        4 0.48458641E-01 0.12501030E+03</pdfrwt>
<pdfrwt beam="1">  1       -4 0.19082429E-02 0.12501030E+03</pdfrwt>
<totfact> 0.72269833E+03</totfact>
</mgrwt>
</event>
<event>
 5    1  0.3312706E-002  0.1250018E+03  0.7818608E-02  0.1235066E+00
          4   -1    0    0  501    0  0.00000000000E+00  0.00000000000E+00  0.41385281997E+02  0.41404763808E+02  0.12700000000E+01 0.  1.
         -4   -1    0    0    0  501 -0.00000000000E+00 -0.00000000000E+00 -0.94344214092E+02  0.94352761659E+02  0.12700000000E+01 0.  1.
         25    2    1    2    0    0  0.00000000000E+00  0.00000000000E+00 -0.52958932095E+02  0.13575752547E+03  0.12500182891E+03 0.  0.
    9000005    1    3    3    0    0  0.43408442779E+01  0.18889286498E+02  0.38043963389E+02  0.42708210262E+02  0.10000000000E+01 0.  0.
    9000005    1    3    3    0    0 -0.43408442779E+01 -0.18889286498E+02 -0.91002895484E+02  0.93049315204E+02  0.10000000000E+01 0.  0.
<mgrwt>
<rscale>  0 0.12500183E+03</rscale>
<asrwt>0</asrwt>
<pdfrwt beam="1">  1        4 0.63691226E-02 0.12500183E+03</pdfrwt>
<pdfrwt beam="2">  1       -4 0.14516651E-01 0.12500183E+03</pdfrwt>
<totfact> 0.10221707E+04</totfact>
</mgrwt>
</event>
<event>
 5    1  0.3312706E-002  0.1250080E+03  0.7818608E-02  0.1235057E+00
          4   -1    0    0  501    0  0.00000000000E+00  0.00000000000E+00  0.96819160820E+02  0.96827489908E+02  0.12700000000E+01 0. -1.
         -4   -1    0    0    0  501 -0.00000000000E+00 -0.00000000000E+00 -0.40330923681E+02  0.40350914549E+02  0.12700000000E+01 0. -1.
         25    2    1    2    0    0  0.00000000000E+00  0.00000000000E+00  0.56488237139E+02  0.13717840446E+03  0.12500797460E+03 0.  0.
    9000005    1    3    3    0    0 -0.21774025257E+02 -0.58579883105E+02  0.28456757228E+02  0.68676763992E+02  0.10000000000E+01 0.  0.
    9000005    1    3    3    0    0  0.21774025257E+02  0.58579883105E+02  0.28031479911E+02  0.68501640465E+02  0.10000000000E+01 0.  0.
<mgrwt>
<rscale>  0 0.12500797E+03</rscale>
<asrwt>0</asrwt>
<pdfrwt beam="1">  1        4 0.14897434E-01 0.12500797E+03</pdfrwt>
<pdfrwt beam="2">  1       -4 0.62069361E-02 0.12500797E+03</pdfrwt>
<totfact> 0.10190525E+04</totfact>
</mgrwt>
</event>
<event>
 5    1  0.3312706E-002  0.1250193E+03  0.7818608E-02  0.1235039E+00
          4   -1    0    0  501    0  0.00000000000E+00  0.00000000000E+00  0.69970839072E+02  0.69982363639E+02  0.12700000000E+01 0. -1.
         -4   -1    0    0    0  501 -0.00000000000E+00 -0.00000000000E+00 -0.55820739984E+02  0.55835185254E+02  0.12700000000E+01 0. -1.
         25    2    1    2    0    0  0.00000000000E+00  0.00000000000E+00  0.14150099089E+02  0.12581754889E+03  0.12501931973E+03 0.  0.
    9000005    1    3    3    0    0 -0.23858662398E+02  0.15341154390E+02  0.63125091259E+02  0.69212455063E+02  0.10000000000E+01 0.  0.
    9000005    1    3    3    0    0  0.23858662398E+02 -0.15341154390E+02 -0.48974992170E+02  0.56605093830E+02  0.10000000000E+01 0.  0.
<mgrwt>
<rscale>  0 0.12501932E+03</rscale>
<asrwt>0</asrwt>
<pdfrwt beam="1">  1        4 0.10766742E-01 0.12501932E+03</pdfrwt>
<pdfrwt beam="2">  1       -4 0.85898038E-02 0.12501932E+03</pdfrwt>
<totfact> 0.10430412E+04</totfact>
</mgrwt>
</event>
<event>
 5    1  0.3312706E-002  0.1249975E+03  0.7818608E-02  0.1235073E+00
         -4   -1    0    0    0  501 -0.00000000000E+00  0.00000000000E+00  0.27029066578E+01  0.29864032549E+01  0.12700000000E+01 0. -1.
          4   -1    0    0  501    0  0.00000000000E+00 -0.00000000000E+00 -0.13728495745E+04  0.13728501620E+04  0.12700000000E+01 0. -1.
         25    2    1    2    0    0  0.00000000000E+00  0.00000000000E+00 -0.13701466679E+04  0.13758365652E+04  0.12499745075E+03 0.  0.
    9000005    1    3    3    0    0  0.44194269425E+02  0.40105743605E+02 -0.48107784598E+03  0.48476643656E+03  0.10000000000E+01 0.  0.
    9000005    1    3    3    0    0 -0.44194269425E+02 -0.40105743605E+02 -0.88906882189E+03  0.89107012865E+03  0.10000000000E+01 0.  0.
<mgrwt>
<rscale>  0 0.12499745E+03</rscale>
<asrwt>0</asrwt>
<pdfrwt beam="2">  1        4 0.21122895E+00 0.12499745E+03</pdfrwt>
<pdfrwt beam="1">  1       -4 0.43768551E-03 0.12499745E+03</pdfrwt>
<totfact> 0.20506673E+03</totfact>
</mgrwt>
</event>
<event>
 5    1  0.3312706E-002  0.1249981E+03  0.7818608E-02  0.1235072E+00
          4   -1    0    0  501    0  0.00000000000E+00  0.00000000000E+00  0.15743296602E+02  0.15794438512E+02  0.12700000000E+01 0. -1.
         -4   -1    0    0    0  501 -0.00000000000E+00 -0.00000000000E+00 -0.24765894226E+03  0.24766219854E+03  0.12700000000E+01 0. -1.
         25    2    1    2    0    0  0.00000000000E+00  0.00000000000E+00 -0.23191564566E+03  0.26345663705E+03  0.12499813159E+03 0.  0.
    9000005    1    3    3    0    0  0.26554405266E+02  0.10202412624E+01  0.32513703259E+01  0.26790833139E+02  0.10000000000E+01 0.  0.
    9000005    1    3    3    0    0 -0.26554405266E+02 -0.10202412624E+01 -0.23516701599E+03  0.23666580391E+03  0.10000000000E+01 0.  0.
<mgrwt>
<rscale>  0 0.12499813E+03</rscale>
<asrwt>0</asrwt>
<pdfrwt beam="1">  1        4 0.24262303E-02 0.12499813E+03</pdfrwt>
<pdfrwt beam="2">  1       -4 0.38105557E-01 0.12499813E+03</pdfrwt>
<totfact> 0.80426750E+03</totfact>
</mgrwt>
</event>
<event>
 5    1  0.3312706E-002  0.1250004E+03  0.7818608E-02  0.1235069E+00
         -4   -1    0    0    0  501 -0.00000000000E+00  0.00000000000E+00  0.81630402674E+01  0.82612424252E+01  0.12700000000E+01 0.  1.
          4   -1    0    0  501    0  0.00000000000E+00 -0.00000000000E+00 -0.47557181285E+03  0.47557350859E+03  0.12700000000E+01 0.  1.
         25    2    1    2    0    0  0.00000000000E+00  0.00000000000E+00 -0.46740877258E+03  0.48383475102E+03  0.12500042243E+03 0.  0.
    9000005    1    3    3    0    0  0.34206166809E+01 -0.59109969299E+02 -0.15633103238E+03  0.16717081316E+03  0.10000000000E+01 0.  0.
    9000005    1    3    3    0    0 -0.34206166809E+01  0.59109969299E+02 -0.31107774020E+03  0.31666393786E+03  0.10000000000E+01 0.  0.
<mgrwt>
<rscale>  0 0.12500042E+03</rscale>
<asrwt>0</asrwt>
<pdfrwt beam="2">  1        4 0.73172557E-01 0.12500042E+03</pdfrwt>
<pdfrwt beam="1">  1       -4 0.12635372E-02 0.12500042E+03</pdfrwt>
<totfact> 0.57140251E+03</totfact>
</mgrwt>
</event>
<event>
 5    1  0.3312706E-002  0.1249998E+03  0.7818608E-02  0.1235070E+00
          4   -1    0    0  501    0  0.00000000000E+00  0.00000000000E+00  0.14497417745E+02  0.14552938579E+02  0.12700000000E+01 0. -1.
         -4   -1    0    0    0  501 -0.00000000000E+00 -0.00000000000E+00 -0.26887164188E+03  0.26887464125E+03  0.12700000000E+01 0. -1.
         25    2    1    2    0    0  0.00000000000E+00  0.00000000000E+00 -0.25437422414E+03  0.28342757983E+03  0.12499978841E+03 0.  0.
    9000005    1    3    3    0    0 -0.23547853745E+02 -0.38062034679E+02 -0.28299927206E+02  0.52963249331E+02  0.10000000000E+01 0.  0.
    9000005    1    3    3    0    0  0.23547853745E+02  0.38062034679E+02 -0.22607429693E+03  0.23046433050E+03  0.10000000000E+01 0.  0.
<mgrwt>
<rscale>  0 0.12499979E+03</rscale>
<asrwt>0</asrwt>
<pdfrwt beam="1">  1        4 0.22348737E-02 0.12499979E+03</pdfrwt>
<pdfrwt beam="2">  1       -4 0.41369366E-01 0.12499979E+03</pdfrwt>
<totfact> 0.77726184E+03</totfact>
</mgrwt>
</event>
<event>
 5    1  0.3312706E-002  0.1250028E+03  0.7818608E-02  0.1235065E+00
         -4   -1    0    0    0  501 -0.00000000000E+00  0.00000000000E+00  0.58417492737E+03  0.58417630786E+03  0.12700000000E+01 0. -1.
          4   -1    0    0  501    0  0.00000000000E+00 -0.00000000000E+00 -0.66253767816E+01  0.67460001110E+01  0.12700000000E+01 0. -1.
         25    2    1    2    0    0  0.00000000000E+00  0.00000000000E+00  0.57754955059E+03  0.59092230797E+03  0.12500276267E+03 0.  0.
    9000005    1    3    3    0    0 -0.56240280256E+02  0.22343658691E+02  0.36249819493E+03  0.36751618949E+03  0.10000000000E+01 0.  0.
    9000005    1    3    3    0    0  0.56240280256E+02 -0.22343658691E+02  0.21505135566E+03  0.22340611848E+03  0.10000000000E+01 0.  0.
<mgrwt>
<rscale>  0 0.12500276E+03</rscale>
<asrwt>0</asrwt>
<pdfrwt beam="2">  1        4 0.10286736E-02 0.12500276E+03</pdfrwt>
<pdfrwt beam="1">  1       -4 0.89882457E-01 0.12500276E+03</pdfrwt>
<totfact> 0.49442681E+03</totfact>
</mgrwt>
</event>
<event>
 5    1  0.3312706E-002  0.1249992E+03  0.7818608E-02  0.1235071E+00
          4   -1    0    0  501    0  0.00000000000E+00  0.00000000000E+00  0.15152110729E+02  0.15205241187E+02  0.12700000000E+01 0.  1.
         -4   -1    0    0    0  501 -0.00000000000E+00 -0.00000000000E+00 -0.25729303108E+03  0.25729616543E+03  0.12700000000E+01 0.  1.
         25    2    1    2    0    0  0.00000000000E+00  0.00000000000E+00 -0.24214092035E+03  0.27250140661E+03  0.12499916519E+03 0.  0.
    9000005    1    3    3    0    0 -0.49889542950E+02 -0.16479142832E+02 -0.47313734146E+02  0.70711513087E+02  0.10000000000E+01 0.  0.
    9000005    1    3    3    0    0  0.49889542950E+02  0.16479142832E+02 -0.19482718621E+03  0.20178989353E+03  0.10000000000E+01 0.  0.
<mgrwt>
<rscale>  0 0.12499917E+03</rscale>
<asrwt>0</asrwt>
<pdfrwt beam="1">  1        4 0.23354222E-02 0.12499917E+03</pdfrwt>
<pdfrwt beam="2">  1       -4 0.39587868E-01 0.12499917E+03</pdfrwt>
<totfact> 0.79184458E+03</totfact>
</mgrwt>
</event>
<event>
 5    1  0.3312706E-002  0.1249980E+03  0.7818608E-02  0.1235072E+00
         -4   -1    0    0    0  501 -0.00000000000E+00  0.00000000000E+00  0.18825076211E+02  0.18867866714E+02  0.12700000000E+01 0.  1.
          4   -1    0    0  501    0  0.00000000000E+00 -0.00000000000E+00 -0.20721547941E+03  0.20721937122E+03  0.12700000000E+01 0.  1.
         25    2    1    2    0    0  0.00000000000E+00  0.00000000000E+00 -0.18839040320E+03  0.22608723793E+03  0.12499798053E+03 0.  0.
    9000005    1    3    3    0    0  0.53508071510E+02 -0.30016207728E+02 -0.72714913218E+02  0.95144863484E+02  0.10000000000E+01 0.  0.
    9000005    1    3    3    0    0 -0.53508071510E+02  0.30016207728E+02 -0.11567548998E+03  0.13094237445E+03  0.10000000000E+01 0.  0.
<mgrwt>
<rscale>  0 0.12499798E+03</rscale>
<asrwt>0</asrwt>
<pdfrwt beam="2">  1        4 0.31882894E-01 0.12499798E+03</pdfrwt>
<pdfrwt beam="1">  1       -4 0.28997567E-02 0.12499798E+03</pdfrwt>
<totfact> 0.85917922E+03</totfact>
</mgrwt>
</event>
<event>
 5    1  0.3312706E-002  0.1250031E+03  0.7818608E-02  0.1235064E+00
          4   -1    0    0  501    0  0.00000000000E+00  0.00000000000E+00  0.33238698601E+03  0.33238941224E+03  0.12700000000E+01 0.  1.
         -4   -1    0    0    0  501 -0.00000000000E+00 -0.00000000000E+00 -0.11715913476E+02  0.11784546176E+02  0.12700000000E+01 0.  1.
         25    2    1    2    0    0  0.00000000000E+00  0.00000000000E+00  0.32067107254E+03  0.34417395842E+03  0.12500310753E+03 0.  0.
    9000005    1    3    3    0    0 -0.42030714864E+02  0.35306117796E+02  0.24258303297E+03  0.24871797448E+03  0.10000000000E+01 0.  0.
    9000005    1    3    3    0    0  0.42030714864E+02 -0.35306117796E+02  0.78088039571E+02  0.95455983939E+02  0.10000000000E+01 0.  0.
<mgrwt>
<rscale>  0 0.12500311E+03</rscale>
<asrwt>0</asrwt>
<pdfrwt beam="1">  1        4 0.51141918E-01 0.12500311E+03</pdfrwt>
<pdfrwt beam="2">  1       -4 0.18079146E-02 0.12500311E+03</pdfrwt>
<totfact> 0.70365446E+03</totfact>
</mgrwt>
</event>
<event>
 4    1  0.3312706E-002  0.1251293E+03  0.7818608E-02  0.1234867E+00
         -4   -1    0    0    0  501 -0.00000000000E+00  0.00000000000E+00  0.15858129198E+03  0.15858637730E+03  0.12700000000E+01 0.  1.
          4   -1    0    0  501    0  0.00000000000E+00 -0.00000000000E+00 -0.24661634497E+02  0.24694313435E+02  0.12700000000E+01 0.  1.
    9000005    1    1    2    0    0  0.31895343784E+02  0.45965834228E+02  0.10795039761E+03  0.12159136159E+03  0.10000000000E+01 0.  0.
    9000005    1    1    2    0    0 -0.31895343784E+02 -0.45965834228E+02  0.25969259875E+02  0.61689329141E+02  0.10000000000E+01 0.  0.
<mgrwt>
<rscale>  0 0.12512928E+03</rscale>
<asrwt>0</asrwt>
<pdfrwt beam="2">  1        4 0.37970025E-02 0.12512928E+03</pdfrwt>
<pdfrwt beam="1">  1       -4 0.24400027E-01 0.12512928E+03</pdfrwt>
<totfact> 0.92760712E+03</totfact>
</mgrwt>
</event>
<event>
 5    1  0.3312706E-002  0.1249912E+03  0.7818608E-02  0.1235083E+00
          4   -1    0    0  501    0  0.00000000000E+00  0.00000000000E+00  0.21173662831E+04  0.21173666640E+04  0.12700000000E+01 0.  1.
         -4   -1    0    0    0  501 -0.00000000000E+00 -0.00000000000E+00 -0.16255811103E+01  0.20628654697E+01  0.12700000000E+01 0.  1.
         25    2    1    2    0    0  0.00000000000E+00  0.00000000000E+00  0.21157407020E+04  0.21194295295E+04  0.12499124858E+03 0.  0.
    9000005    1    3    3    0    0 -0.35688989323E+02 -0.24971367284E+02  0.29813983643E+03  0.30130654691E+03  0.10000000000E+01 0.  0.
    9000005    1    3    3    0    0  0.35688989323E+02  0.24971367284E+02  0.18176008656E+04  0.18181229826E+04  0.10000000000E+01 0.  0.
<mgrwt>
<rscale>  0 0.12499125E+03</rscale>
<asrwt>0</asrwt>
<pdfrwt beam="1">  1        4 0.32578040E+00 0.12499125E+03</pdfrwt>
<pdfrwt beam="2">  1       -4 0.28375764E-03 0.12499125E+03</pdfrwt>
<totfact> 0.83836302E+02</totfact>
</mgrwt>
</event>
<event>
 5    1  0.3312706E-002  0.1250116E+03  0.7818608E-02  0.1235051E+00
          4   -1    0    0  501    0  0.00000000000E+00  0.00000000000E+00  0.22956857190E+03  0.22957208477E+03  0.12700000000E+01 0. -1.
         -4   -1    0    0    0  501 -0.00000000000E+00 -0.00000000000E+00 -0.16991427637E+02  0.17038823702E+02  0.12700000000E+01 0. -1.
         25    2    1    2    0    0  0.00000000000E+00  0.00000000000E+00  0.21257714426E+03  0.24661090847E+03  0.12501159111E+03 0.  0.
    9000005    1    3    3    0    0  0.29002887132E+02  0.49794644734E+02  0.15401417250E+03  0.16444463943E+03  0.10000000000E+01 0.  0.
    9000005    1    3    3    0    0 -0.29002887132E+02 -0.49794644734E+02  0.58562971767E+02  0.82166269042E+02  0.10000000000E+01 0.  0.
<mgrwt>
<rscale>  0 0.12501159E+03</rscale>
<asrwt>0</asrwt>
<pdfrwt beam="1">  1        4 0.35322157E-01 0.12501159E+03</pdfrwt>
<pdfrwt beam="2">  1       -4 0.26179820E-02 0.12501159E+03</pdfrwt>
<totfact> 0.82801150E+03</totfact>
</mgrwt>
</event>
<event>
 5    1  0.3312706E-002  0.1250004E+03  0.7818608E-02  0.1235069E+00
         -4   -1    0    0    0  501 -0.00000000000E+00  0.00000000000E+00  0.49993438929E+02  0.50009567444E+02  0.12700000000E+01 0. -1.
          4   -1    0    0  501    0  0.00000000000E+00 -0.00000000000E+00 -0.78101908285E+02  0.78112233214E+02  0.12700000000E+01 0. -1.
         25    2    1    2    0    0  0.00000000000E+00  0.00000000000E+00 -0.28108469356E+02  0.12812180066E+03  0.12500043902E+03 0.  0.
    9000005    1    3    3    0    0  0.62358689780E+02 -0.38270616079E+01 -0.15512738601E+02  0.64380879542E+02  0.10000000000E+01 0.  0.
    9000005    1    3    3    0    0 -0.62358689780E+02  0.38270616079E+01 -0.12595730754E+02  0.63740921117E+02  0.10000000000E+01 0.  0.
<mgrwt>
<rscale>  0 0.12500044E+03</rscale>
<asrwt>0</asrwt>
<pdfrwt beam="2">  1        4 0.12017713E-01 0.12500044E+03</pdfrwt>
<pdfrwt beam="1">  1       -4 0.76933332E-02 0.12500044E+03</pdfrwt>
<totfact> 0.10384755E+04</totfact>
</mgrwt>
</event>
<event>
 5    1  0.3312706E-002  0.1249963E+03  0.7818608E-02  0.1235075E+00
         -4   -1    0    0    0  501 -0.00000000000E+00  0.00000000000E+00  0.69841698965E+02  0.69853244837E+02  0.12700000000E+01 0. -1.
          4   -1    0    0  501    0  0.00000000000E+00 -0.00000000000E+00 -0.55903394426E+02  0.55917818344E+02  0.12700000000E+01 0. -1.
         25    2    1    2    0    0  0.00000000000E+00  0.00000000000E+00  0.13938304539E+02  0.12577106318E+03  0.12499633595E+03 0.  0.
    9000005    1    3    3    0    0  0.95991789219E+01  0.30388044827E+02  0.61055860740E+02  0.68879573424E+02  0.10000000000E+01 0.  0.
    9000005    1    3    3    0    0 -0.95991789219E+01 -0.30388044827E+02 -0.47117556201E+02  0.56891489757E+02  0.10000000000E+01 0.  0.
<mgrwt>
<rscale>  0 0.12499634E+03</rscale>
<asrwt>0</asrwt>
<pdfrwt beam="2">  1        4 0.86025199E-02 0.12499634E+03</pdfrwt>
<pdfrwt beam="1">  1       -4 0.10746874E-01 0.12499634E+03</pdfrwt>
<totfact> 0.10436844E+04</totfact>
</mgrwt>
</event>
<event>
 5    1  0.3312706E-002  0.1250014E+03  0.7818608E-02  0.1235067E+00
         -4   -1    0    0    0  501 -0.00000000000E+00  0.00000000000E+00  0.84266191816E+03  0.84266287519E+03  0.12700000000E+01 0.  1.
          4   -1    0    0  501    0  0.00000000000E+00 -0.00000000000E+00 -0.45477501581E+01  0.47217508935E+01  0.12700000000E+01 0.  1.
         25    2    1    2    0    0  0.00000000000E+00  0.00000000000E+00  0.83811416801E+03  0.84738462608E+03  0.12500138364E+03 0.  0.
    9000005    1    3    3    0    0  0.26926555958E+02  0.12510648104E+02  0.79182704553E+03  0.79238414028E+03  0.10000000000E+01 0.  0.
    9000005    1    3    3    0    0 -0.26926555958E+02 -0.12510648104E+02  0.46287122474E+02  0.55000485804E+02  0.10000000000E+01 0.  0.
<mgrwt>
<rscale>  0 0.12500138E+03</rscale>
<asrwt>0</asrwt>
<pdfrwt beam="2">  1        4 0.71311244E-03 0.12500138E+03</pdfrwt>
<pdfrwt beam="1">  1       -4 0.12965370E+00 0.12500138E+03</pdfrwt>
<totfact> 0.36233504E+03</totfact>
</mgrwt>
</event>
<event>
 5    1  0.3312706E-002  0.1250015E+03  0.7818608E-02  0.1235067E+00
         -4   -1    0    0    0  501 -0.00000000000E+00  0.00000000000E+00  0.22273774004E+03  0.22274136064E+03  0.12700000000E+01 0. -1.
          4   -1    0    0  501    0  0.00000000000E+00 -0.00000000000E+00 -0.17511114402E+02  0.17557107609E+02  0.12700000000E+01 0. -1.
         25    2    1    2    0    0  0.00000000000E+00  0.00000000000E+00  0.20522662564E+03  0.24029846825E+03  0.12500154387E+03 0.  0.
    9000005    1    3    3    0    0  0.50604578181E+02  0.13131078949E+02  0.16842720482E+03  0.17635751158E+03  0.10000000000E+01 0.  0.
    9000005    1    3    3    0    0 -0.50604578181E+02 -0.13131078949E+02  0.36799420826E+02  0.63940956674E+02  0.10000000000E+01 0.  0.
<mgrwt>
<rscale>  0 0.12500154E+03</rscale>
<asrwt>0</asrwt>
<pdfrwt beam="2">  1        4 0.26978340E-02 0.12500154E+03</pdfrwt>
<pdfrwt beam="1">  1       -4 0.34271161E-01 0.12500154E+03</pdfrwt>
<totfact> 0.83750052E+03</totfact>
</mgrwt>
</event>
<event>
 5    1  0.3312706E-002  0.1249999E+03  0.7818608E-02  0.1235069E+00
         -4   -1    0    0    0  501 -0.00000000000E+00  0.00000000000E+00  0.19241228490E+03  0.19241647611E+03  0.12700000000E+01 0.  1.
          4   -1    0    0  501    0  0.00000000000E+00 -0.00000000000E+00 -0.20277134575E+02  0.20316867047E+02  0.12700000000E+01 0.  1.
         25    2    1    2    0    0  0.00000000000E+00  0.00000000000E+00  0.17213515032E+03  0.21273334316E+03  0.12499986126E+03 0.  0.
    9000005    1    3    3    0    0 -0.47093811742E+02  0.34176988794E+02  0.12485180076E+03  0.13774928610E+03  0.10000000000E+01 0.  0.
    9000005    1    3    3    0    0  0.47093811742E+02 -0.34176988794E+02  0.47283349557E+02  0.74984057057E+02  0.10000000000E+01 0.  0.
<mgrwt>
<rscale>  0 0.12499986E+03</rscale>
<asrwt>0</asrwt>
<pdfrwt beam="2">  1        4 0.31229380E-02 0.12499986E+03</pdfrwt>
<pdfrwt beam="1">  1       -4 0.29605268E-01 0.12499986E+03</pdfrwt>
<totfact> 0.88031700E+03</totfact>
</mgrwt>
</event>
<event>
 5    1  0.3312706E-002  0.1249994E+03  0.7818608E-02  0.1235070E+00
          4   -1    0    0  501    0  0.00000000000E+00  0.00000000000E+00  0.17013462202E+02  0.17060797054E+02  0.12700000000E+01 0.  1.
         -4   -1    0    0    0  501 -0.00000000000E+00 -0.00000000000E+00 -0.22922735312E+03  0.22923087121E+03  0.12700000000E+01 0.  1.
         25    2    1    2    0    0  0.00000000000E+00  0.00000000000E+00 -0.21221389092E+03  0.24629166827E+03  0.12499940144E+03 0.  0.
    9000005    1    3    3    0    0  0.15604901204E+02  0.23426001698E+02  0.38255060585E+01  0.28424021422E+02  0.10000000000E+01 0.  0.
    9000005    1    3    3    0    0 -0.15604901204E+02 -0.23426001698E+02 -0.21603939697E+03  0.21786764685E+03  0.10000000000E+01 0.  0.
<mgrwt>
<rscale>  0 0.12499940E+03</rscale>
<asrwt>0</asrwt>
<pdfrwt beam="1">  1        4 0.26213677E-02 0.12499940E+03</pdfrwt>
<pdfrwt beam="2">  1       -4 0.35269656E-01 0.12499940E+03</pdfrwt>
<totfact> 0.82870275E+03</totfact>
</mgrwt>
</event>
<event>
 5    1  0.3312706E-002  0.1250073E+03  0.7818608E-02  0.1235058E+00
         -4   -1    0    0    0  501 -0.00000000000E+00  0.00000000000E+00  0.18992574127E+03  0.18992998735E+03  0.12700000000E+01 0.  1.
          4   -1    0    0  501    0  0.00000000000E+00 -0.00000000000E+00 -0.20545559427E+02  0.20584773795E+02  0.12700000000E+01 0.  1.
         25    2    1    2    0    0  0.00000000000E+00  0.00000000000E+00  0.16938018184E+03  0.21051476115E+03  0.12500727443E+03 0.  0.
    9000005    1    3    3    0    0  0.40104339135E+02  0.12699524945E+02  0.68586847258E+01  0.42634229294E+02  0.10000000000E+01 0.  0.
    9000005    1    3    3    0    0 -0.40104339135E+02 -0.12699524945E+02  0.16252149711E+03  0.16788053185E+03  0.10000000000E+01 0.  0.
<mgrwt>
<rscale>  0 0.12500727E+03</rscale>
<asrwt>0</asrwt>
<pdfrwt beam="2">  1        4 0.31641983E-02 0.12500727E+03</pdfrwt>
<pdfrwt beam="1">  1       -4 0.29222689E-01 0.12500727E+03</pdfrwt>
<totfact> 0.88377508E+03</totfact>
</mgrwt>
</event>
<event>
 4    1  0.3312706E-002  0.1234367E+03  0.7818608E-02  0.1237533E+00
          4   -1    0    0  501    0  0.00000000000E+00  0.00000000000E+00  0.54131563468E+01  0.55601404330E+01  0.12700000000E+01 0. -1.
         -4   -1    0    0    0  501 -0.00000000000E+00 -0.00000000000E+00 -0.69411123646E+03  0.69411239830E+03  0.12700000000E+01 0. -1.
    9000005    1    1    2    0    0  0.49025644230E+02 -0.36193405319E+02 -0.28919539974E+03  0.29554772137E+03  0.10000000000E+01 0.  0.
    9000005    1    1    2    0    0 -0.49025644230E+02  0.36193405319E+02 -0.39950268037E+03  0.40412481736E+03  0.10000000000E+01 0.  0.
<mgrwt>
<rscale>  0 0.12343669E+03</rscale>
<asrwt>0</asrwt>
<pdfrwt beam="1">  1        4 0.84418967E-03 0.12343669E+03</pdfrwt>
<pdfrwt beam="2">  1       -4 0.10679767E+00 0.12343669E+03</pdfrwt>
<totfact> 0.44612368E+03</totfact>
</mgrwt>
</event>
<event>
 5    1  0.3312706E-002  0.1249982E+03  0.7818608E-02  0.1235072E+00
         -4   -1    0    0    0  501 -0.00000000000E+00  0.00000000000E+00  0.46069381636E+02  0.46086883430E+02  0.12700000000E+01 0.  1.
          4   -1    0    0  501    0  0.00000000000E+00 -0.00000000000E+00 -0.84749739302E+02  0.84759254432E+02  0.12700000000E+01 0.  1.
         25    2    1    2    0    0  0.00000000000E+00  0.00000000000E+00 -0.38680357666E+02  0.13084613786E+03  0.12499816688E+03 0.  0.
    9000005    1    3    3    0    0  0.16405198057E+02  0.53040350207E+02  0.10684952582E+02  0.56547126231E+02  0.10000000000E+01 0.  0.
    9000005    1    3    3    0    0 -0.16405198057E+02 -0.53040350207E+02 -0.49365310249E+02  0.74299011631E+02  0.10000000000E+01 0.  0.
<mgrwt>
<rscale>  0 0.12499817E+03</rscale>
<asrwt>0</asrwt>
<pdfrwt beam="2">  1        4 0.13040500E-01 0.12499817E+03</pdfrwt>
<pdfrwt beam="1">  1       -4 0.70896754E-02 0.12499817E+03</pdfrwt>
<totfact> 0.10326816E+04</totfact>
</mgrwt>
</event>
<event>
 5    1  0.3312706E-002  0.1250010E+03  0.7818608E-02  0.1235068E+00
          4   -1    0    0  501    0  0.00000000000E+00  0.00000000000E+00  0.12496584031E+03  0.12497229351E+03  0.12700000000E+01 0. -1.
         -4   -1    0    0    0  501 -0.00000000000E+00 -0.00000000000E+00 -0.31238876174E+02  0.31264681105E+02  0.12700000000E+01 0. -1.
         25    2    1    2    0    0  0.00000000000E+00  0.00000000000E+00  0.93726964139E+02  0.15623697461E+03  0.12500099372E+03 0.  0.
    9000005    1    3    3    0    0  0.28556704045E+01  0.11691296500E+02  0.12350983027E+03  0.12409882933E+03  0.10000000000E+01 0.  0.
    9000005    1    3    3    0    0 -0.28556704045E+01 -0.11691296500E+02 -0.29782866132E+02  0.32138145285E+02  0.10000000000E+01 0.  0.
<mgrwt>
<rscale>  0 0.12500099E+03</rscale>
<asrwt>0</asrwt>
<pdfrwt beam="1">  1        4 0.19227995E-01 0.12500099E+03</pdfrwt>
<pdfrwt beam="2">  1       -4 0.48084623E-02 0.12500099E+03</pdfrwt>
<totfact> 0.98071020E+03</totfact>
</mgrwt>
</event>
<event>
 5    1  0.3312706E-002  0.1249958E+03  0.7818608E-02  0.1235076E+00
          4   -1    0    0  501    0  0.00000000000E+00  0.00000000000E+00  0.57758518157E+02  0.57772478912E+02  0.12700000000E+01 0. -1.
         -4   -1    0    0    0  501 -0.00000000000E+00 -0.00000000000E+00 -0.67598092550E+02  0.67610021568E+02  0.12700000000E+01 0. -1.
         25    2    1    2    0    0  0.00000000000E+00  0.00000000000E+00 -0.98395743935E+01  0.12538250048E+03  0.12499581674E+03 0.  0.
    9000005    1    3    3    0    0 -0.11110446541E+02  0.59172994687E+02  0.11868272506E+02  0.61373782797E+02  0.10000000000E+01 0.  0.
    9000005    1    3    3    0    0  0.11110446541E+02 -0.59172994687E+02 -0.21707846900E+02  0.64008717684E+02  0.10000000000E+01 0.  0.
<mgrwt>
<rscale>  0 0.12499582E+03</rscale>
<asrwt>0</asrwt>
<pdfrwt beam="1">  1        4 0.88879173E-02 0.12499582E+03</pdfrwt>
<pdfrwt beam="2">  1       -4 0.10401698E-01 0.12499582E+03</pdfrwt>
<totfact> 0.10445540E+04</totfact>
</mgrwt>
</event>
<event>
 5    1  0.3312706E-002  0.1250006E+03  0.7818608E-02  0.1235068E+00
          4   -1    0    0  501    0  0.00000000000E+00  0.00000000000E+00  0.14701848014E+04  0.14701853499E+04  0.12700000000E+01 0. -1.
         -4   -1    0    0    0  501 -0.00000000000E+00 -0.00000000000E+00 -0.25046643518E+01  0.28082456294E+01  0.12700000000E+01 0. -1.
         25    2    1    2    0    0  0.00000000000E+00  0.00000000000E+00  0.14676801370E+04  0.14729935955E+04  0.12500059156E+03 0.  0.
    9000005    1    3    3    0    0  0.80694452477E+01  0.54687043207E+02  0.39038490072E+03  0.39428055918E+03  0.10000000000E+01 0.  0.
    9000005    1    3    3    0    0 -0.80694452477E+01 -0.54687043207E+02  0.10772952363E+04  0.10787130363E+04  0.10000000000E+01 0.  0.
<mgrwt>
<rscale>  0 0.12500059E+03</rscale>
<asrwt>0</asrwt>
<pdfrwt beam="1">  1        4 0.22620536E+00 0.12500059E+03</pdfrwt>
<pdfrwt beam="2">  1       -4 0.40872815E-03 0.12500059E+03</pdfrwt>
<totfact> 0.18466454E+03</totfact>
</mgrwt>
</event>
<event>
 5    1  0.3312706E-002  0.1250029E+03  0.7818608E-02  0.1235065E+00
          4   -1    0    0  501    0  0.00000000000E+00  0.00000000000E+00  0.20602776480E+03  0.20603167904E+03  0.12700000000E+01 0. -1.
         -4   -1    0    0    0  501 -0.00000000000E+00 -0.00000000000E+00 -0.18935327691E+02  0.18977869606E+02  0.12700000000E+01 0. -1.
         25    2    1    2    0    0  0.00000000000E+00  0.00000000000E+00  0.18709243711E+03  0.22500954865E+03  0.12500286780E+03 0.  0.
    9000005    1    3    3    0    0 -0.23120411361E+02  0.54849924362E+02  0.59281113668E+02  0.84013796854E+02  0.10000000000E+01 0.  0.
    9000005    1    3    3    0    0  0.23120411361E+02 -0.54849924362E+02  0.12781132344E+03  0.14099575180E+03  0.10000000000E+01 0.  0.
<mgrwt>
<rscale>  0 0.12500287E+03</rscale>
<asrwt>0</asrwt>
<pdfrwt beam="1">  1        4 0.31700152E-01 0.12500287E+03</pdfrwt>
<pdfrwt beam="2">  1       -4 0.29167010E-02 0.12500287E+03</pdfrwt>
<totfact> 0.86076298E+03</totfact>
</mgrwt>
</event>
<event>
 5    1  0.3312706E-002  0.1250014E+03  0.7818608E-02  0.1235067E+00
          4   -1    0    0  501    0  0.00000000000E+00  0.00000000000E+00  0.20924312604E+03  0.20924698013E+03  0.12700000000E+01 0.  1.
         -4   -1    0    0    0  501 -0.00000000000E+00 -0.00000000000E+00 -0.18643268228E+02  0.18686475061E+02  0.12700000000E+01 0.  1.
         25    2    1    2    0    0  0.00000000000E+00  0.00000000000E+00  0.19059985781E+03  0.22793345519E+03  0.12500141679E+03 0.  0.
    9000005    1    3    3    0    0 -0.20504294838E+02  0.11080522466E+02  0.20103052429E+03  0.20237953400E+03  0.10000000000E+01 0.  0.
    9000005    1    3    3    0    0  0.20504294838E+02 -0.11080522466E+02 -0.10430666483E+02  0.25553921191E+02  0.10000000000E+01 0.  0.
<mgrwt>
<rscale>  0 0.12500142E+03</rscale>
<asrwt>0</asrwt>
<pdfrwt beam="1">  1        4 0.32194872E-01 0.12500142E+03</pdfrwt>
<pdfrwt beam="2">  1       -4 0.28718151E-02 0.12500142E+03</pdfrwt>
<totfact> 0.85625221E+03</totfact>
</mgrwt>
</event>
<event>
 5    1  0.3312706E-002  0.1250017E+03  0.7818608E-02  0.1235067E+00
         -4   -1    0    0    0  501 -0.00000000000E+00  0.00000000000E+00  0.14947378503E+03  0.14947918019E+03  0.12700000000E+01 0. -1.
          4   -1    0    0  501    0  0.00000000000E+00 -0.00000000000E+00 -0.26112773813E+02  0.26143638924E+02  0.12700000000E+01 0. -1.
         25    2    1    2    0    0  0.00000000000E+00  0.00000000000E+00  0.12336101122E+03  0.17562281912E+03  0.12500174201E+03 0.  0.
    9000005    1    3    3    0    0 -0.33432376345E+02 -0.26035348179E+02 -0.28529741665E+01  0.42481791446E+02  0.10000000000E+01 0.  0.
    9000005    1    3    3    0    0  0.33432376345E+02  0.26035348179E+02  0.12621398538E+03  0.13314102767E+03  0.10000000000E+01 0.  0.
<mgrwt>
<rscale>  0 0.12500174E+03</rscale>
<asrwt>0</asrwt>
<pdfrwt beam="2">  1        4 0.40201391E-02 0.12500174E+03</pdfrwt>
<pdfrwt beam="1">  1       -4 0.22998756E-01 0.12500174E+03</pdfrwt>
<totfact> 0.94407207E+03</totfact>
</mgrwt>
</event>
<event>
 5    1  0.3312706E-002  0.1249985E+03  0.7818608E-02  0.1235072E+00
         -4   -1    0    0    0  501 -0.00000000000E+00  0.00000000000E+00  0.48712930088E+01  0.50341231191E+01  0.12700000000E+01 0. -1.
          4   -1    0    0  501    0  0.00000000000E+00 -0.00000000000E+00 -0.78852783447E+03  0.78852885720E+03  0.12700000000E+01 0. -1.
         25    2    1    2    0    0  0.00000000000E+00  0.00000000000E+00 -0.78365654147E+03  0.79356298032E+03  0.12499851501E+03 0.  0.
    9000005    1    3    3    0    0  0.17698916880E+02  0.75231838698E+01 -0.14351590282E+02  0.24017037658E+02  0.10000000000E+01 0.  0.
    9000005    1    3    3    0    0 -0.17698916880E+02 -0.75231838698E+01 -0.76930495118E+03  0.76954594266E+03  0.10000000000E+01 0.  0.
<mgrwt>
<rscale>  0 0.12499852E+03</rscale>
<asrwt>0</asrwt>
<pdfrwt beam="2">  1        4 0.12132448E+00 0.12499852E+03</pdfrwt>
<pdfrwt beam="1">  1       -4 0.76203439E-03 0.12499852E+03</pdfrwt>
<totfact> 0.38554991E+03</totfact>
</mgrwt>
</event>
<event>
 5    1  0.3312706E-002  0.1249998E+03  0.7818608E-02  0.1235070E+00
          4   -1    0    0  501    0  0.00000000000E+00  0.00000000000E+00  0.74375869672E+02  0.74386711780E+02  0.12700000000E+01 0. -1.
         -4   -1    0    0    0  501 -0.00000000000E+00 -0.00000000000E+00 -0.52497898972E+02  0.52513258293E+02  0.12700000000E+01 0. -1.
         25    2    1    2    0    0  0.00000000000E+00  0.00000000000E+00  0.21877970699E+02  0.12689997007E+03  0.12499982721E+03 0.  0.
    9000005    1    3    3    0    0 -0.32791756971E+02  0.52934452328E+02  0.55782202292E+01  0.62525771562E+02  0.10000000000E+01 0.  0.
    9000005    1    3    3    0    0  0.32791756971E+02 -0.52934452328E+02  0.16299750470E+02  0.64374198511E+02  0.10000000000E+01 0.  0.
<mgrwt>
<rscale>  0 0.12499983E+03</rscale>
<asrwt>0</asrwt>
<pdfrwt beam="1">  1        4 0.11444457E-01 0.12499983E+03</pdfrwt>
<pdfrwt beam="2">  1       -4 0.80786154E-02 0.12499983E+03</pdfrwt>
<totfact> 0.10411360E+04</totfact>
</mgrwt>
</event>
<event>
 5    1  0.3312706E-002  0.1249989E+03  0.7818608E-02  0.1235071E+00
          4   -1    0    0  501    0  0.00000000000E+00  0.00000000000E+00  0.89223008421E+02  0.89232046551E+02  0.12700000000E+01 0. -1.
         -4   -1    0    0    0  501 -0.00000000000E+00 -0.00000000000E+00 -0.43759533232E+02  0.43777958480E+02  0.12700000000E+01 0. -1.
         25    2    1    2    0    0  0.00000000000E+00  0.00000000000E+00  0.45463475189E+02  0.13301000503E+03  0.12499893544E+03 0.  0.
    9000005    1    3    3    0    0 -0.22799860607E+02 -0.25669486043E+02 -0.32829889719E+02  0.47513764494E+02  0.10000000000E+01 0.  0.
    9000005    1    3    3    0    0  0.22799860607E+02  0.25669486043E+02  0.78293364908E+02  0.85496240537E+02  0.10000000000E+01 0.  0.
<mgrwt>
<rscale>  0 0.12499894E+03</rscale>
<asrwt>0</asrwt>
<pdfrwt beam="1">  1        4 0.13728729E-01 0.12499894E+03</pdfrwt>
<pdfrwt beam="2">  1       -4 0.67343485E-02 0.12499894E+03</pdfrwt>
<totfact> 0.10280434E+04</totfact>
</mgrwt>
</event>
<event>
 5    1  0.3312706E-002  0.1250013E+03  0.7818608E-02  0.1235067E+00
          4   -1    0    0  501    0  0.00000000000E+00  0.00000000000E+00  0.21192061540E+03  0.21192442080E+03  0.12700000000E+01 0.  1.
         -4   -1    0    0    0  501 -0.00000000000E+00 -0.00000000000E+00 -0.18407145806E+02  0.18450905580E+02  0.12700000000E+01 0.  1.
         25    2    1    2    0    0  0.00000000000E+00  0.00000000000E+00  0.19351346960E+03  0.23037532638E+03  0.12500131235E+03 0.  0.
    9000005    1    3    3    0    0 -0.42924960257E+02  0.32758482960E+01  0.18024303496E+03  0.18531550136E+03  0.10000000000E+01 0.  0.
    9000005    1    3    3    0    0  0.42924960257E+02 -0.32758482960E+01  0.13270434638E+02  0.45059825018E+02  0.10000000000E+01 0.  0.
<mgrwt>
<rscale>  0 0.12500131E+03</rscale>
<asrwt>0</asrwt>
<pdfrwt beam="1">  1        4 0.32606831E-01 0.12500131E+03</pdfrwt>
<pdfrwt beam="2">  1       -4 0.28355274E-02 0.12500131E+03</pdfrwt>
<totfact> 0.85249501E+03</totfact>
</mgrwt>
</event>
<event>
 5    1  0.3312706E-002  0.1250007E+03  0.7818608E-02  0.1235068E+00
          4   -1    0    0  501    0  0.00000000000E+00  0.00000000000E+00  0.18330522925E+03  0.18330962869E+03  0.12700000000E+01 0. -1.
         -4   -1    0    0    0  501 -0.00000000000E+00 -0.00000000000E+00 -0.21286735806E+02  0.21324587247E+02  0.12700000000E+01 0. -1.
         25    2    1    2    0    0  0.00000000000E+00  0.00000000000E+00  0.16201849345E+03  0.20463421594E+03  0.12500068046E+03 0.  0.
    9000005    1    3    3    0    0 -0.60465680045E+02  0.13033469965E+02  0.95589487297E+02  0.11386096734E+03  0.10000000000E+01 0.  0.
    9000005    1    3    3    0    0  0.60465680045E+02 -0.13033469965E+02  0.66429006148E+02  0.90773248595E+02  0.10000000000E+01 0.  0.
<mgrwt>
<rscale>  0 0.12500068E+03</rscale>
<asrwt>0</asrwt>
<pdfrwt beam="1">  1        4 0.28204056E-01 0.12500068E+03</pdfrwt>
<pdfrwt beam="2">  1       -4 0.32781324E-02 0.12500068E+03</pdfrwt>
<totfact> 0.89358389E+03</totfact>
</mgrwt>
</event>
<event>
 5    1  0.3312706E-002  0.1249972E+03  0.7818608E-02  0.1235074E+00
         -4   -1    0    0    0  501 -0.00000000000E+00  0.00000000000E+00  0.10055353297E+03  0.10056155275E+03  0.12700000000E+01 0. -1.
          4   -1    0    0  501    0  0.00000000000E+00 -0.00000000000E+00 -0.38825803501E+02  0.38846568928E+02  0.12700000000E+01 0. -1.
         25    2    1    2    0    0  0.00000000000E+00  0.00000000000E+00  0.61727729466E+02  0.13940812168E+03  0.12499724719E+03 0.  0.
    9000005    1    3    3    0    0  0.28101103497E+02 -0.42073985880E+02 -0.10041355882E+02  0.51591870808E+02  0.10000000000E+01 0.  0.
    9000005    1    3    3    0    0 -0.28101103497E+02  0.42073985880E+02  0.71769085349E+02  0.87816250873E+02  0.10000000000E+01 0.  0.
<mgrwt>
<rscale>  0 0.12499725E+03</rscale>
<asrwt>0</asrwt>
<pdfrwt beam="2">  1        4 0.59754148E-02 0.12499725E+03</pdfrwt>
<pdfrwt beam="1">  1       -4 0.15471989E-01 0.12499725E+03</pdfrwt>
<totfact> 0.10146497E+04</totfact>
</mgrwt>
</event>
<event>
 5    1  0.3312706E-002  0.1249982E+03  0.7818608E-02  0.1235072E+00
          4   -1    0    0  501    0  0.00000000000E+00  0.00000000000E+00  0.14001449898E+03  0.14002025862E+03  0.12700000000E+01 0.  1.
         -4   -1    0    0    0  501 -0.00000000000E+00 -0.00000000000E+00 -0.27877304407E+02  0.27906217963E+02  0.12700000000E+01 0.  1.
         25    2    1    2    0    0  0.00000000000E+00  0.00000000000E+00  0.11213719457E+03  0.16792647659E+03  0.12499820451E+03 0.  0.
    9000005    1    3    3    0    0  0.27848411725E+02 -0.16299747548E+02 -0.15825956405E+02  0.35953813454E+02  0.10000000000E+01 0.  0.
    9000005    1    3    3    0    0 -0.27848411725E+02  0.16299747548E+02  0.12796315098E+03  0.13197266313E+03  0.10000000000E+01 0.  0.
<mgrwt>
<rscale>  0 0.12499820E+03</rscale>
<asrwt>0</asrwt>
<pdfrwt beam="1">  1        4 0.21543359E-01 0.12499820E+03</pdfrwt>
<pdfrwt beam="2">  1       -4 0.42914832E-02 0.12499820E+03</pdfrwt>
<totfact> 0.95839881E+03</totfact>
</mgrwt>
</event>
<event>
 5    1  0.3312706E-002  0.1249690E+03  0.7818608E-02  0.1235118E+00
          4   -1    0    0  501    0  0.00000000000E+00  0.00000000000E+00  0.76799305700E+02  0.76809805728E+02  0.12700000000E+01 0. -1.
         -4   -1    0    0    0  501 -0.00000000000E+00 -0.00000000000E+00 -0.50815929972E+02  0.50831797518E+02  0.12700000000E+01 0. -1.
         25    2    1    2    0    0  0.00000000000E+00  0.00000000000E+00  0.25983375729E+02  0.12764160325E+03  0.12496896841E+03 0.  0.
    9000005    1    3    3    0    0 -0.52552414857E+02 -0.26361712965E+01 -0.21412588188E+02  0.56817291728E+02  0.10000000000E+01 0.  0.
    9000005    1    3    3    0    0  0.52552414857E+02  0.26361712965E+01  0.47395963916E+02  0.70824311518E+02  0.10000000000E+01 0.  0.
<mgrwt>
<rscale>  0 0.12496897E+03</rscale>
<asrwt>0</asrwt>
<pdfrwt beam="1">  1        4 0.11817306E-01 0.12496897E+03</pdfrwt>
<pdfrwt beam="2">  1       -4 0.78198637E-02 0.12496897E+03</pdfrwt>
<totfact> 0.10402521E+04</totfact>
</mgrwt>
</event>
<event>
 5    1  0.3312706E-002  0.1250070E+03  0.7818608E-02  0.1235058E+00
          4   -1    0    0  501    0  0.00000000000E+00  0.00000000000E+00  0.86089754256E+03  0.86089847931E+03  0.12700000000E+01 0.  1.
         -4   -1    0    0    0  501 -0.00000000000E+00 -0.00000000000E+00 -0.44481078920E+01  0.46258581711E+01  0.12700000000E+01 0.  1.
         25    2    1    2    0    0  0.00000000000E+00  0.00000000000E+00  0.85644943466E+03  0.86552433748E+03  0.12500697835E+03 0.  0.
    9000005    1    3    3    0    0 -0.44387594044E+02  0.82981443684E+01  0.72735955015E+03  0.72876061427E+03  0.10000000000E+01 0.  0.
    9000005    1    3    3    0    0  0.44387594044E+02 -0.82981443684E+01  0.12908988451E+03  0.13676372321E+03  0.10000000000E+01 0.  0.
<mgrwt>
<rscale>  0 0.12500698E+03</rscale>
<asrwt>0</asrwt>
<pdfrwt beam="1">  1        4 0.13245959E+00 0.12500698E+03</pdfrwt>
<pdfrwt beam="2">  1       -4 0.69806910E-03 0.12500698E+03</pdfrwt>
<totfact> 0.35494916E+03</totfact>
</mgrwt>
</event>
<event>
 5    1  0.3312706E-002  0.1249974E+03  0.7818608E-02  0.1235073E+00
          4   -1    0    0  501    0  0.00000000000E+00  0.00000000000E+00  0.65231883816E+02  0.65244245464E+02  0.12700000000E+01 0.  1.
         -4   -1    0    0    0  501 -0.00000000000E+00 -0.00000000000E+00 -0.59855247249E+02  0.59868719071E+02  0.12700000000E+01 0.  1.
         25    2    1    2    0    0  0.00000000000E+00  0.00000000000E+00  0.53766365671E+01  0.12511296454E+03  0.12499738267E+03 0.  0.
    9000005    1    3    3    0    0 -0.37998425404E+02  0.48409602642E+02  0.13548072280E+02  0.63023172116E+02  0.10000000000E+01 0.  0.
    9000005    1    3    3    0    0  0.37998425404E+02 -0.48409602642E+02 -0.81714357126E+01  0.62089792419E+02  0.10000000000E+01 0.  0.
<mgrwt>
<rscale>  0 0.12499738E+03</rscale>
<asrwt>0</asrwt>
<pdfrwt beam="1">  1        4 0.10037662E-01 0.12499738E+03</pdfrwt>
<pdfrwt beam="2">  1       -4 0.92104867E-02 0.12499738E+03</pdfrwt>
<totfact> 0.10451028E+04</totfact>
</mgrwt>
</event>
<event>
 5    1  0.3312706E-002  0.1250009E+03  0.7818608E-02  0.1235068E+00
          4   -1    0    0  501    0  0.00000000000E+00  0.00000000000E+00  0.25454290021E+02  0.25485952611E+02  0.12700000000E+01 0. -1.
         -4   -1    0    0    0  501 -0.00000000000E+00 -0.00000000000E+00 -0.15333382470E+03  0.15333908405E+03  0.12700000000E+01 0. -1.
         25    2    1    2    0    0  0.00000000000E+00  0.00000000000E+00 -0.12787953468E+03  0.17882503666E+03  0.12500087338E+03 0.  0.
    9000005    1    3    3    0    0 -0.17094370153E+02 -0.29004883277E+02  0.11377841116E+02  0.35552159052E+02  0.10000000000E+01 0.  0.
    9000005    1    3    3    0    0  0.17094370153E+02  0.29004883277E+02 -0.13925737579E+03  0.14327287761E+03  0.10000000000E+01 0.  0.
<mgrwt>
<rscale>  0 0.12500087E+03</rscale>
<asrwt>0</asrwt>
<pdfrwt beam="1">  1        4 0.39188849E-02 0.12500087E+03</pdfrwt>
<pdfrwt beam="2">  1       -4 0.23592659E-01 0.12500087E+03</pdfrwt>
<totfact> 0.93827092E+03</totfact>
</mgrwt>
</event>
<event>
 5    1  0.3312706E-002  0.1249839E+03  0.7818608E-02  0.1235094E+00
          4   -1    0    0  501    0  0.00000000000E+00  0.00000000000E+00  0.51210429487E+02  0.51226174835E+02  0.12700000000E+01 0. -1.
         -4   -1    0    0    0  501 -0.00000000000E+00 -0.00000000000E+00 -0.76226040540E+02  0.76236619524E+02  0.12700000000E+01 0. -1.
         25    2    1    2    0    0  0.00000000000E+00  0.00000000000E+00 -0.25015611053E+02  0.12746279436E+03  0.12498393157E+03 0.  0.
    9000005    1    3    3    0    0 -0.25494452381E+02  0.51235034336E+02 -0.38090179616E+02  0.68752146358E+02  0.10000000000E+01 0.  0.
    9000005    1    3    3    0    0  0.25494452381E+02 -0.51235034336E+02  0.13074568563E+02  0.58710648001E+02  0.10000000000E+01 0.  0.
<mgrwt>
<rscale>  0 0.12498393E+03</rscale>
<asrwt>0</asrwt>
<pdfrwt beam="1">  1        4 0.78805525E-02 0.12498393E+03</pdfrwt>
<pdfrwt beam="2">  1       -4 0.11729108E-01 0.12498393E+03</pdfrwt>
<totfact> 0.10402879E+04</totfact>
</mgrwt>
</event>
<event>
 5    1  0.3312706E-002  0.1250007E+03  0.7818608E-02  0.1235068E+00
          4   -1    0    0  501    0  0.00000000000E+00  0.00000000000E+00  0.22726634538E+02  0.22762091675E+02  0.12700000000E+01 0.  1.
         -4   -1    0    0    0  501 -0.00000000000E+00 -0.00000000000E+00 -0.17171000125E+03  0.17171469777E+03  0.12700000000E+01 0.  1.
         25    2    1    2    0    0  0.00000000000E+00  0.00000000000E+00 -0.14898336671E+03  0.19447678944E+03  0.12500071230E+03 0.  0.
    9000005    1    3    3    0    0 -0.45627863134E+02 -0.41420627112E+02 -0.58343931137E+02  0.84868041954E+02  0.10000000000E+01 0.  0.
    9000005    1    3    3    0    0  0.45627863134E+02  0.41420627112E+02 -0.90639435574E+02  0.10960874749E+03  0.10000000000E+01 0.  0.
<mgrwt>
<rscale>  0 0.12500071E+03</rscale>
<asrwt>0</asrwt>
<pdfrwt beam="1">  1        4 0.34994942E-02 0.12500071E+03</pdfrwt>
<pdfrwt beam="2">  1       -4 0.26420011E-01 0.12500071E+03</pdfrwt>
<totfact> 0.91072698E+03</totfact>
</mgrwt>
</event>
<event>
 5    1  0.3312706E-002  0.1250031E+03  0.7818608E-02  0.1235064E+00
         -4   -1    0    0    0  501 -0.00000000000E+00  0.00000000000E+00  0.35203163714E+01  0.37423959377E+01  0.12700000000E+01 0. -1.
          4   -1    0    0  501    0  0.00000000000E+00 -0.00000000000E+00 -0.10755315072E+04  0.10755322570E+04  0.12700000000E+01 0. -1.
         25    2    1    2    0    0  0.00000000000E+00  0.00000000000E+00 -0.10720111908E+04  0.10792746529E+04  0.12500313294E+03 0.  0.
    9000005    1    3    3    0    0 -0.14381374394E+02 -0.23954712160E+02 -0.53367330151E+02  0.60247191566E+02  0.10000000000E+01 0.  0.
    9000005    1    3    3    0    0  0.14381374394E+02  0.23954712160E+02 -0.10186438606E+04  0.10190274614E+04  0.10000000000E+01 0.  0.
<mgrwt>
<rscale>  0 0.12500313E+03</rscale>
<asrwt>0</asrwt>
<pdfrwt beam="2">  1        4 0.16548327E+00 0.12500313E+03</pdfrwt>
<pdfrwt beam="1">  1       -4 0.55872871E-03 0.12500313E+03</pdfrwt>
<totfact> 0.28096145E+03</totfact>
</mgrwt>
</event>
<event>
 5    1  0.3312706E-002  0.1249990E+03  0.7818608E-02  0.1235071E+00
          4   -1    0    0  501    0  0.00000000000E+00  0.00000000000E+00  0.63746078951E+01  0.64998866003E+01  0.12700000000E+01 0.  1.
         -4   -1    0    0    0  501 -0.00000000000E+00 -0.00000000000E+00 -0.60668458553E+03  0.60668591480E+03  0.12700000000E+01 0.  1.
         25    2    1    2    0    0  0.00000000000E+00  0.00000000000E+00 -0.60030997763E+03  0.61318580140E+03  0.12499903117E+03 0.  0.
    9000005    1    3    3    0    0 -0.54121003102E+02 -0.30393147774E+02 -0.33565249714E+03  0.34134502376E+03  0.10000000000E+01 0.  0.
    9000005    1    3    3    0    0  0.54121003102E+02  0.30393147774E+02 -0.26465748049E+03  0.27184077764E+03  0.10000000000E+01 0.  0.
<mgrwt>
<rscale>  0 0.12499903E+03</rscale>
<asrwt>0</asrwt>
<pdfrwt beam="1">  1        4 0.99044846E-03 0.12499903E+03</pdfrwt>
<pdfrwt beam="2">  1       -4 0.93345784E-01 0.12499903E+03</pdfrwt>
<totfact> 0.48046762E+03</totfact>
</mgrwt>
</event>
<event>
 5    1  0.3312706E-002  0.1250021E+03  0.7818608E-02  0.1235066E+00
         -4   -1    0    0    0  501 -0.00000000000E+00  0.00000000000E+00  0.24652442710E+03  0.24652769835E+03  0.12700000000E+01 0.  1.
          4   -1    0    0  501    0  0.00000000000E+00 -0.00000000000E+00 -0.15816989057E+02  0.15867893459E+02  0.12700000000E+01 0.  1.
         25    2    1    2    0    0  0.00000000000E+00  0.00000000000E+00  0.23070743804E+03  0.26239559181E+03  0.12500209852E+03 0.  0.
    9000005    1    3    3    0    0  0.13325631676E+02 -0.46665381277E+02  0.32706885739E+02  0.58531791737E+02  0.10000000000E+01 0.  0.
    9000005    1    3    3    0    0 -0.13325631676E+02  0.46665381277E+02  0.19800055230E+03  0.20386380007E+03  0.10000000000E+01 0.  0.
<mgrwt>
<rscale>  0 0.12500210E+03</rscale>
<asrwt>0</asrwt>
<pdfrwt beam="2">  1        4 0.24375505E-02 0.12500210E+03</pdfrwt>
<pdfrwt beam="1">  1       -4 0.37930999E-01 0.12500210E+03</pdfrwt>
<totfact> 0.80567283E+03</totfact>
</mgrwt>
</event>
<event>
 5    1  0.3312706E-002  0.1249998E+03  0.7818608E-02  0.1235070E+00
         -4   -1    0    0    0  501 -0.00000000000E+00  0.00000000000E+00  0.22673965780E+02  0.22709505151E+02  0.12700000000E+01 0. -1.
          4   -1    0    0  501    0  0.00000000000E+00 -0.00000000000E+00 -0.17210582729E+03  0.17211051301E+03  0.12700000000E+01 0. -1.
         25    2    1    2    0    0  0.00000000000E+00  0.00000000000E+00 -0.14943186151E+03  0.19482001816E+03  0.12499983296E+03 0.  0.
    9000005    1    3    3    0    0  0.81229334626E+01 -0.35440677093E+02  0.44985356333E+01  0.36650517918E+02  0.10000000000E+01 0.  0.
    9000005    1    3    3    0    0 -0.81229334626E+01  0.35440677093E+02 -0.15393039715E+03  0.15816950024E+03  0.10000000000E+01 0.  0.
<mgrwt>
<rscale>  0 0.12499983E+03</rscale>
<asrwt>0</asrwt>
<pdfrwt beam="2">  1        4 0.26480913E-01 0.12499983E+03</pdfrwt>
<pdfrwt beam="1">  1       -4 0.34913968E-02 0.12499983E+03</pdfrwt>
<totfact> 0.91015686E+03</totfact>
</mgrwt>
</event>
<event>
 5    1  0.3312706E-002  0.1249987E+03  0.7818608E-02  0.1235071E+00
          4   -1    0    0  501    0  0.00000000000E+00  0.00000000000E+00  0.70315201591E+03  0.70315316281E+03  0.12700000000E+01 0.  1.
         -4   -1    0    0    0  501 -0.00000000000E+00 -0.00000000000E+00 -0.54814780812E+01  0.56266777013E+01  0.12700000000E+01 0.  1.
         25    2    1    2    0    0  0.00000000000E+00  0.00000000000E+00  0.69767053782E+03  0.70877984051E+03  0.12499873187E+03 0.  0.
    9000005    1    3    3    0    0 -0.57470574109E+02 -0.22098057274E+02  0.40937208002E+03  0.41397788700E+03  0.10000000000E+01 0.  0.
    9000005    1    3    3    0    0  0.57470574109E+02  0.22098057274E+02  0.28829845781E+03  0.29480195352E+03  0.10000000000E+01 0.  0.
<mgrwt>
<rscale>  0 0.12499873E+03</rscale>
<asrwt>0</asrwt>
<pdfrwt beam="1">  1        4 0.10818839E+00 0.12499873E+03</pdfrwt>
<pdfrwt beam="2">  1       -4 0.85456255E-03 0.12499873E+03</pdfrwt>
<totfact> 0.42628473E+03</totfact>
</mgrwt>
</event>
<event>
 5    1  0.3312706E-002  0.1250025E+03  0.7818608E-02  0.1235065E+00
          4   -1    0    0  501    0  0.00000000000E+00  0.00000000000E+00  0.57951856588E+01  0.59327124336E+01  0.12700000000E+01 0. -1.
         -4   -1    0    0    0  501 -0.00000000000E+00 -0.00000000000E+00 -0.66603559738E+03  0.66603680820E+03  0.12700000000E+01 0. -1.
         25    2    1    2    0    0  0.00000000000E+00  0.00000000000E+00 -0.66024041173E+03  0.67196952064E+03  0.12500254154E+03 0.  0.
    9000005    1    3    3    0    0  0.39352758374E+02  0.45447040949E+02 -0.23836565722E+03  0.24583177107E+03  0.10000000000E+01 0.  0.
    9000005    1    3    3    0    0 -0.39352758374E+02 -0.45447040949E+02 -0.42187475450E+03  0.42613774957E+03  0.10000000000E+01 0.  0.
<mgrwt>
<rscale>  0 0.12500254E+03</rscale>
<asrwt>0</asrwt>
<pdfrwt beam="1">  1        4 0.90223967E-03 0.12500254E+03</pdfrwt>
<pdfrwt beam="2">  1       -4 0.10247763E+00 0.12500254E+03</pdfrwt>
<totfact> 0.44605795E+03</totfact>
</mgrwt>
</event>
<event>
 5    1  0.3312706E-002  0.1250014E+03  0.7818608E-02  0.1235067E+00
          4   -1    0    0  501    0  0.00000000000E+00  0.00000000000E+00  0.79795871599E+01  0.80800192600E+01  0.12700000000E+01 0.  1.
         -4   -1    0    0    0  501 -0.00000000000E+00 -0.00000000000E+00 -0.48637885299E+03  0.48638051106E+03  0.12700000000E+01 0.  1.
         25    2    1    2    0    0  0.00000000000E+00  0.00000000000E+00 -0.47839926583E+03  0.49446053032E+03  0.12500143397E+03 0.  0.
    9000005    1    3    3    0    0  0.71143121347E+00 -0.35147510101E+02 -0.34823366619E+02  0.49492630394E+02  0.10000000000E+01 0.  0.
    9000005    1    3    3    0    0 -0.71143121347E+00  0.35147510101E+02 -0.44357589921E+03  0.44496789992E+03  0.10000000000E+01 0.  0.
<mgrwt>
<rscale>  0 0.12500143E+03</rscale>
<asrwt>0</asrwt>
<pdfrwt beam="1">  1        4 0.12354823E-02 0.12500143E+03</pdfrwt>
<pdfrwt beam="2">  1       -4 0.74835346E-01 0.12500143E+03</pdfrwt>
<totfact> 0.56294972E+03</totfact>
</mgrwt>
</event>
<event>
 5    1  0.3312706E-002  0.1249988E+03  0.7818608E-02  0.1235071E+00
          4   -1    0    0  501    0  0.00000000000E+00  0.00000000000E+00  0.20268023692E+04  0.20268027671E+04  0.12700000000E+01 0. -1.
         -4   -1    0    0    0  501 -0.00000000000E+00 -0.00000000000E+00 -0.17175956094E+01  0.21361260912E+01  0.12700000000E+01 0. -1.
         25    2    1    2    0    0  0.00000000000E+00  0.00000000000E+00  0.20250847736E+04  0.20289388932E+04  0.12499876818E+03 0.  0.
    9000005    1    3    3    0    0  0.49459936156E+02 -0.14674612168E+02  0.44015016658E+03  0.44316452776E+03  0.10000000000E+01 0.  0.
    9000005    1    3    3    0    0 -0.49459936156E+02  0.14674612168E+02  0.15849346070E+04  0.15857743654E+04  0.10000000000E+01 0.  0.
<mgrwt>
<rscale>  0 0.12499877E+03</rscale>
<asrwt>0</asrwt>
<pdfrwt beam="1">  1        4 0.31184796E+00 0.12499877E+03</pdfrwt>
<pdfrwt beam="2">  1       -4 0.29647075E-03 0.12499877E+03</pdfrwt>
<totfact> 0.94884426E+02</totfact>
</mgrwt>
</event>
<event>
 5    1  0.3312706E-002  0.1250003E+03  0.7818608E-02  0.1235069E+00
         -4   -1    0    0    0  501 -0.00000000000E+00  0.00000000000E+00  0.14687457620E+02  0.14742262762E+02  0.12700000000E+01 0. -1.
          4   -1    0    0  501    0  0.00000000000E+00 -0.00000000000E+00 -0.26540785327E+03  0.26541089179E+03  0.12700000000E+01 0. -1.
         25    2    1    2    0    0  0.00000000000E+00  0.00000000000E+00 -0.25072039565E+03  0.28015315455E+03  0.12500029283E+03 0.  0.
    9000005    1    3    3    0    0  0.31196651062E+02  0.52661653259E+02 -0.97118376748E+02  0.11480182866E+03  0.10000000000E+01 0.  0.
    9000005    1    3    3    0    0 -0.31196651062E+02 -0.52661653259E+02 -0.15360201891E+03  0.16535132589E+03  0.10000000000E+01 0.  0.
<mgrwt>
<rscale>  0 0.12500029E+03</rscale>
<asrwt>0</asrwt>
<pdfrwt beam="2">  1        4 0.40836423E-01 0.12500029E+03</pdfrwt>
<pdfrwt beam="1">  1       -4 0.22640586E-02 0.12500029E+03</pdfrwt>
<totfact> 0.78157295E+03</totfact>
</mgrwt>
</event>
<event>
 5    1  0.3312706E-002  0.1250030E+03  0.7818608E-02  0.1235065E+00
         -4   -1    0    0    0  501 -0.00000000000E+00  0.00000000000E+00  0.35151603570E+02  0.35174538143E+02  0.12700000000E+01 0.  1.
          4   -1    0    0  501    0  0.00000000000E+00 -0.00000000000E+00 -0.11106833885E+03  0.11107559946E+03  0.12700000000E+01 0.  1.
         25    2    1    2    0    0  0.00000000000E+00  0.00000000000E+00 -0.75916735279E+02  0.14625013760E+03  0.12500300817E+03 0.  0.
    9000005    1    3    3    0    0 -0.19983814681E+02 -0.46582488158E+02  0.48082159765E+01  0.50925435620E+02  0.10000000000E+01 0.  0.
    9000005    1    3    3    0    0  0.19983814681E+02  0.46582488158E+02 -0.80724951255E+02  0.95324701979E+02  0.10000000000E+01 0.  0.
<mgrwt>
<rscale>  0 0.12500301E+03</rscale>
<asrwt>0</asrwt>
<pdfrwt beam="2">  1        4 0.17089759E-01 0.12500301E+03</pdfrwt>
<pdfrwt beam="1">  1       -4 0.54102617E-02 0.12500301E+03</pdfrwt>
<totfact> 0.10004972E+04</totfact>
</mgrwt>
</event>
<event>
 5    1  0.3312706E-002  0.1249983E+03  0.7818608E-02  0.1235072E+00
         -4   -1    0    0    0  501 -0.00000000000E+00  0.00000000000E+00  0.22405975360E+02  0.22441939128E+02  0.12700000000E+01 0. -1.
          4   -1    0    0  501    0  0.00000000000E+00 -0.00000000000E+00 -0.17415674416E+03  0.17416137470E+03  0.12700000000E+01 0. -1.
         25    2    1    2    0    0  0.00000000000E+00  0.00000000000E+00 -0.15175076880E+03  0.19660331383E+03  0.12499826869E+03 0.  0.
    9000005    1    3    3    0    0 -0.47650848760E+02  0.50259671861E+01 -0.13897146480E+03  0.14700316922E+03  0.10000000000E+01 0.  0.
    9000005    1    3    3    0    0  0.47650848760E+02 -0.50259671861E+01 -0.12779304001E+02  0.49600144601E+02  0.10000000000E+01 0.  0.
<mgrwt>
<rscale>  0 0.12499827E+03</rscale>
<asrwt>0</asrwt>
<pdfrwt beam="2">  1        4 0.26796467E-01 0.12499827E+03</pdfrwt>
<pdfrwt beam="1">  1       -4 0.34501959E-02 0.12499827E+03</pdfrwt>
<totfact> 0.90714400E+03</totfact>
</mgrwt>
</event>
<event>
 5    1  0.3312706E-002  0.1249775E+03  0.7818608E-02  0.1235104E+00
         -4   -1    0    0    0  501 -0.00000000000E+00  0.00000000000E+00  0.24662979042E+02  0.24695656202E+02  0.12700000000E+01 0. -1.
          4   -1    0    0  501    0  0.00000000000E+00 -0.00000000000E+00 -0.15818812875E+03  0.15819322671E+03  0.12700000000E+01 0. -1.
         25    2    1    2    0    0  0.00000000000E+00  0.00000000000E+00 -0.13352514970E+03  0.18288888291E+03  0.12497750953E+03 0.  0.
    9000005    1    3    3    0    0  0.47860418228E+02 -0.24425037947E+02 -0.20103132731E+02  0.57378899060E+02  0.10000000000E+01 0.  0.
    9000005    1    3    3    0    0 -0.47860418228E+02  0.24425037947E+02 -0.11342201697E+03  0.12550998385E+03  0.10000000000E+01 0.  0.
<mgrwt>
<rscale>  0 0.12497751E+03</rscale>
<asrwt>0</asrwt>
<pdfrwt beam="2">  1        4 0.24339540E-01 0.12497751E+03</pdfrwt>
<pdfrwt beam="1">  1       -4 0.37972104E-02 0.12497751E+03</pdfrwt>
<totfact> 0.93146515E+03</totfact>
</mgrwt>
</event>
<event>
 5    1  0.3312706E-002  0.1249983E+03  0.7818608E-02  0.1235072E+00
         -4   -1    0    0    0  501 -0.00000000000E+00  0.00000000000E+00  0.45858083948E+03  0.45858259806E+03  0.12700000000E+01 0. -1.
          4   -1    0    0  501    0  0.00000000000E+00 -0.00000000000E+00 -0.84687692691E+01  0.85634661752E+01  0.12700000000E+01 0. -1.
         25    2    1    2    0    0  0.00000000000E+00  0.00000000000E+00  0.45011207021E+03  0.46714606423E+03  0.12499827829E+03 0.  0.
    9000005    1    3    3    0    0  0.69106509091E+01 -0.38039778258E+02  0.40853643164E+03  0.41036300735E+03  0.10000000000E+01 0.  0.
    9000005    1    3    3    0    0 -0.69106509091E+01  0.38039778258E+02  0.41575638577E+02  0.56783056883E+02  0.10000000000E+01 0.  0.
<mgrwt>
<rscale>  0 0.12499828E+03</rscale>
<asrwt>0</asrwt>
<pdfrwt beam="2">  1        4 0.13103068E-02 0.12499828E+03</pdfrwt>
<pdfrwt beam="1">  1       -4 0.70558341E-01 0.12499828E+03</pdfrwt>
<totfact> 0.58508890E+03</totfact>
</mgrwt>
</event>
<event>
 5    1  0.3312706E-002  0.1250001E+03  0.7818608E-02  0.1235069E+00
         -4   -1    0    0    0  501 -0.00000000000E+00  0.00000000000E+00  0.16231684306E+02  0.16281292191E+02  0.12700000000E+01 0. -1.
          4   -1    0    0  501    0  0.00000000000E+00 -0.00000000000E+00 -0.24023772458E+03  0.24024108144E+03  0.12700000000E+01 0. -1.
         25    2    1    2    0    0  0.00000000000E+00  0.00000000000E+00 -0.22400604028E+03  0.25652237363E+03  0.12500008838E+03 0.  0.
    9000005    1    3    3    0    0 -0.43502913651E+02  0.42815718378E+02 -0.13950268057E+03  0.15227503775E+03  0.10000000000E+01 0.  0.
    9000005    1    3    3    0    0  0.43502913651E+02 -0.42815718378E+02 -0.84503359707E+02  0.10424733588E+03  0.10000000000E+01 0.  0.
<mgrwt>
<rscale>  0 0.12500009E+03</rscale>
<asrwt>0</asrwt>
<pdfrwt beam="2">  1        4 0.36963722E-01 0.12500009E+03</pdfrwt>
<pdfrwt beam="1">  1       -4 0.25012566E-02 0.12500009E+03</pdfrwt>
<totfact> 0.81396428E+03</totfact>
</mgrwt>
</event>
<event>
 5    1  0.3312706E-002  0.1249987E+03  0.7818608E-02  0.1235071E+00
          4   -1    0    0  501    0  0.00000000000E+00  0.00000000000E+00  0.63866253287E+03  0.63866379559E+03  0.12700000000E+01 0.  1.
         -4   -1    0    0    0  501 -0.00000000000E+00 -0.00000000000E+00 -0.60489640329E+01  0.61808466953E+01  0.12700000000E+01 0.  1.
         25    2    1    2    0    0  0.00000000000E+00  0.00000000000E+00  0.63261356884E+03  0.64484464228E+03  0.12499874080E+03 0.  0.
    9000005    1    3    3    0    0  0.22072670030E+02 -0.53151647483E+02  0.44191832087E+03  0.44565132415E+03  0.10000000000E+01 0.  0.
    9000005    1    3    3    0    0 -0.22072670030E+02  0.53151647483E+02  0.19069524797E+03  0.19919331814E+03  0.10000000000E+01 0.  0.
<mgrwt>
<rscale>  0 0.12499874E+03</rscale>
<asrwt>0</asrwt>
<pdfrwt beam="1">  1        4 0.98266007E-01 0.12499874E+03</pdfrwt>
<pdfrwt beam="2">  1       -4 0.94085189E-03 0.12499874E+03</pdfrwt>
<totfact> 0.46155114E+03</totfact>
</mgrwt>
</event>
<event>
 5    1  0.3312706E-002  0.1249981E+03  0.7818608E-02  0.1235072E+00
          4   -1    0    0  501    0  0.00000000000E+00  0.00000000000E+00  0.21737035639E+02  0.21774104307E+02  0.12700000000E+01 0. -1.
         -4   -1    0    0    0  501 -0.00000000000E+00 -0.00000000000E+00 -0.17950700785E+03  0.17951150038E+03  0.12700000000E+01 0. -1.
         25    2    1    2    0    0  0.00000000000E+00  0.00000000000E+00 -0.15776997221E+03  0.20128560469E+03  0.12499812207E+03 0.  0.
    9000005    1    3    3    0    0 -0.18951953346E+02  0.59181667399E+02 -0.68265936496E+02  0.92319469113E+02  0.10000000000E+01 0.  0.
    9000005    1    3    3    0    0  0.18951953346E+02 -0.59181667399E+02 -0.89504035718E+02  0.10896613557E+03  0.10000000000E+01 0.  0.
<mgrwt>
<rscale>  0 0.12499812E+03</rscale>
<asrwt>0</asrwt>
<pdfrwt beam="1">  1        4 0.33473565E-02 0.12499812E+03</pdfrwt>
<pdfrwt beam="2">  1       -4 0.27619659E-01 0.12499812E+03</pdfrwt>
<totfact> 0.89922910E+03</totfact>
</mgrwt>
</event>
<event>
 5    1  0.3312706E-002  0.1249996E+03  0.7818608E-02  0.1235070E+00
          4   -1    0    0  501    0  0.00000000000E+00  0.00000000000E+00  0.55523335896E+02  0.55537858520E+02  0.12700000000E+01 0. -1.
         -4   -1    0    0    0  501 -0.00000000000E+00 -0.00000000000E+00 -0.70323436395E+02  0.70334903188E+02  0.12700000000E+01 0. -1.
         25    2    1    2    0    0  0.00000000000E+00  0.00000000000E+00 -0.14800100499E+02  0.12587276171E+03  0.12499963666E+03 0.  0.
    9000005    1    3    3    0    0  0.25806957304E+02 -0.54111561463E+02 -0.25163196429E+02  0.65024968925E+02  0.10000000000E+01 0.  0.
    9000005    1    3    3    0    0 -0.25806957304E+02  0.54111561463E+02  0.10363095930E+02  0.60847792782E+02  0.10000000000E+01 0.  0.
<mgrwt>
<rscale>  0 0.12499964E+03</rscale>
<asrwt>0</asrwt>
<pdfrwt beam="1">  1        4 0.85440509E-02 0.12499964E+03</pdfrwt>
<pdfrwt beam="2">  1       -4 0.10820989E-01 0.12499964E+03</pdfrwt>
<totfact> 0.10433833E+04</totfact>
</mgrwt>
</event>
<event>
 5    1  0.3312706E-002  0.1250008E+03  0.7818608E-02  0.1235068E+00
         -4   -1    0    0    0  501 -0.00000000000E+00  0.00000000000E+00  0.77791598142E+02  0.77801964252E+02  0.12700000000E+01 0.  1.
          4   -1    0    0  501    0  0.00000000000E+00 -0.00000000000E+00 -0.50193211511E+02  0.50209275854E+02  0.12700000000E+01 0.  1.
         25    2    1    2    0    0  0.00000000000E+00  0.00000000000E+00  0.27598386631E+02  0.12801124011E+03  0.12500082659E+03 0.  0.
    9000005    1    3    3    0    0 -0.52313640996E+02  0.16324076299E+02 -0.16959279353E+02  0.57374294396E+02  0.10000000000E+01 0.  0.
    9000005    1    3    3    0    0  0.52313640996E+02 -0.16324076299E+02  0.44557665984E+02  0.70636945710E+02  0.10000000000E+01 0.  0.
<mgrwt>
<rscale>  0 0.12500083E+03</rscale>
<asrwt>0</asrwt>
<pdfrwt beam="2">  1        4 0.77240656E-02 0.12500083E+03</pdfrwt>
<pdfrwt beam="1">  1       -4 0.11969971E-01 0.12500083E+03</pdfrwt>
<totfact> 0.10387051E+04</totfact>
</mgrwt>
</event>
<event>
 5    1  0.3312706E-002  0.1249982E+03  0.7818608E-02  0.1235072E+00
         -4   -1    0    0    0  501 -0.00000000000E+00  0.00000000000E+00  0.20703843767E+01  0.24288662926E+01  0.12700000000E+01 0.  1.
          4   -1    0    0  501    0  0.00000000000E+00 -0.00000000000E+00 -0.17359911941E+04  0.17359916586E+04  0.12700000000E+01 0.  1.
         25    2    1    2    0    0  0.00000000000E+00  0.00000000000E+00 -0.17339208097E+04  0.17384205249E+04  0.12499818855E+03 0.  0.
    9000005    1    3    3    0    0 -0.48519045252E+02  0.35399022364E+02 -0.62689944403E+03  0.62977067371E+03  0.10000000000E+01 0.  0.
    9000005    1    3    3    0    0  0.48519045252E+02 -0.35399022364E+02 -0.11070213657E+04  0.11086498512E+04  0.10000000000E+01 0.  0.
<mgrwt>
<rscale>  0 0.12499819E+03</rscale>
<asrwt>0</asrwt>
<pdfrwt beam="2">  1        4 0.26710211E+00 0.12499819E+03</pdfrwt>
<pdfrwt beam="1">  1       -4 0.34613333E-03 0.12499819E+03</pdfrwt>
<totfact> 0.13677137E+03</totfact>
</mgrwt>
</event>
<event>
 5    1  0.3312706E-002  0.1250061E+03  0.7818608E-02  0.1235060E+00
          4   -1    0    0  501    0  0.00000000000E+00  0.00000000000E+00  0.10706707966E+03  0.10707461159E+03  0.12700000000E+01 0.  1.
         -4   -1    0    0    0  501 -0.00000000000E+00 -0.00000000000E+00 -0.36467815829E+02  0.36489923148E+02  0.12700000000E+01 0.  1.
         25    2    1    2    0    0  0.00000000000E+00  0.00000000000E+00  0.70599263835E+02  0.14356453474E+03  0.12500607818E+03 0.  0.
    9000005    1    3    3    0    0  0.31044459517E+02 -0.63235168244E+00  0.97586768239E+02  0.10241257574E+03  0.10000000000E+01 0.  0.
    9000005    1    3    3    0    0 -0.31044459517E+02  0.63235168244E+00 -0.26987504404E+02  0.41151958997E+02  0.10000000000E+01 0.  0.
<mgrwt>
<rscale>  0 0.12500608E+03</rscale>
<asrwt>0</asrwt>
<pdfrwt beam="1">  1        4 0.16474138E-01 0.12500608E+03</pdfrwt>
<pdfrwt beam="2">  1       -4 0.56127133E-02 0.12500608E+03</pdfrwt>
<totfact> 0.10058859E+04</totfact>
</mgrwt>
</event>
<event>
 5    1  0.3312706E-002  0.1249909E+03  0.7818608E-02  0.1235084E+00
          4   -1    0    0  501    0  0.00000000000E+00  0.00000000000E+00  0.13535339176E+03  0.13535934973E+03  0.12700000000E+01 0. -1.
         -4   -1    0    0    0  501 -0.00000000000E+00 -0.00000000000E+00 -0.28834857951E+02  0.28862812286E+02  0.12700000000E+01 0. -1.
         25    2    1    2    0    0  0.00000000000E+00  0.00000000000E+00  0.10651853381E+03  0.16422216202E+03  0.12499088148E+03 0.  0.
    9000005    1    3    3    0    0  0.26113461084E+02  0.17216051078E+01 -0.21294245294E+02  0.33753839138E+02  0.10000000000E+01 0.  0.
    9000005    1    3    3    0    0 -0.26113461084E+02 -0.17216051078E+01  0.12781277910E+03  0.13046832288E+03  0.10000000000E+01 0.  0.
<mgrwt>
<rscale>  0 0.12499088E+03</rscale>
<asrwt>0</asrwt>
<pdfrwt beam="1">  1        4 0.20826208E-01 0.12499088E+03</pdfrwt>
<pdfrwt beam="2">  1       -4 0.44387406E-02 0.12499088E+03</pdfrwt>
<totfact> 0.96554684E+03</totfact>
</mgrwt>
</event>
<event>
 5    1  0.3312706E-002  0.1249998E+03  0.7818608E-02  0.1235070E+00
         -4   -1    0    0    0  501 -0.00000000000E+00  0.00000000000E+00  0.17746868761E+03  0.17747323173E+03  0.12700000000E+01 0.  1.
          4   -1    0    0  501    0  0.00000000000E+00 -0.00000000000E+00 -0.21987703197E+02  0.22024349976E+02  0.12700000000E+01 0.  1.
         25    2    1    2    0    0  0.00000000000E+00  0.00000000000E+00  0.15548098441E+03  0.19949758171E+03  0.12499979438E+03 0.  0.
    9000005    1    3    3    0    0 -0.92780891685E+01 -0.51881538424E+02  0.13132989820E+03  0.14151437782E+03  0.10000000000E+01 0.  0.
    9000005    1    3    3    0    0  0.92780891685E+01  0.51881538424E+02  0.24151086204E+02  0.57983203884E+02  0.10000000000E+01 0.  0.
<mgrwt>
<rscale>  0 0.12499979E+03</rscale>
<asrwt>0</asrwt>
<pdfrwt beam="2">  1        4 0.33858922E-02 0.12499979E+03</pdfrwt>
<pdfrwt beam="1">  1       -4 0.27306042E-01 0.12499979E+03</pdfrwt>
<totfact> 0.90220728E+03</totfact>
</mgrwt>
</event>
<event>
 5    1  0.3312706E-002  0.1249987E+03  0.7818608E-02  0.1235071E+00
          4   -1    0    0  501    0  0.00000000000E+00  0.00000000000E+00  0.63092730759E+02  0.63105511444E+02  0.12700000000E+01 0. -1.
         -4   -1    0    0    0  501 -0.00000000000E+00 -0.00000000000E+00 -0.61885983006E+02  0.61899012856E+02  0.12700000000E+01 0. -1.
         25    2    1    2    0    0  0.00000000000E+00  0.00000000000E+00  0.12067477530E+01  0.12500452430E+03  0.12499869941E+03 0.  0.
    9000005    1    3    3    0    0 -0.19684310703E+02  0.36629302707E+02  0.47253064276E+02  0.62952601123E+02  0.10000000000E+01 0.  0.
    9000005    1    3    3    0    0  0.19684310703E+02 -0.36629302707E+02 -0.46046316523E+02  0.62051923177E+02  0.10000000000E+01 0.  0.
<mgrwt>
<rscale>  0 0.12499870E+03</rscale>
<asrwt>0</asrwt>
<pdfrwt beam="1">  1        4 0.97085594E-02 0.12499870E+03</pdfrwt>
<pdfrwt beam="2">  1       -4 0.95229058E-02 0.12499870E+03</pdfrwt>
<totfact> 0.10453071E+04</totfact>
</mgrwt>
</event>
<event>
 5    1  0.3312706E-002  0.1250002E+03  0.7818608E-02  0.1235069E+00
          4   -1    0    0  501    0  0.00000000000E+00  0.00000000000E+00  0.40432939854E+01  0.42380568958E+01  0.12700000000E+01 0.  1.
         -4   -1    0    0    0  501 -0.00000000000E+00 -0.00000000000E+00 -0.94319221620E+03  0.94319307122E+03  0.12700000000E+01 0.  1.
         25    2    1    2    0    0  0.00000000000E+00  0.00000000000E+00 -0.93914892221E+03  0.94743112812E+03  0.12500017772E+03 0.  0.
    9000005    1    3    3    0    0  0.19778246822E+02  0.45219531168E+02 -0.76010294672E+03  0.76170432233E+03  0.10000000000E+01 0.  0.
    9000005    1    3    3    0    0 -0.19778246822E+02 -0.45219531168E+02 -0.17904597549E+03  0.18572680578E+03  0.10000000000E+01 0.  0.
<mgrwt>
<rscale>  0 0.12500018E+03</rscale>
<asrwt>0</asrwt>
<pdfrwt beam="1">  1        4 0.63709351E-03 0.12500018E+03</pdfrwt>
<pdfrwt beam="2">  1       -4 0.14512137E+00 0.12500018E+03</pdfrwt>
<totfact> 0.32407264E+03</totfact>
</mgrwt>
</event>
<event>
 5    1  0.3312706E-002  0.1249988E+03  0.7818608E-02  0.1235071E+00
          4   -1    0    0  501    0  0.00000000000E+00  0.00000000000E+00  0.74505954643E+03  0.74506062882E+03  0.12700000000E+01 0. -1.
         -4   -1    0    0    0  501 -0.00000000000E+00 -0.00000000000E+00 -0.51647532869E+01  0.53186066328E+01  0.12700000000E+01 0. -1.
         25    2    1    2    0    0  0.00000000000E+00  0.00000000000E+00  0.73989479314E+03  0.75037923546E+03  0.12499876834E+03 0.  0.
    9000005    1    3    3    0    0 -0.17601059678E+02 -0.24234330407E+02  0.69919244789E+03  0.69983439417E+03  0.10000000000E+01 0.  0.
    9000005    1    3    3    0    0  0.17601059678E+02  0.24234330407E+02  0.40702345248E+02  0.50544841287E+02  0.10000000000E+01 0.  0.
<mgrwt>
<rscale>  0 0.12499877E+03</rscale>
<asrwt>0</asrwt>
<pdfrwt beam="1">  1        4 0.11463638E+00 0.12499877E+03</pdfrwt>
<pdfrwt beam="2">  1       -4 0.80649618E-03 0.12499877E+03</pdfrwt>
<totfact> 0.40557121E+03</totfact>
</mgrwt>
</event>
<event>
 5    1  0.3312706E-002  0.1249956E+03  0.7818608E-02  0.1235076E+00
          4   -1    0    0  501    0  0.00000000000E+00  0.00000000000E+00  0.47044466601E+03  0.47044638023E+03  0.12700000000E+01 0. -1.
         -4   -1    0    0    0  501 -0.00000000000E+00 -0.00000000000E+00 -0.82524259554E+01  0.83495768845E+01  0.12700000000E+01 0. -1.
         25    2    1    2    0    0  0.00000000000E+00  0.00000000000E+00  0.46219224005E+03  0.47879595712E+03  0.12499560708E+03 0.  0.
    9000005    1    3    3    0    0  0.39246581454E+02  0.48625502573E+02  0.22921257675E+03  0.23757975292E+03  0.10000000000E+01 0.  0.
    9000005    1    3    3    0    0 -0.39246581454E+02 -0.48625502573E+02  0.23297966330E+03  0.24121620420E+03  0.10000000000E+01 0.  0.
<mgrwt>
<rscale>  0 0.12499561E+03</rscale>
<asrwt>0</asrwt>
<pdfrwt beam="1">  1        4 0.72383712E-01 0.12499561E+03</pdfrwt>
<pdfrwt beam="2">  1       -4 0.12772089E-02 0.12499561E+03</pdfrwt>
<totfact> 0.57553467E+03</totfact>
</mgrwt>
</event>
<event>
 5    1  0.3312706E-002  0.1249973E+03  0.7818608E-02  0.1235074E+00
         -4   -1    0    0    0  501 -0.00000000000E+00  0.00000000000E+00  0.87438528892E+02  0.87447751456E+02  0.12700000000E+01 0.  1.
          4   -1    0    0  501    0  0.00000000000E+00 -0.00000000000E+00 -0.44651700098E+02  0.44669757350E+02  0.12700000000E+01 0.  1.
         25    2    1    2    0    0  0.00000000000E+00  0.00000000000E+00  0.42786828793E+02  0.13211750881E+03  0.12499729363E+03 0.  0.
    9000005    1    3    3    0    0 -0.28832004385E+02  0.24250732485E+02 -0.31303353396E+02  0.48992677379E+02  0.10000000000E+01 0.  0.
    9000005    1    3    3    0    0  0.28832004385E+02 -0.24250732485E+02  0.74090182189E+02  0.83124831427E+02  0.10000000000E+01 0.  0.
<mgrwt>
<rscale>  0 0.12499729E+03</rscale>
<asrwt>0</asrwt>
<pdfrwt beam="2">  1        4 0.68715908E-02 0.12499729E+03</pdfrwt>
<pdfrwt beam="1">  1       -4 0.13454180E-01 0.12499729E+03</pdfrwt>
<totfact> 0.10299820E+04</totfact>
</mgrwt>
</event>
<event>
 5    1  0.3312706E-002  0.1249949E+03  0.7818608E-02  0.1235077E+00
         -4   -1    0    0    0  501 -0.00000000000E+00  0.00000000000E+00  0.80066387868E+03  0.80066488590E+03  0.12700000000E+01 0. -1.
          4   -1    0    0  501    0  0.00000000000E+00 -0.00000000000E+00 -0.47946814837E+01  0.49600272711E+01  0.12700000000E+01 0. -1.
         25    2    1    2    0    0  0.00000000000E+00  0.00000000000E+00  0.79586919719E+03  0.80562491317E+03  0.12499488664E+03 0.  0.
    9000005    1    3    3    0    0 -0.58893566676E+02  0.16577624255E+02  0.47988342410E+03  0.48376892268E+03  0.10000000000E+01 0.  0.
    9000005    1    3    3    0    0  0.58893566676E+02 -0.16577624255E+02  0.31598577309E+03  0.32185599049E+03  0.10000000000E+01 0.  0.
<mgrwt>
<rscale>  0 0.12499489E+03</rscale>
<asrwt>0</asrwt>
<pdfrwt beam="2">  1        4 0.75043976E-03 0.12499489E+03</pdfrwt>
<pdfrwt beam="1">  1       -4 0.12319184E+00 0.12499489E+03</pdfrwt>
<totfact> 0.38019093E+03</totfact>
</mgrwt>
</event>
<event>
 5    1  0.3312706E-002  0.1250017E+03  0.7818608E-02  0.1235067E+00
         -4   -1    0    0    0  501 -0.00000000000E+00  0.00000000000E+00  0.88386494609E+02  0.88395618270E+02  0.12700000000E+01 0.  1.
          4   -1    0    0  501    0  0.00000000000E+00 -0.00000000000E+00 -0.44175787797E+02  0.44194039502E+02  0.12700000000E+01 0.  1.
         25    2    1    2    0    0  0.00000000000E+00  0.00000000000E+00  0.44210706812E+02  0.13258965777E+03  0.12500172299E+03 0.  0.
    9000005    1    3    3    0    0 -0.22740507499E+02  0.57532497600E+02  0.31487550167E+02  0.69423229375E+02  0.10000000000E+01 0.  0.
    9000005    1    3    3    0    0  0.22740507499E+02 -0.57532497600E+02  0.12723156645E+02  0.63166428397E+02  0.10000000000E+01 0.  0.
<mgrwt>
<rscale>  0 0.12500172E+03</rscale>
<asrwt>0</asrwt>
<pdfrwt beam="2">  1        4 0.67983808E-02 0.12500172E+03</pdfrwt>
<pdfrwt beam="1">  1       -4 0.13600028E-01 0.12500172E+03</pdfrwt>
<totfact> 0.10288729E+04</totfact>
</mgrwt>
</event>
<event>
 5    1  0.3312706E-002  0.1249991E+03  0.7818608E-02  0.1235071E+00
         -4   -1    0    0    0  501 -0.00000000000E+00  0.00000000000E+00  0.13528264784E+02  0.13587746247E+02  0.12700000000E+01 0. -1.
          4   -1    0    0  501    0  0.00000000000E+00 -0.00000000000E+00 -0.28804898421E+03  0.28805178389E+03  0.12700000000E+01 0. -1.
         25    2    1    2    0    0  0.00000000000E+00  0.00000000000E+00 -0.27452071943E+03  0.30163953014E+03  0.12499912299E+03 0.  0.
    9000005    1    3    3    0    0  0.59000365933E+02 -0.19618603177E+02 -0.12213973264E+03  0.13705855340E+03  0.10000000000E+01 0.  0.
    9000005    1    3    3    0    0 -0.59000365933E+02  0.19618603177E+02 -0.15238098678E+03  0.16458097674E+03  0.10000000000E+01 0.  0.
<mgrwt>
<rscale>  0 0.12499912E+03</rscale>
<asrwt>0</asrwt>
<pdfrwt beam="2">  1        4 0.44320015E-01 0.12499912E+03</pdfrwt>
<pdfrwt beam="1">  1       -4 0.20860626E-02 0.12499912E+03</pdfrwt>
<totfact> 0.75395108E+03</totfact>
</mgrwt>
</event>
<event>
 5    1  0.3312706E-002  0.1249988E+03  0.7818608E-02  0.1235071E+00
          4   -1    0    0  501    0  0.00000000000E+00  0.00000000000E+00  0.64655166816E+02  0.64667638708E+02  0.12700000000E+01 0. -1.
         -4   -1    0    0    0  501 -0.00000000000E+00 -0.00000000000E+00 -0.60390505697E+02  0.60403858142E+02  0.12700000000E+01 0. -1.
         25    2    1    2    0    0  0.00000000000E+00  0.00000000000E+00  0.42646611190E+01  0.12507149685E+03  0.12499876795E+03 0.  0.
    9000005    1    3    3    0    0  0.16351990485E+02 -0.33990535285E+02  0.51985299313E+02  0.64235624279E+02  0.10000000000E+01 0.  0.
    9000005    1    3    3    0    0 -0.16351990485E+02  0.33990535285E+02 -0.47720638194E+02  0.60835872571E+02  0.10000000000E+01 0.  0.
<mgrwt>
<rscale>  0 0.12499877E+03</rscale>
<asrwt>0</asrwt>
<pdfrwt beam="1">  1        4 0.99489352E-02 0.12499877E+03</pdfrwt>
<pdfrwt beam="2">  1       -4 0.92928335E-02 0.12499877E+03</pdfrwt>
<totfact> 0.10451601E+04</totfact>
</mgrwt>
</event>
<event>
 5    1  0.3312706E-002  0.1250031E+03  0.7818608E-02  0.1235064E+00
          4   -1    0    0  501    0  0.00000000000E+00  0.00000000000E+00  0.61343531587E+02  0.61356676634E+02  0.12700000000E+01 0.  1.
         -4   -1    0    0    0  501 -0.00000000000E+00 -0.00000000000E+00 -0.63655099468E+02  0.63667767263E+02  0.12700000000E+01 0.  1.
         25    2    1    2    0    0  0.00000000000E+00  0.00000000000E+00 -0.23115678810E+01  0.12502444390E+03  0.12500307287E+03 0.  0.
    9000005    1    3    3    0    0 -0.29048457035E+02  0.33119452937E+02  0.43177080750E+02  0.61692554827E+02  0.10000000000E+01 0.  0.
    9000005    1    3    3    0    0  0.29048457035E+02 -0.33119452937E+02 -0.45488648631E+02  0.63331889071E+02  0.10000000000E+01 0.  0.
<mgrwt>
<rscale>  0 0.12500307E+03</rscale>
<asrwt>0</asrwt>
<pdfrwt beam="1">  1        4 0.94394520E-02 0.12500307E+03</pdfrwt>
<pdfrwt beam="2">  1       -4 0.97950779E-02 0.12500307E+03</pdfrwt>
<totfact> 0.10451606E+04</totfact>
</mgrwt>
</event>
<event>
 5    1  0.3312706E-002  0.1250031E+03  0.7818608E-02  0.1235064E+00
          4   -1    0    0  501    0  0.00000000000E+00  0.00000000000E+00  0.13252794262E+02  0.13313506516E+02  0.12700000000E+01 0.  1.
         -4   -1    0    0    0  501 -0.00000000000E+00 -0.00000000000E+00 -0.29402820929E+03  0.29403095205E+03  0.12700000000E+01 0.  1.
         25    2    1    2    0    0  0.00000000000E+00  0.00000000000E+00 -0.28077541503E+03  0.30734445856E+03  0.12500313005E+03 0.  0.
    9000005    1    3    3    0    0 -0.20552481845E+02  0.15006240117E+02 -0.28072409735E+03  0.28187694227E+03  0.10000000000E+01 0.  0.
    9000005    1    3    3    0    0  0.20552481845E+02 -0.15006240117E+02 -0.51317683708E-01  0.25467516289E+02  0.10000000000E+01 0.  0.
<mgrwt>
<rscale>  0 0.12500313E+03</rscale>
<asrwt>0</asrwt>
<pdfrwt beam="1">  1        4 0.20437728E-02 0.12500313E+03</pdfrwt>
<pdfrwt beam="2">  1       -4 0.45239985E-01 0.12500313E+03</pdfrwt>
<totfact> 0.74681518E+03</totfact>
</mgrwt>
</event>
<event>
 5    1  0.3312706E-002  0.1249992E+03  0.7818608E-02  0.1235071E+00
          4   -1    0    0  501    0  0.00000000000E+00  0.00000000000E+00  0.11896860204E+03  0.11897538052E+03  0.12700000000E+01 0.  1.
         -4   -1    0    0    0  501 -0.00000000000E+00 -0.00000000000E+00 -0.32813869361E+02  0.32838436663E+02  0.12700000000E+01 0.  1.
         25    2    1    2    0    0  0.00000000000E+00  0.00000000000E+00  0.86154732677E+02  0.15181381719E+03  0.12499918850E+03 0.  0.
    9000005    1    3    3    0    0 -0.32515307702E+02  0.39476275564E+02  0.86691561875E+02  0.10065807701E+03  0.10000000000E+01 0.  0.
    9000005    1    3    3    0    0  0.32515307702E+02 -0.39476275564E+02 -0.53682919768E+00  0.51155740176E+02  0.10000000000E+01 0.  0.
<mgrwt>
<rscale>  0 0.12499919E+03</rscale>
<asrwt>0</asrwt>
<pdfrwt beam="1">  1        4 0.18305274E-01 0.12499919E+03</pdfrwt>
<pdfrwt beam="2">  1       -4 0.50506986E-02 0.12499919E+03</pdfrwt>
<totfact> 0.98945168E+03</totfact>
</mgrwt>
</event>
<event>
 5    1  0.3312706E-002  0.1249998E+03  0.7818608E-02  0.1235070E+00
          4   -1    0    0  501    0  0.00000000000E+00  0.00000000000E+00  0.42247278200E+01  0.44114878616E+01  0.12700000000E+01 0. -1.
         -4   -1    0    0    0  501 -0.00000000000E+00 -0.00000000000E+00 -0.90443031200E+03  0.90443120366E+03  0.12700000000E+01 0. -1.
         25    2    1    2    0    0  0.00000000000E+00  0.00000000000E+00 -0.90020558418E+03  0.90884269153E+03  0.12499977661E+03 0.  0.
    9000005    1    3    3    0    0  0.26349015247E+02 -0.41482632036E+02 -0.16943314517E+03  0.17641901838E+03  0.10000000000E+01 0.  0.
    9000005    1    3    3    0    0 -0.26349015247E+02  0.41482632036E+02 -0.73077243901E+03  0.73242367314E+03  0.10000000000E+01 0.  0.
<mgrwt>
<rscale>  0 0.12499978E+03</rscale>
<asrwt>0</asrwt>
<pdfrwt beam="1">  1        4 0.66439359E-03 0.12499978E+03</pdfrwt>
<pdfrwt beam="2">  1       -4 0.13915741E+00 0.12499978E+03</pdfrwt>
<totfact> 0.33823779E+03</totfact>
</mgrwt>
</event>
<event>
 4    1  0.3312706E-002  0.1247898E+03  0.7818608E-02  0.1235398E+00
          4   -1    0    0  501    0  0.00000000000E+00  0.00000000000E+00  0.25746617380E+03  0.25746930604E+03  0.12700000000E+01 0. -1.
         -4   -1    0    0    0  501 -0.00000000000E+00 -0.00000000000E+00 -0.15091020405E+02  0.15144365185E+02  0.12700000000E+01 0. -1.
    9000005    1    1    2    0    0  0.43449723456E+02  0.43245698764E+02  0.95893943502E+02  0.11381879164E+03  0.10000000000E+01 0.  0.
    9000005    1    1    2    0    0 -0.43449723456E+02 -0.43245698764E+02  0.14648120989E+03  0.15879487958E+03  0.10000000000E+01 0.  0.
<mgrwt>
<rscale>  0 0.12478982E+03</rscale>
<asrwt>0</asrwt>
<pdfrwt beam="1">  1        4 0.39614524E-01 0.12478982E+03</pdfrwt>
<pdfrwt beam="2">  1       -4 0.23260399E-02 0.12478982E+03</pdfrwt>
<totfact> 0.79538984E+03</totfact>
</mgrwt>
</event>
<event>
 5    1  0.3312706E-002  0.1249995E+03  0.7818608E-02  0.1235070E+00
          4   -1    0    0  501    0  0.00000000000E+00  0.00000000000E+00  0.16254251359E+03  0.16254747498E+03  0.12700000000E+01 0. -1.
         -4   -1    0    0    0  501 -0.00000000000E+00 -0.00000000000E+00 -0.24009876470E+02  0.24043441270E+02  0.12700000000E+01 0. -1.
         25    2    1    2    0    0  0.00000000000E+00  0.00000000000E+00  0.13853263712E+03  0.18659091625E+03  0.12499951392E+03 0.  0.
    9000005    1    3    3    0    0 -0.32627677529E+02 -0.20768017723E+02  0.14253722322E+03  0.14769473892E+03  0.10000000000E+01 0.  0.
    9000005    1    3    3    0    0  0.32627677529E+02  0.20768017723E+02 -0.40045861050E+01  0.38896177331E+02  0.10000000000E+01 0.  0.
<mgrwt>
<rscale>  0 0.12499951E+03</rscale>
<asrwt>0</asrwt>
<pdfrwt beam="1">  1        4 0.25009503E-01 0.12499951E+03</pdfrwt>
<pdfrwt beam="2">  1       -4 0.36967908E-02 0.12499951E+03</pdfrwt>
<totfact> 0.92444898E+03</totfact>
</mgrwt>
</event>
<event>
 5    1  0.3312706E-002  0.1250006E+03  0.7818608E-02  0.1235068E+00
         -4   -1    0    0    0  501 -0.00000000000E+00  0.00000000000E+00  0.85322589208E+02  0.85332040460E+02  0.12700000000E+01 0.  1.
          4   -1    0    0  501    0  0.00000000000E+00 -0.00000000000E+00 -0.45761800480E+02  0.45779419865E+02  0.12700000000E+01 0.  1.
         25    2    1    2    0    0  0.00000000000E+00  0.00000000000E+00  0.39560788728E+02  0.13111146033E+03  0.12500063609E+03 0.  0.
    9000005    1    3    3    0    0 -0.23122396681E+02  0.18475657452E+02 -0.37949290611E+02  0.48136719918E+02  0.10000000000E+01 0.  0.
    9000005    1    3    3    0    0  0.23122396681E+02 -0.18475657452E+02  0.77510079339E+02  0.82974740408E+02  0.10000000000E+01 0.  0.
<mgrwt>
<rscale>  0 0.12500064E+03</rscale>
<asrwt>0</asrwt>
<pdfrwt beam="2">  1        4 0.70423594E-02 0.12500064E+03</pdfrwt>
<pdfrwt beam="1">  1       -4 0.13128634E-01 0.12500064E+03</pdfrwt>
<totfact> 0.10320552E+04</totfact>
</mgrwt>
</event>
<event>
 5    1  0.3312706E-002  0.1249993E+03  0.7818608E-02  0.1235070E+00
         -4   -1    0    0    0  501 -0.00000000000E+00  0.00000000000E+00  0.47348182615E+03  0.47348352938E+03  0.12700000000E+01 0.  1.
          4   -1    0    0  501    0  0.00000000000E+00 -0.00000000000E+00 -0.81993497623E+01  0.82971221833E+01  0.12700000000E+01 0.  1.
         25    2    1    2    0    0  0.00000000000E+00  0.00000000000E+00  0.46528247639E+03  0.48178065157E+03  0.12499925355E+03 0.  0.
    9000005    1    3    3    0    0  0.72767163796E+01 -0.18512545527E+02  0.43091572850E+01  0.20377285876E+02  0.10000000000E+01 0.  0.
    9000005    1    3    3    0    0 -0.72767163796E+01  0.18512545527E+02  0.46097331911E+03  0.46140336569E+03  0.10000000000E+01 0.  0.
<mgrwt>
<rscale>  0 0.12499925E+03</rscale>
<asrwt>0</asrwt>
<pdfrwt beam="2">  1        4 0.12690905E-02 0.12499925E+03</pdfrwt>
<pdfrwt beam="1">  1       -4 0.72851006E-01 0.12499925E+03</pdfrwt>
<totfact> 0.57307143E+03</totfact>
</mgrwt>
</event>
<event>
 5    1  0.3312706E-002  0.1249973E+03  0.7818608E-02  0.1235074E+00
         -4   -1    0    0    0  501 -0.00000000000E+00  0.00000000000E+00  0.32741019722E+02  0.32765641646E+02  0.12700000000E+01 0. -1.
          4   -1    0    0  501    0  0.00000000000E+00 -0.00000000000E+00 -0.11922944272E+03  0.11923620638E+03  0.12700000000E+01 0. -1.
         25    2    1    2    0    0  0.00000000000E+00  0.00000000000E+00 -0.86488423000E+02  0.15200184803E+03  0.12499725793E+03 0.  0.
    9000005    1    3    3    0    0  0.49597407816E+02 -0.11470002378E+02 -0.87318204617E+02  0.10107884385E+03  0.10000000000E+01 0.  0.
    9000005    1    3    3    0    0 -0.49597407816E+02  0.11470002378E+02  0.82978161678E+00  0.50923004175E+02  0.10000000000E+01 0.  0.
<mgrwt>
<rscale>  0 0.12499726E+03</rscale>
<asrwt>0</asrwt>
<pdfrwt beam="2">  1        4 0.18345405E-01 0.12499726E+03</pdfrwt>
<pdfrwt beam="1">  1       -4 0.50394943E-02 0.12499726E+03</pdfrwt>
<totfact> 0.98912249E+03</totfact>
</mgrwt>
</event>
<event>
 5    1  0.3312706E-002  0.1250123E+03  0.7818608E-02  0.1235050E+00
         -4   -1    0    0    0  501 -0.00000000000E+00  0.00000000000E+00  0.13105526719E+03  0.13106142055E+03  0.12700000000E+01 0.  1.
          4   -1    0    0  501    0  0.00000000000E+00 -0.00000000000E+00 -0.29791611294E+02  0.29818668707E+02  0.12700000000E+01 0.  1.
         25    2    1    2    0    0  0.00000000000E+00  0.00000000000E+00  0.10126365589E+03  0.16088008926E+03  0.12501229986E+03 0.  0.
    9000005    1    3    3    0    0 -0.45899606603E+02 -0.41693812958E+02  0.40591353166E+02  0.74120212339E+02  0.10000000000E+01 0.  0.
    9000005    1    3    3    0    0  0.45899606603E+02  0.41693812958E+02  0.60672302728E+02  0.86759876923E+02  0.10000000000E+01 0.  0.
<mgrwt>
<rscale>  0 0.12501230E+03</rscale>
<asrwt>0</asrwt>
<pdfrwt beam="2">  1        4 0.45858795E-02 0.12501230E+03</pdfrwt>
<pdfrwt beam="1">  1       -4 0.20164903E-01 0.12501230E+03</pdfrwt>
<totfact> 0.97146521E+03</totfact>
</mgrwt>
</event>
<event>
 5    1  0.3312706E-002  0.1249962E+03  0.7818608E-02  0.1235075E+00
          4   -1    0    0  501    0  0.00000000000E+00  0.00000000000E+00  0.63637624916E+01  0.64892505768E+01  0.12700000000E+01 0. -1.
         -4   -1    0    0    0  501 -0.00000000000E+00 -0.00000000000E+00 -0.60767087642E+03  0.60767220354E+03  0.12700000000E+01 0. -1.
         25    2    1    2    0    0  0.00000000000E+00  0.00000000000E+00 -0.60130711393E+03  0.61416145411E+03  0.12499618577E+03 0.  0.
    9000005    1    3    3    0    0  0.60676960842E+01  0.31864477408E+02 -0.56309066622E+03  0.56402505285E+03  0.10000000000E+01 0.  0.
    9000005    1    3    3    0    0 -0.60676960842E+01 -0.31864477408E+02 -0.38216447709E+02  0.50136401264E+02  0.10000000000E+01 0.  0.
<mgrwt>
<rscale>  0 0.12499619E+03</rscale>
<asrwt>0</asrwt>
<pdfrwt beam="1">  1        4 0.98879588E-03 0.12499619E+03</pdfrwt>
<pdfrwt beam="2">  1       -4 0.93497537E-01 0.12499619E+03</pdfrwt>
<totfact> 0.47989758E+03</totfact>
</mgrwt>
</event>
<event>
 5    1  0.3312706E-002  0.1250012E+03  0.7818608E-02  0.1235067E+00
          4   -1    0    0  501    0  0.00000000000E+00  0.00000000000E+00  0.13610311932E+03  0.13610904448E+03  0.12700000000E+01 0.  1.
         -4   -1    0    0    0  501 -0.00000000000E+00 -0.00000000000E+00 -0.28680619914E+02  0.28708724434E+02  0.12700000000E+01 0.  1.
         25    2    1    2    0    0  0.00000000000E+00  0.00000000000E+00  0.10742249941E+03  0.16481776892E+03  0.12500121428E+03 0.  0.
    9000005    1    3    3    0    0  0.60563071523E+02 -0.13444390033E+02  0.63638701949E+02  0.88879253155E+02  0.10000000000E+01 0.  0.
    9000005    1    3    3    0    0 -0.60563071523E+02  0.13444390033E+02  0.43783797461E+02  0.75938515760E+02  0.10000000000E+01 0.  0.
<mgrwt>
<rscale>  0 0.12500121E+03</rscale>
<asrwt>0</asrwt>
<pdfrwt beam="1">  1        4 0.20941559E-01 0.12500121E+03</pdfrwt>
<pdfrwt beam="2">  1       -4 0.44150207E-02 0.12500121E+03</pdfrwt>
<totfact> 0.96419284E+03</totfact>
</mgrwt>
</event>
<event>
 5    1  0.3312706E-002  0.1250014E+03  0.7818608E-02  0.1235067E+00
          4   -1    0    0  501    0  0.00000000000E+00  0.00000000000E+00  0.41130931880E+02  0.41150534107E+02  0.12700000000E+01 0.  1.
         -4   -1    0    0    0  501 -0.00000000000E+00 -0.00000000000E+00 -0.94926824538E+02  0.94935319649E+02  0.12700000000E+01 0.  1.
         25    2    1    2    0    0  0.00000000000E+00  0.00000000000E+00 -0.53795892658E+02  0.13608585376E+03  0.12500144609E+03 0.  0.
    9000005    1    3    3    0    0  0.13139406168E+02 -0.37840144757E+02 -0.79118232935E+02  0.88686049255E+02  0.10000000000E+01 0.  0.
    9000005    1    3    3    0    0 -0.13139406168E+02  0.37840144757E+02  0.25322340277E+02  0.47399804502E+02  0.10000000000E+01 0.  0.
<mgrwt>
<rscale>  0 0.12500145E+03</rscale>
<asrwt>0</asrwt>
<pdfrwt beam="1">  1        4 0.63299970E-02 0.12500145E+03</pdfrwt>
<pdfrwt beam="2">  1       -4 0.14606288E-01 0.12500145E+03</pdfrwt>
<totfact> 0.10214901E+04</totfact>
</mgrwt>
</event>
<event>
 5    1  0.3312706E-002  0.1249697E+03  0.7818608E-02  0.1235117E+00
         -4   -1    0    0    0  501 -0.00000000000E+00  0.00000000000E+00  0.56609839934E+02  0.56624083899E+02  0.12700000000E+01 0. -1.
          4   -1    0    0  501    0  0.00000000000E+00 -0.00000000000E+00 -0.68940751371E+02  0.68952448105E+02  0.12700000000E+01 0. -1.
         25    2    1    2    0    0  0.00000000000E+00  0.00000000000E+00 -0.12330911437E+02  0.12557653200E+03  0.12496965237E+03 0.  0.
    9000005    1    3    3    0    0  0.33669848952E+02 -0.26182625995E+02 -0.52039809461E+02  0.67292870359E+02  0.10000000000E+01 0.  0.
    9000005    1    3    3    0    0 -0.33669848952E+02  0.26182625995E+02  0.39708898024E+02  0.58283661645E+02  0.10000000000E+01 0.  0.
<mgrwt>
<rscale>  0 0.12496965E+03</rscale>
<asrwt>0</asrwt>
<pdfrwt beam="2">  1        4 0.10608265E-01 0.12496965E+03</pdfrwt>
<pdfrwt beam="1">  1       -4 0.87112016E-02 0.12496965E+03</pdfrwt>
<totfact> 0.10447415E+04</totfact>
</mgrwt>
</event>
<event>
 5    1  0.3312706E-002  0.1250007E+03  0.7818608E-02  0.1235068E+00
         -4   -1    0    0    0  501 -0.00000000000E+00  0.00000000000E+00  0.26099247785E+02  0.26130128874E+02  0.12700000000E+01 0.  1.
          4   -1    0    0  501    0  0.00000000000E+00 -0.00000000000E+00 -0.14954867606E+03  0.14955406852E+03  0.12700000000E+01 0.  1.
         25    2    1    2    0    0  0.00000000000E+00  0.00000000000E+00 -0.12344942827E+03  0.17568419739E+03  0.12500070349E+03 0.  0.
    9000005    1    3    3    0    0 -0.50317775365E+02 -0.33617465625E+02 -0.83646440100E+02  0.10324601423E+03  0.10000000000E+01 0.  0.
    9000005    1    3    3    0    0  0.50317775365E+02  0.33617465625E+02 -0.39802988174E+02  0.72438183165E+02  0.10000000000E+01 0.  0.
<mgrwt>
<rscale>  0 0.12500070E+03</rscale>
<asrwt>0</asrwt>
<pdfrwt beam="2">  1        4 0.23010278E-01 0.12500070E+03</pdfrwt>
<pdfrwt beam="1">  1       -4 0.40180593E-02 0.12500070E+03</pdfrwt>
<totfact> 0.94398191E+03</totfact>
</mgrwt>
</event>
<event>
 5    1  0.3312706E-002  0.1249971E+03  0.7818608E-02  0.1235074E+00
         -4   -1    0    0    0  501 -0.00000000000E+00  0.00000000000E+00  0.31324734396E+03  0.31324991843E+03  0.12700000000E+01 0.  1.
          4   -1    0    0  501    0  0.00000000000E+00 -0.00000000000E+00 -0.12434626785E+02  0.12499313713E+02  0.12700000000E+01 0.  1.
         25    2    1    2    0    0  0.00000000000E+00  0.00000000000E+00  0.30081271717E+03  0.32574923215E+03  0.12499708568E+03 0.  0.
    9000005    1    3    3    0    0  0.22544656878E+02 -0.18598143776E+02  0.29435202420E+03  0.29580105926E+03  0.10000000000E+01 0.  0.
    9000005    1    3    3    0    0 -0.22544656878E+02  0.18598143776E+02  0.64606929718E+01  0.29948172888E+02  0.10000000000E+01 0.  0.
<mgrwt>
<rscale>  0 0.12499709E+03</rscale>
<asrwt>0</asrwt>
<pdfrwt beam="2">  1        4 0.19181936E-02 0.12499709E+03</pdfrwt>
<pdfrwt beam="1">  1       -4 0.48197069E-01 0.12499709E+03</pdfrwt>
<totfact> 0.72482190E+03</totfact>
</mgrwt>
</event>
<event>
 5    1  0.3312706E-002  0.1249997E+03  0.7818608E-02  0.1235070E+00
          4   -1    0    0  501    0  0.00000000000E+00  0.00000000000E+00  0.17661077577E+03  0.17661534197E+03  0.12700000000E+01 0. -1.
         -4   -1    0    0    0  501 -0.00000000000E+00 -0.00000000000E+00 -0.22094667878E+02  0.22131137536E+02  0.12700000000E+01 0. -1.
         25    2    1    2    0    0  0.00000000000E+00  0.00000000000E+00  0.15451610789E+03  0.19874647951E+03  0.12499974207E+03 0.  0.
    9000005    1    3    3    0    0 -0.44602447351E+02  0.43524761342E+02  0.84622011256E+02  0.10509837272E+03  0.10000000000E+01 0.  0.
    9000005    1    3    3    0    0  0.44602447351E+02 -0.43524761342E+02  0.69894096638E+02  0.93648106785E+02  0.10000000000E+01 0.  0.
<mgrwt>
<rscale>  0 0.12499974E+03</rscale>
<asrwt>0</asrwt>
<pdfrwt beam="1">  1        4 0.27174046E-01 0.12499974E+03</pdfrwt>
<pdfrwt beam="2">  1       -4 0.34023362E-02 0.12499974E+03</pdfrwt>
<totfact> 0.90347854E+03</totfact>
</mgrwt>
</event>
<event>
 5    1  0.3312706E-002  0.1250025E+03  0.7818608E-02  0.1235065E+00
         -4   -1    0    0    0  501 -0.00000000000E+00  0.00000000000E+00  0.80702287885E+02  0.80712280168E+02  0.12700000000E+01 0. -1.
          4   -1    0    0  501    0  0.00000000000E+00 -0.00000000000E+00 -0.48383820706E+02  0.48400485598E+02  0.12700000000E+01 0. -1.
         25    2    1    2    0    0  0.00000000000E+00  0.00000000000E+00  0.32318467179E+02  0.12911276577E+03  0.12500249183E+03 0.  0.
    9000005    1    3    3    0    0 -0.32003034510E+02  0.44729266298E+02 -0.14489761851E+02  0.56884573304E+02  0.10000000000E+01 0.  0.
    9000005    1    3    3    0    0  0.32003034510E+02 -0.44729266298E+02  0.46808229030E+02  0.72228192462E+02  0.10000000000E+01 0.  0.
<mgrwt>
<rscale>  0 0.12500249E+03</rscale>
<asrwt>0</asrwt>
<pdfrwt beam="2">  1        4 0.74457153E-02 0.12500249E+03</pdfrwt>
<pdfrwt beam="1">  1       -4 0.12417787E-01 0.12500249E+03</pdfrwt>
<totfact> 0.10362941E+04</totfact>
</mgrwt>
</event>
<event>
 5    1  0.3312706E-002  0.1250018E+03  0.7818608E-02  0.1235066E+00
          4   -1    0    0  501    0  0.00000000000E+00  0.00000000000E+00  0.47894467640E+01  0.49549672355E+01  0.12700000000E+01 0.  1.
         -4   -1    0    0    0  501 -0.00000000000E+00 -0.00000000000E+00 -0.80159841258E+03  0.80159941863E+03  0.12700000000E+01 0.  1.
         25    2    1    2    0    0  0.00000000000E+00  0.00000000000E+00 -0.79680896581E+03  0.80655438587E+03  0.12500179741E+03 0.  0.
    9000005    1    3    3    0    0 -0.30165795514E+02  0.41078076584E+02 -0.16504914344E+03  0.17274143494E+03  0.10000000000E+01 0.  0.
    9000005    1    3    3    0    0  0.30165795514E+02 -0.41078076584E+02 -0.63175982237E+03  0.63381295092E+03  0.10000000000E+01 0.  0.
<mgrwt>
<rscale>  0 0.12500180E+03</rscale>
<asrwt>0</asrwt>
<pdfrwt beam="1">  1        4 0.74964834E-03 0.12500180E+03</pdfrwt>
<pdfrwt beam="2">  1       -4 0.12333554E+00 0.12500180E+03</pdfrwt>
<totfact> 0.37972328E+03</totfact>
</mgrwt>
</event>
<event>
 5    1  0.3312706E-002  0.1250016E+03  0.7818608E-02  0.1235067E+00
         -4   -1    0    0    0  501 -0.00000000000E+00  0.00000000000E+00  0.64775702142E+02  0.64788150830E+02  0.12700000000E+01 0. -1.
          4   -1    0    0  501    0  0.00000000000E+00 -0.00000000000E+00 -0.60280830152E+02  0.60294206884E+02  0.12700000000E+01 0. -1.
         25    2    1    2    0    0  0.00000000000E+00  0.00000000000E+00  0.44948719898E+01  0.12508235771E+03  0.12500156934E+03 0.  0.
    9000005    1    3    3    0    0  0.13738620832E+02  0.47601988366E+01 -0.58569627475E+02  0.60355699465E+02  0.10000000000E+01 0.  0.
    9000005    1    3    3    0    0 -0.13738620832E+02 -0.47601988366E+01  0.63064499465E+02  0.64726658249E+02  0.10000000000E+01 0.  0.
<mgrwt>
<rscale>  0 0.12500157E+03</rscale>
<asrwt>0</asrwt>
<pdfrwt beam="2">  1        4 0.92759605E-02 0.12500157E+03</pdfrwt>
<pdfrwt beam="1">  1       -4 0.99674791E-02 0.12500157E+03</pdfrwt>
<totfact> 0.10450703E+04</totfact>
</mgrwt>
</event>
<event>
 5    1  0.3312706E-002  0.1250047E+03  0.7818608E-02  0.1235062E+00
         -4   -1    0    0    0  501 -0.00000000000E+00  0.00000000000E+00  0.60134649942E+02  0.60148059184E+02  0.12700000000E+01 0. -1.
          4   -1    0    0  501    0  0.00000000000E+00 -0.00000000000E+00 -0.64936397076E+02  0.64948814964E+02  0.12700000000E+01 0. -1.
         25    2    1    2    0    0  0.00000000000E+00  0.00000000000E+00 -0.48017471345E+01  0.12509687415E+03  0.12500468450E+03 0.  0.
    9000005    1    3    3    0    0 -0.23451745613E+02  0.96863621270E+01  0.54752827668E+02  0.60354636286E+02  0.10000000000E+01 0.  0.
    9000005    1    3    3    0    0  0.23451745613E+02 -0.96863621270E+01 -0.59554574803E+02  0.64742237863E+02  0.10000000000E+01 0.  0.
<mgrwt>
<rscale>  0 0.12500468E+03</rscale>
<asrwt>0</asrwt>
<pdfrwt beam="2">  1        4 0.99922016E-02 0.12500468E+03</pdfrwt>
<pdfrwt beam="1">  1       -4 0.92534713E-02 0.12500468E+03</pdfrwt>
<totfact> 0.10449653E+04</totfact>
</mgrwt>
</event>
<event>
 5    1  0.3312706E-002  0.1249994E+03  0.7818608E-02  0.1235070E+00
         -4   -1    0    0    0  501 -0.00000000000E+00  0.00000000000E+00  0.23384780219E+02  0.23419240933E+02  0.12700000000E+01 0.  1.
          4   -1    0    0  501    0  0.00000000000E+00 -0.00000000000E+00 -0.16688097491E+03  0.16688580733E+03  0.12700000000E+01 0.  1.
         25    2    1    2    0    0  0.00000000000E+00  0.00000000000E+00 -0.14349619469E+03  0.19030504826E+03  0.12499941401E+03 0.  0.
    9000005    1    3    3    0    0  0.46221517405E+02 -0.23908755351E+02 -0.19071498364E+02  0.55432655570E+02  0.10000000000E+01 0.  0.
    9000005    1    3    3    0    0 -0.46221517405E+02  0.23908755351E+02 -0.12442469633E+03  0.13487239269E+03  0.10000000000E+01 0.  0.
<mgrwt>
<rscale>  0 0.12499941E+03</rscale>
<asrwt>0</asrwt>
<pdfrwt beam="2">  1        4 0.25677018E-01 0.12499941E+03</pdfrwt>
<pdfrwt beam="1">  1       -4 0.36006811E-02 0.12499941E+03</pdfrwt>
<totfact> 0.91795469E+03</totfact>
</mgrwt>
</event>
<event>
 5    1  0.3312706E-002  0.1250036E+03  0.7818608E-02  0.1235064E+00
         -4   -1    0    0    0  501 -0.00000000000E+00  0.00000000000E+00  0.31334612291E+01  0.33810470678E+01  0.12700000000E+01 0. -1.
          4   -1    0    0  501    0  0.00000000000E+00 -0.00000000000E+00 -0.11990666408E+04  0.11990673134E+04  0.12700000000E+01 0. -1.
         25    2    1    2    0    0  0.00000000000E+00  0.00000000000E+00 -0.11959331796E+04  0.12024483604E+04  0.12500355798E+03 0.  0.
    9000005    1    3    3    0    0 -0.50094430679E+02  0.22102964867E+02 -0.30819057706E+03  0.31301825000E+03  0.10000000000E+01 0.  0.
    9000005    1    3    3    0    0  0.50094430679E+02 -0.22102964867E+02 -0.88774260252E+03  0.88943011045E+03  0.10000000000E+01 0.  0.
<mgrwt>
<rscale>  0 0.12500356E+03</rscale>
<asrwt>0</asrwt>
<pdfrwt beam="2">  1        4 0.18449054E+00 0.12500356E+03</pdfrwt>
<pdfrwt beam="1">  1       -4 0.50116871E-03 0.12500356E+03</pdfrwt>
<totfact> 0.24646898E+03</totfact>
</mgrwt>
</event>
<event>
 5    1  0.3312706E-002  0.1249990E+03  0.7818608E-02  0.1235071E+00
         -4   -1    0    0    0  501 -0.00000000000E+00  0.00000000000E+00  0.42401982574E+02  0.42420997468E+02  0.12700000000E+01 0.  1.
          4   -1    0    0  501    0  0.00000000000E+00 -0.00000000000E+00 -0.92078713196E+02  0.92087471047E+02  0.12700000000E+01 0.  1.
         25    2    1    2    0    0  0.00000000000E+00  0.00000000000E+00 -0.49676730622E+02  0.13450846851E+03  0.12499900214E+03 0.  0.
    9000005    1    3    3    0    0 -0.30591105517E+02  0.22664194608E+02 -0.78163416799E+02  0.86948267261E+02  0.10000000000E+01 0.  0.
    9000005    1    3    3    0    0  0.30591105517E+02 -0.22664194608E+02  0.28486686177E+02  0.47560201254E+02  0.10000000000E+01 0.  0.
<mgrwt>
<rscale>  0 0.12499900E+03</rscale>
<asrwt>0</asrwt>
<pdfrwt beam="2">  1        4 0.14168092E-01 0.12499900E+03</pdfrwt>
<pdfrwt beam="1">  1       -4 0.65255183E-02 0.12499900E+03</pdfrwt>
<totfact> 0.10248672E+04</totfact>
</mgrwt>
</event>
<event>
 5    1  0.3312706E-002  0.1250020E+03  0.7818608E-02  0.1235066E+00
          4   -1    0    0  501    0  0.00000000000E+00  0.00000000000E+00  0.45509975996E+03  0.45510153199E+03  0.12700000000E+01 0.  1.
         -4   -1    0    0    0  501 -0.00000000000E+00 -0.00000000000E+00 -0.85347787274E+01  0.86287512379E+01  0.12700000000E+01 0.  1.
         25    2    1    2    0    0  0.00000000000E+00  0.00000000000E+00  0.44656498123E+03  0.46373028322E+03  0.12500197245E+03 0.  0.
    9000005    1    3    3    0    0  0.20564000467E+01 -0.34003573484E+02  0.41764476533E+03  0.41903296027E+03  0.10000000000E+01 0.  0.
    9000005    1    3    3    0    0 -0.20564000467E+01  0.34003573484E+02  0.28920215906E+02  0.44697322950E+02  0.10000000000E+01 0.  0.
<mgrwt>
<rscale>  0 0.12500197E+03</rscale>
<asrwt>0</asrwt>
<pdfrwt beam="1">  1        4 0.70022716E-01 0.12500197E+03</pdfrwt>
<pdfrwt beam="2">  1       -4 0.13204078E-02 0.12500197E+03</pdfrwt>
<totfact> 0.58789969E+03</totfact>
</mgrwt>
</event>
<event>
 5    1  0.3312706E-002  0.1250038E+03  0.7818608E-02  0.1235063E+00
          4   -1    0    0  501    0  0.00000000000E+00  0.00000000000E+00  0.19695067816E+04  0.19695071911E+04  0.12700000000E+01 0. -1.
         -4   -1    0    0    0  501 -0.00000000000E+00 -0.00000000000E+00 -0.17797436117E+01  0.21864096879E+01  0.12700000000E+01 0. -1.
         25    2    1    2    0    0  0.00000000000E+00  0.00000000000E+00  0.19677270380E+04  0.19716936008E+04  0.12500383687E+03 0.  0.
    9000005    1    3    3    0    0 -0.15633329973E+02  0.47564668680E+02  0.39396543110E+03  0.39713544240E+03  0.10000000000E+01 0.  0.
    9000005    1    3    3    0    0  0.15633329973E+02 -0.47564668680E+02  0.15737616069E+04  0.15745581584E+04  0.10000000000E+01 0.  0.
<mgrwt>
<rscale>  0 0.12500384E+03</rscale>
<asrwt>0</asrwt>
<pdfrwt beam="1">  1        4 0.30303258E+00 0.12500384E+03</pdfrwt>
<pdfrwt beam="2">  1       -4 0.30511999E-03 0.12500384E+03</pdfrwt>
<totfact> 0.10234418E+03</totfact>
</mgrwt>
</event>
<event>
 4    1  0.3312706E-002  0.1250907E+03  0.7818608E-02  0.1234928E+00
          4   -1    0    0  501    0  0.00000000000E+00  0.00000000000E+00  0.18884880210E+02  0.18927535512E+02  0.12700000000E+01 0. -1.
         -4   -1    0    0    0  501 -0.00000000000E+00 -0.00000000000E+00 -0.20686741371E+03  0.20687131207E+03  0.12700000000E+01 0. -1.
    9000005    1    1    2    0    0 -0.83128243602E+01 -0.48383532971E+02 -0.16392160614E+03  0.17111797764E+03  0.10000000000E+01 0.  0.
    9000005    1    1    2    0    0  0.83128243602E+01  0.48383532971E+02 -0.24060927360E+02  0.54680869937E+02  0.10000000000E+01 0.  0.
<mgrwt>
<rscale>  0 0.12509071E+03</rscale>
<asrwt>0</asrwt>
<pdfrwt beam="1">  1        4 0.29089474E-02 0.12509071E+03</pdfrwt>
<pdfrwt beam="2">  1       -4 0.31829336E-01 0.12509071E+03</pdfrwt>
<totfact> 0.85785083E+03</totfact>
</mgrwt>
</event>
<event>
 5    1  0.3312706E-002  0.1250030E+03  0.7818608E-02  0.1235065E+00
          4   -1    0    0  501    0  0.00000000000E+00  0.00000000000E+00  0.26468549187E+03  0.26468853867E+03  0.12700000000E+01 0.  1.
         -4   -1    0    0    0  501 -0.00000000000E+00 -0.00000000000E+00 -0.14728339554E+02  0.14782993135E+02  0.12700000000E+01 0.  1.
         25    2    1    2    0    0  0.00000000000E+00  0.00000000000E+00  0.24995715231E+03  0.27947153181E+03  0.12500303636E+03 0.  0.
    9000005    1    3    3    0    0 -0.36091269899E+02 -0.48175772569E+02  0.87437486499E+02  0.10615930892E+03  0.10000000000E+01 0.  0.
    9000005    1    3    3    0    0  0.36091269899E+02  0.48175772569E+02  0.16251966581E+03  0.17331222289E+03  0.10000000000E+01 0.  0.
<mgrwt>
<rscale>  0 0.12500304E+03</rscale>
<asrwt>0</asrwt>
<pdfrwt beam="1">  1        4 0.40725284E-01 0.12500304E+03</pdfrwt>
<pdfrwt beam="2">  1       -4 0.22703369E-02 0.12500304E+03</pdfrwt>
<totfact> 0.78242946E+03</totfact>
</mgrwt>
</event>
<event>
 5    1  0.3312706E-002  0.1250002E+03  0.7818608E-02  0.1235069E+00
         -4   -1    0    0    0  501 -0.00000000000E+00  0.00000000000E+00  0.20039453572E+02  0.20079656358E+02  0.12700000000E+01 0. -1.
          4   -1    0    0  501    0  0.00000000000E+00 -0.00000000000E+00 -0.19469089930E+03  0.19469504146E+03  0.12700000000E+01 0. -1.
         25    2    1    2    0    0  0.00000000000E+00  0.00000000000E+00 -0.17465144573E+03  0.21477469782E+03  0.12500017331E+03 0.  0.
    9000005    1    3    3    0    0  0.23199462414E+02  0.48427646551E+02 -0.32402333985E+02  0.62724502824E+02  0.10000000000E+01 0.  0.
    9000005    1    3    3    0    0 -0.23199462414E+02 -0.48427646551E+02 -0.14224911174E+03  0.15205019499E+03  0.10000000000E+01 0.  0.
<mgrwt>
<rscale>  0 0.12500017E+03</rscale>
<asrwt>0</asrwt>
<pdfrwt beam="2">  1        4 0.29955856E-01 0.12500017E+03</pdfrwt>
<pdfrwt beam="1">  1       -4 0.30864041E-02 0.12500017E+03</pdfrwt>
<totfact> 0.87701660E+03</totfact>
</mgrwt>
</event>
<event>
 5    1  0.3312706E-002  0.1250008E+03  0.7818608E-02  0.1235068E+00
         -4   -1    0    0    0  501 -0.00000000000E+00  0.00000000000E+00  0.41374333287E+03  0.41374528202E+03  0.12700000000E+01 0. -1.
          4   -1    0    0  501    0  0.00000000000E+00 -0.00000000000E+00 -0.93966754708E+01  0.94821099921E+01  0.12700000000E+01 0. -1.
         25    2    1    2    0    0  0.00000000000E+00  0.00000000000E+00  0.40434665740E+03  0.42322739201E+03  0.12500082400E+03 0.  0.
    9000005    1    3    3    0    0 -0.41104816670E+02 -0.10615416617E+02  0.35744113030E+03  0.35995479529E+03  0.10000000000E+01 0.  0.
    9000005    1    3    3    0    0  0.41104816670E+02  0.10615416617E+02  0.46905527100E+02  0.63272596722E+02  0.10000000000E+01 0.  0.
<mgrwt>
<rscale>  0 0.12500082E+03</rscale>
<asrwt>0</asrwt>
<pdfrwt beam="2">  1        4 0.14523641E-02 0.12500082E+03</pdfrwt>
<pdfrwt beam="1">  1       -4 0.63659548E-01 0.12500082E+03</pdfrwt>
<totfact> 0.62353583E+03</totfact>
</mgrwt>
</event>
<event>
 5    1  0.3312706E-002  0.1249965E+03  0.7818608E-02  0.1235075E+00
          4   -1    0    0  501    0  0.00000000000E+00  0.00000000000E+00  0.20729742876E+03  0.20730131903E+03  0.12700000000E+01 0. -1.
         -4   -1    0    0    0  501 -0.00000000000E+00 -0.00000000000E+00 -0.18817175585E+02  0.18859984014E+02  0.12700000000E+01 0. -1.
         25    2    1    2    0    0  0.00000000000E+00  0.00000000000E+00  0.18848025318E+03  0.22616130304E+03  0.12499651658E+03 0.  0.
    9000005    1    3    3    0    0 -0.28108135095E+02  0.55219942106E+02  0.10890840547E+03  0.12530502801E+03  0.10000000000E+01 0.  0.
    9000005    1    3    3    0    0  0.28108135095E+02 -0.55219942106E+02  0.79571847713E+02  0.10085627503E+03  0.10000000000E+01 0.  0.
<mgrwt>
<rscale>  0 0.12499652E+03</rscale>
<asrwt>0</asrwt>
<pdfrwt beam="1">  1        4 0.31895503E-01 0.12499652E+03</pdfrwt>
<pdfrwt beam="2">  1       -4 0.28985424E-02 0.12499652E+03</pdfrwt>
<totfact> 0.85909218E+03</totfact>
</mgrwt>
</event>
<event>
 5    1  0.3312706E-002  0.1249953E+03  0.7818608E-02  0.1235077E+00
          4   -1    0    0  501    0  0.00000000000E+00  0.00000000000E+00  0.34690616376E+02  0.34713855513E+02  0.12700000000E+01 0.  1.
         -4   -1    0    0    0  501 -0.00000000000E+00 -0.00000000000E+00 -0.11252959180E+03  0.11253675813E+03  0.12700000000E+01 0.  1.
         25    2    1    2    0    0  0.00000000000E+00  0.00000000000E+00 -0.77838975420E+02  0.14725061364E+03  0.12499534841E+03 0.  0.
    9000005    1    3    3    0    0 -0.49396810855E+02 -0.26151548191E+02 -0.71841911828E+02  0.91028614680E+02  0.10000000000E+01 0.  0.
    9000005    1    3    3    0    0  0.49396810855E+02  0.26151548191E+02 -0.59970635929E+01  0.56221998961E+02  0.10000000000E+01 0.  0.
<mgrwt>
<rscale>  0 0.12499535E+03</rscale>
<asrwt>0</asrwt>
<pdfrwt beam="1">  1        4 0.53393568E-02 0.12499535E+03</pdfrwt>
<pdfrwt beam="2">  1       -4 0.17314584E-01 0.12499535E+03</pdfrwt>
<totfact> 0.99865055E+03</totfact>
</mgrwt>
</event>
<event>
 5    1  0.3312706E-002  0.1250168E+03  0.7818608E-02  0.1235043E+00
          4   -1    0    0  501    0  0.00000000000E+00  0.00000000000E+00  0.72524910529E+02  0.72536029304E+02  0.12700000000E+01 0.  1.
         -4   -1    0    0    0  501 -0.00000000000E+00 -0.00000000000E+00 -0.53852584834E+02  0.53867557893E+02  0.12700000000E+01 0.  1.
         25    2    1    2    0    0  0.00000000000E+00  0.00000000000E+00  0.18672325695E+02  0.12640358720E+03  0.12501684330E+03 0.  0.
    9000005    1    3    3    0    0 -0.55390733507E+02 -0.20400092218E+02  0.30106808959E+02  0.66270031436E+02  0.10000000000E+01 0.  0.
    9000005    1    3    3    0    0  0.55390733507E+02  0.20400092218E+02 -0.11434483264E+02  0.60133555761E+02  0.10000000000E+01 0.  0.
<mgrwt>
<rscale>  0 0.12501684E+03</rscale>
<asrwt>0</asrwt>
<pdfrwt beam="1">  1        4 0.11159686E-01 0.12501684E+03</pdfrwt>
<pdfrwt beam="2">  1       -4 0.82870201E-02 0.12501684E+03</pdfrwt>
<totfact> 0.10418170E+04</totfact>
</mgrwt>
</event>
<event>
 5    1  0.3312706E-002  0.1250025E+03  0.7818608E-02  0.1235065E+00
          4   -1    0    0  501    0  0.00000000000E+00  0.00000000000E+00  0.97451134203E+02  0.97459409281E+02  0.12700000000E+01 0. -1.
         -4   -1    0    0    0  501 -0.00000000000E+00 -0.00000000000E+00 -0.40065741469E+02  0.40085864584E+02  0.12700000000E+01 0. -1.
         25    2    1    2    0    0  0.00000000000E+00  0.00000000000E+00  0.57385392734E+02  0.13754527387E+03  0.12500247623E+03 0.  0.
    9000005    1    3    3    0    0  0.52626698960E+02 -0.10281577092E+02 -0.66233365761E+01  0.54038401700E+02  0.10000000000E+01 0.  0.
    9000005    1    3    3    0    0 -0.52626698960E+02  0.10281577092E+02  0.64008729310E+02  0.83506872165E+02  0.10000000000E+01 0.  0.
<mgrwt>
<rscale>  0 0.12500248E+03</rscale>
<asrwt>0</asrwt>
<pdfrwt beam="1">  1        4 0.14994666E-01 0.12500248E+03</pdfrwt>
<pdfrwt beam="2">  1       -4 0.61661448E-02 0.12500248E+03</pdfrwt>
<totfact> 0.10184128E+04</totfact>
</mgrwt>
</event>
<event>
 5    1  0.3312706E-002  0.1249988E+03  0.7818608E-02  0.1235071E+00
         -4   -1    0    0    0  501 -0.00000000000E+00  0.00000000000E+00  0.66456047383E+02  0.66468181364E+02  0.12700000000E+01 0.  1.
          4   -1    0    0  501    0  0.00000000000E+00 -0.00000000000E+00 -0.58753934888E+02  0.58767659175E+02  0.12700000000E+01 0.  1.
         25    2    1    2    0    0  0.00000000000E+00  0.00000000000E+00  0.77021124950E+01  0.12523584054E+03  0.12499877287E+03 0.  0.
    9000005    1    3    3    0    0 -0.15846775659E+01 -0.44354163834E+02  0.47927334507E+02  0.65328649499E+02  0.10000000000E+01 0.  0.
    9000005    1    3    3    0    0  0.15846775659E+01  0.44354163834E+02 -0.40225222012E+02  0.59907191040E+02  0.10000000000E+01 0.  0.
<mgrwt>
<rscale>  0 0.12499877E+03</rscale>
<asrwt>0</asrwt>
<pdfrwt beam="2">  1        4 0.90410561E-02 0.12499877E+03</pdfrwt>
<pdfrwt beam="1">  1       -4 0.10225996E-01 0.12499877E+03</pdfrwt>
<totfact> 0.10448032E+04</totfact>
</mgrwt>
</event>
<event>
 5    1  0.3312706E-002  0.1250009E+03  0.7818608E-02  0.1235068E+00
          4   -1    0    0  501    0  0.00000000000E+00  0.00000000000E+00  0.15355006178E+03  0.15355531372E+03  0.12700000000E+01 0. -1.
         -4   -1    0    0    0  501 -0.00000000000E+00 -0.00000000000E+00 -0.25418393996E+02  0.25450101244E+02  0.12700000000E+01 0. -1.
         25    2    1    2    0    0  0.00000000000E+00  0.00000000000E+00  0.12813166778E+03  0.17900541496E+03  0.12500085719E+03 0.  0.
    9000005    1    3    3    0    0 -0.23816037579E+02 -0.50835913573E+02  0.10338316888E+03  0.11764596620E+03  0.10000000000E+01 0.  0.
    9000005    1    3    3    0    0  0.23816037579E+02  0.50835913573E+02  0.24748498895E+02  0.61359448761E+02  0.10000000000E+01 0.  0.
<mgrwt>
<rscale>  0 0.12500086E+03</rscale>
<asrwt>0</asrwt>
<pdfrwt beam="1">  1        4 0.23625930E-01 0.12500086E+03</pdfrwt>
<pdfrwt beam="2">  1       -4 0.39133651E-02 0.12500086E+03</pdfrwt>
<totfact> 0.93794535E+03</totfact>
</mgrwt>
</event>
<event>
 5    1  0.3312706E-002  0.1249994E+03  0.7818608E-02  0.1235070E+00
         -4   -1    0    0    0  501 -0.00000000000E+00  0.00000000000E+00  0.80510398167E+03  0.80510498334E+03  0.12700000000E+01 0.  1.
          4   -1    0    0  501    0  0.00000000000E+00 -0.00000000000E+00 -0.47676824358E+01  0.49339330973E+01  0.12700000000E+01 0.  1.
         25    2    1    2    0    0  0.00000000000E+00  0.00000000000E+00  0.80033629923E+03  0.81003891644E+03  0.12499941709E+03 0.  0.
    9000005    1    3    3    0    0  0.20875587986E+02  0.93385709766E+01  0.77704413844E+03  0.77738123991E+03  0.10000000000E+01 0.  0.
    9000005    1    3    3    0    0 -0.20875587986E+02 -0.93385709766E+01  0.23292160792E+02  0.32657676525E+02  0.10000000000E+01 0.  0.
<mgrwt>
<rscale>  0 0.12499942E+03</rscale>
<asrwt>0</asrwt>
<pdfrwt beam="2">  1        4 0.74635508E-03 0.12499942E+03</pdfrwt>
<pdfrwt beam="1">  1       -4 0.12387503E+00 0.12499942E+03</pdfrwt>
<totfact> 0.37820950E+03</totfact>
</mgrwt>
</event>
<event>
 5    1  0.3312706E-002  0.1250045E+03  0.7818608E-02  0.1235062E+00
          4   -1    0    0  501    0  0.00000000000E+00  0.00000000000E+00  0.54451810607E+03  0.54451958710E+03  0.12700000000E+01 0. -1.
         -4   -1    0    0    0  501 -0.00000000000E+00 -0.00000000000E+00 -0.71165865097E+01  0.72290181595E+01  0.12700000000E+01 0. -1.
         25    2    1    2    0    0  0.00000000000E+00  0.00000000000E+00  0.53740151956E+03  0.55174860526E+03  0.12500452065E+03 0.  0.
    9000005    1    3    3    0    0 -0.28307142126E+02  0.14269673270E+02  0.30983593344E+02  0.44338481335E+02  0.10000000000E+01 0.  0.
    9000005    1    3    3    0    0  0.28307142126E+02 -0.14269673270E+02  0.50641792622E+03  0.50741012393E+03  0.10000000000E+01 0.  0.
<mgrwt>
<rscale>  0 0.12500452E+03</rscale>
<asrwt>0</asrwt>
<pdfrwt beam="1">  1        4 0.83780799E-01 0.12500452E+03</pdfrwt>
<pdfrwt beam="2">  1       -4 0.11036217E-02 0.12500452E+03</pdfrwt>
<totfact> 0.52057091E+03</totfact>
</mgrwt>
</event>
<event>
 5    1  0.3312706E-002  0.1250140E+03  0.7818608E-02  0.1235047E+00
          4   -1    0    0  501    0  0.00000000000E+00  0.00000000000E+00  0.42702766563E+03  0.42702955415E+03  0.12700000000E+01 0.  1.
         -4   -1    0    0    0  501 -0.00000000000E+00 -0.00000000000E+00 -0.91036011920E+01  0.91917601504E+01  0.12700000000E+01 0.  1.
         25    2    1    2    0    0  0.00000000000E+00  0.00000000000E+00  0.41792406444E+03  0.43622131430E+03  0.12501404485E+03 0.  0.
    9000005    1    3    3    0    0 -0.27030568430E+02 -0.45561687024E+01  0.12974558127E+02  0.30343853768E+02  0.10000000000E+01 0.  0.
    9000005    1    3    3    0    0  0.27030568430E+02  0.45561687024E+01  0.40494950632E+03  0.40587746053E+03  0.10000000000E+01 0.  0.
<mgrwt>
<rscale>  0 0.12501404E+03</rscale>
<asrwt>0</asrwt>
<pdfrwt beam="1">  1        4 0.65703502E-01 0.12501404E+03</pdfrwt>
<pdfrwt beam="2">  1       -4 0.14074805E-02 0.12501404E+03</pdfrwt>
<totfact> 0.61157144E+03</totfact>
</mgrwt>
</event>
<event>
 5    1  0.3312706E-002  0.1249950E+03  0.7818608E-02  0.1235077E+00
         -4   -1    0    0    0  501 -0.00000000000E+00  0.00000000000E+00  0.79144298894E+01  0.80156784163E+01  0.12700000000E+01 0. -1.
          4   -1    0    0  501    0  0.00000000000E+00 -0.00000000000E+00 -0.49028195673E+03  0.49028360160E+03  0.12700000000E+01 0. -1.
         25    2    1    2    0    0  0.00000000000E+00  0.00000000000E+00 -0.48236752684E+03  0.49829928002E+03  0.12499496594E+03 0.  0.
    9000005    1    3    3    0    0  0.47659485562E+02  0.39415774344E+02 -0.27681953780E+03  0.28364605821E+03  0.10000000000E+01 0.  0.
    9000005    1    3    3    0    0 -0.47659485562E+02 -0.39415774344E+02 -0.20554798904E+03  0.21465322181E+03  0.10000000000E+01 0.  0.
<mgrwt>
<rscale>  0 0.12499497E+03</rscale>
<asrwt>0</asrwt>
<pdfrwt beam="2">  1        4 0.75435885E-01 0.12499497E+03</pdfrwt>
<pdfrwt beam="1">  1       -4 0.12255199E-02 0.12499497E+03</pdfrwt>
<totfact> 0.56002773E+03</totfact>
</mgrwt>
</event>
<event>
 5    1  0.3312706E-002  0.1250038E+03  0.7818608E-02  0.1235063E+00
         -4   -1    0    0    0  501 -0.00000000000E+00  0.00000000000E+00  0.14253599267E+03  0.14254165042E+03  0.12700000000E+01 0.  1.
          4   -1    0    0  501    0  0.00000000000E+00 -0.00000000000E+00 -0.27386107630E+02  0.27415539228E+02  0.12700000000E+01 0.  1.
         25    2    1    2    0    0  0.00000000000E+00  0.00000000000E+00  0.11514988504E+03  0.16995718965E+03  0.12500380110E+03 0.  0.
    9000005    1    3    3    0    0 -0.46803022407E+02  0.33991928504E+02  0.89735353672E+02  0.10676800929E+03  0.10000000000E+01 0.  0.
    9000005    1    3    3    0    0  0.46803022407E+02 -0.33991928504E+02  0.25414531365E+02  0.63189180359E+02  0.10000000000E+01 0.  0.
<mgrwt>
<rscale>  0 0.12500380E+03</rscale>
<asrwt>0</asrwt>
<pdfrwt beam="2">  1        4 0.42159466E-02 0.12500380E+03</pdfrwt>
<pdfrwt beam="1">  1       -4 0.21931313E-01 0.12500380E+03</pdfrwt>
<totfact> 0.95448473E+03</totfact>
</mgrwt>
</event>
<event>
 5    1  0.3312706E-002  0.1249952E+03  0.7818608E-02  0.1235077E+00
          4   -1    0    0  501    0  0.00000000000E+00  0.00000000000E+00  0.30054332611E+02  0.30081153713E+02  0.12700000000E+01 0. -1.
         -4   -1    0    0    0  501 -0.00000000000E+00 -0.00000000000E+00 -0.12987499694E+03  0.12988120623E+03  0.12700000000E+01 0. -1.
         25    2    1    2    0    0  0.00000000000E+00  0.00000000000E+00 -0.99820664332E+02  0.15996235994E+03  0.12499516618E+03 0.  0.
    9000005    1    3    3    0    0 -0.12436323095E+02  0.34531016531E+02 -0.11463441601E+03  0.12037068817E+03  0.10000000000E+01 0.  0.
    9000005    1    3    3    0    0  0.12436323095E+02 -0.34531016531E+02  0.14813751683E+02  0.39591671772E+02  0.10000000000E+01 0.  0.
<mgrwt>
<rscale>  0 0.12499517E+03</rscale>
<asrwt>0</asrwt>
<pdfrwt beam="1">  1        4 0.46262843E-02 0.12499517E+03</pdfrwt>
<pdfrwt beam="2">  1       -4 0.19983309E-01 0.12499517E+03</pdfrwt>
<totfact> 0.97360620E+03</totfact>
</mgrwt>
</event>
<event>
 5    1  0.3312706E-002  0.1249923E+03  0.7818608E-02  0.1235081E+00
         -4   -1    0    0    0  501 -0.00000000000E+00  0.00000000000E+00  0.66889424457E+02  0.66901479836E+02  0.12700000000E+01 0.  1.
          4   -1    0    0  501    0  0.00000000000E+00 -0.00000000000E+00 -0.58367162583E+02  0.58380977792E+02  0.12700000000E+01 0.  1.
         25    2    1    2    0    0  0.00000000000E+00  0.00000000000E+00  0.85222618747E+01  0.12528245763E+03  0.12499226073E+03 0.  0.
    9000005    1    3    3    0    0 -0.16809916590E+01  0.25533259120E+01 -0.58297083935E+02  0.58385744849E+02  0.10000000000E+01 0.  0.
    9000005    1    3    3    0    0  0.16809916590E+01 -0.25533259120E+01  0.66819345810E+02  0.66896712779E+02  0.10000000000E+01 0.  0.
<mgrwt>
<rscale>  0 0.12499226E+03</rscale>
<asrwt>0</asrwt>
<pdfrwt beam="2">  1        4 0.89815535E-02 0.12499226E+03</pdfrwt>
<pdfrwt beam="1">  1       -4 0.10292671E-01 0.12499226E+03</pdfrwt>
<totfact> 0.10448558E+04</totfact>
</mgrwt>
</event>
<event>
 5    1  0.3312706E-002  0.1250010E+03  0.7818608E-02  0.1235068E+00
          4   -1    0    0  501    0  0.00000000000E+00  0.00000000000E+00  0.10288546015E+03  0.10289329818E+03  0.12700000000E+01 0.  1.
         -4   -1    0    0    0  501 -0.00000000000E+00 -0.00000000000E+00 -0.37947705266E+02  0.37968950933E+02  0.12700000000E+01 0.  1.
         25    2    1    2    0    0  0.00000000000E+00  0.00000000000E+00  0.64937754888E+02  0.14086224912E+03  0.12500104486E+03 0.  0.
    9000005    1    3    3    0    0  0.52312002939E+02  0.68687429078E+01 -0.52707878343E+01  0.53033069730E+02  0.10000000000E+01 0.  0.
    9000005    1    3    3    0    0 -0.52312002939E+02 -0.68687429078E+01  0.70208542723E+02  0.87829179387E+02  0.10000000000E+01 0.  0.
<mgrwt>
<rscale>  0 0.12500104E+03</rscale>
<asrwt>0</asrwt>
<pdfrwt beam="1">  1        4 0.15830770E-01 0.12500104E+03</pdfrwt>
<pdfrwt beam="2">  1       -4 0.58403457E-02 0.12500104E+03</pdfrwt>
<totfact> 0.10115508E+04</totfact>
</mgrwt>
</event>
<event>
 5    1  0.3312706E-002  0.1250012E+03  0.7818608E-02  0.1235067E+00
          4   -1    0    0  501    0  0.00000000000E+00  0.00000000000E+00  0.55899846481E+03  0.55899990748E+03  0.12700000000E+01 0.  1.
         -4   -1    0    0    0  501 -0.00000000000E+00 -0.00000000000E+00 -0.69289119545E+01  0.70443396336E+01  0.12700000000E+01 0.  1.
         25    2    1    2    0    0  0.00000000000E+00  0.00000000000E+00  0.55206955285E+03  0.56604424711E+03  0.12500119398E+03 0.  0.
    9000005    1    3    3    0    0 -0.67972426284E+01 -0.60081346021E+02  0.20452846608E+03  0.21328118549E+03  0.10000000000E+01 0.  0.
    9000005    1    3    3    0    0  0.67972426284E+01  0.60081346021E+02  0.34754108678E+03  0.35276306162E+03  0.10000000000E+01 0.  0.
<mgrwt>
<rscale>  0 0.12500119E+03</rscale>
<asrwt>0</asrwt>
<pdfrwt beam="1">  1        4 0.86008745E-01 0.12500119E+03</pdfrwt>
<pdfrwt beam="2">  1       -4 0.10749766E-02 0.12500119E+03</pdfrwt>
<totfact> 0.51082293E+03</totfact>
</mgrwt>
</event>
<event>
 5    1  0.3312706E-002  0.1250027E+03  0.7818608E-02  0.1235065E+00
         -4   -1    0    0    0  501 -0.00000000000E+00  0.00000000000E+00  0.25169156317E+03  0.25169476727E+03  0.12700000000E+01 0.  1.
          4   -1    0    0  501    0  0.00000000000E+00 -0.00000000000E+00 -0.15491378201E+02  0.15543349013E+02  0.12700000000E+01 0.  1.
         25    2    1    2    0    0  0.00000000000E+00  0.00000000000E+00  0.23620018497E+03  0.26723811628E+03  0.12500273363E+03 0.  0.
    9000005    1    3    3    0    0 -0.24057536304E+02 -0.57567996911E+02  0.12568317291E+03  0.14032141417E+03  0.10000000000E+01 0.  0.
    9000005    1    3    3    0    0  0.24057536304E+02  0.57567996911E+02  0.11051701206E+03  0.12691670212E+03  0.10000000000E+01 0.  0.
<mgrwt>
<rscale>  0 0.12500273E+03</rscale>
<asrwt>0</asrwt>
<pdfrwt beam="2">  1        4 0.23875330E-02 0.12500273E+03</pdfrwt>
<pdfrwt beam="1">  1       -4 0.38726026E-01 0.12500273E+03</pdfrwt>
<totfact> 0.79896041E+03</totfact>
</mgrwt>
</event>
<event>
 5    1  0.3312706E-002  0.1250011E+03  0.7818608E-02  0.1235068E+00
         -4   -1    0    0    0  501 -0.00000000000E+00  0.00000000000E+00  0.61592474961E+03  0.61592605894E+03  0.12700000000E+01 0. -1.
          4   -1    0    0  501    0  0.00000000000E+00 -0.00000000000E+00 -0.62772954365E+01  0.64044779644E+01  0.12700000000E+01 0. -1.
         25    2    1    2    0    0  0.00000000000E+00  0.00000000000E+00  0.60964745418E+03  0.62233053691E+03  0.12500111513E+03 0.  0.
    9000005    1    3    3    0    0 -0.24884444001E+02 -0.54282896421E+02  0.21309698644E+03  0.22130791678E+03  0.10000000000E+01 0.  0.
    9000005    1    3    3    0    0  0.24884444001E+02  0.54282896421E+02  0.39655046773E+03  0.40102262013E+03  0.10000000000E+01 0.  0.
<mgrwt>
<rscale>  0 0.12500112E+03</rscale>
<asrwt>0</asrwt>
<pdfrwt beam="2">  1        4 0.97562194E-03 0.12500112E+03</pdfrwt>
<pdfrwt beam="1">  1       -4 0.94767519E-01 0.12500112E+03</pdfrwt>
<totfact> 0.47486560E+03</totfact>
</mgrwt>
</event>
<event>
 5    1  0.3312706E-002  0.1249989E+03  0.7818608E-02  0.1235071E+00
          4   -1    0    0  501    0  0.00000000000E+00  0.00000000000E+00  0.81725275841E+02  0.81735143062E+02  0.12700000000E+01 0. -1.
         -4   -1    0    0    0  501 -0.00000000000E+00 -0.00000000000E+00 -0.47775316726E+02  0.47792193801E+02  0.12700000000E+01 0. -1.
         25    2    1    2    0    0  0.00000000000E+00  0.00000000000E+00  0.33949959115E+02  0.12952733686E+03  0.12499892508E+03 0.  0.
    9000005    1    3    3    0    0 -0.45980779975E+02  0.41303724538E+02  0.74240730362E+01  0.62260313589E+02  0.10000000000E+01 0.  0.
    9000005    1    3    3    0    0  0.45980779975E+02 -0.41303724538E+02  0.26525886079E+02  0.67267023273E+02  0.10000000000E+01 0.  0.
<mgrwt>
<rscale>  0 0.12499893E+03</rscale>
<asrwt>0</asrwt>
<pdfrwt beam="1">  1        4 0.12575176E-01 0.12499893E+03</pdfrwt>
<pdfrwt beam="2">  1       -4 0.73521061E-02 0.12499893E+03</pdfrwt>
<totfact> 0.10354880E+04</totfact>
</mgrwt>
</event>
<event>
 5    1  0.3312706E-002  0.1250007E+03  0.7818608E-02  0.1235068E+00
         -4   -1    0    0    0  501 -0.00000000000E+00  0.00000000000E+00  0.19726884378E+03  0.19727293181E+03  0.12700000000E+01 0. -1.
          4   -1    0    0  501    0  0.00000000000E+00 -0.00000000000E+00 -0.19777222216E+02  0.19817956973E+02  0.12700000000E+01 0. -1.
         25    2    1    2    0    0  0.00000000000E+00  0.00000000000E+00  0.17749162156E+03  0.21709088878E+03  0.12500071307E+03 0.  0.
    9000005    1    3    3    0    0  0.39017810704E+02 -0.35699799907E+02  0.30925142725E+02  0.61271769340E+02  0.10000000000E+01 0.  0.
    9000005    1    3    3    0    0 -0.39017810704E+02  0.35699799907E+02  0.14656647884E+03  0.15581911944E+03  0.10000000000E+01 0.  0.
<mgrwt>
<rscale>  0 0.12500071E+03</rscale>
<asrwt>0</asrwt>
<pdfrwt beam="2">  1        4 0.30460975E-02 0.12500071E+03</pdfrwt>
<pdfrwt beam="1">  1       -4 0.30352500E-01 0.12500071E+03</pdfrwt>
<totfact> 0.87329390E+03</totfact>
</mgrwt>
</event>
<event>
 5    1  0.3312706E-002  0.1250088E+03  0.7818608E-02  0.1235056E+00
          4   -1    0    0  501    0  0.00000000000E+00  0.00000000000E+00  0.52928995300E+02  0.52944229558E+02  0.12700000000E+01 0.  1.
         -4   -1    0    0    0  501 -0.00000000000E+00 -0.00000000000E+00 -0.73780733021E+02  0.73791662572E+02  0.12700000000E+01 0.  1.
         25    2    1    2    0    0  0.00000000000E+00  0.00000000000E+00 -0.20851737721E+02  0.12673589213E+03  0.12500876524E+03 0.  0.
    9000005    1    3    3    0    0  0.20137312763E+01  0.62463884099E+02 -0.10503850716E+02  0.63380776347E+02  0.10000000000E+01 0.  0.
    9000005    1    3    3    0    0 -0.20137312763E+01 -0.62463884099E+02 -0.10347887005E+02  0.63355115783E+02  0.10000000000E+01 0.  0.
<mgrwt>
<rscale>  0 0.12500877E+03</rscale>
<asrwt>0</asrwt>
<pdfrwt beam="1">  1        4 0.81449350E-02 0.12500877E+03</pdfrwt>
<pdfrwt beam="2">  1       -4 0.11352895E-01 0.12500877E+03</pdfrwt>
<totfact> 0.10412828E+04</totfact>
</mgrwt>
</event>
<event>
 5    1  0.3312706E-002  0.1250007E+03  0.7818608E-02  0.1235068E+00
         -4   -1    0    0    0  501 -0.00000000000E+00  0.00000000000E+00  0.14048586400E+02  0.14105873948E+02  0.12700000000E+01 0.  1.
          4   -1    0    0  501    0  0.00000000000E+00 -0.00000000000E+00 -0.27743143418E+03  0.27743434101E+03  0.12700000000E+01 0.  1.
         25    2    1    2    0    0  0.00000000000E+00  0.00000000000E+00 -0.26338284778E+03  0.29154021496E+03  0.12500068973E+03 0.  0.
    9000005    1    3    3    0    0 -0.21032677279E+02  0.58770110248E+02 -0.12469693266E+03  0.13945115412E+03  0.10000000000E+01 0.  0.
    9000005    1    3    3    0    0  0.21032677279E+02 -0.58770110248E+02 -0.13868591512E+03  0.15208906083E+03  0.10000000000E+01 0.  0.
<mgrwt>
<rscale>  0 0.12500069E+03</rscale>
<asrwt>0</asrwt>
<pdfrwt beam="2">  1        4 0.42686385E-01 0.12500069E+03</pdfrwt>
<pdfrwt beam="1">  1       -4 0.21659515E-02 0.12500069E+03</pdfrwt>
<totfact> 0.76671249E+03</totfact>
</mgrwt>
</event>
<event>
 5    1  0.3312706E-002  0.1249988E+03  0.7818608E-02  0.1235071E+00
         -4   -1    0    0    0  501 -0.00000000000E+00  0.00000000000E+00  0.43099337526E+02  0.43118044890E+02  0.12700000000E+01 0. -1.
          4   -1    0    0  501    0  0.00000000000E+00 -0.00000000000E+00 -0.90589121745E+02  0.90598023591E+02  0.12700000000E+01 0. -1.
         25    2    1    2    0    0  0.00000000000E+00  0.00000000000E+00 -0.47489784219E+02  0.13371606848E+03  0.12499882945E+03 0.  0.
    9000005    1    3    3    0    0  0.88292386857E+01  0.60542732192E+02 -0.10137793837E+02  0.62025420119E+02  0.10000000000E+01 0.  0.
    9000005    1    3    3    0    0 -0.88292386857E+01 -0.60542732192E+02 -0.37351990383E+02  0.71690648362E+02  0.10000000000E+01 0.  0.
<mgrwt>
<rscale>  0 0.12499883E+03</rscale>
<asrwt>0</asrwt>
<pdfrwt beam="2">  1        4 0.13938912E-01 0.12499883E+03</pdfrwt>
<pdfrwt beam="1">  1       -4 0.66327911E-02 0.12499883E+03</pdfrwt>
<totfact> 0.10265475E+04</totfact>
</mgrwt>
</event>
<event>
 5    1  0.3312706E-002  0.1250011E+03  0.7818608E-02  0.1235068E+00
          4   -1    0    0  501    0  0.00000000000E+00  0.00000000000E+00  0.85854926602E+02  0.85864319260E+02  0.12700000000E+01 0. -1.
         -4   -1    0    0    0  501 -0.00000000000E+00 -0.00000000000E+00 -0.45478310026E+02  0.45496039199E+02  0.12700000000E+01 0. -1.
         25    2    1    2    0    0  0.00000000000E+00  0.00000000000E+00  0.40376616577E+02  0.13136035846E+03  0.12500109043E+03 0.  0.
    9000005    1    3    3    0    0  0.52174077279E+02  0.28883113958E+02  0.55778672306E+00  0.59646288551E+02  0.10000000000E+01 0.  0.
    9000005    1    3    3    0    0 -0.52174077279E+02 -0.28883113958E+02  0.39818829854E+02  0.71714069908E+02  0.10000000000E+01 0.  0.
<mgrwt>
<rscale>  0 0.12500109E+03</rscale>
<asrwt>0</asrwt>
<pdfrwt beam="1">  1        4 0.13210536E-01 0.12500109E+03</pdfrwt>
<pdfrwt beam="2">  1       -4 0.69987495E-02 0.12500109E+03</pdfrwt>
<totfact> 0.10315116E+04</totfact>
</mgrwt>
</event>
<event>
 4    1  0.3312706E-002  0.1253345E+03  0.7818608E-02  0.1234547E+00
          4   -1    0    0  501    0  0.00000000000E+00  0.00000000000E+00  0.71956671030E+03  0.71956783104E+03  0.12700000000E+01 0. -1.
         -4   -1    0    0    0  501 -0.00000000000E+00 -0.00000000000E+00 -0.53826817606E+01  0.55304758327E+01  0.12700000000E+01 0. -1.
    9000005    1    1    2    0    0 -0.50501518574E+02 -0.27285955065E+02  0.21173737650E+03  0.21938241345E+03  0.10000000000E+01 0.  0.
    9000005    1    1    2    0    0  0.50501518574E+02  0.27285955065E+02  0.50244665204E+03  0.50571589343E+03  0.10000000000E+01 0.  0.
<mgrwt>
<rscale>  0 0.12533446E+03</rscale>
<asrwt>0</asrwt>
<pdfrwt beam="1">  1        4 0.11071403E+00 0.12533446E+03</pdfrwt>
<pdfrwt beam="2">  1       -4 0.83955982E-03 0.12533446E+03</pdfrwt>
<totfact> 0.41490177E+03</totfact>
</mgrwt>
</event>
<event>
 5    1  0.3312706E-002  0.1250044E+03  0.7818608E-02  0.1235062E+00
          4   -1    0    0  501    0  0.00000000000E+00  0.00000000000E+00  0.47448598152E+02  0.47465591396E+02  0.12700000000E+01 0. -1.
         -4   -1    0    0    0  501 -0.00000000000E+00 -0.00000000000E+00 -0.82295030502E+02  0.82304829417E+02  0.12700000000E+01 0. -1.
         25    2    1    2    0    0  0.00000000000E+00  0.00000000000E+00 -0.34846432350E+02  0.12977042081E+03  0.12500435301E+03 0.  0.
    9000005    1    3    3    0    0 -0.29259627878E+02 -0.29522511164E+02  0.31023163206E+02  0.51876209810E+02  0.10000000000E+01 0.  0.
    9000005    1    3    3    0    0  0.29259627878E+02  0.29522511164E+02 -0.65869595556E+02  0.77894211003E+02  0.10000000000E+01 0.  0.
<mgrwt>
<rscale>  0 0.12500435E+03</rscale>
<asrwt>0</asrwt>
<pdfrwt beam="1">  1        4 0.73018453E-02 0.12500435E+03</pdfrwt>
<pdfrwt beam="2">  1       -4 0.12662835E-01 0.12500435E+03</pdfrwt>
<totfact> 0.10348404E+04</totfact>
</mgrwt>
</event>
<event>
 5    1  0.3312706E-002  0.1250006E+03  0.7818608E-02  0.1235068E+00
         -4   -1    0    0    0  501 -0.00000000000E+00  0.00000000000E+00  0.32438160767E+02  0.32463012398E+02  0.12700000000E+01 0.  1.
          4   -1    0    0  501    0  0.00000000000E+00 -0.00000000000E+00 -0.12034818598E+03  0.12035488677E+03  0.12700000000E+01 0.  1.
         25    2    1    2    0    0  0.00000000000E+00  0.00000000000E+00 -0.87910025213E+02  0.15281789916E+03  0.12500055109E+03 0.  0.
    9000005    1    3    3    0    0 -0.37805248643E+02  0.47515942174E+01 -0.10451038381E+03  0.11124403264E+03  0.10000000000E+01 0.  0.
    9000005    1    3    3    0    0  0.37805248643E+02 -0.47515942174E+01  0.16600358598E+02  0.41573866529E+02  0.10000000000E+01 0.  0.
<mgrwt>
<rscale>  0 0.12500055E+03</rscale>
<asrwt>0</asrwt>
<pdfrwt beam="2">  1        4 0.18517532E-01 0.12500055E+03</pdfrwt>
<pdfrwt beam="1">  1       -4 0.49929134E-02 0.12500055E+03</pdfrwt>
<totfact> 0.98743705E+03</totfact>
</mgrwt>
</event>
<event>
 5    1  0.3312706E-002  0.1250003E+03  0.7818608E-02  0.1235069E+00
         -4   -1    0    0    0  501 -0.00000000000E+00  0.00000000000E+00  0.11937883792E+02  0.12005247579E+02  0.12700000000E+01 0. -1.
          4   -1    0    0  501    0  0.00000000000E+00 -0.00000000000E+00 -0.32622678311E+03  0.32622925516E+03  0.12700000000E+01 0. -1.
         25    2    1    2    0    0  0.00000000000E+00  0.00000000000E+00 -0.31428889932E+03  0.33823450274E+03  0.12500026642E+03 0.  0.
    9000005    1    3    3    0    0  0.46975734151E+02  0.20199083623E+02 -0.25435052049E+03  0.25944153455E+03  0.10000000000E+01 0.  0.
    9000005    1    3    3    0    0 -0.46975734151E+02 -0.20199083623E+02 -0.59938378837E+02  0.78792968188E+02  0.10000000000E+01 0.  0.
<mgrwt>
<rscale>  0 0.12500027E+03</rscale>
<asrwt>0</asrwt>
<pdfrwt beam="2">  1        4 0.50194101E-01 0.12500027E+03</pdfrwt>
<pdfrwt beam="1">  1       -4 0.18419697E-02 0.12500027E+03</pdfrwt>
<totfact> 0.71038182E+03</totfact>
</mgrwt>
</event>
<event>
 5    1  0.3312706E-002  0.1249784E+03  0.7818608E-02  0.1235103E+00
         -4   -1    0    0    0  501 -0.00000000000E+00  0.00000000000E+00  0.79157848740E+02  0.79168035956E+02  0.12700000000E+01 0. -1.
          4   -1    0    0  501    0  0.00000000000E+00 -0.00000000000E+00 -0.49309019455E+02  0.49325371764E+02  0.12700000000E+01 0. -1.
         25    2    1    2    0    0  0.00000000000E+00  0.00000000000E+00  0.29848829285E+02  0.12849340772E+03  0.12497841101E+03 0.  0.
    9000005    1    3    3    0    0  0.43030058234E+02  0.44596094967E+02  0.23117428244E+02  0.66149928848E+02  0.10000000000E+01 0.  0.
    9000005    1    3    3    0    0 -0.43030058234E+02 -0.44596094967E+02  0.67314010411E+01  0.62343478872E+02  0.10000000000E+01 0.  0.
<mgrwt>
<rscale>  0 0.12497841E+03</rscale>
<asrwt>0</asrwt>
<pdfrwt beam="2">  1        4 0.75880447E-02 0.12497841E+03</pdfrwt>
<pdfrwt beam="1">  1       -4 0.12180172E-01 0.12497841E+03</pdfrwt>
<totfact> 0.10381905E+04</totfact>
</mgrwt>
</event>
<event>
 5    1  0.3312706E-002  0.1250155E+03  0.7818608E-02  0.1235045E+00
         -4   -1    0    0    0  501 -0.00000000000E+00  0.00000000000E+00  0.66220671021E+03  0.66220792803E+03  0.12700000000E+01 0.  1.
          4   -1    0    0  501    0  0.00000000000E+00 -0.00000000000E+00 -0.58307240150E+01  0.59674318210E+01  0.12700000000E+01 0.  1.
         25    2    1    2    0    0  0.00000000000E+00  0.00000000000E+00  0.65637598620E+03  0.66817535985E+03  0.12501550408E+03 0.  0.
    9000005    1    3    3    0    0  0.46911363971E-01  0.43074634729E+02  0.86147815976E+02  0.96321713830E+02  0.10000000000E+01 0.  0.
    9000005    1    3    3    0    0 -0.46911363971E-01 -0.43074634729E+02  0.57022817022E+03  0.57185364602E+03  0.10000000000E+01 0.  0.
<mgrwt>
<rscale>  0 0.12501550E+03</rscale>
<asrwt>0</asrwt>
<pdfrwt beam="2">  1        4 0.90764482E-03 0.12501550E+03</pdfrwt>
<pdfrwt beam="1">  1       -4 0.10188849E+00 0.12501550E+03</pdfrwt>
<totfact> 0.44805542E+03</totfact>
</mgrwt>
</event>
<event>
 5    1  0.3312706E-002  0.1249986E+03  0.7818608E-02  0.1235072E+00
          4   -1    0    0  501    0  0.00000000000E+00  0.00000000000E+00  0.17290220529E+02  0.17336799761E+02  0.12700000000E+01 0.  1.
         -4   -1    0    0    0  501 -0.00000000000E+00 -0.00000000000E+00 -0.22556500977E+03  0.22556858498E+03  0.12700000000E+01 0.  1.
         25    2    1    2    0    0  0.00000000000E+00  0.00000000000E+00 -0.20827478924E+03  0.24290538474E+03  0.12499855241E+03 0.  0.
    9000005    1    3    3    0    0 -0.36822192554E+02 -0.48396379275E+02 -0.13210125879E+03  0.14542979738E+03  0.10000000000E+01 0.  0.
    9000005    1    3    3    0    0  0.36822192554E+02  0.48396379275E+02 -0.76173530446E+02  0.97475587365E+02  0.10000000000E+01 0.  0.
<mgrwt>
<rscale>  0 0.12499855E+03</rscale>
<asrwt>0</asrwt>
<pdfrwt beam="1">  1        4 0.26638921E-02 0.12499855E+03</pdfrwt>
<pdfrwt beam="2">  1       -4 0.34706165E-01 0.12499855E+03</pdfrwt>
<totfact> 0.83369247E+03</totfact>
</mgrwt>
</event>
<event>
 5    1  0.3312706E-002  0.1249995E+03  0.7818608E-02  0.1235070E+00
          4   -1    0    0  501    0  0.00000000000E+00  0.00000000000E+00  0.21596892643E+03  0.21597266050E+03  0.12700000000E+01 0.  1.
         -4   -1    0    0    0  501 -0.00000000000E+00 -0.00000000000E+00 -0.18060758617E+02  0.18105355611E+02  0.12700000000E+01 0.  1.
         25    2    1    2    0    0  0.00000000000E+00  0.00000000000E+00  0.19790816781E+03  0.23407801611E+03  0.12499949896E+03 0.  0.
    9000005    1    3    3    0    0 -0.60100141907E+01  0.39798559382E+02  0.18847240036E+03  0.19272491094E+03  0.10000000000E+01 0.  0.
    9000005    1    3    3    0    0  0.60100141907E+01 -0.39798559382E+02  0.94357674470E+01  0.41353105165E+02  0.10000000000E+01 0.  0.
<mgrwt>
<rscale>  0 0.12499950E+03</rscale>
<asrwt>0</asrwt>
<pdfrwt beam="1">  1        4 0.33229706E-01 0.12499950E+03</pdfrwt>
<pdfrwt beam="2">  1       -4 0.27822960E-02 0.12499950E+03</pdfrwt>
<totfact> 0.84688268E+03</totfact>
</mgrwt>
</event>
<event>
 5    1  0.3312706E-002  0.1249834E+03  0.7818608E-02  0.1235095E+00
         -4   -1    0    0    0  501 -0.00000000000E+00  0.00000000000E+00  0.20619956023E+02  0.20659029173E+02  0.12700000000E+01 0. -1.
          4   -1    0    0  501    0  0.00000000000E+00 -0.00000000000E+00 -0.18916959220E+03  0.18917385526E+03  0.12700000000E+01 0. -1.
         25    2    1    2    0    0  0.00000000000E+00  0.00000000000E+00 -0.16854963618E+03  0.20983288443E+03  0.12498343704E+03 0.  0.
    9000005    1    3    3    0    0  0.22294802269E+02  0.33388446228E+01  0.13562714166E+02  0.26327804831E+02  0.10000000000E+01 0.  0.
    9000005    1    3    3    0    0 -0.22294802269E+02 -0.33388446228E+01 -0.18211235034E+03  0.18350507960E+03  0.10000000000E+01 0.  0.
<mgrwt>
<rscale>  0 0.12498344E+03</rscale>
<asrwt>0</asrwt>
<pdfrwt beam="2">  1        4 0.29106347E-01 0.12498344E+03</pdfrwt>
<pdfrwt beam="1">  1       -4 0.31756346E-02 0.12498344E+03</pdfrwt>
<totfact> 0.88535961E+03</totfact>
</mgrwt>
</event>
<event>
 5    1  0.3312706E-002  0.1249970E+03  0.7818608E-02  0.1235074E+00
          4   -1    0    0  501    0  0.00000000000E+00  0.00000000000E+00  0.61026809606E+03  0.61026941753E+03  0.12700000000E+01 0.  1.
         -4   -1    0    0    0  501 -0.00000000000E+00 -0.00000000000E+00 -0.63362285613E+01  0.64622513400E+01  0.12700000000E+01 0.  1.
         25    2    1    2    0    0  0.00000000000E+00  0.00000000000E+00  0.60393186750E+03  0.61673166887E+03  0.12499700318E+03 0.  0.
    9000005    1    3    3    0    0 -0.50440781189E+02 -0.35413041412E+02  0.25099851021E+03  0.25845620139E+03  0.10000000000E+01 0.  0.
    9000005    1    3    3    0    0  0.50440781189E+02  0.35413041412E+02  0.35293335730E+03  0.35827546748E+03  0.10000000000E+01 0.  0.
<mgrwt>
<rscale>  0 0.12499700E+03</rscale>
<asrwt>0</asrwt>
<pdfrwt beam="1">  1        4 0.93897240E-01 0.12499700E+03</pdfrwt>
<pdfrwt beam="2">  1       -4 0.98459963E-03 0.12499700E+03</pdfrwt>
<totfact> 0.47831333E+03</totfact>
</mgrwt>
</event>
<event>
 5    1  0.3312706E-002  0.1249987E+03  0.7818608E-02  0.1235071E+00
          4   -1    0    0  501    0  0.00000000000E+00  0.00000000000E+00  0.80936755373E+01  0.81927091797E+01  0.12700000000E+01 0.  1.
         -4   -1    0    0    0  501 -0.00000000000E+00 -0.00000000000E+00 -0.47958525443E+03  0.47958693598E+03  0.12700000000E+01 0.  1.
         25    2    1    2    0    0  0.00000000000E+00  0.00000000000E+00 -0.47149157889E+03  0.48777964516E+03  0.12499869307E+03 0.  0.
    9000005    1    3    3    0    0 -0.54455169166E+02  0.28445699490E+02 -0.19114272691E+03  0.20077615725E+03  0.10000000000E+01 0.  0.
    9000005    1    3    3    0    0  0.54455169166E+02 -0.28445699490E+02 -0.28034885197E+03  0.28700348791E+03  0.10000000000E+01 0.  0.
<mgrwt>
<rscale>  0 0.12499869E+03</rscale>
<asrwt>0</asrwt>
<pdfrwt beam="1">  1        4 0.12529285E-02 0.12499869E+03</pdfrwt>
<pdfrwt beam="2">  1       -4 0.73790072E-01 0.12499869E+03</pdfrwt>
<totfact> 0.56826783E+03</totfact>
</mgrwt>
</event>
<event>
 5    1  0.3312706E-002  0.1250069E+03  0.7818608E-02  0.1235058E+00
          4   -1    0    0  501    0  0.00000000000E+00  0.00000000000E+00  0.31770278849E+02  0.31795652503E+02  0.12700000000E+01 0.  1.
         -4   -1    0    0    0  501 -0.00000000000E+00 -0.00000000000E+00 -0.12288885702E+03  0.12289541928E+03  0.12700000000E+01 0.  1.
         25    2    1    2    0    0  0.00000000000E+00  0.00000000000E+00 -0.91118578176E+02  0.15469107179E+03  0.12500692941E+03 0.  0.
    9000005    1    3    3    0    0  0.28253687997E+02  0.22885282800E+02 -0.10845922317E+03  0.11439584846E+03  0.10000000000E+01 0.  0.
    9000005    1    3    3    0    0 -0.28253687997E+02 -0.22885282800E+02  0.17340644993E+02  0.40295223328E+02  0.10000000000E+01 0.  0.
<mgrwt>
<rscale>  0 0.12500693E+03</rscale>
<asrwt>0</asrwt>
<pdfrwt beam="1">  1        4 0.48901919E-02 0.12500693E+03</pdfrwt>
<pdfrwt beam="2">  1       -4 0.18908434E-01 0.12500693E+03</pdfrwt>
<totfact> 0.98360850E+03</totfact>
</mgrwt>
</event>
<event>
 5    1  0.3312706E-002  0.1250014E+03  0.7818608E-02  0.1235067E+00
         -4   -1    0    0    0  501 -0.00000000000E+00  0.00000000000E+00  0.95106976313E+02  0.95115455334E+02  0.12700000000E+01 0. -1.
          4   -1    0    0  501    0  0.00000000000E+00 -0.00000000000E+00 -0.41052932730E+02  0.41072572183E+02  0.12700000000E+01 0. -1.
         25    2    1    2    0    0  0.00000000000E+00  0.00000000000E+00  0.54054043583E+02  0.13618802752E+03  0.12500135684E+03 0.  0.
    9000005    1    3    3    0    0 -0.45915318810E+02  0.23922898472E+02 -0.11102304969E+02  0.52960199663E+02  0.10000000000E+01 0.  0.
    9000005    1    3    3    0    0  0.45915318810E+02 -0.23922898472E+02  0.65156348552E+02  0.83227827854E+02  0.10000000000E+01 0.  0.
<mgrwt>
<rscale>  0 0.12500136E+03</rscale>
<asrwt>0</asrwt>
<pdfrwt beam="2">  1        4 0.63179989E-02 0.12500136E+03</pdfrwt>
<pdfrwt beam="1">  1       -4 0.14634005E-01 0.12500136E+03</pdfrwt>
<totfact> 0.10212778E+04</totfact>
</mgrwt>
</event>
<event>
 5    1  0.3312706E-002  0.1249980E+03  0.7818608E-02  0.1235072E+00
         -4   -1    0    0    0  501 -0.00000000000E+00  0.00000000000E+00  0.26485579238E+03  0.26485883723E+03  0.12700000000E+01 0. -1.
          4   -1    0    0  501    0  0.00000000000E+00 -0.00000000000E+00 -0.14717639893E+02  0.14772333060E+02  0.12700000000E+01 0. -1.
         25    2    1    2    0    0  0.00000000000E+00  0.00000000000E+00  0.25013815249E+03  0.27963117029E+03  0.12499798425E+03 0.  0.
    9000005    1    3    3    0    0 -0.23583020853E+02 -0.56105368250E+02  0.15679728902E+03  0.16819738720E+03  0.10000000000E+01 0.  0.
    9000005    1    3    3    0    0  0.23583020853E+02  0.56105368250E+02  0.93340863471E+02  0.11143378308E+03  0.10000000000E+01 0.  0.
<mgrwt>
<rscale>  0 0.12499798E+03</rscale>
<asrwt>0</asrwt>
<pdfrwt beam="2">  1        4 0.22686938E-02 0.12499798E+03</pdfrwt>
<pdfrwt beam="1">  1       -4 0.40751484E-01 0.12499798E+03</pdfrwt>
<totfact> 0.78230541E+03</totfact>
</mgrwt>
</event>
<event>
 4    1  0.3312706E-002  0.1249388E+03  0.7818608E-02  0.1235165E+00
         -4   -1    0    0    0  501 -0.00000000000E+00  0.00000000000E+00  0.12843919032E+02  0.12906554773E+02  0.12700000000E+01 0.  1.
          4   -1    0    0  501    0  0.00000000000E+00 -0.00000000000E+00 -0.30303164427E+03  0.30303430553E+03  0.12700000000E+01 0.  1.
    9000005    1    1    2    0    0 -0.29608841314E+02 -0.27611592672E+02 -0.24815443790E+02  0.47496208105E+02  0.10000000000E+01 0.  0.
    9000005    1    1    2    0    0  0.29608841314E+02  0.27611592672E+02 -0.26537228144E+03  0.26844465220E+03  0.10000000000E+01 0.  0.
<mgrwt>
<rscale>  0 0.12493883E+03</rscale>
<asrwt>0</asrwt>
<pdfrwt beam="2">  1        4 0.46625270E-01 0.12493883E+03</pdfrwt>
<pdfrwt beam="1">  1       -4 0.19810106E-02 0.12493883E+03</pdfrwt>
<totfact> 0.73741492E+03</totfact>
</mgrwt>
</event>
<event>
 5    1  0.3312706E-002  0.1249848E+03  0.7818608E-02  0.1235093E+00
         -4   -1    0    0    0  501 -0.00000000000E+00  0.00000000000E+00  0.65690425251E+03  0.65690548016E+03  0.12700000000E+01 0.  1.
          4   -1    0    0  501    0  0.00000000000E+00 -0.00000000000E+00 -0.58759292907E+01  0.60116091880E+01  0.12700000000E+01 0.  1.
         25    2    1    2    0    0  0.00000000000E+00  0.00000000000E+00  0.65102832321E+03  0.66291708934E+03  0.12498475794E+03 0.  0.
    9000005    1    3    3    0    0 -0.42813487171E+01 -0.60399512794E+02  0.40731705283E+03  0.41179438148E+03  0.10000000000E+01 0.  0.
    9000005    1    3    3    0    0  0.42813487171E+01  0.60399512794E+02  0.24371127038E+03  0.25112270786E+03  0.10000000000E+01 0.  0.
<mgrwt>
<rscale>  0 0.12498476E+03</rscale>
<asrwt>0</asrwt>
<pdfrwt beam="2">  1        4 0.91452014E-03 0.12498476E+03</pdfrwt>
<pdfrwt beam="1">  1       -4 0.10107276E+00 0.12498476E+03</pdfrwt>
<totfact> 0.45132812E+03</totfact>
</mgrwt>
</event>
<event>
 5    1  0.3312706E-002  0.1250102E+03  0.7818608E-02  0.1235053E+00
          4   -1    0    0  501    0  0.00000000000E+00  0.00000000000E+00  0.35285186510E+02  0.35308034313E+02  0.12700000000E+01 0.  1.
         -4   -1    0    0    0  501 -0.00000000000E+00 -0.00000000000E+00 -0.11066079083E+03  0.11066807817E+03  0.12700000000E+01 0.  1.
         25    2    1    2    0    0  0.00000000000E+00  0.00000000000E+00 -0.75375604318E+02  0.14597611249E+03  0.12501017435E+03 0.  0.
    9000005    1    3    3    0    0  0.41147758482E+02  0.17492302389E+02 -0.88677833045E+02  0.99317051630E+02  0.10000000000E+01 0.  0.
    9000005    1    3    3    0    0 -0.41147758482E+02 -0.17492302389E+02  0.13302228727E+02  0.46659060857E+02  0.10000000000E+01 0.  0.
<mgrwt>
<rscale>  0 0.12501017E+03</rscale>
<asrwt>0</asrwt>
<pdfrwt beam="1">  1        4 0.54308084E-02 0.12501017E+03</pdfrwt>
<pdfrwt beam="2">  1       -4 0.17027055E-01 0.12501017E+03</pdfrwt>
<totfact> 0.10008901E+04</totfact>
</mgrwt>
</event>
<event>
 5    1  0.3312706E-002  0.1250001E+03  0.7818608E-02  0.1235069E+00
          4   -1    0    0  501    0  0.00000000000E+00  0.00000000000E+00  0.67181330076E+03  0.67181450117E+03  0.12700000000E+01 0.  1.
         -4   -1    0    0    0  501 -0.00000000000E+00 -0.00000000000E+00 -0.57439285607E+01  0.58826537643E+01  0.12700000000E+01 0.  1.
         25    2    1    2    0    0  0.00000000000E+00  0.00000000000E+00  0.66606937220E+03  0.67769715493E+03  0.12500010088E+03 0.  0.
    9000005    1    3    3    0    0 -0.24191993149E+02  0.37327371483E+02  0.95060915641E+02  0.10495791003E+03  0.10000000000E+01 0.  0.
    9000005    1    3    3    0    0  0.24191993149E+02 -0.37327371483E+02  0.57100845656E+03  0.57273924491E+03  0.10000000000E+01 0.  0.
<mgrwt>
<rscale>  0 0.12500010E+03</rscale>
<asrwt>0</asrwt>
<pdfrwt beam="1">  1        4 0.10336670E+00 0.12500010E+03</pdfrwt>
<pdfrwt beam="2">  1       -4 0.89444448E-03 0.12500010E+03</pdfrwt>
<totfact> 0.44290362E+03</totfact>
</mgrwt>
</event>
<event>
 5    1  0.3312706E-002  0.1250029E+03  0.7818608E-02  0.1235065E+00
         -4   -1    0    0    0  501 -0.00000000000E+00  0.00000000000E+00  0.11514292437E+02  0.11584119747E+02  0.12700000000E+01 0.  1.
          4   -1    0    0  501    0  0.00000000000E+00 -0.00000000000E+00 -0.33817113718E+03  0.33817352191E+03  0.12700000000E+01 0.  1.
         25    2    1    2    0    0  0.00000000000E+00  0.00000000000E+00 -0.32665684474E+03  0.34975764166E+03  0.12500285469E+03 0.  0.
    9000005    1    3    3    0    0 -0.55253213744E+02  0.17453314885E+02 -0.22882143898E+03  0.23604615389E+03  0.10000000000E+01 0.  0.
    9000005    1    3    3    0    0  0.55253213744E+02 -0.17453314885E+02 -0.97835405766E+02  0.11371148777E+03  0.10000000000E+01 0.  0.
<mgrwt>
<rscale>  0 0.12500285E+03</rscale>
<asrwt>0</asrwt>
<pdfrwt beam="2">  1        4 0.52031876E-01 0.12500285E+03</pdfrwt>
<pdfrwt beam="1">  1       -4 0.17769846E-02 0.12500285E+03</pdfrwt>
<totfact> 0.69746823E+03</totfact>
</mgrwt>
</event>
<event>
 5    1  0.3312706E-002  0.1249859E+03  0.7818608E-02  0.1235091E+00
          4   -1    0    0  501    0  0.00000000000E+00  0.00000000000E+00  0.17882429367E+03  0.17882880335E+03  0.12700000000E+01 0. -1.
         -4   -1    0    0    0  501 -0.00000000000E+00 -0.00000000000E+00 -0.21815896000E+02  0.21852830898E+02  0.12700000000E+01 0. -1.
         25    2    1    2    0    0  0.00000000000E+00  0.00000000000E+00  0.15700839767E+03  0.20068163425E+03  0.12498592475E+03 0.  0.
    9000005    1    3    3    0    0 -0.37118618108E+02 -0.21029591694E+02  0.15180863573E+03  0.15769241396E+03  0.10000000000E+01 0.  0.
    9000005    1    3    3    0    0  0.37118618108E+02  0.21029591694E+02  0.51997619420E+01  0.42989220292E+02  0.10000000000E+01 0.  0.
<mgrwt>
<rscale>  0 0.12498592E+03</rscale>
<asrwt>0</asrwt>
<pdfrwt beam="1">  1        4 0.27514618E-01 0.12498592E+03</pdfrwt>
<pdfrwt beam="2">  1       -4 0.33594798E-02 0.12498592E+03</pdfrwt>
<totfact> 0.90049028E+03</totfact>
</mgrwt>
</event>
<event>
 5    1  0.3312706E-002  0.1249980E+03  0.7818608E-02  0.1235072E+00
         -4   -1    0    0    0  501 -0.00000000000E+00  0.00000000000E+00  0.48141171331E+02  0.48157920191E+02  0.12700000000E+01 0. -1.
          4   -1    0    0  501    0  0.00000000000E+00 -0.00000000000E+00 -0.81103117771E+02  0.81113060676E+02  0.12700000000E+01 0. -1.
         25    2    1    2    0    0  0.00000000000E+00  0.00000000000E+00 -0.32961946440E+02  0.12927098087E+03  0.12499798631E+03 0.  0.
    9000005    1    3    3    0    0  0.35718467144E+02  0.45213481004E+02 -0.41495764836E+02  0.71013845544E+02  0.10000000000E+01 0.  0.
    9000005    1    3    3    0    0 -0.35718467144E+02 -0.45213481004E+02  0.85338183959E+01  0.58257135323E+02  0.10000000000E+01 0.  0.
<mgrwt>
<rscale>  0 0.12499799E+03</rscale>
<asrwt>0</asrwt>
<pdfrwt beam="2">  1        4 0.12479456E-01 0.12499799E+03</pdfrwt>
<pdfrwt beam="1">  1       -4 0.74083873E-02 0.12499799E+03</pdfrwt>
<totfact> 0.10360599E+04</totfact>
</mgrwt>
</event>
<event>
 5    1  0.3312706E-002  0.1250008E+03  0.7818608E-02  0.1235068E+00
         -4   -1    0    0    0  501 -0.00000000000E+00  0.00000000000E+00  0.89956775975E+02  0.89965740389E+02  0.12700000000E+01 0. -1.
          4   -1    0    0  501    0  0.00000000000E+00 -0.00000000000E+00 -0.43403759513E+02  0.43422335726E+02  0.12700000000E+01 0. -1.
         25    2    1    2    0    0  0.00000000000E+00  0.00000000000E+00  0.46553016462E+02  0.13338807611E+03  0.12500078203E+03 0.  0.
    9000005    1    3    3    0    0  0.45068649392E+02  0.88206310410E+01  0.68503238069E+02  0.82478362714E+02  0.10000000000E+01 0.  0.
    9000005    1    3    3    0    0 -0.45068649392E+02 -0.88206310410E+01 -0.21950221608E+02  0.50909713401E+02  0.10000000000E+01 0.  0.
<mgrwt>
<rscale>  0 0.12500078E+03</rscale>
<asrwt>0</asrwt>
<pdfrwt beam="2">  1        4 0.66796201E-02 0.12500078E+03</pdfrwt>
<pdfrwt beam="1">  1       -4 0.13841622E-01 0.12500078E+03</pdfrwt>
<totfact> 0.10271978E+04</totfact>
</mgrwt>
</event>
<event>
 5    1  0.3312706E-002  0.1250037E+03  0.7818608E-02  0.1235064E+00
          4   -1    0    0  501    0  0.00000000000E+00  0.00000000000E+00  0.18702659658E+03  0.18703090849E+03  0.12700000000E+01 0.  1.
         -4   -1    0    0    0  501 -0.00000000000E+00 -0.00000000000E+00 -0.20863439380E+02  0.20902057381E+02  0.12700000000E+01 0.  1.
         25    2    1    2    0    0  0.00000000000E+00  0.00000000000E+00  0.16616315720E+03  0.20793296587E+03  0.12500369388E+03 0.  0.
    9000005    1    3    3    0    0  0.30816487128E+02 -0.11875395344E+02  0.17133352062E+03  0.17449027532E+03  0.10000000000E+01 0.  0.
    9000005    1    3    3    0    0 -0.30816487128E+02  0.11875395344E+02 -0.51703634129E+01  0.33442690551E+02  0.10000000000E+01 0.  0.
<mgrwt>
<rscale>  0 0.12500369E+03</rscale>
<asrwt>0</asrwt>
<pdfrwt beam="1">  1        4 0.28776625E-01 0.12500369E+03</pdfrwt>
<pdfrwt beam="2">  1       -4 0.32130622E-02 0.12500369E+03</pdfrwt>
<totfact> 0.88807234E+03</totfact>
</mgrwt>
</event>
<event>
 5    1  0.3312706E-002  0.1249958E+03  0.7818608E-02  0.1235076E+00
         -4   -1    0    0    0  501 -0.00000000000E+00  0.00000000000E+00  0.90267704318E+02  0.90276637857E+02  0.12700000000E+01 0. -1.
          4   -1    0    0  501    0  0.00000000000E+00 -0.00000000000E+00 -0.43250768763E+02  0.43269410657E+02  0.12700000000E+01 0. -1.
         25    2    1    2    0    0  0.00000000000E+00  0.00000000000E+00  0.47016935555E+02  0.13354604851E+03  0.12499581931E+03 0.  0.
    9000005    1    3    3    0    0 -0.37502366304E+02  0.49164085139E+02  0.33151012683E+02  0.70167830150E+02  0.10000000000E+01 0.  0.
    9000005    1    3    3    0    0  0.37502366304E+02 -0.49164085139E+02  0.13865922872E+02  0.63378218365E+02  0.10000000000E+01 0.  0.
<mgrwt>
<rscale>  0 0.12499582E+03</rscale>
<asrwt>0</asrwt>
<pdfrwt beam="2">  1        4 0.66560857E-02 0.12499582E+03</pdfrwt>
<pdfrwt beam="1">  1       -4 0.13889460E-01 0.12499582E+03</pdfrwt>
<totfact> 0.10269777E+04</totfact>
</mgrwt>
</event>
<event>
 5    1  0.3312706E-002  0.1249985E+03  0.7818608E-02  0.1235072E+00
         -4   -1    0    0    0  501 -0.00000000000E+00  0.00000000000E+00  0.51934238570E+03  0.51934393853E+03  0.12700000000E+01 0. -1.
          4   -1    0    0  501    0  0.00000000000E+00 -0.00000000000E+00 -0.74661634321E+01  0.75734071853E+01  0.12700000000E+01 0. -1.
         25    2    1    2    0    0  0.00000000000E+00  0.00000000000E+00  0.51187622227E+03  0.52691734571E+03  0.12499848915E+03 0.  0.
    9000005    1    3    3    0    0 -0.36592952124E+02 -0.47133247991E+02  0.17768971758E+03  0.18744391946E+03  0.10000000000E+01 0.  0.
    9000005    1    3    3    0    0  0.36592952124E+02  0.47133247991E+02  0.33418650469E+03  0.33947342625E+03  0.10000000000E+01 0.  0.
<mgrwt>
<rscale>  0 0.12499849E+03</rscale>
<asrwt>0</asrwt>
<pdfrwt beam="2">  1        4 0.11570093E-02 0.12499849E+03</pdfrwt>
<pdfrwt beam="1">  1       -4 0.79907211E-01 0.12499849E+03</pdfrwt>
<totfact> 0.53836545E+03</totfact>
</mgrwt>
</event>
<event>
 5    1  0.3312706E-002  0.1250018E+03  0.7818608E-02  0.1235067E+00
         -4   -1    0    0    0  501 -0.00000000000E+00  0.00000000000E+00  0.35593351027E+02  0.35616001141E+02  0.12700000000E+01 0.  1.
          4   -1    0    0  501    0  0.00000000000E+00 -0.00000000000E+00 -0.10968846074E+03  0.10969581268E+03  0.12700000000E+01 0.  1.
         25    2    1    2    0    0  0.00000000000E+00  0.00000000000E+00 -0.74095109714E+02  0.14531181382E+03  0.12500175180E+03 0.  0.
    9000005    1    3    3    0    0  0.89859867740E+01 -0.59147157459E+02 -0.16051212755E+02  0.61949783089E+02  0.10000000000E+01 0.  0.
    9000005    1    3    3    0    0 -0.89859867740E+01  0.59147157459E+02 -0.58043896959E+02  0.83362030734E+02  0.10000000000E+01 0.  0.
<mgrwt>
<rscale>  0 0.12500175E+03</rscale>
<asrwt>0</asrwt>
<pdfrwt beam="2">  1        4 0.16877456E-01 0.12500175E+03</pdfrwt>
<pdfrwt beam="1">  1       -4 0.54782080E-02 0.12500175E+03</pdfrwt>
<totfact> 0.10024262E+04</totfact>
</mgrwt>
</event>
<event>
 5    1  0.3312706E-002  0.1250001E+03  0.7818608E-02  0.1235069E+00
          4   -1    0    0  501    0  0.00000000000E+00  0.00000000000E+00  0.37175926337E+03  0.37176143264E+03  0.12700000000E+01 0. -1.
         -4   -1    0    0    0  501 -0.00000000000E+00 -0.00000000000E+00 -0.10466899138E+02  0.10543665281E+02  0.12700000000E+01 0. -1.
         25    2    1    2    0    0  0.00000000000E+00  0.00000000000E+00  0.36129236423E+03  0.38230509792E+03  0.12500006179E+03 0.  0.
    9000005    1    3    3    0    0  0.48515006514E+02 -0.39388615035E+02  0.18153791648E+03  0.19199527070E+03  0.10000000000E+01 0.  0.
    9000005    1    3    3    0    0 -0.48515006514E+02  0.39388615035E+02  0.17975444775E+03  0.19030982722E+03  0.10000000000E+01 0.  0.
<mgrwt>
<rscale>  0 0.12500006E+03</rscale>
<asrwt>0</asrwt>
<pdfrwt beam="1">  1        4 0.57199806E-01 0.12500006E+03</pdfrwt>
<pdfrwt beam="2">  1       -4 0.16163641E-02 0.12500006E+03</pdfrwt>
<totfact> 0.66310850E+03</totfact>
</mgrwt>
</event>
<event>
 5    1  0.3312706E-002  0.1250037E+03  0.7818608E-02  0.1235063E+00
         -4   -1    0    0    0  501 -0.00000000000E+00  0.00000000000E+00  0.24003151333E+02  0.24036725524E+02  0.12700000000E+01 0.  1.
          4   -1    0    0  501    0  0.00000000000E+00 -0.00000000000E+00 -0.16259898167E+03  0.16260394134E+03  0.12700000000E+01 0.  1.
         25    2    1    2    0    0  0.00000000000E+00  0.00000000000E+00 -0.13859583034E+03  0.18664066686E+03  0.12500373731E+03 0.  0.
    9000005    1    3    3    0    0 -0.24969319790E+02 -0.30371527205E+02  0.32293458026E+01  0.39462960734E+02  0.10000000000E+01 0.  0.
    9000005    1    3    3    0    0  0.24969319790E+02  0.30371527205E+02 -0.14182517614E+03  0.14717770613E+03  0.10000000000E+01 0.  0.
<mgrwt>
<rscale>  0 0.12500374E+03</rscale>
<asrwt>0</asrwt>
<pdfrwt beam="2">  1        4 0.25018191E-01 0.12500374E+03</pdfrwt>
<pdfrwt beam="1">  1       -4 0.36957568E-02 0.12500374E+03</pdfrwt>
<totfact> 0.92427395E+03</totfact>
</mgrwt>
</event>
<event>
 5    1  0.3312706E-002  0.1250038E+03  0.7818608E-02  0.1235063E+00
         -4   -1    0    0    0  501 -0.00000000000E+00  0.00000000000E+00  0.26306739181E+03  0.26307045736E+03  0.12700000000E+01 0.  1.
          4   -1    0    0  501    0  0.00000000000E+00 -0.00000000000E+00 -0.14819451121E+02  0.14873769916E+02  0.12700000000E+01 0.  1.
         25    2    1    2    0    0  0.00000000000E+00  0.00000000000E+00  0.24824794069E+03  0.27794422727E+03  0.12500381361E+03 0.  0.
    9000005    1    3    3    0    0 -0.25338614524E+01  0.28870788544E+02  0.24723253756E+03  0.24892744026E+03  0.10000000000E+01 0.  0.
    9000005    1    3    3    0    0  0.25338614524E+01 -0.28870788544E+02  0.10154031278E+01  0.29016787013E+02  0.10000000000E+01 0.  0.
<mgrwt>
<rscale>  0 0.12500381E+03</rscale>
<asrwt>0</asrwt>
<pdfrwt beam="2">  1        4 0.22843299E-02 0.12500381E+03</pdfrwt>
<pdfrwt beam="1">  1       -4 0.40476318E-01 0.12500381E+03</pdfrwt>
<totfact> 0.78444827E+03</totfact>
</mgrwt>
</event>
<event>
 5    1  0.3312706E-002  0.1250190E+03  0.7818608E-02  0.1235040E+00
          4   -1    0    0  501    0  0.00000000000E+00  0.00000000000E+00  0.56458804431E+03  0.56458947269E+03  0.12700000000E+01 0. -1.
         -4   -1    0    0    0  501 -0.00000000000E+00 -0.00000000000E+00 -0.68611519027E+01  0.69777005834E+01  0.12700000000E+01 0. -1.
         25    2    1    2    0    0  0.00000000000E+00  0.00000000000E+00  0.55772689240E+03  0.57156717327E+03  0.12501898678E+03 0.  0.
    9000005    1    3    3    0    0  0.49375162068E+02 -0.89286027231E+00  0.10371155819E+03  0.11487293472E+03  0.10000000000E+01 0.  0.
    9000005    1    3    3    0    0 -0.49375162068E+02  0.89286027231E+00  0.45401533421E+03  0.45669423856E+03  0.10000000000E+01 0.  0.
<mgrwt>
<rscale>  0 0.12501899E+03</rscale>
<asrwt>0</asrwt>
<pdfrwt beam="1">  1        4 0.86868788E-01 0.12501899E+03</pdfrwt>
<pdfrwt beam="2">  1       -4 0.10646368E-02 0.12501899E+03</pdfrwt>
<totfact> 0.50691878E+03</totfact>
</mgrwt>
</event>
<event>
 5    1  0.3312706E-002  0.1249993E+03  0.7818608E-02  0.1235070E+00
          4   -1    0    0  501    0  0.00000000000E+00  0.00000000000E+00  0.35020556205E+02  0.35043576542E+02  0.12700000000E+01 0.  1.
         -4   -1    0    0    0  501 -0.00000000000E+00 -0.00000000000E+00 -0.11147713648E+03  0.11148437047E+03  0.12700000000E+01 0.  1.
         25    2    1    2    0    0  0.00000000000E+00  0.00000000000E+00 -0.76456580276E+02  0.14652794701E+03  0.12499932234E+03 0.  0.
    9000005    1    3    3    0    0  0.51973342066E+02  0.27850087102E+02 -0.13967038044E+02  0.60604734046E+02  0.10000000000E+01 0.  0.
    9000005    1    3    3    0    0 -0.51973342066E+02 -0.27850087102E+02 -0.62489542233E+02  0.85923212961E+02  0.10000000000E+01 0.  0.
<mgrwt>
<rscale>  0 0.12499932E+03</rscale>
<asrwt>0</asrwt>
<pdfrwt beam="1">  1        4 0.53901052E-02 0.12499932E+03</pdfrwt>
<pdfrwt beam="2">  1       -4 0.17152656E-01 0.12499932E+03</pdfrwt>
<totfact> 0.10000188E+04</totfact>
</mgrwt>
</event>
<event>
 5    1  0.3312706E-002  0.1249997E+03  0.7818608E-02  0.1235070E+00
          4   -1    0    0  501    0  0.00000000000E+00  0.00000000000E+00  0.28493118521E+02  0.28521407803E+02  0.12700000000E+01 0. -1.
         -4   -1    0    0    0  501 -0.00000000000E+00 -0.00000000000E+00 -0.13699449022E+03  0.13700037683E+03  0.12700000000E+01 0. -1.
         25    2    1    2    0    0  0.00000000000E+00  0.00000000000E+00 -0.10850137170E+03  0.16552178463E+03  0.12499965411E+03 0.  0.
    9000005    1    3    3    0    0 -0.23422816062E+02 -0.38793489961E+02 -0.11123135983E+03  0.12011235818E+03  0.10000000000E+01 0.  0.
    9000005    1    3    3    0    0  0.23422816062E+02  0.38793489961E+02  0.27299881371E+01  0.45409426454E+02  0.10000000000E+01 0.  0.
<mgrwt>
<rscale>  0 0.12499965E+03</rscale>
<asrwt>0</asrwt>
<pdfrwt beam="1">  1        4 0.43861857E-02 0.12499965E+03</pdfrwt>
<pdfrwt beam="2">  1       -4 0.21078704E-01 0.12499965E+03</pdfrwt>
<totfact> 0.96289414E+03</totfact>
</mgrwt>
</event>
<event>
 5    1  0.3312706E-002  0.1250008E+03  0.7818608E-02  0.1235068E+00
         -4   -1    0    0    0  501 -0.00000000000E+00  0.00000000000E+00  0.15008176979E+02  0.15061815171E+02  0.12700000000E+01 0.  1.
          4   -1    0    0  501    0  0.00000000000E+00 -0.00000000000E+00 -0.25975856564E+03  0.25976167024E+03  0.12700000000E+01 0.  1.
         25    2    1    2    0    0  0.00000000000E+00  0.00000000000E+00 -0.24475038866E+03  0.27482348541E+03  0.12500078152E+03 0.  0.
    9000005    1    3    3    0    0 -0.21996465094E+02 -0.28617465630E+02 -0.10215693117E+02  0.37525514008E+02  0.10000000000E+01 0.  0.
    9000005    1    3    3    0    0  0.21996465094E+02  0.28617465630E+02 -0.23453469555E+03  0.23729797140E+03  0.10000000000E+01 0.  0.
<mgrwt>
<rscale>  0 0.12500078E+03</rscale>
<asrwt>0</asrwt>
<pdfrwt beam="2">  1        4 0.39967218E-01 0.12500078E+03</pdfrwt>
<pdfrwt beam="1">  1       -4 0.23133153E-02 0.12500078E+03</pdfrwt>
<totfact> 0.78868149E+03</totfact>
</mgrwt>
</event>
<event>
 5    1  0.3312706E-002  0.1250054E+03  0.7818608E-02  0.1235061E+00
         -4   -1    0    0    0  501 -0.00000000000E+00  0.00000000000E+00  0.21341476390E+04  0.21341480169E+04  0.12700000000E+01 0. -1.
          4   -1    0    0  501    0  0.00000000000E+00 -0.00000000000E+00 -0.16098108138E+01  0.20504611326E+01  0.12700000000E+01 0. -1.
         25    2    1    2    0    0  0.00000000000E+00  0.00000000000E+00  0.21325378282E+04  0.21361984780E+04  0.12500539514E+03 0.  0.
    9000005    1    3    3    0    0  0.23195473853E+02 -0.27021300930E+02  0.19438785429E+04  0.19442049713E+04  0.10000000000E+01 0.  0.
    9000005    1    3    3    0    0 -0.23195473853E+02  0.27021300930E+02  0.18865928524E+03  0.19199350671E+03  0.10000000000E+01 0.  0.
<mgrwt>
<rscale>  0 0.12500540E+03</rscale>
<asrwt>0</asrwt>
<pdfrwt beam="2">  1        4 0.28158709E-03 0.12500540E+03</pdfrwt>
<pdfrwt beam="1">  1       -4 0.32836592E+00 0.12500540E+03</pdfrwt>
<totfact> 0.81855409E+02</totfact>
</mgrwt>
</event>
<event>
 5    1  0.3312706E-002  0.1249860E+03  0.7818608E-02  0.1235091E+00
          4   -1    0    0  501    0  0.00000000000E+00  0.00000000000E+00  0.11183132239E+03  0.11183853346E+03  0.12700000000E+01 0. -1.
         -4   -1    0    0    0  501 -0.00000000000E+00 -0.00000000000E+00 -0.34902141727E+02  0.34925240116E+02  0.12700000000E+01 0. -1.
         25    2    1    2    0    0  0.00000000000E+00  0.00000000000E+00  0.76929180662E+02  0.14676377358E+03  0.12498602481E+03 0.  0.
    9000005    1    3    3    0    0 -0.12953942903E+02 -0.34747187575E+02  0.97518604390E+02  0.10433623476E+03  0.10000000000E+01 0.  0.
    9000005    1    3    3    0    0  0.12953942903E+02  0.34747187575E+02 -0.20589423728E+02  0.42427538823E+02  0.10000000000E+01 0.  0.
<mgrwt>
<rscale>  0 0.12498602E+03</rscale>
<asrwt>0</asrwt>
<pdfrwt beam="1">  1        4 0.17207150E-01 0.12498602E+03</pdfrwt>
<pdfrwt beam="2">  1       -4 0.53718918E-02 0.12498602E+03</pdfrwt>
<totfact> 0.99984203E+03</totfact>
</mgrwt>
</event>
<event>
 5    1  0.3312706E-002  0.1250028E+03  0.7818608E-02  0.1235065E+00
          4   -1    0    0  501    0  0.00000000000E+00  0.00000000000E+00  0.38085587997E+03  0.38085799743E+03  0.12700000000E+01 0.  1.
         -4   -1    0    0    0  501 -0.00000000000E+00 -0.00000000000E+00 -0.10215497929E+02  0.10294139009E+02  0.12700000000E+01 0.  1.
         25    2    1    2    0    0  0.00000000000E+00  0.00000000000E+00  0.37064038204E+03  0.39115213644E+03  0.12500280414E+03 0.  0.
    9000005    1    3    3    0    0 -0.43846071647E+02 -0.42438895294E+02  0.14311874888E+03  0.15558764126E+03  0.10000000000E+01 0.  0.
    9000005    1    3    3    0    0  0.43846071647E+02  0.42438895294E+02  0.22752163316E+03  0.23556449518E+03  0.10000000000E+01 0.  0.
<mgrwt>
<rscale>  0 0.12500280E+03</rscale>
<asrwt>0</asrwt>
<pdfrwt beam="1">  1        4 0.58599428E-01 0.12500280E+03</pdfrwt>
<pdfrwt beam="2">  1       -4 0.15778272E-02 0.12500280E+03</pdfrwt>
<totfact> 0.65418460E+03</totfact>
</mgrwt>
</event>
<event>
 5    1  0.3312706E-002  0.1250003E+03  0.7818608E-02  0.1235069E+00
          4   -1    0    0  501    0  0.00000000000E+00  0.00000000000E+00  0.27532557226E+03  0.27532850133E+03  0.12700000000E+01 0. -1.
         -4   -1    0    0    0  501 -0.00000000000E+00 -0.00000000000E+00 -0.14156383607E+02  0.14213236677E+02  0.12700000000E+01 0. -1.
         25    2    1    2    0    0  0.00000000000E+00  0.00000000000E+00  0.26116918866E+03  0.28954173800E+03  0.12500029177E+03 0.  0.
    9000005    1    3    3    0    0  0.43794133593E+02 -0.36638078508E+02  0.18941173672E+03  0.19783346770E+03  0.10000000000E+01 0.  0.
    9000005    1    3    3    0    0 -0.43794133593E+02  0.36638078508E+02  0.71757451932E+02  0.91708270301E+02  0.10000000000E+01 0.  0.
<mgrwt>
<rscale>  0 0.12500029E+03</rscale>
<asrwt>0</asrwt>
<pdfrwt beam="1">  1        4 0.42362374E-01 0.12500029E+03</pdfrwt>
<pdfrwt beam="2">  1       -4 0.21825040E-02 0.12500029E+03</pdfrwt>
<totfact> 0.76929218E+03</totfact>
</mgrwt>
</event>
<event>
 4    1  0.3312706E-002  0.1245904E+03  0.7818608E-02  0.1235711E+00
         -4   -1    0    0    0  501 -0.00000000000E+00  0.00000000000E+00  0.24406888158E+01  0.27513382009E+01  0.12700000000E+01 0. -1.
          4   -1    0    0  501    0  0.00000000000E+00 -0.00000000000E+00 -0.14945538842E+04  0.14945544238E+04  0.12700000000E+01 0. -1.
    9000005    1    1    2    0    0 -0.37128540321E+02  0.37339118988E+02 -0.11459002949E+04  0.11471099442E+04  0.10000000000E+01 0.  0.
    9000005    1    1    2    0    0  0.37128540321E+02 -0.37339118988E+02 -0.34621290051E+03  0.35019581778E+03  0.10000000000E+01 0.  0.
<mgrwt>
<rscale>  0 0.12459036E+03</rscale>
<asrwt>0</asrwt>
<pdfrwt beam="2">  1        4 0.22995462E+00 0.12459036E+03</pdfrwt>
<pdfrwt beam="1">  1       -4 0.39942939E-03 0.12459036E+03</pdfrwt>
<totfact> 0.18145554E+03</totfact>
</mgrwt>
</event>
<event>
 5    1  0.3312706E-002  0.1250017E+03  0.7818608E-02  0.1235067E+00
          4   -1    0    0  501    0  0.00000000000E+00  0.00000000000E+00  0.38558424090E+02  0.38579333435E+02  0.12700000000E+01 0. -1.
         -4   -1    0    0    0  501 -0.00000000000E+00 -0.00000000000E+00 -0.10125768319E+03  0.10126564721E+03  0.12700000000E+01 0. -1.
         25    2    1    2    0    0  0.00000000000E+00  0.00000000000E+00 -0.62699259102E+02  0.13984498065E+03  0.12500168607E+03 0.  0.
    9000005    1    3    3    0    0 -0.18159294331E+02 -0.59785232785E+02 -0.32635626655E+02  0.70499064937E+02  0.10000000000E+01 0.  0.
    9000005    1    3    3    0    0  0.18159294331E+02  0.59785232785E+02 -0.30063632447E+02  0.69345915710E+02  0.10000000000E+01 0.  0.
<mgrwt>
<rscale>  0 0.12500169E+03</rscale>
<asrwt>0</asrwt>
<pdfrwt beam="1">  1        4 0.59342863E-02 0.12500169E+03</pdfrwt>
<pdfrwt beam="2">  1       -4 0.15580326E-01 0.12500169E+03</pdfrwt>
<totfact> 0.10136415E+04</totfact>
</mgrwt>
</event>
<event>
 5    1  0.3312706E-002  0.1249983E+03  0.7818608E-02  0.1235072E+00
         -4   -1    0    0    0  501 -0.00000000000E+00  0.00000000000E+00  0.86741370316E+02  0.86750666997E+02  0.12700000000E+01 0. -1.
          4   -1    0    0  501    0  0.00000000000E+00 -0.00000000000E+00 -0.45011429072E+02  0.45029342068E+02  0.12700000000E+01 0. -1.
         25    2    1    2    0    0  0.00000000000E+00  0.00000000000E+00  0.41729941244E+02  0.13178000906E+03  0.12499833116E+03 0.  0.
    9000005    1    3    3    0    0 -0.80643033472E+01 -0.23805956435E+02  0.81182582359E+02  0.84990400804E+02  0.10000000000E+01 0.  0.
    9000005    1    3    3    0    0  0.80643033472E+01  0.23805956435E+02 -0.39452641115E+02  0.46789608261E+02  0.10000000000E+01 0.  0.
<mgrwt>
<rscale>  0 0.12499833E+03</rscale>
<asrwt>0</asrwt>
<pdfrwt beam="2">  1        4 0.69269282E-02 0.12499833E+03</pdfrwt>
<pdfrwt beam="1">  1       -4 0.13346919E-01 0.12499833E+03</pdfrwt>
<totfact> 0.10306784E+04</totfact>
</mgrwt>
</event>
<event>
 5    1  0.3312706E-002  0.1250054E+03  0.7818608E-02  0.1235061E+00
         -4   -1    0    0    0  501 -0.00000000000E+00  0.00000000000E+00  0.20753937833E+03  0.20754326406E+03  0.12700000000E+01 0. -1.
          4   -1    0    0  501    0  0.00000000000E+00 -0.00000000000E+00 -0.18797862854E+02  0.18840715164E+02  0.12700000000E+01 0. -1.
         25    2    1    2    0    0  0.00000000000E+00  0.00000000000E+00  0.18874151548E+03  0.22638397923E+03  0.12500538543E+03 0.  0.
    9000005    1    3    3    0    0 -0.35285474154E+02  0.11816918245E+02  0.34436755547E+01  0.37383995833E+02  0.10000000000E+01 0.  0.
    9000005    1    3    3    0    0  0.35285474154E+02 -0.11816918245E+02  0.18529783992E+03  0.18899998339E+03  0.10000000000E+01 0.  0.
<mgrwt>
<rscale>  0 0.12500539E+03</rscale>
<asrwt>0</asrwt>
<pdfrwt beam="2">  1        4 0.28955742E-02 0.12500539E+03</pdfrwt>
<pdfrwt beam="1">  1       -4 0.31932730E-01 0.12500539E+03</pdfrwt>
<totfact> 0.85857631E+03</totfact>
</mgrwt>
</event>
<event>
 5    1  0.3312706E-002  0.1249929E+03  0.7818608E-02  0.1235080E+00
         -4   -1    0    0    0  501 -0.00000000000E+00  0.00000000000E+00  0.85446005981E+01  0.86384662632E+01  0.12700000000E+01 0. -1.
          4   -1    0    0  501    0  0.00000000000E+00 -0.00000000000E+00 -0.45451643024E+03  0.45451820454E+03  0.12700000000E+01 0. -1.
         25    2    1    2    0    0  0.00000000000E+00  0.00000000000E+00 -0.44597182964E+03  0.46315667080E+03  0.12499291530E+03 0.  0.
    9000005    1    3    3    0    0 -0.38639717731E+01 -0.41334569074E+02 -0.39604852358E+03  0.39821967544E+03  0.10000000000E+01 0.  0.
    9000005    1    3    3    0    0  0.38639717731E+01  0.41334569074E+02 -0.49923306060E+02  0.64936995360E+02  0.10000000000E+01 0.  0.
<mgrwt>
<rscale>  0 0.12499292E+03</rscale>
<asrwt>0</asrwt>
<pdfrwt beam="2">  1        4 0.69932943E-01 0.12499292E+03</pdfrwt>
<pdfrwt beam="1">  1       -4 0.13219112E-02 0.12499292E+03</pdfrwt>
<totfact> 0.58849928E+03</totfact>
</mgrwt>
</event>
<event>
 5    1  0.3312706E-002  0.1250095E+03  0.7818608E-02  0.1235054E+00
         -4   -1    0    0    0  501 -0.00000000000E+00  0.00000000000E+00  0.21554778096E+02  0.21592159659E+02  0.12700000000E+01 0. -1.
          4   -1    0    0  501    0  0.00000000000E+00 -0.00000000000E+00 -0.18105534535E+03  0.18105979946E+03  0.12700000000E+01 0. -1.
         25    2    1    2    0    0  0.00000000000E+00  0.00000000000E+00 -0.15950056725E+03  0.20265195912E+03  0.12500954195E+03 0.  0.
    9000005    1    3    3    0    0  0.15014294720E+01 -0.51128453185E+02 -0.13796245954E+03  0.14714283285E+03  0.10000000000E+01 0.  0.
    9000005    1    3    3    0    0 -0.15014294720E+01  0.51128453185E+02 -0.21538107713E+02  0.55509126271E+02  0.10000000000E+01 0.  0.
<mgrwt>
<rscale>  0 0.12500954E+03</rscale>
<asrwt>0</asrwt>
<pdfrwt beam="2">  1        4 0.27857886E-01 0.12500954E+03</pdfrwt>
<pdfrwt beam="1">  1       -4 0.33193380E-02 0.12500954E+03</pdfrwt>
<totfact> 0.89671009E+03</totfact>
</mgrwt>
</event>
<event>
 5    1  0.3312706E-002  0.1250028E+03  0.7818608E-02  0.1235065E+00
          4   -1    0    0  501    0  0.00000000000E+00  0.00000000000E+00  0.59027747492E+02  0.59041408130E+02  0.12700000000E+01 0.  1.
         -4   -1    0    0    0  501 -0.00000000000E+00 -0.00000000000E+00 -0.66152088683E+02  0.66164278407E+02  0.12700000000E+01 0.  1.
         25    2    1    2    0    0  0.00000000000E+00  0.00000000000E+00 -0.71243411904E+01  0.12520568654E+03  0.12500283078E+03 0.  0.
    9000005    1    3    3    0    0 -0.44543482338E+02 -0.14491763468E+01  0.40317654572E+02  0.60106032984E+02  0.10000000000E+01 0.  0.
    9000005    1    3    3    0    0  0.44543482338E+02  0.14491763468E+01 -0.47441995762E+02  0.65099653553E+02  0.10000000000E+01 0.  0.
<mgrwt>
<rscale>  0 0.12500283E+03</rscale>
<asrwt>0</asrwt>
<pdfrwt beam="1">  1        4 0.90831805E-02 0.12500283E+03</pdfrwt>
<pdfrwt beam="2">  1       -4 0.10179233E-01 0.12500283E+03</pdfrwt>
<totfact> 0.10447728E+04</totfact>
</mgrwt>
</event>
<event>
 5    1  0.3312706E-002  0.1249997E+03  0.7818608E-02  0.1235070E+00
         -4   -1    0    0    0  501 -0.00000000000E+00  0.00000000000E+00  0.17540685121E+02  0.17586600994E+02  0.12700000000E+01 0.  1.
          4   -1    0    0  501    0  0.00000000000E+00 -0.00000000000E+00 -0.22235669068E+03  0.22236031748E+03  0.12700000000E+01 0.  1.
         25    2    1    2    0    0  0.00000000000E+00  0.00000000000E+00 -0.20481600556E+03  0.23994691847E+03  0.12499971021E+03 0.  0.
    9000005    1    3    3    0    0  0.56869734169E+02 -0.32649735264E+01 -0.53077970069E+02  0.77865895122E+02  0.10000000000E+01 0.  0.
    9000005    1    3    3    0    0 -0.56869734169E+02  0.32649735264E+01 -0.15173803549E+03  0.16208102335E+03  0.10000000000E+01 0.  0.
<mgrwt>
<rscale>  0 0.12499971E+03</rscale>
<asrwt>0</asrwt>
<pdfrwt beam="2">  1        4 0.34212531E-01 0.12499971E+03</pdfrwt>
<pdfrwt beam="1">  1       -4 0.27023781E-02 0.12499971E+03</pdfrwt>
<totfact> 0.83805816E+03</totfact>
</mgrwt>
</event>
<event>
 5    1  0.3312706E-002  0.1249958E+03  0.7818608E-02  0.1235076E+00
         -4   -1    0    0    0  501 -0.00000000000E+00  0.00000000000E+00  0.17870347558E+02  0.17915418550E+02  0.12700000000E+01 0.  1.
          4   -1    0    0  501    0  0.00000000000E+00 -0.00000000000E+00 -0.21825159709E+03  0.21825529210E+03  0.12700000000E+01 0.  1.
         25    2    1    2    0    0  0.00000000000E+00  0.00000000000E+00 -0.20038124953E+03  0.23617071065E+03  0.12499583756E+03 0.  0.
    9000005    1    3    3    0    0  0.40974884341E+02  0.32033134742E+02 -0.16564036020E+03  0.17361679583E+03  0.10000000000E+01 0.  0.
    9000005    1    3    3    0    0 -0.40974884341E+02 -0.32033134742E+02 -0.34740889332E+02  0.62553914823E+02  0.10000000000E+01 0.  0.
<mgrwt>
<rscale>  0 0.12499584E+03</rscale>
<asrwt>0</asrwt>
<pdfrwt beam="2">  1        4 0.33580918E-01 0.12499584E+03</pdfrwt>
<pdfrwt beam="1">  1       -4 0.27530356E-02 0.12499584E+03</pdfrwt>
<totfact> 0.84378830E+03</totfact>
</mgrwt>
</event>
<event>
 5    1  0.3312706E-002  0.1250012E+03  0.7818608E-02  0.1235067E+00
          4   -1    0    0  501    0  0.00000000000E+00  0.00000000000E+00  0.98039694003E+01  0.98858846849E+01  0.12700000000E+01 0.  1.
         -4   -1    0    0    0  501 -0.00000000000E+00 -0.00000000000E+00 -0.39670272212E+03  0.39670475500E+03  0.12700000000E+01 0.  1.
         25    2    1    2    0    0  0.00000000000E+00  0.00000000000E+00 -0.38689875272E+03  0.40659063968E+03  0.12500121368E+03 0.  0.
    9000005    1    3    3    0    0 -0.38542690277E-01 -0.38760294636E+01  0.94285213361E+01  0.10243149151E+02  0.10000000000E+01 0.  0.
    9000005    1    3    3    0    0  0.38542690277E-01  0.38760294636E+01 -0.39632727406E+03  0.39634749053E+03  0.10000000000E+01 0.  0.
<mgrwt>
<rscale>  0 0.12500121E+03</rscale>
<asrwt>0</asrwt>
<pdfrwt beam="1">  1        4 0.15147608E-02 0.12500121E+03</pdfrwt>
<pdfrwt beam="2">  1       -4 0.61037633E-01 0.12500121E+03</pdfrwt>
<totfact> 0.63915093E+03</totfact>
</mgrwt>
</event>
<event>
 4    1  0.3312706E-002  0.1249383E+03  0.7818608E-02  0.1235166E+00
         -4   -1    0    0    0  501 -0.00000000000E+00  0.00000000000E+00  0.11188465279E+03  0.11189186043E+03  0.12700000000E+01 0. -1.
          4   -1    0    0  501    0  0.00000000000E+00 -0.00000000000E+00 -0.34858810386E+02  0.34881937468E+02  0.12700000000E+01 0. -1.
    9000005    1    1    2    0    0  0.58298712742E+01 -0.37175456733E+00 -0.34542951815E+02  0.35047697793E+02  0.10000000000E+01 0.  0.
    9000005    1    1    2    0    0 -0.58298712742E+01  0.37175456733E+00  0.11156879422E+03  0.11172610011E+03  0.10000000000E+01 0.  0.
<mgrwt>
<rscale>  0 0.12493825E+03</rscale>
<asrwt>0</asrwt>
<pdfrwt beam="2">  1        4 0.53652273E-02 0.12493825E+03</pdfrwt>
<pdfrwt beam="1">  1       -4 0.17215357E-01 0.12493825E+03</pdfrwt>
<totfact> 0.10008980E+04</totfact>
</mgrwt>
</event>
<event>
 5    1  0.3312706E-002  0.1250197E+03  0.7818608E-02  0.1235038E+00
          4   -1    0    0  501    0  0.00000000000E+00  0.00000000000E+00  0.35395387399E+02  0.35418164113E+02  0.12700000000E+01 0.  1.
         -4   -1    0    0    0  501 -0.00000000000E+00 -0.00000000000E+00 -0.11033330329E+03  0.11034061227E+03  0.12700000000E+01 0.  1.
         25    2    1    2    0    0  0.00000000000E+00  0.00000000000E+00 -0.74937915893E+02  0.14575877638E+03  0.12501971706E+03 0.  0.
    9000005    1    3    3    0    0  0.11371476619E+02 -0.60730647474E+02 -0.26472456348E+02  0.67225835571E+02  0.10000000000E+01 0.  0.
    9000005    1    3    3    0    0 -0.11371476619E+02  0.60730647474E+02 -0.48465459545E+02  0.78532940809E+02  0.10000000000E+01 0.  0.
<mgrwt>
<rscale>  0 0.12501972E+03</rscale>
<asrwt>0</asrwt>
<pdfrwt beam="1">  1        4 0.54477586E-02 0.12501972E+03</pdfrwt>
<pdfrwt beam="2">  1       -4 0.16976668E-01 0.12501972E+03</pdfrwt>
<totfact> 0.10011149E+04</totfact>
</mgrwt>
</event>
<event>
 5    1  0.3312706E-002  0.1249969E+03  0.7818608E-02  0.1235074E+00
         -4   -1    0    0    0  501 -0.00000000000E+00  0.00000000000E+00  0.27370429945E+02  0.27399878383E+02  0.12700000000E+01 0.  1.
          4   -1    0    0  501    0  0.00000000000E+00 -0.00000000000E+00 -0.14260182730E+03  0.14260748245E+03  0.12700000000E+01 0.  1.
         25    2    1    2    0    0  0.00000000000E+00  0.00000000000E+00 -0.11523139736E+03  0.17000736083E+03  0.12499691116E+03 0.  0.
    9000005    1    3    3    0    0 -0.46420431464E+02 -0.36535441659E+02 -0.29896426496E+02  0.66215491176E+02  0.10000000000E+01 0.  0.
    9000005    1    3    3    0    0  0.46420431464E+02  0.36535441659E+02 -0.85334970861E+02  0.10379186965E+03  0.10000000000E+01 0.  0.
<mgrwt>
<rscale>  0 0.12499691E+03</rscale>
<asrwt>0</asrwt>
<pdfrwt beam="2">  1        4 0.21941443E-01 0.12499691E+03</pdfrwt>
<pdfrwt beam="1">  1       -4 0.42135357E-02 0.12499691E+03</pdfrwt>
<totfact> 0.95453882E+03</totfact>
</mgrwt>
</event>
<event>
 5    1  0.3312706E-002  0.1250072E+03  0.7818608E-02  0.1235058E+00
          4   -1    0    0  501    0  0.00000000000E+00  0.00000000000E+00  0.10534899413E+03  0.10535664888E+03  0.12700000000E+01 0. -1.
         -4   -1    0    0    0  501 -0.00000000000E+00 -0.00000000000E+00 -0.37063515638E+02  0.37085267850E+02  0.12700000000E+01 0. -1.
         25    2    1    2    0    0  0.00000000000E+00  0.00000000000E+00  0.68285478491E+02  0.14244191673E+03  0.12500717207E+03 0.  0.
    9000005    1    3    3    0    0  0.37307815574E+02  0.10610314414E+02 -0.21694153342E+02  0.44453213203E+02  0.10000000000E+01 0.  0.
    9000005    1    3    3    0    0 -0.37307815574E+02 -0.10610314414E+02  0.89979631832E+02  0.97988703530E+02  0.10000000000E+01 0.  0.
<mgrwt>
<rscale>  0 0.12500717E+03</rscale>
<asrwt>0</asrwt>
<pdfrwt beam="1">  1        4 0.16209799E-01 0.12500717E+03</pdfrwt>
<pdfrwt beam="2">  1       -4 0.57043415E-02 0.12500717E+03</pdfrwt>
<totfact> 0.10081596E+04</totfact>
</mgrwt>
</event>
<event>
 5    1  0.3312706E-002  0.1249961E+03  0.7818608E-02  0.1235075E+00
          4   -1    0    0  501    0  0.00000000000E+00  0.00000000000E+00  0.66355860755E+03  0.66355982289E+03  0.12700000000E+01 0.  1.
         -4   -1    0    0    0  501 -0.00000000000E+00 -0.00000000000E+00 -0.58167159299E+01  0.59537453934E+01  0.12700000000E+01 0.  1.
         25    2    1    2    0    0  0.00000000000E+00  0.00000000000E+00  0.65774189162E+03  0.66951356828E+03  0.12499608843E+03 0.  0.
    9000005    1    3    3    0    0 -0.41088052415E+02  0.45885549096E+02  0.38537746692E+03  0.39026978320E+03  0.10000000000E+01 0.  0.
    9000005    1    3    3    0    0  0.41088052415E+02 -0.45885549096E+02  0.27236442470E+03  0.27924378509E+03  0.10000000000E+01 0.  0.
<mgrwt>
<rscale>  0 0.12499609E+03</rscale>
<asrwt>0</asrwt>
<pdfrwt beam="1">  1        4 0.10209653E+00 0.12499609E+03</pdfrwt>
<pdfrwt beam="2">  1       -4 0.90551399E-03 0.12499609E+03</pdfrwt>
<totfact> 0.44749454E+03</totfact>
</mgrwt>
</event>
<event>
 5    1  0.3312706E-002  0.1249990E+03  0.7818608E-02  0.1235071E+00
          4   -1    0    0  501    0  0.00000000000E+00  0.00000000000E+00  0.33621270793E+02  0.33645248546E+02  0.12700000000E+01 0. -1.
         -4   -1    0    0    0  501 -0.00000000000E+00 -0.00000000000E+00 -0.11611311614E+03  0.11612006132E+03  0.12700000000E+01 0. -1.
         25    2    1    2    0    0  0.00000000000E+00  0.00000000000E+00 -0.82491845351E+02  0.14976530986E+03  0.12499897395E+03 0.  0.
    9000005    1    3    3    0    0  0.21347600006E+02  0.63231902184E+01 -0.11120580222E+03  0.11341707635E+03  0.10000000000E+01 0.  0.
    9000005    1    3    3    0    0 -0.21347600006E+02 -0.63231902184E+01  0.28713956868E+02  0.36348233514E+02  0.10000000000E+01 0.  0.
<mgrwt>
<rscale>  0 0.12499897E+03</rscale>
<asrwt>0</asrwt>
<pdfrwt beam="1">  1        4 0.51748819E-02 0.12499897E+03</pdfrwt>
<pdfrwt beam="2">  1       -4 0.17865935E-01 0.12499897E+03</pdfrwt>
<totfact> 0.99352795E+03</totfact>
</mgrwt>
</event>
<event>
 5    1  0.3312706E-002  0.1250030E+03  0.7818608E-02  0.1235065E+00
         -4   -1    0    0    0  501 -0.00000000000E+00  0.00000000000E+00  0.84086487342E+02  0.84096077515E+02  0.12700000000E+01 0. -1.
          4   -1    0    0  501    0  0.00000000000E+00 -0.00000000000E+00 -0.46436483824E+02  0.46453847311E+02  0.12700000000E+01 0. -1.
         25    2    1    2    0    0  0.00000000000E+00  0.00000000000E+00  0.37650003517E+02  0.13054992483E+03  0.12500304039E+03 0.  0.
    9000005    1    3    3    0    0  0.30022218405E+02 -0.48349554324E+02 -0.81357718802E+01  0.57499598132E+02  0.10000000000E+01 0.  0.
    9000005    1    3    3    0    0 -0.30022218405E+02  0.48349554324E+02  0.45785775398E+02  0.73050326694E+02  0.10000000000E+01 0.  0.
<mgrwt>
<rscale>  0 0.12500304E+03</rscale>
<asrwt>0</asrwt>
<pdfrwt beam="2">  1        4 0.71461478E-02 0.12500304E+03</pdfrwt>
<pdfrwt beam="1">  1       -4 0.12938456E-01 0.12500304E+03</pdfrwt>
<totfact> 0.10332039E+04</totfact>
</mgrwt>
</event>
<event>
 5    1  0.3312706E-002  0.1250005E+03  0.7818608E-02  0.1235069E+00
          4   -1    0    0  501    0  0.00000000000E+00  0.00000000000E+00  0.13851989181E+02  0.13910086422E+02  0.12700000000E+01 0.  1.
         -4   -1    0    0    0  501 -0.00000000000E+00 -0.00000000000E+00 -0.28135159569E+03  0.28135446201E+03  0.12700000000E+01 0.  1.
         25    2    1    2    0    0  0.00000000000E+00  0.00000000000E+00 -0.26749960651E+03  0.29526454844E+03  0.12500045633E+03 0.  0.
    9000005    1    3    3    0    0  0.53781569502E+02 -0.31553078699E+02 -0.12394647913E+03  0.13875079705E+03  0.10000000000E+01 0.  0.
    9000005    1    3    3    0    0 -0.53781569502E+02  0.31553078699E+02 -0.14355312738E+03  0.15651375139E+03  0.10000000000E+01 0.  0.
<mgrwt>
<rscale>  0 0.12500046E+03</rscale>
<asrwt>0</asrwt>
<pdfrwt beam="1">  1        4 0.21357650E-02 0.12500046E+03</pdfrwt>
<pdfrwt beam="2">  1       -4 0.43289546E-01 0.12500046E+03</pdfrwt>
<totfact> 0.76195940E+03</totfact>
</mgrwt>
</event>
<event>
 5    1  0.3312706E-002  0.1250075E+03  0.7818608E-02  0.1235058E+00
         -4   -1    0    0    0  501 -0.00000000000E+00  0.00000000000E+00  0.10897251232E+02  0.10971006536E+02  0.12700000000E+01 0. -1.
          4   -1    0    0  501    0  0.00000000000E+00 -0.00000000000E+00 -0.35722068521E+03  0.35722294277E+03  0.12700000000E+01 0. -1.
         25    2    1    2    0    0  0.00000000000E+00  0.00000000000E+00 -0.34632343398E+03  0.36819394931E+03  0.12500745332E+03 0.  0.
    9000005    1    3    3    0    0 -0.44020122151E+01 -0.46318531123E+02 -0.29605598293E+03  0.29969138970E+03  0.10000000000E+01 0.  0.
    9000005    1    3    3    0    0  0.44020122151E+01  0.46318531123E+02 -0.50267451056E+02  0.68502559607E+02  0.10000000000E+01 0.  0.
<mgrwt>
<rscale>  0 0.12500745E+03</rscale>
<asrwt>0</asrwt>
<pdfrwt beam="2">  1        4 0.54962866E-01 0.12500745E+03</pdfrwt>
<pdfrwt beam="1">  1       -4 0.16823476E-02 0.12500745E+03</pdfrwt>
<totfact> 0.67757145E+03</totfact>
</mgrwt>
</event>
<event>
 5    1  0.3312706E-002  0.1250020E+03  0.7818608E-02  0.1235066E+00
         -4   -1    0    0    0  501 -0.00000000000E+00  0.00000000000E+00  0.26729693829E+01  0.29593352838E+01  0.12700000000E+01 0. -1.
          4   -1    0    0  501    0  0.00000000000E+00 -0.00000000000E+00 -0.13868458847E+04  0.13868464662E+04  0.12700000000E+01 0. -1.
         25    2    1    2    0    0  0.00000000000E+00  0.00000000000E+00 -0.13841729153E+04  0.13898058015E+04  0.12500202534E+03 0.  0.
    9000005    1    3    3    0    0  0.53351242223E+02 -0.88553961038E+01 -0.10402503986E+04  0.10416557324E+04  0.10000000000E+01 0.  0.
    9000005    1    3    3    0    0 -0.53351242223E+02  0.88553961038E+01 -0.34392251675E+03  0.34815006910E+03  0.10000000000E+01 0.  0.
<mgrwt>
<rscale>  0 0.12500203E+03</rscale>
<asrwt>0</asrwt>
<pdfrwt beam="2">  1        4 0.21338243E+00 0.12500203E+03</pdfrwt>
<pdfrwt beam="1">  1       -4 0.43330004E-03 0.12500203E+03</pdfrwt>
<totfact> 0.20199931E+03</totfact>
</mgrwt>
</event>
<event>
 5    1  0.3312706E-002  0.1250009E+03  0.7818608E-02  0.1235068E+00
         -4   -1    0    0    0  501 -0.00000000000E+00  0.00000000000E+00  0.60253040670E+01  0.61576934886E+01  0.12700000000E+01 0. -1.
          4   -1    0    0  501    0  0.00000000000E+00 -0.00000000000E+00 -0.64113839193E+03  0.64113964977E+03  0.12700000000E+01 0. -1.
         25    2    1    2    0    0  0.00000000000E+00  0.00000000000E+00 -0.63511308786E+03  0.64729734326E+03  0.12500086485E+03 0.  0.
    9000005    1    3    3    0    0 -0.61630988534E+02  0.13134722540E+01 -0.37066930464E+03  0.37576167628E+03  0.10000000000E+01 0.  0.
    9000005    1    3    3    0    0  0.61630988534E+02 -0.13134722540E+01 -0.26444378323E+03  0.27153566698E+03  0.10000000000E+01 0.  0.
<mgrwt>
<rscale>  0 0.12500086E+03</rscale>
<asrwt>0</asrwt>
<pdfrwt beam="2">  1        4 0.98646903E-01 0.12500086E+03</pdfrwt>
<pdfrwt beam="1">  1       -4 0.93725092E-03 0.12500086E+03</pdfrwt>
<totfact> 0.46010984E+03</totfact>
</mgrwt>
</event>
<event>
 5    1  0.3312706E-002  0.1249952E+03  0.7818608E-02  0.1235077E+00
          4   -1    0    0  501    0  0.00000000000E+00  0.00000000000E+00  0.23488390592E+03  0.23488733929E+03  0.12700000000E+01 0.  1.
         -4   -1    0    0    0  501 -0.00000000000E+00 -0.00000000000E+00 -0.16601474337E+02  0.16649980486E+02  0.12700000000E+01 0.  1.
         25    2    1    2    0    0  0.00000000000E+00  0.00000000000E+00  0.21828243158E+03  0.25153731978E+03  0.12499521312E+03 0.  0.
    9000005    1    3    3    0    0  0.22622317767E+02  0.15687313908E+02 -0.37508997838E+01  0.27801624557E+02  0.10000000000E+01 0.  0.
    9000005    1    3    3    0    0 -0.22622317767E+02 -0.15687313908E+02  0.22203333137E+03  0.22373569522E+03  0.10000000000E+01 0.  0.
<mgrwt>
<rscale>  0 0.12499521E+03</rscale>
<asrwt>0</asrwt>
<pdfrwt beam="1">  1        4 0.36139979E-01 0.12499521E+03</pdfrwt>
<pdfrwt beam="2">  1       -4 0.25580684E-02 0.12499521E+03</pdfrwt>
<totfact> 0.82117300E+03</totfact>
</mgrwt>
</event>
<event>
 5    1  0.3312706E-002  0.1250093E+03  0.7818608E-02  0.1235055E+00
         -4   -1    0    0    0  501 -0.00000000000E+00  0.00000000000E+00  0.96219013952E+02  0.96227394986E+02  0.12700000000E+01 0.  1.
          4   -1    0    0  501    0  0.00000000000E+00 -0.00000000000E+00 -0.40583455170E+02  0.40603321706E+02  0.12700000000E+01 0.  1.
         25    2    1    2    0    0  0.00000000000E+00  0.00000000000E+00  0.55635558782E+02  0.13683071669E+03  0.12500931817E+03 0.  0.
    9000005    1    3    3    0    0  0.97673147349E+01  0.61302008458E+02  0.35748327463E+02  0.71639930168E+02  0.10000000000E+01 0.  0.
    9000005    1    3    3    0    0 -0.97673147349E+01 -0.61302008458E+02  0.19887231319E+02  0.65190786524E+02  0.10000000000E+01 0.  0.
<mgrwt>
<rscale>  0 0.12500932E+03</rscale>
<asrwt>0</asrwt>
<pdfrwt beam="2">  1        4 0.62457814E-02 0.12500932E+03</pdfrwt>
<pdfrwt beam="1">  1       -4 0.14805098E-01 0.12500932E+03</pdfrwt>
<totfact> 0.10197484E+04</totfact>
</mgrwt>
</event>
<event>
 5    1  0.3312706E-002  0.1249969E+03  0.7818608E-02  0.1235074E+00
          4   -1    0    0  501    0  0.00000000000E+00  0.00000000000E+00  0.13039892809E+02  0.13101591677E+02  0.12700000000E+01 0.  1.
         -4   -1    0    0    0  501 -0.00000000000E+00 -0.00000000000E+00 -0.29877652598E+03  0.29877922514E+03  0.12700000000E+01 0.  1.
         25    2    1    2    0    0  0.00000000000E+00  0.00000000000E+00 -0.28573663317E+03  0.31188081682E+03  0.12499688142E+03 0.  0.
    9000005    1    3    3    0    0  0.30873339639E+02 -0.53956676559E+02 -0.15876062114E+03  0.17050050109E+03  0.10000000000E+01 0.  0.
    9000005    1    3    3    0    0 -0.30873339639E+02  0.53956676559E+02 -0.12697601203E+03  0.14138031573E+03  0.10000000000E+01 0.  0.
<mgrwt>
<rscale>  0 0.12499688E+03</rscale>
<asrwt>0</asrwt>
<pdfrwt beam="1">  1        4 0.20110913E-02 0.12499688E+03</pdfrwt>
<pdfrwt beam="2">  1       -4 0.45970568E-01 0.12499688E+03</pdfrwt>
<totfact> 0.74137426E+03</totfact>
</mgrwt>
</event>
<event>
 5    1  0.3312706E-002  0.1250013E+03  0.7818608E-02  0.1235067E+00
         -4   -1    0    0    0  501 -0.00000000000E+00  0.00000000000E+00  0.41249418019E+02  0.41268963967E+02  0.12700000000E+01 0.  1.
          4   -1    0    0  501    0  0.00000000000E+00 -0.00000000000E+00 -0.94654098609E+02  0.94662618195E+02  0.12700000000E+01 0.  1.
         25    2    1    2    0    0  0.00000000000E+00  0.00000000000E+00 -0.53404680590E+02  0.13593158216E+03  0.12500134047E+03 0.  0.
    9000005    1    3    3    0    0  0.64792424565E+01 -0.61716518629E+02 -0.18679964026E+02  0.64813966940E+02  0.10000000000E+01 0.  0.
    9000005    1    3    3    0    0 -0.64792424565E+01  0.61716518629E+02 -0.34724716564E+02  0.71117615222E+02  0.10000000000E+01 0.  0.
<mgrwt>
<rscale>  0 0.12500134E+03</rscale>
<asrwt>0</asrwt>
<pdfrwt beam="2">  1        4 0.14564328E-01 0.12500134E+03</pdfrwt>
<pdfrwt beam="1">  1       -4 0.63482232E-02 0.12500134E+03</pdfrwt>
<totfact> 0.10218164E+04</totfact>
</mgrwt>
</event>
<event>
 5    1  0.3312706E-002  0.1249970E+03  0.7818608E-02  0.1235074E+00
         -4   -1    0    0    0  501 -0.00000000000E+00  0.00000000000E+00  0.49530607539E+01  0.51132876734E+01  0.12700000000E+01 0.  1.
          4   -1    0    0  501    0  0.00000000000E+00 -0.00000000000E+00 -0.77590297002E+03  0.77590400939E+03  0.12700000000E+01 0.  1.
         25    2    1    2    0    0  0.00000000000E+00  0.00000000000E+00 -0.77094990927E+03  0.78101729706E+03  0.12499702282E+03 0.  0.
    9000005    1    3    3    0    0  0.47556947038E+02 -0.28313119892E+02 -0.56675799589E+03  0.56945493402E+03  0.10000000000E+01 0.  0.
    9000005    1    3    3    0    0 -0.47556947038E+02  0.28313119892E+02 -0.20419191337E+03  0.21156236304E+03  0.10000000000E+01 0.  0.
<mgrwt>
<rscale>  0 0.12499702E+03</rscale>
<asrwt>0</asrwt>
<pdfrwt beam="2">  1        4 0.11938200E+00 0.12499702E+03</pdfrwt>
<pdfrwt beam="1">  1       -4 0.77441506E-03 0.12499702E+03</pdfrwt>
<totfact> 0.39128911E+03</totfact>
</mgrwt>
</event>
<event>
 5    1  0.3312706E-002  0.1249999E+03  0.7818608E-02  0.1235069E+00
          4   -1    0    0  501    0  0.00000000000E+00  0.00000000000E+00  0.98966677919E+03  0.98966759406E+03  0.12700000000E+01 0.  1.
         -4   -1    0    0    0  501 -0.00000000000E+00 -0.00000000000E+00 -0.38440321963E+01  0.40483927090E+01  0.12700000000E+01 0.  1.
         25    2    1    2    0    0  0.00000000000E+00  0.00000000000E+00  0.98582274699E+03  0.99371598677E+03  0.12499989548E+03 0.  0.
    9000005    1    3    3    0    0  0.10696785115E+02  0.44190289970E+02  0.15208737402E+03  0.15874121165E+03  0.10000000000E+01 0.  0.
    9000005    1    3    3    0    0 -0.10696785115E+02 -0.44190289970E+02  0.83373537297E+03  0.83497477512E+03  0.10000000000E+01 0.  0.
<mgrwt>
<rscale>  0 0.12499990E+03</rscale>
<asrwt>0</asrwt>
<pdfrwt beam="1">  1        4 0.15227210E+00 0.12499990E+03</pdfrwt>
<pdfrwt beam="2">  1       -4 0.60717275E-03 0.12499990E+03</pdfrwt>
<totfact> 0.30812973E+03</totfact>
</mgrwt>
</event>
<event>
 4    1  0.3312706E-002  0.1244970E+03  0.7818608E-02  0.1235857E+00
         -4   -1    0    0    0  501 -0.00000000000E+00  0.00000000000E+00  0.11844865032E+02  0.11912754829E+02  0.12700000000E+01 0. -1.
          4   -1    0    0  501    0  0.00000000000E+00 -0.00000000000E+00 -0.32613168015E+03  0.32613415292E+03  0.12700000000E+01 0. -1.
    9000005    1    1    2    0    0  0.61331905864E+02  0.31656837302E+01 -0.18460061841E+03  0.19455079683E+03  0.10000000000E+01 0.  0.
    9000005    1    1    2    0    0 -0.61331905864E+02 -0.31656837302E+01 -0.12968619671E+03  0.14349611091E+03  0.10000000000E+01 0.  0.
<mgrwt>
<rscale>  0 0.12449703E+03</rscale>
<asrwt>0</asrwt>
<pdfrwt beam="2">  1        4 0.50179510E-01 0.12449703E+03</pdfrwt>
<pdfrwt beam="1">  1       -4 0.18276997E-02 0.12449703E+03</pdfrwt>
<totfact> 0.71857201E+03</totfact>
</mgrwt>
</event>
<event>
 5    1  0.3312706E-002  0.1250047E+03  0.7818608E-02  0.1235062E+00
         -4   -1    0    0    0  501 -0.00000000000E+00  0.00000000000E+00  0.75418105068E+01  0.76479935749E+01  0.12700000000E+01 0. -1.
          4   -1    0    0  501    0  0.00000000000E+00 -0.00000000000E+00 -0.51425698194E+03  0.51425855012E+03  0.12700000000E+01 0. -1.
         25    2    1    2    0    0  0.00000000000E+00  0.00000000000E+00 -0.50671517143E+03  0.52190654370E+03  0.12500470149E+03 0.  0.
    9000005    1    3    3    0    0  0.26551474271E+02  0.39099611366E+02 -0.82648590544E+02  0.95213181408E+02  0.10000000000E+01 0.  0.
    9000005    1    3    3    0    0 -0.26551474271E+02 -0.39099611366E+02 -0.42406658089E+03  0.42669336229E+03  0.10000000000E+01 0.  0.
<mgrwt>
<rscale>  0 0.12500470E+03</rscale>
<asrwt>0</asrwt>
<pdfrwt beam="2">  1        4 0.79124720E-01 0.12500470E+03</pdfrwt>
<pdfrwt beam="1">  1       -4 0.11685675E-02 0.12500470E+03</pdfrwt>
<totfact> 0.54198278E+03</totfact>
</mgrwt>
</event>
<event>
 5    1  0.3312706E-002  0.1250543E+03  0.7818608E-02  0.1234984E+00
          4   -1    0    0  501    0  0.00000000000E+00  0.00000000000E+00  0.10256635034E+03  0.10257421276E+03  0.12700000000E+01 0. -1.
         -4   -1    0    0    0  501 -0.00000000000E+00 -0.00000000000E+00 -0.38098313605E+02  0.38119475332E+02  0.12700000000E+01 0. -1.
         25    2    1    2    0    0  0.00000000000E+00  0.00000000000E+00  0.64468036737E+02  0.14069368809E+03  0.12505433262E+03 0.  0.
    9000005    1    3    3    0    0  0.28367362870E+02 -0.22353285058E+02  0.89648158753E+02  0.96654896394E+02  0.10000000000E+01 0.  0.
    9000005    1    3    3    0    0 -0.28367362870E+02  0.22353285058E+02 -0.25180122016E+02  0.44038791694E+02  0.10000000000E+01 0.  0.
<mgrwt>
<rscale>  0 0.12505433E+03</rscale>
<asrwt>0</asrwt>
<pdfrwt beam="1">  1        4 0.15781671E-01 0.12505433E+03</pdfrwt>
<pdfrwt beam="2">  1       -4 0.58635117E-02 0.12505433E+03</pdfrwt>
<totfact> 0.10106853E+04</totfact>
</mgrwt>
</event>
<event>
 5    1  0.3312706E-002  0.1249901E+03  0.7818608E-02  0.1235085E+00
          4   -1    0    0  501    0  0.00000000000E+00  0.00000000000E+00  0.34755782280E+03  0.34756014313E+03  0.12700000000E+01 0. -1.
         -4   -1    0    0    0  501 -0.00000000000E+00 -0.00000000000E+00 -0.11199115005E+02  0.11270895123E+02  0.12700000000E+01 0. -1.
         25    2    1    2    0    0  0.00000000000E+00  0.00000000000E+00  0.33635870780E+03  0.35883103825E+03  0.12499013442E+03 0.  0.
    9000005    1    3    3    0    0 -0.32440178960E+02 -0.30649437605E+02  0.42617375131E+02  0.61717047074E+02  0.10000000000E+01 0.  0.
    9000005    1    3    3    0    0  0.32440178960E+02  0.30649437605E+02  0.29374133267E+03  0.29711399118E+03  0.10000000000E+01 0.  0.
<mgrwt>
<rscale>  0 0.12499013E+03</rscale>
<asrwt>0</asrwt>
<pdfrwt beam="1">  1        4 0.53476137E-01 0.12499013E+03</pdfrwt>
<pdfrwt beam="2">  1       -4 0.17286407E-02 0.12499013E+03</pdfrwt>
<totfact> 0.68778841E+03</totfact>
</mgrwt>
</event>
<event>
 5    1  0.3312706E-002  0.1250002E+03  0.7818608E-02  0.1235069E+00
          4   -1    0    0  501    0  0.00000000000E+00  0.00000000000E+00  0.80790306260E+01  0.81782416115E+01  0.12700000000E+01 0.  1.
         -4   -1    0    0    0  501 -0.00000000000E+00 -0.00000000000E+00 -0.48045598036E+03  0.48045765887E+03  0.12700000000E+01 0.  1.
         25    2    1    2    0    0  0.00000000000E+00  0.00000000000E+00 -0.47237694974E+03  0.48863590048E+03  0.12500024238E+03 0.  0.
    9000005    1    3    3    0    0 -0.94504339064E+01 -0.16959092449E+02 -0.39896838184E+01  0.19845379681E+02  0.10000000000E+01 0.  0.
    9000005    1    3    3    0    0  0.94504339064E+01  0.16959092449E+02 -0.46838726592E+03  0.46879052080E+03  0.10000000000E+01 0.  0.
<mgrwt>
<rscale>  0 0.12500024E+03</rscale>
<asrwt>0</asrwt>
<pdfrwt beam="1">  1        4 0.12506889E-02 0.12500024E+03</pdfrwt>
<pdfrwt beam="2">  1       -4 0.73924043E-01 0.12500024E+03</pdfrwt>
<totfact> 0.56756695E+03</totfact>
</mgrwt>
</event>
<event>
 5    1  0.3312706E-002  0.1250008E+03  0.7818608E-02  0.1235068E+00
          4   -1    0    0  501    0  0.00000000000E+00  0.00000000000E+00  0.25337977513E+03  0.25338295788E+03  0.12700000000E+01 0.  1.
         -4   -1    0    0    0  501 -0.00000000000E+00 -0.00000000000E+00 -0.15387330739E+02  0.15439651786E+02  0.12700000000E+01 0.  1.
         25    2    1    2    0    0  0.00000000000E+00  0.00000000000E+00  0.23799244439E+03  0.26882260967E+03  0.12500076752E+03 0.  0.
    9000005    1    3    3    0    0  0.16307447183E+02  0.59872038919E+02  0.13490229704E+03  0.14849317703E+03  0.10000000000E+01 0.  0.
    9000005    1    3    3    0    0 -0.16307447183E+02 -0.59872038919E+02  0.10309014735E+03  0.12032943264E+03  0.10000000000E+01 0.  0.
<mgrwt>
<rscale>  0 0.12500077E+03</rscale>
<asrwt>0</asrwt>
<pdfrwt beam="1">  1        4 0.38985775E-01 0.12500077E+03</pdfrwt>
<pdfrwt beam="2">  1       -4 0.23715511E-02 0.12500077E+03</pdfrwt>
<totfact> 0.79682294E+03</totfact>
</mgrwt>
</event>
<event>
 5    1  0.3312706E-002  0.1249996E+03  0.7818608E-02  0.1235070E+00
         -4   -1    0    0    0  501 -0.00000000000E+00  0.00000000000E+00  0.52558818928E+01  0.54071429120E+01  0.12700000000E+01 0.  1.
          4   -1    0    0  501    0  0.00000000000E+00 -0.00000000000E+00 -0.73251528723E+03  0.73251638816E+03  0.12700000000E+01 0.  1.
         25    2    1    2    0    0  0.00000000000E+00  0.00000000000E+00 -0.72725940533E+03  0.73792353107E+03  0.12499958024E+03 0.  0.
    9000005    1    3    3    0    0 -0.62245372816E+02  0.55270943038E+01 -0.36106625775E+03  0.36643536633E+03  0.10000000000E+01 0.  0.
    9000005    1    3    3    0    0  0.62245372816E+02 -0.55270943038E+01 -0.36619314758E+03  0.37148816474E+03  0.10000000000E+01 0.  0.
<mgrwt>
<rscale>  0 0.12499958E+03</rscale>
<asrwt>0</asrwt>
<pdfrwt beam="2">  1        4 0.11270630E+00 0.12499958E+03</pdfrwt>
<pdfrwt beam="1">  1       -4 0.82031795E-03 0.12499958E+03</pdfrwt>
<totfact> 0.41158925E+03</totfact>
</mgrwt>
</event>
<event>
 5    1  0.3312706E-002  0.1250003E+03  0.7818608E-02  0.1235069E+00
         -4   -1    0    0    0  501 -0.00000000000E+00  0.00000000000E+00  0.30470408211E+02  0.30496863389E+02  0.12700000000E+01 0. -1.
          4   -1    0    0  501    0  0.00000000000E+00 -0.00000000000E+00 -0.12811350114E+03  0.12811979579E+03  0.12700000000E+01 0. -1.
         25    2    1    2    0    0  0.00000000000E+00  0.00000000000E+00 -0.97643092926E+02  0.15861665918E+03  0.12500028389E+03 0.  0.
    9000005    1    3    3    0    0  0.17845237238E+02  0.17322125221E+02 -0.12156966146E+03  0.12409146264E+03  0.10000000000E+01 0.  0.
    9000005    1    3    3    0    0 -0.17845237238E+02 -0.17322125221E+02  0.23926568531E+02  0.34525196537E+02  0.10000000000E+01 0.  0.
<mgrwt>
<rscale>  0 0.12500028E+03</rscale>
<asrwt>0</asrwt>
<pdfrwt beam="2">  1        4 0.19712288E-01 0.12500028E+03</pdfrwt>
<pdfrwt beam="1">  1       -4 0.46902744E-02 0.12500028E+03</pdfrwt>
<totfact> 0.97609524E+03</totfact>
</mgrwt>
</event>
<event>
 5    1  0.3312706E-002  0.1249928E+03  0.7818608E-02  0.1235081E+00
         -4   -1    0    0    0  501 -0.00000000000E+00  0.00000000000E+00  0.24276488128E+03  0.24276820319E+03  0.12700000000E+01 0.  1.
          4   -1    0    0  501    0  0.00000000000E+00 -0.00000000000E+00 -0.16060321133E+02  0.16110456694E+02  0.12700000000E+01 0.  1.
         25    2    1    2    0    0  0.00000000000E+00  0.00000000000E+00  0.22670456014E+03  0.25887865989E+03  0.12499281161E+03 0.  0.
    9000005    1    3    3    0    0  0.86720493013E+01  0.58639657197E+02  0.15430590229E+03  0.16530313160E+03  0.10000000000E+01 0.  0.
    9000005    1    3    3    0    0 -0.86720493013E+01 -0.58639657197E+02  0.72398657856E+02  0.93575528289E+02  0.10000000000E+01 0.  0.
<mgrwt>
<rscale>  0 0.12499281E+03</rscale>
<asrwt>0</asrwt>
<pdfrwt beam="2">  1        4 0.24749309E-02 0.12499281E+03</pdfrwt>
<pdfrwt beam="1">  1       -4 0.37352552E-01 0.12499281E+03</pdfrwt>
<totfact> 0.81076658E+03</totfact>
</mgrwt>
</event>
<event>
 5    1  0.3312706E-002  0.1249992E+03  0.7818608E-02  0.1235071E+00
         -4   -1    0    0    0  501 -0.00000000000E+00  0.00000000000E+00  0.37368409580E+03  0.37368625390E+03  0.12700000000E+01 0. -1.
          4   -1    0    0  501    0  0.00000000000E+00 -0.00000000000E+00 -0.10412436152E+02  0.10489600880E+02  0.12700000000E+01 0. -1.
         25    2    1    2    0    0  0.00000000000E+00  0.00000000000E+00  0.36327165965E+03  0.38417585478E+03  0.12499915477E+03 0.  0.
    9000005    1    3    3    0    0  0.28770985658E+02  0.41032391007E+02  0.29637682585E+03  0.30058551134E+03  0.10000000000E+01 0.  0.
    9000005    1    3    3    0    0 -0.28770985658E+02 -0.41032391007E+02  0.66894833807E+02  0.83590343447E+02  0.10000000000E+01 0.  0.
<mgrwt>
<rscale>  0 0.12499915E+03</rscale>
<asrwt>0</asrwt>
<pdfrwt beam="2">  1        4 0.16080150E-02 0.12499915E+03</pdfrwt>
<pdfrwt beam="1">  1       -4 0.57495963E-01 0.12499915E+03</pdfrwt>
<totfact> 0.66122717E+03</totfact>
</mgrwt>
</event>
<event>
 5    1  0.3312706E-002  0.1250053E+03  0.7818608E-02  0.1235061E+00
         -4   -1    0    0    0  501 -0.00000000000E+00  0.00000000000E+00  0.99706547251E+01  0.10051211651E+02  0.12700000000E+01 0.  1.
          4   -1    0    0  501    0  0.00000000000E+00 -0.00000000000E+00 -0.39015015619E+03  0.39015222321E+03  0.12700000000E+01 0.  1.
         25    2    1    2    0    0  0.00000000000E+00  0.00000000000E+00 -0.38017950147E+03  0.40020343486E+03  0.12500534364E+03 0.  0.
    9000005    1    3    3    0    0  0.35073332122E+02  0.50112624410E+02 -0.23111010827E+03  0.23906964654E+03  0.10000000000E+01 0.  0.
    9000005    1    3    3    0    0 -0.35073332122E+02 -0.50112624410E+02 -0.14906939319E+03  0.16113378832E+03  0.10000000000E+01 0.  0.
<mgrwt>
<rscale>  0 0.12500534E+03</rscale>
<asrwt>0</asrwt>
<pdfrwt beam="2">  1        4 0.60029445E-01 0.12500534E+03</pdfrwt>
<pdfrwt beam="1">  1       -4 0.15403029E-02 0.12500534E+03</pdfrwt>
<totfact> 0.64525401E+03</totfact>
</mgrwt>
</event>
<event>
 5    1  0.3312706E-002  0.1249972E+03  0.7818608E-02  0.1235074E+00
         -4   -1    0    0    0  501 -0.00000000000E+00  0.00000000000E+00  0.67343059254E+03  0.67343179007E+03  0.12700000000E+01 0.  1.
          4   -1    0    0  501    0  0.00000000000E+00 -0.00000000000E+00 -0.57295325215E+01  0.58685980366E+01  0.12700000000E+01 0.  1.
         25    2    1    2    0    0  0.00000000000E+00  0.00000000000E+00  0.66770106002E+03  0.67930038810E+03  0.12499724687E+03 0.  0.
    9000005    1    3    3    0    0 -0.45662730451E+02 -0.40213927696E+02  0.41124870495E+03  0.41572676394E+03  0.10000000000E+01 0.  0.
    9000005    1    3    3    0    0  0.45662730451E+02  0.40213927696E+02  0.25645235507E+03  0.26357362416E+03  0.10000000000E+01 0.  0.
<mgrwt>
<rscale>  0 0.12499725E+03</rscale>
<asrwt>0</asrwt>
<pdfrwt beam="2">  1        4 0.89225635E-03 0.12499725E+03</pdfrwt>
<pdfrwt beam="1">  1       -4 0.10361546E+00 0.12499725E+03</pdfrwt>
<totfact> 0.44204837E+03</totfact>
</mgrwt>
</event>
<event>
 5    1  0.3312706E-002  0.1250014E+03  0.7818608E-02  0.1235067E+00
         -4   -1    0    0    0  501 -0.00000000000E+00  0.00000000000E+00  0.85404786457E+01  0.86343891213E+01  0.12700000000E+01 0. -1.
          4   -1    0    0  501    0  0.00000000000E+00 -0.00000000000E+00 -0.45479507424E+03  0.45479684745E+03  0.12700000000E+01 0. -1.
         25    2    1    2    0    0  0.00000000000E+00  0.00000000000E+00 -0.44625459559E+03  0.46343123657E+03  0.12500138777E+03 0.  0.
    9000005    1    3    3    0    0  0.56764401433E+02 -0.16066618875E+02 -0.14669681892E+03  0.15811796290E+03  0.10000000000E+01 0.  0.
    9000005    1    3    3    0    0 -0.56764401433E+02  0.16066618875E+02 -0.29955777668E+03  0.30531327367E+03  0.10000000000E+01 0.  0.
<mgrwt>
<rscale>  0 0.12500139E+03</rscale>
<asrwt>0</asrwt>
<pdfrwt beam="2">  1        4 0.69975815E-01 0.12500139E+03</pdfrwt>
<pdfrwt beam="1">  1       -4 0.13212804E-02 0.12500139E+03</pdfrwt>
<totfact> 0.58815866E+03</totfact>
</mgrwt>
</event>
<event>
 5    1  0.3312706E-002  0.1249990E+03  0.7818608E-02  0.1235071E+00
          4   -1    0    0  501    0  0.00000000000E+00  0.00000000000E+00  0.70058517927E+02  0.70070028073E+02  0.12700000000E+01 0.  1.
         -4   -1    0    0    0  501 -0.00000000000E+00 -0.00000000000E+00 -0.55732766825E+02  0.55747234891E+02  0.12700000000E+01 0.  1.
         25    2    1    2    0    0  0.00000000000E+00  0.00000000000E+00  0.14325751101E+02  0.12581726296E+03  0.12499902606E+03 0.  0.
    9000005    1    3    3    0    0 -0.75499375164E+00  0.43417875320E+02 -0.38070219877E+02  0.57758320218E+02  0.10000000000E+01 0.  0.
    9000005    1    3    3    0    0  0.75499375164E+00 -0.43417875320E+02  0.52395970979E+02  0.68058942746E+02  0.10000000000E+01 0.  0.
<mgrwt>
<rscale>  0 0.12499903E+03</rscale>
<asrwt>0</asrwt>
<pdfrwt beam="1">  1        4 0.10780232E-01 0.12499903E+03</pdfrwt>
<pdfrwt beam="2">  1       -4 0.85762701E-02 0.12499903E+03</pdfrwt>
<totfact> 0.10435195E+04</totfact>
</mgrwt>
</event>
<event>
 5    1  0.3312706E-002  0.1249937E+03  0.7818608E-02  0.1235079E+00
         -4   -1    0    0    0  501 -0.00000000000E+00  0.00000000000E+00  0.77816460177E+01  0.78845998469E+01  0.12700000000E+01 0. -1.
          4   -1    0    0  501    0  0.00000000000E+00 -0.00000000000E+00 -0.49852949094E+03  0.49853110859E+03  0.12700000000E+01 0. -1.
         25    2    1    2    0    0  0.00000000000E+00  0.00000000000E+00 -0.49074784492E+03  0.50641570844E+03  0.12499368968E+03 0.  0.
    9000005    1    3    3    0    0  0.10950475988E+02  0.61385045214E+02 -0.26198960043E+03  0.26930946406E+03  0.10000000000E+01 0.  0.
    9000005    1    3    3    0    0 -0.10950475988E+02 -0.61385045214E+02 -0.22875824449E+03  0.23710624438E+03  0.10000000000E+01 0.  0.
<mgrwt>
<rscale>  0 0.12499369E+03</rscale>
<asrwt>0</asrwt>
<pdfrwt beam="2">  1        4 0.76704864E-01 0.12499369E+03</pdfrwt>
<pdfrwt beam="1">  1       -4 0.12052207E-02 0.12499369E+03</pdfrwt>
<totfact> 0.55377693E+03</totfact>
</mgrwt>
</event>
<event>
 5    1  0.3312706E-002  0.1250011E+03  0.7818608E-02  0.1235068E+00
          4   -1    0    0  501    0  0.00000000000E+00  0.00000000000E+00  0.47637392457E+02  0.47654318378E+02  0.12700000000E+01 0.  1.
         -4   -1    0    0    0  501 -0.00000000000E+00 -0.00000000000E+00 -0.81964632832E+02  0.81974471241E+02  0.12700000000E+01 0.  1.
         25    2    1    2    0    0  0.00000000000E+00  0.00000000000E+00 -0.34327240375E+02  0.12962878962E+03  0.12500105466E+03 0.  0.
    9000005    1    3    3    0    0  0.11411827055E+02 -0.32371623221E+02 -0.71319227027E+02  0.79155441572E+02  0.10000000000E+01 0.  0.
    9000005    1    3    3    0    0 -0.11411827055E+02  0.32371623221E+02  0.36991986652E+02  0.50473348048E+02  0.10000000000E+01 0.  0.
<mgrwt>
<rscale>  0 0.12500105E+03</rscale>
<asrwt>0</asrwt>
<pdfrwt beam="1">  1        4 0.73308884E-02 0.12500105E+03</pdfrwt>
<pdfrwt beam="2">  1       -4 0.12612002E-01 0.12500105E+03</pdfrwt>
<totfact> 0.10352208E+04</totfact>
</mgrwt>
</event>
<event>
 5    1  0.3312706E-002  0.1249991E+03  0.7818608E-02  0.1235071E+00
         -4   -1    0    0    0  501 -0.00000000000E+00  0.00000000000E+00  0.17620544736E+02  0.17666253049E+02  0.12700000000E+01 0.  1.
          4   -1    0    0  501    0  0.00000000000E+00 -0.00000000000E+00 -0.22134939461E+03  0.22135303791E+03  0.12700000000E+01 0.  1.
         25    2    1    2    0    0  0.00000000000E+00  0.00000000000E+00 -0.20372884987E+03  0.23901929096E+03  0.12499910873E+03 0.  0.
    9000005    1    3    3    0    0 -0.23678527709E+00  0.36365419961E+02 -0.19904121576E+03  0.20233859100E+03  0.10000000000E+01 0.  0.
    9000005    1    3    3    0    0  0.23678527709E+00 -0.36365419961E+02 -0.46876341118E+01  0.36680699963E+02  0.10000000000E+01 0.  0.
<mgrwt>
<rscale>  0 0.12499911E+03</rscale>
<asrwt>0</asrwt>
<pdfrwt beam="2">  1        4 0.34057547E-01 0.12499911E+03</pdfrwt>
<pdfrwt beam="1">  1       -4 0.27146495E-02 0.12499911E+03</pdfrwt>
<totfact> 0.83945313E+03</totfact>
</mgrwt>
</event>
<event>
 5    1  0.3312706E-002  0.1249881E+03  0.7818608E-02  0.1235088E+00
          4   -1    0    0  501    0  0.00000000000E+00  0.00000000000E+00  0.69313354498E+01  0.70467234313E+01  0.12700000000E+01 0. -1.
         -4   -1    0    0    0  501 -0.00000000000E+00 -0.00000000000E+00 -0.55868913091E+03  0.55869057438E+03  0.12700000000E+01 0. -1.
         25    2    1    2    0    0  0.00000000000E+00  0.00000000000E+00 -0.55175779546E+03  0.56573729781E+03  0.12498810055E+03 0.  0.
    9000005    1    3    3    0    0  0.11377106713E+02  0.10919243481E+02 -0.22010737240E+01  0.15953468616E+02  0.10000000000E+01 0.  0.
    9000005    1    3    3    0    0 -0.11377106713E+02 -0.10919243481E+02 -0.54955672174E+03  0.54978382919E+03  0.10000000000E+01 0.  0.
<mgrwt>
<rscale>  0 0.12498810E+03</rscale>
<asrwt>0</asrwt>
<pdfrwt beam="1">  1        4 0.10753468E-02 0.12498810E+03</pdfrwt>
<pdfrwt beam="2">  1       -4 0.85961126E-01 0.12498810E+03</pdfrwt>
<totfact> 0.51117709E+03</totfact>
</mgrwt>
</event>
<event>
 5    1  0.3312706E-002  0.1249999E+03  0.7818608E-02  0.1235069E+00
         -4   -1    0    0    0  501 -0.00000000000E+00  0.00000000000E+00  0.10574744451E+03  0.10575507042E+03  0.12700000000E+01 0. -1.
          4   -1    0    0  501    0  0.00000000000E+00 -0.00000000000E+00 -0.36919513538E+02  0.36941350542E+02  0.12700000000E+01 0. -1.
         25    2    1    2    0    0  0.00000000000E+00  0.00000000000E+00  0.68827930969E+02  0.14269642096E+03  0.12499993790E+03 0.  0.
    9000005    1    3    3    0    0  0.26727115390E+02  0.48970400890E+01  0.98656441319E+02  0.10233480890E+03  0.10000000000E+01 0.  0.
    9000005    1    3    3    0    0 -0.26727115390E+02 -0.48970400890E+01 -0.29828510350E+02  0.40361612064E+02  0.10000000000E+01 0.  0.
<mgrwt>
<rscale>  0 0.12499994E+03</rscale>
<asrwt>0</asrwt>
<pdfrwt beam="2">  1        4 0.56821916E-02 0.12499994E+03</pdfrwt>
<pdfrwt beam="1">  1       -4 0.16271104E-01 0.12499994E+03</pdfrwt>
<totfact> 0.10078018E+04</totfact>
</mgrwt>
</event>
<event>
 5    1  0.3312706E-002  0.1250067E+03  0.7818608E-02  0.1235059E+00
         -4   -1    0    0    0  501 -0.00000000000E+00  0.00000000000E+00  0.12958638327E+04  0.12958644550E+04  0.12700000000E+01 0. -1.
          4   -1    0    0  501    0  0.00000000000E+00 -0.00000000000E+00 -0.28803171772E+01  0.31478765924E+01  0.12700000000E+01 0. -1.
         25    2    1    2    0    0  0.00000000000E+00  0.00000000000E+00  0.12929835155E+04  0.12990123316E+04  0.12500666496E+03 0.  0.
    9000005    1    3    3    0    0 -0.49057061331E+02  0.89629762026E+01  0.25508262491E+03  0.25991359283E+03  0.10000000000E+01 0.  0.
    9000005    1    3    3    0    0  0.49057061331E+02 -0.89629762026E+01  0.10379008906E+04  0.10390987388E+04  0.10000000000E+01 0.  0.
<mgrwt>
<rscale>  0 0.12500666E+03</rscale>
<asrwt>0</asrwt>
<pdfrwt beam="2">  1        4 0.46375569E-03 0.12500666E+03</pdfrwt>
<pdfrwt beam="1">  1       -4 0.19938403E+00 0.12500666E+03</pdfrwt>
<totfact> 0.22248640E+03</totfact>
</mgrwt>
</event>
<event>
 5    1  0.3312706E-002  0.1250005E+03  0.7818608E-02  0.1235068E+00
         -4   -1    0    0    0  501 -0.00000000000E+00  0.00000000000E+00  0.65829070073E+01  0.67042944943E+01  0.12700000000E+01 0.  1.
          4   -1    0    0  501    0  0.00000000000E+00 -0.00000000000E+00 -0.58785477416E+03  0.58785614601E+03  0.12700000000E+01 0.  1.
         25    2    1    2    0    0  0.00000000000E+00  0.00000000000E+00 -0.58127186715E+03  0.59456044050E+03  0.12500053548E+03 0.  0.
    9000005    1    3    3    0    0  0.56313468229E+02  0.13079023622E+01 -0.16191527020E+03  0.17143649564E+03  0.10000000000E+01 0.  0.
    9000005    1    3    3    0    0 -0.56313468229E+02 -0.13079023622E+01 -0.41935659695E+03  0.42312394487E+03  0.10000000000E+01 0.  0.
<mgrwt>
<rscale>  0 0.12500054E+03</rscale>
<asrwt>0</asrwt>
<pdfrwt beam="2">  1        4 0.90448598E-01 0.12500054E+03</pdfrwt>
<pdfrwt beam="1">  1       -4 0.10221984E-02 0.12500054E+03</pdfrwt>
<totfact> 0.49212220E+03</totfact>
</mgrwt>
</event>
<event>
 5    1  0.3312706E-002  0.1250003E+03  0.7818608E-02  0.1235069E+00
          4   -1    0    0  501    0  0.00000000000E+00  0.00000000000E+00  0.78208394905E+02  0.78218705779E+02  0.12700000000E+01 0.  1.
         -4   -1    0    0    0  501 -0.00000000000E+00 -0.00000000000E+00 -0.49925265935E+02  0.49941416466E+02  0.12700000000E+01 0.  1.
         25    2    1    2    0    0  0.00000000000E+00  0.00000000000E+00  0.28283128971E+02  0.12816012224E+03  0.12500032620E+03 0.  0.
    9000005    1    3    3    0    0 -0.36170272454E+01 -0.59961245508E+02 -0.35228987741E+01  0.60181763557E+02  0.10000000000E+01 0.  0.
    9000005    1    3    3    0    0  0.36170272454E+01  0.59961245508E+02  0.31806027745E+02  0.67978358688E+02  0.10000000000E+01 0.  0.
<mgrwt>
<rscale>  0 0.12500033E+03</rscale>
<asrwt>0</asrwt>
<pdfrwt beam="1">  1        4 0.12034096E-01 0.12500033E+03</pdfrwt>
<pdfrwt beam="2">  1       -4 0.76828456E-02 0.12500033E+03</pdfrwt>
<totfact> 0.10383955E+04</totfact>
</mgrwt>
</event>
<event>
 5    1  0.3312706E-002  0.1249990E+03  0.7818608E-02  0.1235071E+00
          4   -1    0    0  501    0  0.00000000000E+00  0.00000000000E+00  0.24401405511E+03  0.24401736002E+03  0.12700000000E+01 0. -1.
         -4   -1    0    0    0  501 -0.00000000000E+00 -0.00000000000E+00 -0.15979429288E+02  0.16029817852E+02  0.12700000000E+01 0. -1.
         25    2    1    2    0    0  0.00000000000E+00  0.00000000000E+00  0.22803462582E+03  0.26004717787E+03  0.12499897658E+03 0.  0.
    9000005    1    3    3    0    0 -0.12698606080E+02  0.36311556310E+02  0.21647335665E+03  0.21986700038E+03  0.10000000000E+01 0.  0.
    9000005    1    3    3    0    0  0.12698606080E+02 -0.36311556310E+02  0.11561269168E+02  0.40180177486E+02  0.10000000000E+01 0.  0.
<mgrwt>
<rscale>  0 0.12499898E+03</rscale>
<asrwt>0</asrwt>
<pdfrwt beam="1">  1        4 0.37544754E-01 0.12499898E+03</pdfrwt>
<pdfrwt beam="2">  1       -4 0.24625040E-02 0.12499898E+03</pdfrwt>
<totfact> 0.80901282E+03</totfact>
</mgrwt>
</event>
<event>
 5    1  0.3312706E-002  0.1249997E+03  0.7818608E-02  0.1235070E+00
         -4   -1    0    0    0  501 -0.00000000000E+00  0.00000000000E+00  0.41690077113E+02  0.41709416559E+02  0.12700000000E+01 0.  1.
          4   -1    0    0  501    0  0.00000000000E+00 -0.00000000000E+00 -0.93651527920E+02  0.93660138702E+02  0.12700000000E+01 0.  1.
         25    2    1    2    0    0  0.00000000000E+00  0.00000000000E+00 -0.51961450807E+02  0.13536955526E+03  0.12499969649E+03 0.  0.
    9000005    1    3    3    0    0  0.19250724421E+02 -0.45979762429E+01 -0.90172883475E+02  0.92324864963E+02  0.10000000000E+01 0.  0.
    9000005    1    3    3    0    0 -0.19250724421E+02  0.45979762429E+01  0.38211432669E+02  0.43044690298E+02  0.10000000000E+01 0.  0.
<mgrwt>
<rscale>  0 0.12499970E+03</rscale>
<asrwt>0</asrwt>
<pdfrwt beam="2">  1        4 0.14410077E-01 0.12499970E+03</pdfrwt>
<pdfrwt beam="1">  1       -4 0.64160080E-02 0.12499970E+03</pdfrwt>
<totfact> 0.10230358E+04</totfact>
</mgrwt>
</event>
<event>
 5    1  0.3312706E-002  0.1249962E+03  0.7818608E-02  0.1235075E+00
          4   -1    0    0  501    0  0.00000000000E+00  0.00000000000E+00  0.59494907841E+02  0.59508461239E+02  0.12700000000E+01 0.  1.
         -4   -1    0    0    0  501 -0.00000000000E+00 -0.00000000000E+00 -0.65625665440E+02  0.65637952927E+02  0.12700000000E+01 0.  1.
         25    2    1    2    0    0  0.00000000000E+00  0.00000000000E+00 -0.61307575989E+01  0.12514641417E+03  0.12499615510E+03 0.  0.
    9000005    1    3    3    0    0 -0.28300473351E+02  0.52758744393E+02 -0.20992427365E+02  0.63451429523E+02  0.10000000000E+01 0.  0.
    9000005    1    3    3    0    0  0.28300473351E+02 -0.52758744393E+02  0.14861669766E+02  0.61694984643E+02  0.10000000000E+01 0.  0.
<mgrwt>
<rscale>  0 0.12499616E+03</rscale>
<asrwt>0</asrwt>
<pdfrwt beam="1">  1        4 0.91550505E-02 0.12499616E+03</pdfrwt>
<pdfrwt beam="2">  1       -4 0.10098244E-01 0.12499616E+03</pdfrwt>
<totfact> 0.10450591E+04</totfact>
</mgrwt>
</event>
<event>
 5    1  0.3312706E-002  0.1249987E+03  0.7818608E-02  0.1235071E+00
         -4   -1    0    0    0  501 -0.00000000000E+00  0.00000000000E+00  0.19642873945E+02  0.19683886731E+02  0.12700000000E+01 0. -1.
          4   -1    0    0  501    0  0.00000000000E+00 -0.00000000000E+00 -0.19860891406E+03  0.19861297451E+03  0.12700000000E+01 0. -1.
         25    2    1    2    0    0  0.00000000000E+00  0.00000000000E+00 -0.17896604011E+03  0.21829686124E+03  0.12499870445E+03 0.  0.
    9000005    1    3    3    0    0  0.17785294429E+02  0.50062899817E+02 -0.14694328777E+03  0.15625600934E+03  0.10000000000E+01 0.  0.
    9000005    1    3    3    0    0 -0.17785294429E+02 -0.50062899817E+02 -0.32022752341E+02  0.62040851892E+02  0.10000000000E+01 0.  0.
<mgrwt>
<rscale>  0 0.12499870E+03</rscale>
<asrwt>0</asrwt>
<pdfrwt beam="2">  1        4 0.30558683E-01 0.12499870E+03</pdfrwt>
<pdfrwt beam="1">  1       -4 0.30254479E-02 0.12499870E+03</pdfrwt>
<totfact> 0.87141091E+03</totfact>
</mgrwt>
</event>
<event>
 5    1  0.3312706E-002  0.1250001E+03  0.7818608E-02  0.1235069E+00
         -4   -1    0    0    0  501 -0.00000000000E+00  0.00000000000E+00  0.52286095076E+02  0.52301516596E+02  0.12700000000E+01 0. -1.
          4   -1    0    0  501    0  0.00000000000E+00 -0.00000000000E+00 -0.74677491241E+02  0.74688289565E+02  0.12700000000E+01 0. -1.
         25    2    1    2    0    0  0.00000000000E+00  0.00000000000E+00 -0.22391396166E+02  0.12698980616E+03  0.12500014499E+03 0.  0.
    9000005    1    3    3    0    0 -0.54889546113E+02  0.29833740034E+02 -0.96400687639E+01  0.63220607738E+02  0.10000000000E+01 0.  0.
    9000005    1    3    3    0    0  0.54889546113E+02 -0.29833740034E+02 -0.12751327402E+02  0.63769198423E+02  0.10000000000E+01 0.  0.
<mgrwt>
<rscale>  0 0.12500014E+03</rscale>
<asrwt>0</asrwt>
<pdfrwt beam="2">  1        4 0.11490862E-01 0.12500014E+03</pdfrwt>
<pdfrwt beam="1">  1       -4 0.80460315E-02 0.12500014E+03</pdfrwt>
<totfact> 0.10409333E+04</totfact>
</mgrwt>
</event>
<event>
 5    1  0.3312706E-002  0.1250021E+03  0.7818608E-02  0.1235066E+00
          4   -1    0    0  501    0  0.00000000000E+00  0.00000000000E+00  0.10368169992E+03  0.10368947776E+03  0.12700000000E+01 0. -1.
         -4   -1    0    0    0  501 -0.00000000000E+00 -0.00000000000E+00 -0.37656773026E+02  0.37678182742E+02  0.12700000000E+01 0. -1.
         25    2    1    2    0    0  0.00000000000E+00  0.00000000000E+00  0.66024926897E+02  0.14136766051E+03  0.12500209784E+03 0.  0.
    9000005    1    3    3    0    0 -0.13529634985E+02  0.60894512178E+02  0.37272376218E+02  0.72673397231E+02  0.10000000000E+01 0.  0.
    9000005    1    3    3    0    0  0.13529634985E+02 -0.60894512178E+02  0.28752550679E+02  0.68694263274E+02  0.10000000000E+01 0.  0.
<mgrwt>
<rscale>  0 0.12500210E+03</rscale>
<asrwt>0</asrwt>
<pdfrwt beam="1">  1        4 0.15953276E-01 0.12500210E+03</pdfrwt>
<pdfrwt beam="2">  1       -4 0.57955949E-02 0.12500210E+03</pdfrwt>
<totfact> 0.10104841E+04</totfact>
</mgrwt>
</event>
<event>
 5    1  0.3312706E-002  0.1249891E+03  0.7818608E-02  0.1235086E+00
          4   -1    0    0  501    0  0.00000000000E+00  0.00000000000E+00  0.64177098219E+02  0.64189662998E+02  0.12700000000E+01 0. -1.
         -4   -1    0    0    0  501 -0.00000000000E+00 -0.00000000000E+00 -0.60830956107E+02  0.60844211893E+02  0.12700000000E+01 0. -1.
         25    2    1    2    0    0  0.00000000000E+00  0.00000000000E+00  0.33461421122E+01  0.12503387489E+03  0.12498909234E+03 0.  0.
    9000005    1    3    3    0    0 -0.16480786870E+02  0.55260540397E+02 -0.22402638219E+02  0.61872626096E+02  0.10000000000E+01 0.  0.
    9000005    1    3    3    0    0  0.16480786870E+02 -0.55260540397E+02  0.25748780332E+02  0.63161248795E+02  0.10000000000E+01 0.  0.
<mgrwt>
<rscale>  0 0.12498909E+03</rscale>
<asrwt>0</asrwt>
<pdfrwt beam="1">  1        4 0.98753859E-02 0.12498909E+03</pdfrwt>
<pdfrwt beam="2">  1       -4 0.93605948E-02 0.12498909E+03</pdfrwt>
<totfact> 0.10454704E+04</totfact>
</mgrwt>
</event>
<event>
 5    1  0.3312706E-002  0.1249976E+03  0.7818608E-02  0.1235073E+00
         -4   -1    0    0    0  501 -0.00000000000E+00  0.00000000000E+00  0.18549115830E+04  0.18549120178E+04  0.12700000000E+01 0.  1.
          4   -1    0    0  501    0  0.00000000000E+00 -0.00000000000E+00 -0.19138586074E+01  0.22969011230E+01  0.12700000000E+01 0.  1.
         25    2    1    2    0    0  0.00000000000E+00  0.00000000000E+00  0.18529977244E+04  0.18572089189E+04  0.12499760714E+03 0.  0.
    9000005    1    3    3    0    0 -0.58599773878E+02 -0.12177990987E+02  0.65952513395E+03  0.66223609028E+03  0.10000000000E+01 0.  0.
    9000005    1    3    3    0    0  0.58599773878E+02  0.12177990987E+02  0.11934725905E+04  0.11949728286E+04  0.10000000000E+01 0.  0.
<mgrwt>
<rscale>  0 0.12499761E+03</rscale>
<asrwt>0</asrwt>
<pdfrwt beam="2">  1        4 0.32393822E-03 0.12499761E+03</pdfrwt>
<pdfrwt beam="1">  1       -4 0.28540035E+00 0.12499761E+03</pdfrwt>
<totfact> 0.11842913E+03</totfact>
</mgrwt>
</event>
<event>
 5    1  0.3312706E-002  0.1250011E+03  0.7818608E-02  0.1235068E+00
          4   -1    0    0  501    0  0.00000000000E+00  0.00000000000E+00  0.55811799457E+03  0.55811943952E+03  0.12700000000E+01 0.  1.
         -4   -1    0    0    0  501 -0.00000000000E+00 -0.00000000000E+00 -0.69400141850E+01  0.70552602282E+01  0.12700000000E+01 0.  1.
         25    2    1    2    0    0  0.00000000000E+00  0.00000000000E+00  0.55117798039E+03  0.56517469974E+03  0.12500110066E+03 0.  0.
    9000005    1    3    3    0    0  0.19297084442E+02  0.24064570740E+02  0.29856719341E+02  0.42940711716E+02  0.10000000000E+01 0.  0.
    9000005    1    3    3    0    0 -0.19297084442E+02 -0.24064570740E+02  0.52132126105E+03  0.52223398803E+03  0.10000000000E+01 0.  0.
<mgrwt>
<rscale>  0 0.12500110E+03</rscale>
<asrwt>0</asrwt>
<pdfrwt beam="1">  1        4 0.85873319E-01 0.12500110E+03</pdfrwt>
<pdfrwt beam="2">  1       -4 0.10766703E-02 0.12500110E+03</pdfrwt>
<totfact> 0.51141102E+03</totfact>
</mgrwt>
</event>
<event>
 5    1  0.3312706E-002  0.1250012E+03  0.7818608E-02  0.1235067E+00
         -4   -1    0    0    0  501 -0.00000000000E+00  0.00000000000E+00  0.34887705018E+01  0.37127374825E+01  0.12700000000E+01 0. -1.
          4   -1    0    0  501    0  0.00000000000E+00 -0.00000000000E+00 -0.10846386745E+04  0.10846394181E+04  0.12700000000E+01 0. -1.
         25    2    1    2    0    0  0.00000000000E+00  0.00000000000E+00 -0.10811499040E+04  0.10883521555E+04  0.12500119788E+03 0.  0.
    9000005    1    3    3    0    0  0.24829077258E+02  0.53100087987E+02 -0.72917624096E+03  0.73152928363E+03  0.10000000000E+01 0.  0.
    9000005    1    3    3    0    0 -0.24829077258E+02 -0.53100087987E+02 -0.35197366309E+03  0.35682287192E+03  0.10000000000E+01 0.  0.
<mgrwt>
<rscale>  0 0.12500120E+03</rscale>
<asrwt>0</asrwt>
<pdfrwt beam="2">  1        4 0.16688451E+00 0.12500120E+03</pdfrwt>
<pdfrwt beam="1">  1       -4 0.55402021E-03 0.12500120E+03</pdfrwt>
<totfact> 0.27826132E+03</totfact>
</mgrwt>
</event>
<event>
 5    1  0.3312706E-002  0.1249989E+03  0.7818608E-02  0.1235071E+00
          4   -1    0    0  501    0  0.00000000000E+00  0.00000000000E+00  0.18107356147E+03  0.18107801513E+03  0.12700000000E+01 0. -1.
         -4   -1    0    0    0  501 -0.00000000000E+00 -0.00000000000E+00 -0.21548941045E+02  0.21586332717E+02  0.12700000000E+01 0. -1.
         25    2    1    2    0    0  0.00000000000E+00  0.00000000000E+00  0.15952462043E+03  0.20266434785E+03  0.12499893346E+03 0.  0.
    9000005    1    3    3    0    0  0.10526504857E+02  0.18686174025E+02  0.17492757329E+03  0.17624028001E+03  0.10000000000E+01 0.  0.
    9000005    1    3    3    0    0 -0.10526504857E+02 -0.18686174025E+02 -0.15402952858E+02  0.26424067835E+02  0.10000000000E+01 0.  0.
<mgrwt>
<rscale>  0 0.12499893E+03</rscale>
<asrwt>0</asrwt>
<pdfrwt beam="1">  1        4 0.27860690E-01 0.12499893E+03</pdfrwt>
<pdfrwt beam="2">  1       -4 0.33184406E-02 0.12499893E+03</pdfrwt>
<totfact> 0.89690220E+03</totfact>
</mgrwt>
</event>
<event>
 5    1  0.3312706E-002  0.1250013E+03  0.7818608E-02  0.1235067E+00
          4   -1    0    0  501    0  0.00000000000E+00  0.00000000000E+00  0.75651915849E+02  0.75662575106E+02  0.12700000000E+01 0. -1.
         -4   -1    0    0    0  501 -0.00000000000E+00 -0.00000000000E+00 -0.51613477867E+02  0.51629100297E+02  0.12700000000E+01 0. -1.
         25    2    1    2    0    0  0.00000000000E+00  0.00000000000E+00  0.24038437982E+02  0.12729167540E+03  0.12500129650E+03 0.  0.
    9000005    1    3    3    0    0 -0.56920762610E+02 -0.20504131210E+02 -0.39180513708E+01  0.60636158679E+02  0.10000000000E+01 0.  0.
    9000005    1    3    3    0    0  0.56920762610E+02  0.20504131210E+02  0.27956489353E+02  0.66655516724E+02  0.10000000000E+01 0.  0.
<mgrwt>
<rscale>  0 0.12500130E+03</rscale>
<asrwt>0</asrwt>
<pdfrwt beam="1">  1        4 0.11640778E-01 0.12500130E+03</pdfrwt>
<pdfrwt beam="2">  1       -4 0.79425568E-02 0.12500130E+03</pdfrwt>
<totfact> 0.10402511E+04</totfact>
</mgrwt>
</event>
<event>
 4    1  0.3312706E-002  0.1249287E+03  0.7818608E-02  0.1235181E+00
         -4   -1    0    0    0  501 -0.00000000000E+00  0.00000000000E+00  0.14002634761E+02  0.14060109539E+02  0.12700000000E+01 0.  1.
          4   -1    0    0  501    0  0.00000000000E+00 -0.00000000000E+00 -0.27801749218E+03  0.27802039288E+03  0.12700000000E+01 0.  1.
    9000005    1    1    2    0    0  0.60078988801E+02 -0.29478302447E+01 -0.92703025781E+02  0.11051255851E+03  0.10000000000E+01 0.  0.
    9000005    1    1    2    0    0 -0.60078988801E+02  0.29478302447E+01 -0.17131183164E+03  0.18156794392E+03  0.10000000000E+01 0.  0.
<mgrwt>
<rscale>  0 0.12492868E+03</rscale>
<asrwt>0</asrwt>
<pdfrwt beam="2">  1        4 0.42776562E-01 0.12492868E+03</pdfrwt>
<pdfrwt beam="1">  1       -4 0.21588960E-02 0.12492868E+03</pdfrwt>
<totfact> 0.76724580E+03</totfact>
</mgrwt>
</event>
<event>
 5    1  0.3312706E-002  0.1250035E+03  0.7818608E-02  0.1235064E+00
         -4   -1    0    0    0  501 -0.00000000000E+00  0.00000000000E+00  0.39790584072E+02  0.39810846271E+02  0.12700000000E+01 0. -1.
          4   -1    0    0  501    0  0.00000000000E+00 -0.00000000000E+00 -0.98126277744E+02  0.98134495891E+02  0.12700000000E+01 0. -1.
         25    2    1    2    0    0  0.00000000000E+00  0.00000000000E+00 -0.58335693671E+02  0.13794534216E+03  0.12500345702E+03 0.  0.
    9000005    1    3    3    0    0  0.61887984378E+02  0.77966557205E+01 -0.33378023462E+02  0.70753112306E+02  0.10000000000E+01 0.  0.
    9000005    1    3    3    0    0 -0.61887984378E+02 -0.77966557205E+01 -0.24957670209E+02  0.67192229856E+02  0.10000000000E+01 0.  0.
<mgrwt>
<rscale>  0 0.12500346E+03</rscale>
<asrwt>0</asrwt>
<pdfrwt beam="2">  1        4 0.15098541E-01 0.12500346E+03</pdfrwt>
<pdfrwt beam="1">  1       -4 0.61238192E-02 0.12500346E+03</pdfrwt>
<totfact> 0.10175556E+04</totfact>
</mgrwt>
</event>
<event>
 5    1  0.3312706E-002  0.1249914E+03  0.7818608E-02  0.1235083E+00
         -4   -1    0    0    0  501 -0.00000000000E+00  0.00000000000E+00  0.19815015886E+03  0.19815422871E+03  0.12700000000E+01 0. -1.
          4   -1    0    0  501    0  0.00000000000E+00 -0.00000000000E+00 -0.19686135021E+02  0.19727057866E+02  0.12700000000E+01 0. -1.
         25    2    1    2    0    0  0.00000000000E+00  0.00000000000E+00  0.17846402384E+03  0.21788128658E+03  0.12499138865E+03 0.  0.
    9000005    1    3    3    0    0 -0.26212614643E+02  0.41559153742E+02  0.21934631042E+02  0.53818142527E+02  0.10000000000E+01 0.  0.
    9000005    1    3    3    0    0  0.26212614643E+02 -0.41559153742E+02  0.15652939280E+03  0.16406314405E+03  0.10000000000E+01 0.  0.
<mgrwt>
<rscale>  0 0.12499139E+03</rscale>
<asrwt>0</asrwt>
<pdfrwt beam="2">  1        4 0.30320973E-02 0.12499139E+03</pdfrwt>
<pdfrwt beam="1">  1       -4 0.30488100E-01 0.12499139E+03</pdfrwt>
<totfact> 0.87221502E+03</totfact>
</mgrwt>
</event>
<event>
 5    1  0.3312706E-002  0.1249927E+03  0.7818608E-02  0.1235081E+00
         -4   -1    0    0    0  501 -0.00000000000E+00  0.00000000000E+00  0.13171416172E+01  0.18296890555E+01  0.12700000000E+01 0.  1.
          4   -1    0    0  501    0  0.00000000000E+00 -0.00000000000E+00 -0.24818554357E+04  0.24818557606E+04  0.12700000000E+01 0.  1.
         25    2    1    2    0    0  0.00000000000E+00  0.00000000000E+00 -0.24805382941E+04  0.24836854497E+04  0.12499273823E+03 0.  0.
    9000005    1    3    3    0    0 -0.53601260216E+02  0.27311699532E+02 -0.15761782262E+04  0.15773261631E+04  0.10000000000E+01 0.  0.
    9000005    1    3    3    0    0  0.53601260216E+02 -0.27311699532E+02 -0.90436006785E+03  0.90635928657E+03  0.10000000000E+01 0.  0.
<mgrwt>
<rscale>  0 0.12499274E+03</rscale>
<asrwt>0</asrwt>
<pdfrwt beam="2">  1        4 0.38186023E+00 0.12499274E+03</pdfrwt>
<pdfrwt beam="1">  1       -4 0.24209088E-03 0.12499274E+03</pdfrwt>
<totfact> 0.47997340E+02</totfact>
</mgrwt>
</event>
<event>
 5    1  0.3312706E-002  0.1249995E+03  0.7818608E-02  0.1235070E+00
          4   -1    0    0  501    0  0.00000000000E+00  0.00000000000E+00  0.37344579551E+02  0.37366168145E+02  0.12700000000E+01 0. -1.
         -4   -1    0    0    0  501 -0.00000000000E+00 -0.00000000000E+00 -0.10454369268E+03  0.10455140640E+03  0.12700000000E+01 0. -1.
         25    2    1    2    0    0  0.00000000000E+00  0.00000000000E+00 -0.67199113130E+02  0.14191757454E+03  0.12499950863E+03 0.  0.
    9000005    1    3    3    0    0 -0.45062701855E+02 -0.43180694584E+02 -0.37189798110E+02  0.72658795522E+02  0.10000000000E+01 0.  0.
    9000005    1    3    3    0    0  0.45062701855E+02  0.43180694584E+02 -0.30009315020E+02  0.69258779019E+02  0.10000000000E+01 0.  0.
<mgrwt>
<rscale>  0 0.12499951E+03</rscale>
<asrwt>0</asrwt>
<pdfrwt beam="1">  1        4 0.57475740E-02 0.12499951E+03</pdfrwt>
<pdfrwt beam="2">  1       -4 0.16085899E-01 0.12499951E+03</pdfrwt>
<totfact> 0.10094108E+04</totfact>
</mgrwt>
</event>
<event>
 5    1  0.3312706E-002  0.1250026E+03  0.7818608E-02  0.1235065E+00
         -4   -1    0    0    0  501 -0.00000000000E+00  0.00000000000E+00  0.17624195053E+02  0.17669893923E+02  0.12700000000E+01 0.  1.
          4   -1    0    0  501    0  0.00000000000E+00 -0.00000000000E+00 -0.22131589802E+03  0.22131954188E+03  0.12700000000E+01 0.  1.
         25    2    1    2    0    0  0.00000000000E+00  0.00000000000E+00 -0.20369170297E+03  0.23898943580E+03  0.12500256224E+03 0.  0.
    9000005    1    3    3    0    0 -0.55055004031E+02  0.89972260947E+01 -0.47993125472E+02  0.73595812644E+02  0.10000000000E+01 0.  0.
    9000005    1    3    3    0    0  0.55055004031E+02 -0.89972260947E+01 -0.15569857750E+03  0.16539362316E+03  0.10000000000E+01 0.  0.
<mgrwt>
<rscale>  0 0.12500256E+03</rscale>
<asrwt>0</asrwt>
<pdfrwt beam="2">  1        4 0.34052393E-01 0.12500256E+03</pdfrwt>
<pdfrwt beam="1">  1       -4 0.27152104E-02 0.12500256E+03</pdfrwt>
<totfact> 0.83943309E+03</totfact>
</mgrwt>
</event>
<event>
 5    1  0.3312706E-002  0.1250000E+03  0.7818608E-02  0.1235069E+00
         -4   -1    0    0    0  501 -0.00000000000E+00  0.00000000000E+00  0.25556585304E+01  0.28538203384E+01  0.12700000000E+01 0. -1.
          4   -1    0    0  501    0  0.00000000000E+00 -0.00000000000E+00 -0.14439255252E+04  0.14439260837E+04  0.12700000000E+01 0. -1.
         25    2    1    2    0    0  0.00000000000E+00  0.00000000000E+00 -0.14413698667E+04  0.14467799041E+04  0.12499999289E+03 0.  0.
    9000005    1    3    3    0    0  0.66778522095E+01 -0.41805420845E+02 -0.12527177093E+04  0.12534332635E+04  0.10000000000E+01 0.  0.
    9000005    1    3    3    0    0 -0.66778522095E+01  0.41805420845E+02 -0.18865215744E+03  0.19334664059E+03  0.10000000000E+01 0.  0.
<mgrwt>
<rscale>  0 0.12499999E+03</rscale>
<asrwt>0</asrwt>
<pdfrwt beam="2">  1        4 0.22216475E+00 0.12499999E+03</pdfrwt>
<pdfrwt beam="1">  1       -4 0.41615787E-03 0.12499999E+03</pdfrwt>
<totfact> 0.18998866E+03</totfact>
</mgrwt>
</event>
<event>
 5    1  0.3312706E-002  0.1250027E+03  0.7818608E-02  0.1235065E+00
         -4   -1    0    0    0  501 -0.00000000000E+00  0.00000000000E+00  0.26943415622E+02  0.26973330261E+02  0.12700000000E+01 0.  1.
          4   -1    0    0  501    0  0.00000000000E+00 -0.00000000000E+00 -0.14487296167E+03  0.14487852817E+03  0.12700000000E+01 0.  1.
         25    2    1    2    0    0  0.00000000000E+00  0.00000000000E+00 -0.11792954605E+03  0.17185185843E+03  0.12500273362E+03 0.  0.
    9000005    1    3    3    0    0 -0.25532066069E+02 -0.40189577279E+02 -0.33185459334E+01  0.47739933669E+02  0.10000000000E+01 0.  0.
    9000005    1    3    3    0    0  0.25532066069E+02  0.40189577279E+02 -0.11461100012E+03  0.12411192476E+03  0.10000000000E+01 0.  0.
<mgrwt>
<rscale>  0 0.12500273E+03</rscale>
<asrwt>0</asrwt>
<pdfrwt beam="2">  1        4 0.22290877E-01 0.12500273E+03</pdfrwt>
<pdfrwt beam="1">  1       -4 0.41478703E-02 0.12500273E+03</pdfrwt>
<totfact> 0.95098764E+03</totfact>
</mgrwt>
</event>
<event>
 5    1  0.3312706E-002  0.1250023E+03  0.7818608E-02  0.1235066E+00
          4   -1    0    0  501    0  0.00000000000E+00  0.00000000000E+00  0.38721529840E+01  0.40751035240E+01  0.12700000000E+01 0.  1.
         -4   -1    0    0    0  501 -0.00000000000E+00 -0.00000000000E+00 -0.98287628090E+03  0.98287710140E+03  0.12700000000E+01 0.  1.
         25    2    1    2    0    0  0.00000000000E+00  0.00000000000E+00 -0.97900412791E+03  0.98695220492E+03  0.12500228929E+03 0.  0.
    9000005    1    3    3    0    0 -0.25523123446E+02 -0.48254734844E+02 -0.24931302533E+03  0.25522134289E+03  0.10000000000E+01 0.  0.
    9000005    1    3    3    0    0  0.25523123446E+02  0.48254734844E+02 -0.72969110258E+03  0.73173086203E+03  0.10000000000E+01 0.  0.
<mgrwt>
<rscale>  0 0.12500229E+03</rscale>
<asrwt>0</asrwt>
<pdfrwt beam="1">  1        4 0.61139132E-03 0.12500229E+03</pdfrwt>
<pdfrwt beam="2">  1       -4 0.15122722E+00 0.12500229E+03</pdfrwt>
<totfact> 0.31037744E+03</totfact>
</mgrwt>
</event>
<event>
 5    1  0.3312706E-002  0.1250604E+03  0.7818608E-02  0.1234975E+00
         -4   -1    0    0    0  501 -0.00000000000E+00  0.00000000000E+00  0.11081616933E+03  0.11082344646E+03  0.12700000000E+01 0.  1.
          4   -1    0    0  501    0  0.00000000000E+00 -0.00000000000E+00 -0.35264024938E+02  0.35286886443E+02  0.12700000000E+01 0.  1.
         25    2    1    2    0    0  0.00000000000E+00  0.00000000000E+00  0.75552144389E+02  0.14611033290E+03  0.12506039684E+03 0.  0.
    9000005    1    3    3    0    0  0.41680223885E+02  0.36324447409E+02  0.71884543591E+02  0.90692304800E+02  0.10000000000E+01 0.  0.
    9000005    1    3    3    0    0 -0.41680223885E+02 -0.36324447409E+02  0.36676007980E+01  0.55418028098E+02  0.10000000000E+01 0.  0.
<mgrwt>
<rscale>  0 0.12506040E+03</rscale>
<asrwt>0</asrwt>
<pdfrwt beam="2">  1        4 0.54275530E-02 0.12506040E+03</pdfrwt>
<pdfrwt beam="1">  1       -4 0.17050960E-01 0.12506040E+03</pdfrwt>
<totfact> 0.99948798E+03</totfact>
</mgrwt>
</event>
<event>
 5    1  0.3312706E-002  0.1249991E+03  0.7818608E-02  0.1235071E+00
         -4   -1    0    0    0  501 -0.00000000000E+00  0.00000000000E+00  0.12202441538E+03  0.12203102413E+03  0.12700000000E+01 0. -1.
          4   -1    0    0  501    0  0.00000000000E+00 -0.00000000000E+00 -0.31991483880E+02  0.32016682227E+02  0.12700000000E+01 0. -1.
         25    2    1    2    0    0  0.00000000000E+00  0.00000000000E+00  0.90032931502E+02  0.15404770635E+03  0.12499906831E+03 0.  0.
    9000005    1    3    3    0    0 -0.59739343493E+02  0.76421884567E+01  0.65564511210E+02  0.89033124934E+02  0.10000000000E+01 0.  0.
    9000005    1    3    3    0    0  0.59739343493E+02 -0.76421884567E+01  0.24468420293E+02  0.65014581419E+02  0.10000000000E+01 0.  0.
<mgrwt>
<rscale>  0 0.12499907E+03</rscale>
<asrwt>0</asrwt>
<pdfrwt beam="2">  1        4 0.49242135E-02 0.12499907E+03</pdfrwt>
<pdfrwt beam="1">  1       -4 0.18775433E-01 0.12499907E+03</pdfrwt>
<totfact> 0.98504835E+03</totfact>
</mgrwt>
</event>
<event>
 5    1  0.3312706E-002  0.1250069E+03  0.7818608E-02  0.1235059E+00
         -4   -1    0    0    0  501 -0.00000000000E+00  0.00000000000E+00  0.11618863079E+02  0.11688065676E+02  0.12700000000E+01 0.  1.
          4   -1    0    0  501    0  0.00000000000E+00 -0.00000000000E+00 -0.33516732477E+03  0.33516973087E+03  0.12700000000E+01 0.  1.
         25    2    1    2    0    0  0.00000000000E+00  0.00000000000E+00 -0.32354846169E+03  0.34685779655E+03  0.12500689567E+03 0.  0.
    9000005    1    3    3    0    0 -0.60256757698E+02 -0.15903687642E+01 -0.20755902545E+03  0.21613688988E+03  0.10000000000E+01 0.  0.
    9000005    1    3    3    0    0  0.60256757698E+02  0.15903687642E+01 -0.11598943624E+03  0.13072090667E+03  0.10000000000E+01 0.  0.
<mgrwt>
<rscale>  0 0.12500690E+03</rscale>
<asrwt>0</asrwt>
<pdfrwt beam="2">  1        4 0.51569705E-01 0.12500690E+03</pdfrwt>
<pdfrwt beam="1">  1       -4 0.17930260E-02 0.12500690E+03</pdfrwt>
<totfact> 0.70060935E+03</totfact>
</mgrwt>
</event>
<event>
 5    1  0.3312706E-002  0.1250022E+03  0.7818608E-02  0.1235066E+00
         -4   -1    0    0    0  501 -0.00000000000E+00  0.00000000000E+00  0.20110557655E+03  0.20110958659E+03  0.12700000000E+01 0.  1.
          4   -1    0    0  501    0  0.00000000000E+00 -0.00000000000E+00 -0.19399604550E+02  0.19441130541E+02  0.12700000000E+01 0.  1.
         25    2    1    2    0    0  0.00000000000E+00  0.00000000000E+00  0.18170597200E+03  0.22055071713E+03  0.12500223425E+03 0.  0.
    9000005    1    3    3    0    0  0.34839883596E+02  0.51232915774E+02  0.76436796895E+02  0.98398237115E+02  0.10000000000E+01 0.  0.
    9000005    1    3    3    0    0 -0.34839883596E+02 -0.51232915774E+02  0.10526917511E+03  0.12215248002E+03  0.10000000000E+01 0.  0.
<mgrwt>
<rscale>  0 0.12500223E+03</rscale>
<asrwt>0</asrwt>
<pdfrwt beam="2">  1        4 0.29880571E-02 0.12500223E+03</pdfrwt>
<pdfrwt beam="1">  1       -4 0.30942824E-01 0.12500223E+03</pdfrwt>
<totfact> 0.86776948E+03</totfact>
</mgrwt>
</event>
<event>
 5    1  0.3312706E-002  0.1250010E+03  0.7818608E-02  0.1235068E+00
          4   -1    0    0  501    0  0.00000000000E+00  0.00000000000E+00  0.16439596051E+02  0.16488578420E+02  0.12700000000E+01 0. -1.
         -4   -1    0    0    0  501 -0.00000000000E+00 -0.00000000000E+00 -0.23721178396E+03  0.23721518364E+03  0.12700000000E+01 0. -1.
         25    2    1    2    0    0  0.00000000000E+00  0.00000000000E+00 -0.22077218791E+03  0.25370376206E+03  0.12500095971E+03 0.  0.
    9000005    1    3    3    0    0 -0.61336940355E+02  0.11954777873E+02 -0.11123031681E+03  0.12758652101E+03  0.10000000000E+01 0.  0.
    9000005    1    3    3    0    0  0.61336940355E+02 -0.11954777873E+02 -0.10954187110E+03  0.12611724105E+03  0.10000000000E+01 0.  0.
<mgrwt>
<rscale>  0 0.12500096E+03</rscale>
<asrwt>0</asrwt>
<pdfrwt beam="1">  1        4 0.25331982E-02 0.12500096E+03</pdfrwt>
<pdfrwt beam="2">  1       -4 0.36498148E-01 0.12500096E+03</pdfrwt>
<totfact> 0.81796102E+03</totfact>
</mgrwt>
</event>
<event>
 5    1  0.3312706E-002  0.1249977E+03  0.7818608E-02  0.1235073E+00
          4   -1    0    0  501    0  0.00000000000E+00  0.00000000000E+00  0.19455487064E+02  0.19496894032E+02  0.12700000000E+01 0.  1.
         -4   -1    0    0    0  501 -0.00000000000E+00 -0.00000000000E+00 -0.20051458176E+03  0.20051860362E+03  0.12700000000E+01 0.  1.
         25    2    1    2    0    0  0.00000000000E+00  0.00000000000E+00 -0.18105909470E+03  0.22001549765E+03  0.12499769372E+03 0.  0.
    9000005    1    3    3    0    0 -0.27206980764E+02  0.20052128833E+02 -0.18304746602E+03  0.18614425183E+03  0.10000000000E+01 0.  0.
    9000005    1    3    3    0    0  0.27206980764E+02 -0.20052128833E+02  0.19883713252E+01  0.33871245823E+02  0.10000000000E+01 0.  0.
<mgrwt>
<rscale>  0 0.12499769E+03</rscale>
<asrwt>0</asrwt>
<pdfrwt beam="1">  1        4 0.29966465E-02 0.12499769E+03</pdfrwt>
<pdfrwt beam="2">  1       -4 0.30851890E-01 0.12499769E+03</pdfrwt>
<totfact> 0.86870373E+03</totfact>
</mgrwt>
</event>
<event>
 5    1  0.3312706E-002  0.1249979E+03  0.7818608E-02  0.1235073E+00
          4   -1    0    0  501    0  0.00000000000E+00  0.00000000000E+00  0.84851696937E+01  0.85796855846E+01  0.12700000000E+01 0.  1.
         -4   -1    0    0    0  501 -0.00000000000E+00 -0.00000000000E+00 -0.45770133796E+03  0.45770309992E+03  0.12700000000E+01 0.  1.
         25    2    1    2    0    0  0.00000000000E+00  0.00000000000E+00 -0.44921616827E+03  0.46628278550E+03  0.12499788086E+03 0.  0.
    9000005    1    3    3    0    0 -0.61563355440E+02 -0.88664396184E+00 -0.26448676177E+03  0.27156045372E+03  0.10000000000E+01 0.  0.
    9000005    1    3    3    0    0  0.61563355440E+02  0.88664396184E+00 -0.18472940650E+03  0.19472233179E+03  0.10000000000E+01 0.  0.
<mgrwt>
<rscale>  0 0.12499788E+03</rscale>
<asrwt>0</asrwt>
<pdfrwt beam="1">  1        4 0.13128171E-02 0.12499788E+03</pdfrwt>
<pdfrwt beam="2">  1       -4 0.70422977E-01 0.12499788E+03</pdfrwt>
<totfact> 0.58581463E+03</totfact>
</mgrwt>
</event>
<event>
 5    1  0.3312706E-002  0.1250003E+03  0.7818608E-02  0.1235069E+00
         -4   -1    0    0    0  501 -0.00000000000E+00  0.00000000000E+00  0.47739331279E+02  0.47756221071E+02  0.12700000000E+01 0. -1.
          4   -1    0    0  501    0  0.00000000000E+00 -0.00000000000E+00 -0.81788681783E+02  0.81798541355E+02  0.12700000000E+01 0. -1.
         25    2    1    2    0    0  0.00000000000E+00  0.00000000000E+00 -0.34049350504E+02  0.12955476243E+03  0.12500031279E+03 0.  0.
    9000005    1    3    3    0    0 -0.12598955672E+02 -0.11766859509E+02 -0.79280526256E+02  0.81139352414E+02  0.10000000000E+01 0.  0.
    9000005    1    3    3    0    0  0.12598955672E+02  0.11766859509E+02  0.45231175752E+02  0.48415410012E+02  0.10000000000E+01 0.  0.
<mgrwt>
<rscale>  0 0.12500031E+03</rscale>
<asrwt>0</asrwt>
<pdfrwt beam="2">  1        4 0.12584932E-01 0.12500031E+03</pdfrwt>
<pdfrwt beam="1">  1       -4 0.73465701E-02 0.12500031E+03</pdfrwt>
<totfact> 0.10353968E+04</totfact>
</mgrwt>
</event>
<event>
 5    1  0.3312706E-002  0.1250013E+03  0.7818608E-02  0.1235067E+00
         -4   -1    0    0    0  501 -0.00000000000E+00  0.00000000000E+00  0.12917547519E+02  0.12979827961E+02  0.12700000000E+01 0. -1.
          4   -1    0    0  501    0  0.00000000000E+00 -0.00000000000E+00 -0.30161424281E+03  0.30161691658E+03  0.12700000000E+01 0. -1.
         25    2    1    2    0    0  0.00000000000E+00  0.00000000000E+00 -0.28869669529E+03  0.31459674454E+03  0.12500131920E+03 0.  0.
    9000005    1    3    3    0    0  0.18506345388E+02  0.24347207323E+02 -0.71899756387E+01  0.31431943524E+02  0.10000000000E+01 0.  0.
    9000005    1    3    3    0    0 -0.18506345388E+02 -0.24347207323E+02 -0.28150671966E+03  0.28316480102E+03  0.10000000000E+01 0.  0.
<mgrwt>
<rscale>  0 0.12500132E+03</rscale>
<asrwt>0</asrwt>
<pdfrwt beam="2">  1        4 0.46407183E-01 0.12500132E+03</pdfrwt>
<pdfrwt beam="1">  1       -4 0.19923117E-02 0.12500132E+03</pdfrwt>
<totfact> 0.73801256E+03</totfact>
</mgrwt>
</event>
<event>
 5    1  0.3312706E-002  0.1250001E+03  0.7818608E-02  0.1235069E+00
          4   -1    0    0  501    0  0.00000000000E+00  0.00000000000E+00  0.47083532704E+03  0.47083703984E+03  0.12700000000E+01 0. -1.
         -4   -1    0    0    0  501 -0.00000000000E+00 -0.00000000000E+00 -0.82460940271E+01  0.83433186864E+01  0.12700000000E+01 0. -1.
         25    2    1    2    0    0  0.00000000000E+00  0.00000000000E+00  0.46258923301E+03  0.47918035853E+03  0.12500007001E+03 0.  0.
    9000005    1    3    3    0    0 -0.47741273797E+02  0.36468208361E+02  0.29725819955E+03  0.30326984131E+03  0.10000000000E+01 0.  0.
    9000005    1    3    3    0    0  0.47741273797E+02 -0.36468208361E+02  0.16533103346E+03  0.17591051722E+03  0.10000000000E+01 0.  0.
<mgrwt>
<rscale>  0 0.12500007E+03</rscale>
<asrwt>0</asrwt>
<pdfrwt beam="1">  1        4 0.72443817E-01 0.12500007E+03</pdfrwt>
<pdfrwt beam="2">  1       -4 0.12762404E-02 0.12500007E+03</pdfrwt>
<totfact> 0.57516598E+03</totfact>
</mgrwt>
</event>
<event>
 5    1  0.3312706E-002  0.1249883E+03  0.7818608E-02  0.1235088E+00
         -4   -1    0    0    0  501 -0.00000000000E+00  0.00000000000E+00  0.71243840211E+03  0.71243953406E+03  0.12700000000E+01 0.  1.
          4   -1    0    0  501    0  0.00000000000E+00 -0.00000000000E+00 -0.54071973162E+01  0.55543390980E+01  0.12700000000E+01 0.  1.
         25    2    1    2    0    0  0.00000000000E+00  0.00000000000E+00  0.70703120479E+03  0.71799387316E+03  0.12498830885E+03 0.  0.
    9000005    1    3    3    0    0  0.44917299676E+02  0.21976063983E+02  0.13826907229E+03  0.14703689180E+03  0.10000000000E+01 0.  0.
    9000005    1    3    3    0    0 -0.44917299676E+02 -0.21976063983E+02  0.56876213250E+03  0.57095698136E+03  0.10000000000E+01 0.  0.
<mgrwt>
<rscale>  0 0.12498831E+03</rscale>
<asrwt>0</asrwt>
<pdfrwt beam="2">  1        4 0.84328211E-03 0.12498831E+03</pdfrwt>
<pdfrwt beam="1">  1       -4 0.10961732E+00 0.12498831E+03</pdfrwt>
<totfact> 0.42164460E+03</totfact>
</mgrwt>
</event>
<event>
 5    1  0.3312706E-002  0.1249929E+03  0.7818608E-02  0.1235080E+00
         -4   -1    0    0    0  501 -0.00000000000E+00  0.00000000000E+00  0.85572633976E+02  0.85582057614E+02  0.12700000000E+01 0.  1.
          4   -1    0    0  501    0  0.00000000000E+00 -0.00000000000E+00 -0.45622402353E+02  0.45640075553E+02  0.12700000000E+01 0.  1.
         25    2    1    2    0    0  0.00000000000E+00  0.00000000000E+00  0.39950231623E+02  0.13122213317E+03  0.12499290870E+03 0.  0.
    9000005    1    3    3    0    0  0.22085383016E+02 -0.52910246073E+02  0.46064105606E+02  0.73553790573E+02  0.10000000000E+01 0.  0.
    9000005    1    3    3    0    0 -0.22085383016E+02  0.52910246073E+02 -0.61138739834E+01  0.57668342594E+02  0.10000000000E+01 0.  0.
<mgrwt>
<rscale>  0 0.12499291E+03</rscale>
<asrwt>0</asrwt>
<pdfrwt beam="2">  1        4 0.70209155E-02 0.12499291E+03</pdfrwt>
<pdfrwt beam="1">  1       -4 0.13167105E-01 0.12499291E+03</pdfrwt>
<totfact> 0.10319980E+04</totfact>
</mgrwt>
</event>
<event>
 5    1  0.3312706E-002  0.1250025E+03  0.7818608E-02  0.1235065E+00
         -4   -1    0    0    0  501 -0.00000000000E+00  0.00000000000E+00  0.45433048260E+01  0.47174695274E+01  0.12700000000E+01 0.  1.
          4   -1    0    0  501    0  0.00000000000E+00 -0.00000000000E+00 -0.84347141841E+03  0.84347237452E+03  0.12700000000E+01 0.  1.
         25    2    1    2    0    0  0.00000000000E+00  0.00000000000E+00 -0.83892811358E+03  0.84818984405E+03  0.12500252709E+03 0.  0.
    9000005    1    3    3    0    0  0.12337020849E+01 -0.43842420550E+02 -0.72152620533E+03  0.72285873090E+03  0.10000000000E+01 0.  0.
    9000005    1    3    3    0    0 -0.12337020849E+01  0.43842420550E+02 -0.11740190825E+03  0.12533111314E+03  0.10000000000E+01 0.  0.
<mgrwt>
<rscale>  0 0.12500253E+03</rscale>
<asrwt>0</asrwt>
<pdfrwt beam="2">  1        4 0.12977818E+00 0.12500253E+03</pdfrwt>
<pdfrwt beam="1">  1       -4 0.71244147E-03 0.12500253E+03</pdfrwt>
<totfact> 0.36199544E+03</totfact>
</mgrwt>
</event>
<event>
 5    1  0.3312706E-002  0.1250020E+03  0.7818608E-02  0.1235066E+00
          4   -1    0    0  501    0  0.00000000000E+00  0.00000000000E+00  0.72924803568E+02  0.72935861382E+02  0.12700000000E+01 0.  1.
         -4   -1    0    0    0  501 -0.00000000000E+00 -0.00000000000E+00 -0.53544474134E+02  0.53559533327E+02  0.12700000000E+01 0.  1.
         25    2    1    2    0    0  0.00000000000E+00  0.00000000000E+00  0.19380329435E+02  0.12649539471E+03  0.12500195084E+03 0.  0.
    9000005    1    3    3    0    0 -0.31632645858E+02  0.51368529668E+02 -0.68148737530E+01  0.60718964323E+02  0.10000000000E+01 0.  0.
    9000005    1    3    3    0    0  0.31632645858E+02 -0.51368529668E+02  0.26195203188E+02  0.65776430386E+02  0.10000000000E+01 0.  0.
<mgrwt>
<rscale>  0 0.12500195E+03</rscale>
<asrwt>0</asrwt>
<pdfrwt beam="1">  1        4 0.11221210E-01 0.12500195E+03</pdfrwt>
<pdfrwt beam="2">  1       -4 0.82396204E-02 0.12500195E+03</pdfrwt>
<totfact> 0.10419670E+04</totfact>
</mgrwt>
</event>
<event>
 5    1  0.3312706E-002  0.1249998E+03  0.7818608E-02  0.1235070E+00
         -4   -1    0    0    0  501 -0.00000000000E+00  0.00000000000E+00  0.20000894343E+02  0.20041174480E+02  0.12700000000E+01 0. -1.
          4   -1    0    0  501    0  0.00000000000E+00 -0.00000000000E+00 -0.19506443982E+03  0.19506857405E+03  0.12700000000E+01 0. -1.
         25    2    1    2    0    0  0.00000000000E+00  0.00000000000E+00 -0.17506354548E+03  0.21510974853E+03  0.12499983583E+03 0.  0.
    9000005    1    3    3    0    0  0.34575203058E+02 -0.13531126435E+02 -0.10294424136E+01  0.37156369586E+02  0.10000000000E+01 0.  0.
    9000005    1    3    3    0    0 -0.34575203058E+02  0.13531126435E+02 -0.17403410307E+03  0.17795337895E+03  0.10000000000E+01 0.  0.
<mgrwt>
<rscale>  0 0.12499984E+03</rscale>
<asrwt>0</asrwt>
<pdfrwt beam="2">  1        4 0.30013329E-01 0.12499984E+03</pdfrwt>
<pdfrwt beam="1">  1       -4 0.30804773E-02 0.12499984E+03</pdfrwt>
<totfact> 0.87648454E+03</totfact>
</mgrwt>
</event>
<event>
 5    1  0.3312706E-002  0.1250000E+03  0.7818608E-02  0.1235069E+00
          4   -1    0    0  501    0  0.00000000000E+00  0.00000000000E+00  0.45498261082E+01  0.47237503760E+01  0.12700000000E+01 0.  1.
         -4   -1    0    0    0  501 -0.00000000000E+00 -0.00000000000E+00 -0.84227333753E+03  0.84227429500E+03  0.12700000000E+01 0.  1.
         25    2    1    2    0    0  0.00000000000E+00  0.00000000000E+00 -0.83772351142E+03  0.84699804538E+03  0.12500002911E+03 0.  0.
    9000005    1    3    3    0    0  0.14553883167E+02 -0.47208254684E+02 -0.15952505656E+03  0.16700203141E+03  0.10000000000E+01 0.  0.
    9000005    1    3    3    0    0 -0.14553883167E+02  0.47208254684E+02 -0.67819845487E+03  0.67999601397E+03  0.10000000000E+01 0.  0.
<mgrwt>
<rscale>  0 0.12500003E+03</rscale>
<asrwt>0</asrwt>
<pdfrwt beam="1">  1        4 0.71342636E-03 0.12500003E+03</pdfrwt>
<pdfrwt beam="2">  1       -4 0.12959384E+00 0.12500003E+03</pdfrwt>
<totfact> 0.36250490E+03</totfact>
</mgrwt>
</event>
<event>
 5    1  0.3312706E-002  0.1249986E+03  0.7818608E-02  0.1235072E+00
         -4   -1    0    0    0  501 -0.00000000000E+00  0.00000000000E+00  0.26970128557E+02  0.27000013600E+02  0.12700000000E+01 0.  1.
          4   -1    0    0  501    0  0.00000000000E+00 -0.00000000000E+00 -0.14471997566E+03  0.14472554804E+03  0.12700000000E+01 0.  1.
         25    2    1    2    0    0  0.00000000000E+00  0.00000000000E+00 -0.11774984710E+03  0.17172556164E+03  0.12499856810E+03 0.  0.
    9000005    1    3    3    0    0  0.33359018025E+02  0.31182376585E+02 -0.26581687242E+00  0.45675325414E+02  0.10000000000E+01 0.  0.
    9000005    1    3    3    0    0 -0.33359018025E+02 -0.31182376585E+02 -0.11748403023E+03  0.12605023622E+03  0.10000000000E+01 0.  0.
<mgrwt>
<rscale>  0 0.12499857E+03</rscale>
<asrwt>0</asrwt>
<pdfrwt beam="2">  1        4 0.22267339E-01 0.12499857E+03</pdfrwt>
<pdfrwt beam="1">  1       -4 0.41519781E-02 0.12499857E+03</pdfrwt>
<totfact> 0.95131047E+03</totfact>
</mgrwt>
</event>
<event>
 5    1  0.3312706E-002  0.1249975E+03  0.7818608E-02  0.1235073E+00
          4   -1    0    0  501    0  0.00000000000E+00  0.00000000000E+00  0.30881346522E+03  0.30881607665E+03  0.12700000000E+01 0. -1.
         -4   -1    0    0    0  501 -0.00000000000E+00 -0.00000000000E+00 -0.12614165728E+02  0.12677936623E+02  0.12700000000E+01 0. -1.
         25    2    1    2    0    0  0.00000000000E+00  0.00000000000E+00  0.29619929949E+03  0.32149401328E+03  0.12499750219E+03 0.  0.
    9000005    1    3    3    0    0  0.39654832374E+02  0.64572584445E+01  0.24995169021E+02  0.47328219823E+02  0.10000000000E+01 0.  0.
    9000005    1    3    3    0    0 -0.39654832374E+02 -0.64572584445E+01  0.27120413047E+03  0.27416579345E+03  0.10000000000E+01 0.  0.
<mgrwt>
<rscale>  0 0.12499750E+03</rscale>
<asrwt>0</asrwt>
<pdfrwt beam="1">  1        4 0.47514875E-01 0.12499750E+03</pdfrwt>
<pdfrwt beam="2">  1       -4 0.19457470E-02 0.12499750E+03</pdfrwt>
<totfact> 0.72982819E+03</totfact>
</mgrwt>
</event>
<event>
 5    1  0.3312706E-002  0.1250035E+03  0.7818608E-02  0.1235064E+00
         -4   -1    0    0    0  501 -0.00000000000E+00  0.00000000000E+00  0.40170874145E+03  0.40171074899E+03  0.12700000000E+01 0.  1.
          4   -1    0    0  501    0  0.00000000000E+00 -0.00000000000E+00 -0.96811301282E+01  0.97640760218E+01  0.12700000000E+01 0.  1.
         25    2    1    2    0    0  0.00000000000E+00  0.00000000000E+00  0.39202761132E+03  0.41147482502E+03  0.12500353428E+03 0.  0.
    9000005    1    3    3    0    0  0.13943460793E+02  0.28962809689E+02  0.19601529400E+02  0.37662772054E+02  0.10000000000E+01 0.  0.
    9000005    1    3    3    0    0 -0.13943460793E+02 -0.28962809689E+02  0.37242608192E+03  0.37381205296E+03  0.10000000000E+01 0.  0.
<mgrwt>
<rscale>  0 0.12500353E+03</rscale>
<asrwt>0</asrwt>
<pdfrwt beam="2">  1        4 0.14959398E-02 0.12500353E+03</pdfrwt>
<pdfrwt beam="1">  1       -4 0.61807868E-01 0.12500353E+03</pdfrwt>
<totfact> 0.63446912E+03</totfact>
</mgrwt>
</event>
<event>
 5    1  0.3312706E-002  0.1249959E+03  0.7818608E-02  0.1235076E+00
          4   -1    0    0  501    0  0.00000000000E+00  0.00000000000E+00  0.40433037574E+01  0.42380662187E+01  0.12700000000E+01 0. -1.
         -4   -1    0    0    0  501 -0.00000000000E+00 -0.00000000000E+00 -0.94312538130E+03  0.94312623638E+03  0.12700000000E+01 0. -1.
         25    2    1    2    0    0  0.00000000000E+00  0.00000000000E+00 -0.93908207754E+03  0.94736430260E+03  0.12499589385E+03 0.  0.
    9000005    1    3    3    0    0  0.28781611009E+02 -0.27074726744E+02 -0.10263034876E+03  0.10997913642E+03  0.10000000000E+01 0.  0.
    9000005    1    3    3    0    0 -0.28781611009E+02  0.27074726744E+02 -0.83645172878E+03  0.83738516618E+03  0.10000000000E+01 0.  0.
<mgrwt>
<rscale>  0 0.12499589E+03</rscale>
<asrwt>0</asrwt>
<pdfrwt beam="1">  1        4 0.63709499E-03 0.12499589E+03</pdfrwt>
<pdfrwt beam="2">  1       -4 0.14511109E+00 0.12499589E+03</pdfrwt>
<totfact> 0.32412675E+03</totfact>
</mgrwt>
</event>
<event>
 5    1  0.3312706E-002  0.1250175E+03  0.7818608E-02  0.1235042E+00
          4   -1    0    0  501    0  0.00000000000E+00  0.00000000000E+00  0.48279526643E+02  0.48296227522E+02  0.12700000000E+01 0. -1.
         -4   -1    0    0    0  501 -0.00000000000E+00 -0.00000000000E+00 -0.80896018568E+02  0.80905986924E+02  0.12700000000E+01 0. -1.
         25    2    1    2    0    0  0.00000000000E+00  0.00000000000E+00 -0.32616491925E+02  0.12920221445E+03  0.12501750546E+03 0.  0.
    9000005    1    3    3    0    0  0.32182567450E+02  0.25216662968E+02 -0.65163722561E+02  0.76934442722E+02  0.10000000000E+01 0.  0.
    9000005    1    3    3    0    0 -0.32182567450E+02 -0.25216662968E+02  0.32547230636E+02  0.52267771724E+02  0.10000000000E+01 0.  0.
<mgrwt>
<rscale>  0 0.12501751E+03</rscale>
<asrwt>0</asrwt>
<pdfrwt beam="1">  1        4 0.74296709E-02 0.12501751E+03</pdfrwt>
<pdfrwt beam="2">  1       -4 0.12447593E-01 0.12501751E+03</pdfrwt>
<totfact> 0.10357510E+04</totfact>
</mgrwt>
</event>
<event>
 4    1  0.3312706E-002  0.1249364E+03  0.7818608E-02  0.1235169E+00
          4   -1    0    0  501    0  0.00000000000E+00  0.00000000000E+00  0.30939858860E+01  0.33444952778E+01  0.12700000000E+01 0.  1.
         -4   -1    0    0    0  501 -0.00000000000E+00 -0.00000000000E+00 -0.12119212870E+04  0.12119219525E+04  0.12700000000E+01 0.  1.
    9000005    1    1    2    0    0  0.10925368864E+01  0.41973038395E+02 -0.15461158199E+03  0.16021445276E+03  0.10000000000E+01 0.  0.
    9000005    1    1    2    0    0 -0.10925368864E+01 -0.41973038395E+02 -0.10542157192E+04  0.10550519950E+04  0.10000000000E+01 0.  0.
<mgrwt>
<rscale>  0 0.12493636E+03</rscale>
<asrwt>0</asrwt>
<pdfrwt beam="1">  1        4 0.49531994E-03 0.12493636E+03</pdfrwt>
<pdfrwt beam="2">  1       -4 0.18646839E+00 0.12493636E+03</pdfrwt>
<totfact> 0.24350466E+03</totfact>
</mgrwt>
</event>
<event>
 5    1  0.3312706E-002  0.1249980E+03  0.7818608E-02  0.1235072E+00
         -4   -1    0    0    0  501 -0.00000000000E+00  0.00000000000E+00  0.26031838358E+03  0.26032148150E+03  0.12700000000E+01 0. -1.
          4   -1    0    0  501    0  0.00000000000E+00 -0.00000000000E+00 -0.14975126197E+02  0.15028882348E+02  0.12700000000E+01 0. -1.
         25    2    1    2    0    0  0.00000000000E+00  0.00000000000E+00  0.24534325739E+03  0.27535036385E+03  0.12499803569E+03 0.  0.
    9000005    1    3    3    0    0 -0.28859342361E+02  0.55426093920E+02  0.12165330054E+03  0.13676782905E+03  0.10000000000E+01 0.  0.
    9000005    1    3    3    0    0  0.28859342361E+02 -0.55426093920E+02  0.12368995684E+03  0.13858253480E+03  0.10000000000E+01 0.  0.
<mgrwt>
<rscale>  0 0.12499804E+03</rscale>
<asrwt>0</asrwt>
<pdfrwt beam="2">  1        4 0.23082389E-02 0.12499804E+03</pdfrwt>
<pdfrwt beam="1">  1       -4 0.40053357E-01 0.12499804E+03</pdfrwt>
<totfact> 0.78802119E+03</totfact>
</mgrwt>
</event>
<event>
 5    1  0.3312706E-002  0.1249970E+03  0.7818608E-02  0.1235074E+00
         -4   -1    0    0    0  501 -0.00000000000E+00  0.00000000000E+00  0.46108009313E+02  0.46125496450E+02  0.12700000000E+01 0.  1.
          4   -1    0    0  501    0  0.00000000000E+00 -0.00000000000E+00 -0.84677227771E+02  0.84686751047E+02  0.12700000000E+01 0.  1.
         25    2    1    2    0    0  0.00000000000E+00  0.00000000000E+00 -0.38569218458E+02  0.13081224750E+03  0.12499703790E+03 0.  0.
    9000005    1    3    3    0    0 -0.32522799788E+02  0.47452000444E+02  0.62565509162E+01  0.57875463553E+02  0.10000000000E+01 0.  0.
    9000005    1    3    3    0    0  0.32522799788E+02 -0.47452000444E+02 -0.44825769374E+02  0.72936783944E+02  0.10000000000E+01 0.  0.
<mgrwt>
<rscale>  0 0.12499704E+03</rscale>
<asrwt>0</asrwt>
<pdfrwt beam="2">  1        4 0.13029344E-01 0.12499704E+03</pdfrwt>
<pdfrwt beam="1">  1       -4 0.70956176E-02 0.12499704E+03</pdfrwt>
<totfact> 0.10327806E+04</totfact>
</mgrwt>
</event>
<event>
 5    1  0.3312706E-002  0.1249951E+03  0.7818608E-02  0.1235077E+00
         -4   -1    0    0    0  501 -0.00000000000E+00  0.00000000000E+00  0.24752453990E+03  0.24752779794E+03  0.12700000000E+01 0.  1.
          4   -1    0    0  501    0  0.00000000000E+00 -0.00000000000E+00 -0.15751111332E+02  0.15802227950E+02  0.12700000000E+01 0.  1.
         25    2    1    2    0    0  0.00000000000E+00  0.00000000000E+00  0.23177342857E+03  0.26333002589E+03  0.12499512128E+03 0.  0.
    9000005    1    3    3    0    0 -0.18868988136E+02  0.59261740167E+02  0.10308024592E+03  0.12039322929E+03  0.10000000000E+01 0.  0.
    9000005    1    3    3    0    0  0.18868988136E+02 -0.59261740167E+02  0.12869318265E+03  0.14293679659E+03  0.10000000000E+01 0.  0.
<mgrwt>
<rscale>  0 0.12499512E+03</rscale>
<asrwt>0</asrwt>
<pdfrwt beam="2">  1        4 0.24274306E-02 0.12499512E+03</pdfrwt>
<pdfrwt beam="1">  1       -4 0.38084881E-01 0.12499512E+03</pdfrwt>
<totfact> 0.80449732E+03</totfact>
</mgrwt>
</event>
<event>
 5    1  0.3312706E-002  0.1250165E+03  0.7818608E-02  0.1235044E+00
          4   -1    0    0  501    0  0.00000000000E+00  0.00000000000E+00  0.84077726894E+03  0.84077822811E+03  0.12700000000E+01 0.  1.
         -4   -1    0    0    0  501 -0.00000000000E+00 -0.00000000000E+00 -0.45594757250E+01  0.47330454136E+01  0.12700000000E+01 0.  1.
         25    2    1    2    0    0  0.00000000000E+00  0.00000000000E+00  0.83621779322E+03  0.84551127353E+03  0.12501646279E+03 0.  0.
    9000005    1    3    3    0    0  0.34820939546E+02  0.51897846572E+02  0.41386000021E+03  0.41855344233E+03  0.10000000000E+01 0.  0.
    9000005    1    3    3    0    0 -0.34820939546E+02 -0.51897846572E+02  0.42235779300E+03  0.42695783120E+03  0.10000000000E+01 0.  0.
<mgrwt>
<rscale>  0 0.12501646E+03</rscale>
<asrwt>0</asrwt>
<pdfrwt beam="1">  1        4 0.12936392E+00 0.12501646E+03</pdfrwt>
<pdfrwt beam="2">  1       -4 0.71488227E-03 0.12501646E+03</pdfrwt>
<totfact> 0.36298621E+03</totfact>
</mgrwt>
</event>
<event>
 5    1  0.3312706E-002  0.1250015E+03  0.7818608E-02  0.1235067E+00
          4   -1    0    0  501    0  0.00000000000E+00  0.00000000000E+00  0.19659791195E+02  0.19700768763E+02  0.12700000000E+01 0. -1.
         -4   -1    0    0    0  501 -0.00000000000E+00 -0.00000000000E+00 -0.19844712837E+03  0.19845119213E+03  0.12700000000E+01 0. -1.
         25    2    1    2    0    0  0.00000000000E+00  0.00000000000E+00 -0.17878733717E+03  0.21815196089E+03  0.12500146442E+03 0.  0.
    9000005    1    3    3    0    0 -0.45824729729E+02  0.26583344234E+02 -0.14724265225E+03  0.15648635304E+03  0.10000000000E+01 0.  0.
    9000005    1    3    3    0    0  0.45824729729E+02 -0.26583344234E+02 -0.31544684927E+02  0.61665607858E+02  0.10000000000E+01 0.  0.
<mgrwt>
<rscale>  0 0.12500146E+03</rscale>
<asrwt>0</asrwt>
<pdfrwt beam="1">  1        4 0.30280481E-02 0.12500146E+03</pdfrwt>
<pdfrwt beam="2">  1       -4 0.30533791E-01 0.12500146E+03</pdfrwt>
<totfact> 0.87158774E+03</totfact>
</mgrwt>
</event>
<event>
 5    1  0.3312706E-002  0.1249984E+03  0.7818608E-02  0.1235072E+00
         -4   -1    0    0    0  501 -0.00000000000E+00  0.00000000000E+00  0.47393322339E+02  0.47410335396E+02  0.12700000000E+01 0. -1.
          4   -1    0    0  501    0  0.00000000000E+00 -0.00000000000E+00 -0.82383081316E+02  0.82392869759E+02  0.12700000000E+01 0. -1.
         25    2    1    2    0    0  0.00000000000E+00  0.00000000000E+00 -0.34989758977E+02  0.12980320516E+03  0.12499835533E+03 0.  0.
    9000005    1    3    3    0    0  0.46427144910E+02 -0.12798380589E+02  0.23858856980E+02  0.53754287147E+02  0.10000000000E+01 0.  0.
    9000005    1    3    3    0    0 -0.46427144910E+02  0.12798380589E+02 -0.58848615957E+02  0.76048918009E+02  0.10000000000E+01 0.  0.
<mgrwt>
<rscale>  0 0.12499836E+03</rscale>
<asrwt>0</asrwt>
<pdfrwt beam="2">  1        4 0.12676382E-01 0.12499836E+03</pdfrwt>
<pdfrwt beam="1">  1       -4 0.72933420E-02 0.12499836E+03</pdfrwt>
<totfact> 0.10349103E+04</totfact>
</mgrwt>
</event>
<event>
 5    1  0.3312706E-002  0.1249968E+03  0.7818608E-02  0.1235074E+00
          4   -1    0    0  501    0  0.00000000000E+00  0.00000000000E+00  0.27523073391E+03  0.27523366398E+03  0.12700000000E+01 0.  1.
         -4   -1    0    0    0  501 -0.00000000000E+00 -0.00000000000E+00 -0.14160479760E+02  0.14217316450E+02  0.12700000000E+01 0.  1.
         25    2    1    2    0    0  0.00000000000E+00  0.00000000000E+00  0.26107025415E+03  0.28945098043E+03  0.12499676984E+03 0.  0.
    9000005    1    3    3    0    0 -0.29427505904E+01  0.40013532856E+02  0.24147725353E+03  0.24478971908E+03  0.10000000000E+01 0.  0.
    9000005    1    3    3    0    0  0.29427505904E+01 -0.40013532856E+02  0.19593000621E+02  0.44661261357E+02  0.10000000000E+01 0.  0.
<mgrwt>
<rscale>  0 0.12499677E+03</rscale>
<asrwt>0</asrwt>
<pdfrwt beam="1">  1        4 0.42347782E-01 0.12499677E+03</pdfrwt>
<pdfrwt beam="2">  1       -4 0.21831331E-02 0.12499677E+03</pdfrwt>
<totfact> 0.76946957E+03</totfact>
</mgrwt>
</event>
<event>
 5    1  0.3312706E-002  0.1249978E+03  0.7818608E-02  0.1235073E+00
          4   -1    0    0  501    0  0.00000000000E+00  0.00000000000E+00  0.13580790098E+03  0.13581383902E+03  0.12700000000E+01 0. -1.
         -4   -1    0    0    0  501 -0.00000000000E+00 -0.00000000000E+00 -0.28741445817E+02  0.28769490917E+02  0.12700000000E+01 0. -1.
         25    2    1    2    0    0  0.00000000000E+00  0.00000000000E+00  0.10706645516E+03  0.16458332993E+03  0.12499778666E+03 0.  0.
    9000005    1    3    3    0    0 -0.50069733999E+02 -0.37221354062E+02  0.58226300457E+02  0.85344651419E+02  0.10000000000E+01 0.  0.
    9000005    1    3    3    0    0  0.50069733999E+02  0.37221354062E+02  0.48840154706E+02  0.79238678514E+02  0.10000000000E+01 0.  0.
<mgrwt>
<rscale>  0 0.12499779E+03</rscale>
<asrwt>0</asrwt>
<pdfrwt beam="1">  1        4 0.20896137E-01 0.12499779E+03</pdfrwt>
<pdfrwt beam="2">  1       -4 0.44243750E-02 0.12499779E+03</pdfrwt>
<totfact> 0.96471158E+03</totfact>
</mgrwt>
</event>
<event>
 5    1  0.3312706E-002  0.1249989E+03  0.7818608E-02  0.1235071E+00
         -4   -1    0    0    0  501 -0.00000000000E+00  0.00000000000E+00  0.44688142298E+02  0.44706184830E+02  0.12700000000E+01 0.  1.
          4   -1    0    0  501    0  0.00000000000E+00 -0.00000000000E+00 -0.87369511874E+02  0.87378741723E+02  0.12700000000E+01 0.  1.
         25    2    1    2    0    0  0.00000000000E+00  0.00000000000E+00 -0.42681369575E+02  0.13208492655E+03  0.12499891405E+03 0.  0.
    9000005    1    3    3    0    0 -0.11868311408E+02 -0.18413869343E+02 -0.83184098781E+02  0.86026284878E+02  0.10000000000E+01 0.  0.
    9000005    1    3    3    0    0  0.11868311408E+02  0.18413869343E+02  0.40502729206E+02  0.46058641675E+02  0.10000000000E+01 0.  0.
<mgrwt>
<rscale>  0 0.12499891E+03</rscale>
<asrwt>0</asrwt>
<pdfrwt beam="2">  1        4 0.13443561E-01 0.12499891E+03</pdfrwt>
<pdfrwt beam="1">  1       -4 0.68771967E-02 0.12499891E+03</pdfrwt>
<totfact> 0.10300138E+04</totfact>
</mgrwt>
</event>
<event>
 5    1  0.3312706E-002  0.1249986E+03  0.7818608E-02  0.1235071E+00
          4   -1    0    0  501    0  0.00000000000E+00  0.00000000000E+00  0.84793067965E+01  0.85738873184E+01  0.12700000000E+01 0.  1.
         -4   -1    0    0    0  501 -0.00000000000E+00 -0.00000000000E+00 -0.45801961825E+03  0.45802137898E+03  0.12700000000E+01 0.  1.
         25    2    1    2    0    0  0.00000000000E+00  0.00000000000E+00 -0.44954031145E+03  0.46659526630E+03  0.12499860363E+03 0.  0.
    9000005    1    3    3    0    0 -0.45302087914E+02  0.22321483075E+02 -0.87382945343E+02  0.10093218968E+03  0.10000000000E+01 0.  0.
    9000005    1    3    3    0    0  0.45302087914E+02 -0.22321483075E+02 -0.36215736611E+03  0.36566307662E+03  0.10000000000E+01 0.  0.
<mgrwt>
<rscale>  0 0.12499860E+03</rscale>
<asrwt>0</asrwt>
<pdfrwt beam="1">  1        4 0.13119200E-02 0.12499860E+03</pdfrwt>
<pdfrwt beam="2">  1       -4 0.70471948E-01 0.12499860E+03</pdfrwt>
<totfact> 0.58554440E+03</totfact>
</mgrwt>
</event>
<event>
 5    1  0.3312706E-002  0.1249991E+03  0.7818608E-02  0.1235071E+00
         -4   -1    0    0    0  501 -0.00000000000E+00  0.00000000000E+00  0.39726280105E+01  0.41706921860E+01  0.12700000000E+01 0.  1.
          4   -1    0    0  501    0  0.00000000000E+00 -0.00000000000E+00 -0.95916260812E+03  0.95916344890E+03  0.12700000000E+01 0.  1.
         25    2    1    2    0    0  0.00000000000E+00  0.00000000000E+00 -0.95518998011E+03  0.96333414109E+03  0.12499907716E+03 0.  0.
    9000005    1    3    3    0    0  0.60580443684E+02  0.17646511891E+01 -0.36018727146E+03  0.36525193315E+03  0.10000000000E+01 0.  0.
    9000005    1    3    3    0    0 -0.60580443684E+02 -0.17646511891E+01 -0.59500270865E+03  0.59808220794E+03  0.10000000000E+01 0.  0.
<mgrwt>
<rscale>  0 0.12499908E+03</rscale>
<asrwt>0</asrwt>
<pdfrwt beam="2">  1        4 0.14757860E+00 0.12499908E+03</pdfrwt>
<pdfrwt beam="1">  1       -4 0.62647469E-03 0.12499908E+03</pdfrwt>
<totfact> 0.31847917E+03</totfact>
</mgrwt>
</event>
<event>
 5    1  0.3312706E-002  0.1250209E+03  0.7818608E-02  0.1235037E+00
          4   -1    0    0  501    0  0.00000000000E+00  0.00000000000E+00  0.37480890449E+03  0.37481105611E+03  0.12700000000E+01 0.  1.
         -4   -1    0    0    0  501 -0.00000000000E+00 -0.00000000000E+00 -0.10384604153E+02  0.10461974164E+02  0.12700000000E+01 0.  1.
         25    2    1    2    0    0  0.00000000000E+00  0.00000000000E+00  0.36442430033E+03  0.38527303027E+03  0.12502094698E+03 0.  0.
    9000005    1    3    3    0    0  0.26572308109E+02  0.32009123107E+02  0.38463402201E+02  0.56666611238E+02  0.10000000000E+01 0.  0.
    9000005    1    3    3    0    0 -0.26572308109E+02 -0.32009123107E+02  0.32596089813E+03  0.32860641904E+03  0.10000000000E+01 0.  0.
<mgrwt>
<rscale>  0 0.12502095E+03</rscale>
<asrwt>0</asrwt>
<pdfrwt beam="1">  1        4 0.57669017E-01 0.12502095E+03</pdfrwt>
<pdfrwt beam="2">  1       -4 0.16037487E-02 0.12502095E+03</pdfrwt>
<totfact> 0.65980236E+03</totfact>
</mgrwt>
</event>
<event>
 5    1  0.3312706E-002  0.1250007E+03  0.7818608E-02  0.1235068E+00
         -4   -1    0    0    0  501 -0.00000000000E+00  0.00000000000E+00  0.29404086745E+02  0.29431500426E+02  0.12700000000E+01 0.  1.
          4   -1    0    0  501    0  0.00000000000E+00 -0.00000000000E+00 -0.13275640685E+03  0.13276248137E+03  0.12700000000E+01 0.  1.
         25    2    1    2    0    0  0.00000000000E+00  0.00000000000E+00 -0.10335232011E+03  0.16219398180E+03  0.12500074264E+03 0.  0.
    9000005    1    3    3    0    0 -0.19244159401E+02  0.57607660401E+02 -0.70760039845E+02  0.93257511476E+02  0.10000000000E+01 0.  0.
    9000005    1    3    3    0    0  0.19244159401E+02 -0.57607660401E+02 -0.32592280262E+02  0.68936470323E+02  0.10000000000E+01 0.  0.
<mgrwt>
<rscale>  0 0.12500074E+03</rscale>
<asrwt>0</asrwt>
<pdfrwt beam="2">  1        4 0.20426638E-01 0.12500074E+03</pdfrwt>
<pdfrwt beam="1">  1       -4 0.45262817E-02 0.12500074E+03</pdfrwt>
<totfact> 0.96919845E+03</totfact>
</mgrwt>
</event>
<event>
 5    1  0.3312706E-002  0.1250032E+03  0.7818608E-02  0.1235064E+00
          4   -1    0    0  501    0  0.00000000000E+00  0.00000000000E+00  0.64103006860E+03  0.64103132666E+03  0.12700000000E+01 0.  1.
         -4   -1    0    0    0  501 -0.00000000000E+00 -0.00000000000E+00 -0.60265709048E+01  0.61589330951E+01  0.12700000000E+01 0.  1.
         25    2    1    2    0    0  0.00000000000E+00  0.00000000000E+00  0.63500349770E+03  0.64719025975E+03  0.12500316087E+03 0.  0.
    9000005    1    3    3    0    0  0.84830755422E+01 -0.38979656781E+02  0.68444406355E+02  0.79227602353E+02  0.10000000000E+01 0.  0.
    9000005    1    3    3    0    0 -0.84830755422E+01  0.38979656781E+02  0.56655909134E+03  0.56796265740E+03  0.10000000000E+01 0.  0.
<mgrwt>
<rscale>  0 0.12500316E+03</rscale>
<asrwt>0</asrwt>
<pdfrwt beam="1">  1        4 0.98630259E-01 0.12500316E+03</pdfrwt>
<pdfrwt beam="2">  1       -4 0.93744352E-03 0.12500316E+03</pdfrwt>
<totfact> 0.46014847E+03</totfact>
</mgrwt>
</event>
<event>
 5    1  0.3312706E-002  0.1249982E+03  0.7818608E-02  0.1235072E+00
         -4   -1    0    0    0  501 -0.00000000000E+00  0.00000000000E+00  0.54657320595E+02  0.54672073261E+02  0.12700000000E+01 0. -1.
          4   -1    0    0  501    0  0.00000000000E+00 -0.00000000000E+00 -0.71435922634E+02  0.71447210880E+02  0.12700000000E+01 0. -1.
         25    2    1    2    0    0  0.00000000000E+00  0.00000000000E+00 -0.16778602039E+02  0.12611928414E+03  0.12499820937E+03 0.  0.
    9000005    1    3    3    0    0 -0.68810662221E+00 -0.22531553208E+02  0.50417164350E+02  0.55236173309E+02  0.10000000000E+01 0.  0.
    9000005    1    3    3    0    0  0.68810662221E+00  0.22531553208E+02 -0.67195766388E+02  0.70883110832E+02  0.10000000000E+01 0.  0.
<mgrwt>
<rscale>  0 0.12499821E+03</rscale>
<asrwt>0</asrwt>
<pdfrwt beam="2">  1        4 0.10992145E-01 0.12499821E+03</pdfrwt>
<pdfrwt beam="1">  1       -4 0.84108217E-02 0.12499821E+03</pdfrwt>
<totfact> 0.10428766E+04</totfact>
</mgrwt>
</event>
<event>
 5    1  0.3312706E-002  0.1250004E+03  0.7818608E-02  0.1235069E+00
         -4   -1    0    0    0  501 -0.00000000000E+00  0.00000000000E+00  0.10489329734E+04  0.10489337422E+04  0.12700000000E+01 0.  1.
          4   -1    0    0  501    0  0.00000000000E+00 -0.00000000000E+00 -0.36149775700E+01  0.38315744586E+01  0.12700000000E+01 0.  1.
         25    2    1    2    0    0  0.00000000000E+00  0.00000000000E+00  0.10453179958E+04  0.10527653167E+04  0.12500039845E+03 0.  0.
    9000005    1    3    3    0    0 -0.32862765990E+02 -0.31211631115E+02  0.88501936856E+03  0.88617967141E+03  0.10000000000E+01 0.  0.
    9000005    1    3    3    0    0  0.32862765990E+02  0.31211631115E+02  0.16029862725E+03  0.16658564525E+03  0.10000000000E+01 0.  0.
<mgrwt>
<rscale>  0 0.12500040E+03</rscale>
<asrwt>0</asrwt>
<pdfrwt beam="2">  1        4 0.57287100E-03 0.12500040E+03</pdfrwt>
<pdfrwt beam="1">  1       -4 0.16139098E+00 0.12500040E+03</pdfrwt>
<totfact> 0.28908338E+03</totfact>
</mgrwt>
</event>
<event>
 5    1  0.3312706E-002  0.1249989E+03  0.7818608E-02  0.1235071E+00
         -4   -1    0    0    0  501 -0.00000000000E+00  0.00000000000E+00  0.13067835949E+03  0.13068453061E+03  0.12700000000E+01 0.  1.
          4   -1    0    0  501    0  0.00000000000E+00 -0.00000000000E+00 -0.29871217076E+02  0.29898202448E+02  0.12700000000E+01 0.  1.
         25    2    1    2    0    0  0.00000000000E+00  0.00000000000E+00  0.10080714242E+03  0.16058273305E+03  0.12499893677E+03 0.  0.
    9000005    1    3    3    0    0  0.11449196161E+02  0.58810131441E+02  0.73221178978E+02  0.94615309035E+02  0.10000000000E+01 0.  0.
    9000005    1    3    3    0    0 -0.11449196161E+02 -0.58810131441E+02  0.27585963438E+02  0.65967424019E+02  0.10000000000E+01 0.  0.
<mgrwt>
<rscale>  0 0.12499894E+03</rscale>
<asrwt>0</asrwt>
<pdfrwt beam="2">  1        4 0.45981225E-02 0.12499894E+03</pdfrwt>
<pdfrwt beam="1">  1       -4 0.20106913E-01 0.12499894E+03</pdfrwt>
<totfact> 0.97232880E+03</totfact>
</mgrwt>
</event>
<event>
 5    1  0.3312706E-002  0.1249978E+03  0.7818608E-02  0.1235073E+00
          4   -1    0    0  501    0  0.00000000000E+00  0.00000000000E+00  0.87508931256E+02  0.87518146401E+02  0.12700000000E+01 0.  1.
         -4   -1    0    0    0  501 -0.00000000000E+00 -0.00000000000E+00 -0.44616161338E+02  0.44634232967E+02  0.12700000000E+01 0.  1.
         25    2    1    2    0    0  0.00000000000E+00  0.00000000000E+00  0.42892769917E+02  0.13215237937E+03  0.12499784663E+03 0.  0.
    9000005    1    3    3    0    0 -0.35323728315E+02 -0.40547319925E+02 -0.12207396093E+02  0.55153163596E+02  0.10000000000E+01 0.  0.
    9000005    1    3    3    0    0  0.35323728315E+02  0.40547319925E+02  0.55100166011E+02  0.76999215773E+02  0.10000000000E+01 0.  0.
<mgrwt>
<rscale>  0 0.12499785E+03</rscale>
<asrwt>0</asrwt>
<pdfrwt beam="1">  1        4 0.13465011E-01 0.12499785E+03</pdfrwt>
<pdfrwt beam="2">  1       -4 0.68661239E-02 0.12499785E+03</pdfrwt>
<totfact> 0.10298947E+04</totfact>
</mgrwt>
</event>
<event>
 5    1  0.3312706E-002  0.1249942E+03  0.7818608E-02  0.1235078E+00
         -4   -1    0    0    0  501 -0.00000000000E+00  0.00000000000E+00  0.42410291898E+03  0.42410482051E+03  0.12700000000E+01 0. -1.
          4   -1    0    0  501    0  0.00000000000E+00 -0.00000000000E+00 -0.91640514654E+01  0.92516344102E+01  0.12700000000E+01 0. -1.
         25    2    1    2    0    0  0.00000000000E+00  0.00000000000E+00  0.41493886751E+03  0.43335645492E+03  0.12499421288E+03 0.  0.
    9000005    1    3    3    0    0 -0.20978866301E+01  0.53033036849E+02  0.93111406315E+02  0.10718039985E+03  0.10000000000E+01 0.  0.
    9000005    1    3    3    0    0  0.20978866301E+01 -0.53033036849E+02  0.32182746120E+03  0.32617605508E+03  0.10000000000E+01 0.  0.
<mgrwt>
<rscale>  0 0.12499421E+03</rscale>
<asrwt>0</asrwt>
<pdfrwt beam="2">  1        4 0.14167374E-02 0.12499421E+03</pdfrwt>
<pdfrwt beam="1">  1       -4 0.65253492E-01 0.12499421E+03</pdfrwt>
<totfact> 0.61440757E+03</totfact>
</mgrwt>
</event>
<event>
 5    1  0.3312706E-002  0.1249885E+03  0.7818608E-02  0.1235087E+00
          4   -1    0    0  501    0  0.00000000000E+00  0.00000000000E+00  0.30336569361E+02  0.30363141151E+02  0.12700000000E+01 0. -1.
         -4   -1    0    0    0  501 -0.00000000000E+00 -0.00000000000E+00 -0.12865393016E+03  0.12866019837E+03  0.12700000000E+01 0. -1.
         25    2    1    2    0    0  0.00000000000E+00  0.00000000000E+00 -0.98317360797E+02  0.15902333952E+03  0.12498847578E+03 0.  0.
    9000005    1    3    3    0    0 -0.31595311219E+02  0.21804677568E+02  0.13570192884E+02  0.40729077939E+02  0.10000000000E+01 0.  0.
    9000005    1    3    3    0    0  0.31595311219E+02 -0.21804677568E+02 -0.11188755368E+03  0.11829426158E+03  0.10000000000E+01 0.  0.
<mgrwt>
<rscale>  0 0.12498848E+03</rscale>
<asrwt>0</asrwt>
<pdfrwt beam="1">  1        4 0.46696907E-02 0.12498848E+03</pdfrwt>
<pdfrwt beam="2">  1       -4 0.19795438E-01 0.12498848E+03</pdfrwt>
<totfact> 0.97556679E+03</totfact>
</mgrwt>
</event>
<event>
 5    1  0.3312706E-002  0.1249993E+03  0.7818608E-02  0.1235070E+00
          4   -1    0    0  501    0  0.00000000000E+00  0.00000000000E+00  0.14769932969E+02  0.14824433207E+02  0.12700000000E+01 0. -1.
         -4   -1    0    0    0  501 -0.00000000000E+00 -0.00000000000E+00 -0.26392723911E+03  0.26393029467E+03  0.12700000000E+01 0. -1.
         25    2    1    2    0    0  0.00000000000E+00  0.00000000000E+00 -0.24915730614E+03  0.27875472788E+03  0.12499934044E+03 0.  0.
    9000005    1    3    3    0    0  0.59995212464E+02 -0.15370257471E+02 -0.14317497286E+03  0.15599917688E+03  0.10000000000E+01 0.  0.
    9000005    1    3    3    0    0 -0.59995212464E+02  0.15370257471E+02 -0.10598233328E+03  0.12275555100E+03  0.10000000000E+01 0.  0.
<mgrwt>
<rscale>  0 0.12499934E+03</rscale>
<asrwt>0</asrwt>
<pdfrwt beam="1">  1        4 0.22767249E-02 0.12499934E+03</pdfrwt>
<pdfrwt beam="2">  1       -4 0.40608615E-01 0.12499934E+03</pdfrwt>
<totfact> 0.78344660E+03</totfact>
</mgrwt>
</event>
<event>
 5    1  0.3312706E-002  0.1249997E+03  0.7818608E-02  0.1235070E+00
         -4   -1    0    0    0  501 -0.00000000000E+00  0.00000000000E+00  0.74080144293E+02  0.74091029676E+02  0.12700000000E+01 0. -1.
          4   -1    0    0  501    0  0.00000000000E+00 -0.00000000000E+00 -0.52707388911E+02  0.52722687202E+02  0.12700000000E+01 0. -1.
         25    2    1    2    0    0  0.00000000000E+00  0.00000000000E+00  0.21372755382E+02  0.12681371688E+03  0.12499969646E+03 0.  0.
    9000005    1    3    3    0    0  0.58684685573E+02  0.13197316533E+02 -0.65056247073E+01  0.60509376441E+02  0.10000000000E+01 0.  0.
    9000005    1    3    3    0    0 -0.58684685573E+02 -0.13197316533E+02  0.27878380090E+02  0.66304340438E+02  0.10000000000E+01 0.  0.
<mgrwt>
<rscale>  0 0.12499970E+03</rscale>
<asrwt>0</asrwt>
<pdfrwt beam="2">  1        4 0.81108432E-02 0.12499970E+03</pdfrwt>
<pdfrwt beam="1">  1       -4 0.11398959E-01 0.12499970E+03</pdfrwt>
<totfact> 0.10413267E+04</totfact>
</mgrwt>
</event>
<event>
 5    1  0.3312706E-002  0.1249993E+03  0.7818608E-02  0.1235070E+00
          4   -1    0    0  501    0  0.00000000000E+00  0.00000000000E+00  0.47082182952E+03  0.47082354237E+03  0.12700000000E+01 0. -1.
         -4   -1    0    0    0  501 -0.00000000000E+00 -0.00000000000E+00 -0.82462332181E+01  0.83434562555E+01  0.12700000000E+01 0. -1.
         25    2    1    2    0    0  0.00000000000E+00  0.00000000000E+00  0.46257559630E+03  0.47916699863E+03  0.12499932112E+03 0.  0.
    9000005    1    3    3    0    0  0.12880153651E+02 -0.24570020015E+02  0.16632709392E+02  0.32360952757E+02  0.10000000000E+01 0.  0.
    9000005    1    3    3    0    0 -0.12880153651E+02  0.24570020015E+02  0.44594288691E+03  0.44680604587E+03  0.10000000000E+01 0.  0.
<mgrwt>
<rscale>  0 0.12499932E+03</rscale>
<asrwt>0</asrwt>
<pdfrwt beam="1">  1        4 0.72441725E-01 0.12499932E+03</pdfrwt>
<pdfrwt beam="2">  1       -4 0.12762620E-02 0.12499932E+03</pdfrwt>
<totfact> 0.57518638E+03</totfact>
</mgrwt>
</event>
<event>
 5    1  0.3312706E-002  0.1249961E+03  0.7818608E-02  0.1235075E+00
         -4   -1    0    0    0  501 -0.00000000000E+00  0.00000000000E+00  0.80289325635E+02  0.80299369306E+02  0.12700000000E+01 0. -1.
          4   -1    0    0  501    0  0.00000000000E+00 -0.00000000000E+00 -0.48627789994E+02  0.48644371305E+02  0.12700000000E+01 0. -1.
         25    2    1    2    0    0  0.00000000000E+00  0.00000000000E+00  0.31661535642E+02  0.12894374061E+03  0.12499614156E+03 0.  0.
    9000005    1    3    3    0    0  0.54875254880E+02  0.25478421086E+02  0.31963246015E+02  0.68433125276E+02  0.10000000000E+01 0.  0.
    9000005    1    3    3    0    0 -0.54875254880E+02 -0.25478421086E+02 -0.30171037343E+00  0.60510615336E+02  0.10000000000E+01 0.  0.
<mgrwt>
<rscale>  0 0.12499614E+03</rscale>
<asrwt>0</asrwt>
<pdfrwt beam="2">  1        4 0.74832466E-02 0.12499614E+03</pdfrwt>
<pdfrwt beam="1">  1       -4 0.12354252E-01 0.12499614E+03</pdfrwt>
<totfact> 0.10368059E+04</totfact>
</mgrwt>
</event>
<event>
 5    1  0.3312706E-002  0.1250014E+03  0.7818608E-02  0.1235067E+00
         -4   -1    0    0    0  501 -0.00000000000E+00  0.00000000000E+00  0.86472886195E+01  0.87400515141E+01  0.12700000000E+01 0. -1.
          4   -1    0    0  501    0  0.00000000000E+00 -0.00000000000E+00 -0.44923735486E+03  0.44923915001E+03  0.12700000000E+01 0. -1.
         25    2    1    2    0    0  0.00000000000E+00  0.00000000000E+00 -0.44059006624E+03  0.45797920152E+03  0.12500137023E+03 0.  0.
    9000005    1    3    3    0    0 -0.11834908058E+02  0.53174099542E+02 -0.10809763345E+03  0.12105225429E+03  0.10000000000E+01 0.  0.
    9000005    1    3    3    0    0  0.11834908058E+02 -0.53174099542E+02 -0.33249243278E+03  0.33692694723E+03  0.10000000000E+01 0.  0.
<mgrwt>
<rscale>  0 0.12500137E+03</rscale>
<asrwt>0</asrwt>
<pdfrwt beam="2">  1        4 0.69120695E-01 0.12500137E+03</pdfrwt>
<pdfrwt beam="1">  1       -4 0.13376261E-02 0.12500137E+03</pdfrwt>
<totfact> 0.59276956E+03</totfact>
</mgrwt>
</event>
<event>
 5    1  0.3312706E-002  0.1249998E+03  0.7818608E-02  0.1235070E+00
          4   -1    0    0  501    0  0.00000000000E+00  0.00000000000E+00  0.38133770246E+02  0.38154912308E+02  0.12700000000E+01 0.  1.
         -4   -1    0    0    0  501 -0.00000000000E+00 -0.00000000000E+00 -0.10238160481E+03  0.10238948141E+03  0.12700000000E+01 0.  1.
         25    2    1    2    0    0  0.00000000000E+00  0.00000000000E+00 -0.64247834562E+02  0.14054439372E+03  0.12499976944E+03 0.  0.
    9000005    1    3    3    0    0  0.58046126431E+01 -0.44380742592E+02  0.16910070171E+02  0.47857019487E+02  0.10000000000E+01 0.  0.
    9000005    1    3    3    0    0 -0.58046126431E+01  0.44380742592E+02 -0.81157904733E+02  0.92687374230E+02  0.10000000000E+01 0.  0.
<mgrwt>
<rscale>  0 0.12499977E+03</rscale>
<asrwt>0</asrwt>
<pdfrwt beam="1">  1        4 0.58689661E-02 0.12499977E+03</pdfrwt>
<pdfrwt beam="2">  1       -4 0.15753248E-01 0.12499977E+03</pdfrwt>
<totfact> 0.10122368E+04</totfact>
</mgrwt>
</event>
<event>
 5    1  0.3312706E-002  0.1250264E+03  0.7818608E-02  0.1235028E+00
         -4   -1    0    0    0  501 -0.00000000000E+00  0.00000000000E+00  0.18198978120E+03  0.18199421244E+03  0.12700000000E+01 0. -1.
          4   -1    0    0  501    0  0.00000000000E+00 -0.00000000000E+00 -0.21449695548E+02  0.21487259926E+02  0.12700000000E+01 0. -1.
         25    2    1    2    0    0  0.00000000000E+00  0.00000000000E+00  0.16054008565E+03  0.20348147236E+03  0.12502635920E+03 0.  0.
    9000005    1    3    3    0    0  0.39122905810E+02 -0.33538458975E+02  0.13784493032E+03  0.14716539948E+03  0.10000000000E+01 0.  0.
    9000005    1    3    3    0    0 -0.39122905810E+02  0.33538458975E+02  0.22695155329E+02  0.56316072881E+02  0.10000000000E+01 0.  0.
<mgrwt>
<rscale>  0 0.12502636E+03</rscale>
<asrwt>0</asrwt>
<pdfrwt beam="2">  1        4 0.33031834E-02 0.12502636E+03</pdfrwt>
<pdfrwt beam="1">  1       -4 0.28001660E-01 0.12502636E+03</pdfrwt>
<totfact> 0.89498846E+03</totfact>
</mgrwt>
</event>
<event>
 5    1  0.3312706E-002  0.1250020E+03  0.7818608E-02  0.1235066E+00
         -4   -1    0    0    0  501 -0.00000000000E+00  0.00000000000E+00  0.25509401013E+02  0.25540995283E+02  0.12700000000E+01 0. -1.
          4   -1    0    0  501    0  0.00000000000E+00 -0.00000000000E+00 -0.15300564226E+03  0.15301091289E+03  0.12700000000E+01 0. -1.
         25    2    1    2    0    0  0.00000000000E+00  0.00000000000E+00 -0.12749624124E+03  0.17855190817E+03  0.12500196950E+03 0.  0.
    9000005    1    3    3    0    0  0.69690372373E+01 -0.60657577138E+02 -0.82776539928E+02  0.10286333023E+03  0.10000000000E+01 0.  0.
    9000005    1    3    3    0    0 -0.69690372373E+01  0.60657577138E+02 -0.44719701315E+02  0.75688577936E+02  0.10000000000E+01 0.  0.
<mgrwt>
<rscale>  0 0.12500197E+03</rscale>
<asrwt>0</asrwt>
<pdfrwt beam="2">  1        4 0.23542165E-01 0.12500197E+03</pdfrwt>
<pdfrwt beam="1">  1       -4 0.39273591E-02 0.12500197E+03</pdfrwt>
<totfact> 0.93874170E+03</totfact>
</mgrwt>
</event>
<event>
 5    1  0.3312706E-002  0.1249999E+03  0.7818608E-02  0.1235069E+00
         -4   -1    0    0    0  501 -0.00000000000E+00  0.00000000000E+00  0.17613200663E+03  0.17613658523E+03  0.12700000000E+01 0. -1.
          4   -1    0    0  501    0  0.00000000000E+00 -0.00000000000E+00 -0.22154876169E+02  0.22191246879E+02  0.12700000000E+01 0. -1.
         25    2    1    2    0    0  0.00000000000E+00  0.00000000000E+00  0.15397713046E+03  0.19832783211E+03  0.12499988915E+03 0.  0.
    9000005    1    3    3    0    0  0.55452930428E+02  0.14464261518E+02  0.37450074455E+02  0.68467148553E+02  0.10000000000E+01 0.  0.
    9000005    1    3    3    0    0 -0.55452930428E+02 -0.14464261518E+02  0.11652705600E+03  0.12986068356E+03  0.10000000000E+01 0.  0.
<mgrwt>
<rscale>  0 0.12499989E+03</rscale>
<asrwt>0</asrwt>
<pdfrwt beam="2">  1        4 0.34115926E-02 0.12499989E+03</pdfrwt>
<pdfrwt beam="1">  1       -4 0.27100381E-01 0.12499989E+03</pdfrwt>
<totfact> 0.90418374E+03</totfact>
</mgrwt>
</event>
<event>
 5    1  0.3312706E-002  0.1249981E+03  0.7818608E-02  0.1235072E+00
          4   -1    0    0  501    0  0.00000000000E+00  0.00000000000E+00  0.37523102237E+03  0.37523317157E+03  0.12700000000E+01 0.  1.
         -4   -1    0    0    0  501 -0.00000000000E+00 -0.00000000000E+00 -0.10369013334E+02  0.10446498816E+02  0.12700000000E+01 0.  1.
         25    2    1    2    0    0  0.00000000000E+00  0.00000000000E+00  0.36486200903E+03  0.38567967039E+03  0.12499809004E+03 0.  0.
    9000005    1    3    3    0    0 -0.41678640234E+02 -0.37163432428E+01  0.39222956132E+02  0.57361664433E+02  0.10000000000E+01 0.  0.
    9000005    1    3    3    0    0  0.41678640234E+02  0.37163432428E+01  0.32563905290E+03  0.32831800595E+03  0.10000000000E+01 0.  0.
<mgrwt>
<rscale>  0 0.12499809E+03</rscale>
<asrwt>0</asrwt>
<pdfrwt beam="1">  1        4 0.57733975E-01 0.12499809E+03</pdfrwt>
<pdfrwt beam="2">  1       -4 0.16013586E-02 0.12499809E+03</pdfrwt>
<totfact> 0.65972594E+03</totfact>
</mgrwt>
</event>
<event>
 5    1  0.3312706E-002  0.1249990E+03  0.7818608E-02  0.1235071E+00
          4   -1    0    0  501    0  0.00000000000E+00  0.00000000000E+00  0.44236661450E+03  0.44236843753E+03  0.12700000000E+01 0.  1.
         -4   -1    0    0    0  501 -0.00000000000E+00 -0.00000000000E+00 -0.87826869606E+01  0.88740346093E+01  0.12700000000E+01 0.  1.
         25    2    1    2    0    0  0.00000000000E+00  0.00000000000E+00  0.43358392754E+03  0.45124247214E+03  0.12499898577E+03 0.  0.
    9000005    1    3    3    0    0  0.60380186056E+02 -0.13787676866E+02  0.24684800980E+03  0.25450109399E+03  0.10000000000E+01 0.  0.
    9000005    1    3    3    0    0 -0.60380186056E+02  0.13787676866E+02  0.18673591774E+03  0.19674137815E+03  0.10000000000E+01 0.  0.
<mgrwt>
<rscale>  0 0.12499899E+03</rscale>
<asrwt>0</asrwt>
<pdfrwt beam="1">  1        4 0.68063563E-01 0.12499899E+03</pdfrwt>
<pdfrwt beam="2">  1       -4 0.13583497E-02 0.12499899E+03</pdfrwt>
<totfact> 0.59857649E+03</totfact>
</mgrwt>
</event>
<event>
 5    1  0.3312706E-002  0.1250039E+03  0.7818608E-02  0.1235063E+00
         -4   -1    0    0    0  501 -0.00000000000E+00  0.00000000000E+00  0.11045104832E+02  0.11117879328E+02  0.12700000000E+01 0.  1.
          4   -1    0    0  501    0  0.00000000000E+00 -0.00000000000E+00 -0.35245033344E+03  0.35245262156E+03  0.12700000000E+01 0.  1.
         25    2    1    2    0    0  0.00000000000E+00  0.00000000000E+00 -0.34140522861E+03  0.36357050088E+03  0.12500391591E+03 0.  0.
    9000005    1    3    3    0    0 -0.55249551990E+02  0.14032636645E+02 -0.96205565005E+02  0.11182995406E+03  0.10000000000E+01 0.  0.
    9000005    1    3    3    0    0  0.55249551990E+02 -0.14032636645E+02 -0.24519966360E+03  0.25174054683E+03  0.10000000000E+01 0.  0.
<mgrwt>
<rscale>  0 0.12500392E+03</rscale>
<asrwt>0</asrwt>
<pdfrwt beam="2">  1        4 0.54228894E-01 0.12500392E+03</pdfrwt>
<pdfrwt beam="1">  1       -4 0.17050212E-02 0.12500392E+03</pdfrwt>
<totfact> 0.68251083E+03</totfact>
</mgrwt>
</event>
<event>
 4    1  0.3312706E-002  0.1251227E+03  0.7818608E-02  0.1234878E+00
         -4   -1    0    0    0  501 -0.00000000000E+00  0.00000000000E+00  0.10584853662E+03  0.10585615525E+03  0.12700000000E+01 0.  1.
          4   -1    0    0  501    0  0.00000000000E+00 -0.00000000000E+00 -0.36956790288E+02  0.36978605279E+02  0.12700000000E+01 0.  1.
    9000005    1    1    2    0    0 -0.17105000496E+02  0.27527620126E+01 -0.34168893898E+02  0.38323257310E+02  0.10000000000E+01 0.  0.
    9000005    1    1    2    0    0  0.17105000496E+02 -0.27527620126E+01  0.10306064023E+03  0.10451150322E+03  0.10000000000E+01 0.  0.
<mgrwt>
<rscale>  0 0.12512272E+03</rscale>
<asrwt>0</asrwt>
<pdfrwt beam="2">  1        4 0.56879242E-02 0.12512272E+03</pdfrwt>
<pdfrwt beam="1">  1       -4 0.16286654E-01 0.12512272E+03</pdfrwt>
<totfact> 0.10047370E+04</totfact>
</mgrwt>
</event>
<event>
 5    1  0.3312706E-002  0.1250014E+03  0.7818608E-02  0.1235067E+00
         -4   -1    0    0    0  501 -0.00000000000E+00  0.00000000000E+00  0.76716126760E+01  0.77760234728E+01  0.12700000000E+01 0. -1.
          4   -1    0    0  501    0  0.00000000000E+00 -0.00000000000E+00 -0.50564688841E+03  0.50564848330E+03  0.12700000000E+01 0. -1.
         25    2    1    2    0    0  0.00000000000E+00  0.00000000000E+00 -0.49797527573E+03  0.51342450677E+03  0.12500139562E+03 0.  0.
    9000005    1    3    3    0    0  0.31654813018E+01  0.62171076664E+02 -0.22646295732E+03  0.23486535309E+03  0.10000000000E+01 0.  0.
    9000005    1    3    3    0    0 -0.31654813018E+01 -0.62171076664E+02 -0.27151231842E+03  0.27855915368E+03  0.10000000000E+01 0.  0.
<mgrwt>
<rscale>  0 0.12500140E+03</rscale>
<asrwt>0</asrwt>
<pdfrwt beam="2">  1        4 0.77799957E-01 0.12500140E+03</pdfrwt>
<pdfrwt beam="1">  1       -4 0.11884028E-02 0.12500140E+03</pdfrwt>
<totfact> 0.54835958E+03</totfact>
</mgrwt>
</event>
<event>
 5    1  0.3312706E-002  0.1249945E+03  0.7818608E-02  0.1235078E+00
         -4   -1    0    0    0  501 -0.00000000000E+00  0.00000000000E+00  0.10723691339E+02  0.10798632132E+02  0.12700000000E+01 0.  1.
          4   -1    0    0  501    0  0.00000000000E+00 -0.00000000000E+00 -0.36288746691E+03  0.36288968921E+03  0.12700000000E+01 0.  1.
         25    2    1    2    0    0  0.00000000000E+00  0.00000000000E+00 -0.35216377557E+03  0.37368832135E+03  0.12499454663E+03 0.  0.
    9000005    1    3    3    0    0  0.62493719751E+01 -0.59227225812E+02 -0.23264770368E+03  0.24015177067E+03  0.10000000000E+01 0.  0.
    9000005    1    3    3    0    0 -0.62493719751E+01  0.59227225812E+02 -0.11951607189E+03  0.13353655068E+03  0.10000000000E+01 0.  0.
<mgrwt>
<rscale>  0 0.12499455E+03</rscale>
<asrwt>0</asrwt>
<pdfrwt beam="2">  1        4 0.55834767E-01 0.12499455E+03</pdfrwt>
<pdfrwt beam="1">  1       -4 0.16557346E-02 0.12499455E+03</pdfrwt>
<totfact> 0.67202932E+03</totfact>
</mgrwt>
</event>
<event>
 5    1  0.3312706E-002  0.1249951E+03  0.7818608E-02  0.1235077E+00
          4   -1    0    0  501    0  0.00000000000E+00  0.00000000000E+00  0.40880646354E+02  0.40900368535E+02  0.12700000000E+01 0.  1.
         -4   -1    0    0    0  501 -0.00000000000E+00 -0.00000000000E+00 -0.95498095518E+02  0.95506539816E+02  0.12700000000E+01 0.  1.
         25    2    1    2    0    0  0.00000000000E+00  0.00000000000E+00 -0.54617449164E+02  0.13640690835E+03  0.12499511548E+03 0.  0.
    9000005    1    3    3    0    0 -0.94006888988E+01  0.18625536063E+02 -0.91590351085E+02  0.93941875420E+02  0.10000000000E+01 0.  0.
    9000005    1    3    3    0    0  0.94006888988E+01 -0.18625536063E+02  0.36972901921E+02  0.42465032932E+02  0.10000000000E+01 0.  0.
<mgrwt>
<rscale>  0 0.12499512E+03</rscale>
<asrwt>0</asrwt>
<pdfrwt beam="1">  1        4 0.62914969E-02 0.12499512E+03</pdfrwt>
<pdfrwt beam="2">  1       -4 0.14694181E-01 0.12499512E+03</pdfrwt>
<totfact> 0.10209626E+04</totfact>
</mgrwt>
</event>
<event>
 5    1  0.3312706E-002  0.1249985E+03  0.7818608E-02  0.1235072E+00
         -4   -1    0    0    0  501 -0.00000000000E+00  0.00000000000E+00  0.41517080195E+02  0.41536500188E+02  0.12700000000E+01 0.  1.
          4   -1    0    0  501    0  0.00000000000E+00 -0.00000000000E+00 -0.94039853624E+02  0.94048428853E+02  0.12700000000E+01 0.  1.
         25    2    1    2    0    0  0.00000000000E+00  0.00000000000E+00 -0.52522773429E+02  0.13558492904E+03  0.12499852501E+03 0.  0.
    9000005    1    3    3    0    0  0.78132009848E+01  0.48757786852E+02  0.15280908626E+02  0.51699845810E+02  0.10000000000E+01 0.  0.
    9000005    1    3    3    0    0 -0.78132009848E+01 -0.48757786852E+02 -0.67803682056E+02  0.83885083231E+02  0.10000000000E+01 0.  0.
<mgrwt>
<rscale>  0 0.12499853E+03</rscale>
<asrwt>0</asrwt>
<pdfrwt beam="2">  1        4 0.14469823E-01 0.12499853E+03</pdfrwt>
<pdfrwt beam="1">  1       -4 0.63893966E-02 0.12499853E+03</pdfrwt>
<totfact> 0.10226097E+04</totfact>
</mgrwt>
</event>
<event>
 5    1  0.3312706E-002  0.1250015E+03  0.7818608E-02  0.1235067E+00
         -4   -1    0    0    0  501 -0.00000000000E+00  0.00000000000E+00  0.30735939497E+03  0.30736201876E+03  0.12700000000E+01 0.  1.
          4   -1    0    0  501    0  0.00000000000E+00 -0.00000000000E+00 -0.12674946866E+02  0.12738413483E+02  0.12700000000E+01 0.  1.
         25    2    1    2    0    0  0.00000000000E+00  0.00000000000E+00  0.29468444810E+03  0.32010043224E+03  0.12500145106E+03 0.  0.
    9000005    1    3    3    0    0 -0.15258743074E+02  0.12387817873E+02  0.29925144479E+03  0.29989784007E+03  0.10000000000E+01 0.  0.
    9000005    1    3    3    0    0  0.15258743074E+02 -0.12387817873E+02 -0.45669966817E+01  0.20202592174E+02  0.10000000000E+01 0.  0.
<mgrwt>
<rscale>  0 0.12500145E+03</rscale>
<asrwt>0</asrwt>
<pdfrwt beam="2">  1        4 0.19550758E-02 0.12500145E+03</pdfrwt>
<pdfrwt beam="1">  1       -4 0.47291143E-01 0.12500145E+03</pdfrwt>
<totfact> 0.73141828E+03</totfact>
</mgrwt>
</event>
<event>
 5    1  0.3312706E-002  0.1249962E+03  0.7818608E-02  0.1235075E+00
         -4   -1    0    0    0  501 -0.00000000000E+00  0.00000000000E+00  0.92772006794E+02  0.92780699203E+02  0.12700000000E+01 0.  1.
          4   -1    0    0  501    0  0.00000000000E+00 -0.00000000000E+00 -0.42083083371E+02  0.42102242292E+02  0.12700000000E+01 0.  1.
         25    2    1    2    0    0  0.00000000000E+00  0.00000000000E+00  0.50688923423E+02  0.13488294150E+03  0.12499616374E+03 0.  0.
    9000005    1    3    3    0    0 -0.57942176458E+02 -0.18563573026E+02  0.40723318490E+02  0.73220835321E+02  0.10000000000E+01 0.  0.
    9000005    1    3    3    0    0  0.57942176458E+02  0.18563573026E+02  0.99656049333E+01  0.61662106175E+02  0.10000000000E+01 0.  0.
<mgrwt>
<rscale>  0 0.12499616E+03</rscale>
<asrwt>0</asrwt>
<pdfrwt beam="2">  1        4 0.64764630E-02 0.12499616E+03</pdfrwt>
<pdfrwt beam="1">  1       -4 0.14274759E-01 0.12499616E+03</pdfrwt>
<totfact> 0.10241425E+04</totfact>
</mgrwt>
</event>
<event>
 5    1  0.3312706E-002  0.1249995E+03  0.7818608E-02  0.1235070E+00
          4   -1    0    0  501    0  0.00000000000E+00  0.00000000000E+00  0.30384134165E+03  0.30384399582E+03  0.12700000000E+01 0.  1.
         -4   -1    0    0    0  501 -0.00000000000E+00 -0.00000000000E+00 -0.12822032289E+02  0.12884774426E+02  0.12700000000E+01 0.  1.
         25    2    1    2    0    0  0.00000000000E+00  0.00000000000E+00  0.29101930937E+03  0.31672877025E+03  0.12499950192E+03 0.  0.
    9000005    1    3    3    0    0 -0.20326031850E+02  0.54641075088E+02  0.20253086914E+03  0.21075708200E+03  0.10000000000E+01 0.  0.
    9000005    1    3    3    0    0  0.20326031850E+02 -0.54641075088E+02  0.88488440229E+02  0.10597168826E+03  0.10000000000E+01 0.  0.
<mgrwt>
<rscale>  0 0.12499950E+03</rscale>
<asrwt>0</asrwt>
<pdfrwt beam="1">  1        4 0.46749854E-01 0.12499950E+03</pdfrwt>
<pdfrwt beam="2">  1       -4 0.19776508E-02 0.12499950E+03</pdfrwt>
<totfact> 0.73547700E+03</totfact>
</mgrwt>
</event>
<event>
 5    1  0.3312706E-002  0.1250065E+03  0.7818608E-02  0.1235059E+00
         -4   -1    0    0    0  501 -0.00000000000E+00  0.00000000000E+00  0.22995618974E+01  0.26269535436E+01  0.12700000000E+01 0. -1.
          4   -1    0    0  501    0  0.00000000000E+00 -0.00000000000E+00 -0.15856426875E+04  0.15856431961E+04  0.12700000000E+01 0. -1.
         25    2    1    2    0    0  0.00000000000E+00  0.00000000000E+00 -0.15833431256E+04  0.15882701496E+04  0.12500645919E+03 0.  0.
    9000005    1    3    3    0    0 -0.57517035068E+01 -0.59726301593E+02 -0.10136874925E+04  0.10154622818E+04  0.10000000000E+01 0.  0.
    9000005    1    3    3    0    0  0.57517035068E+01  0.59726301593E+02 -0.56965563304E+03  0.57280786783E+03  0.10000000000E+01 0.  0.
<mgrwt>
<rscale>  0 0.12500646E+03</rscale>
<asrwt>0</asrwt>
<pdfrwt beam="2">  1        4 0.24396944E+00 0.12500646E+03</pdfrwt>
<pdfrwt beam="1">  1       -4 0.37900312E-03 0.12500646E+03</pdfrwt>
<totfact> 0.16256793E+03</totfact>
</mgrwt>
</event>
<event>
 5    1  0.3312706E-002  0.1249911E+03  0.7818608E-02  0.1235083E+00
          4   -1    0    0  501    0  0.00000000000E+00  0.00000000000E+00  0.33516764131E+02  0.33540816595E+02  0.12700000000E+01 0.  1.
         -4   -1    0    0    0  501 -0.00000000000E+00 -0.00000000000E+00 -0.11646023494E+03  0.11646715942E+03  0.12700000000E+01 0.  1.
         25    2    1    2    0    0  0.00000000000E+00  0.00000000000E+00 -0.82943470808E+02  0.15000797601E+03  0.12499109375E+03 0.  0.
    9000005    1    3    3    0    0 -0.24714549336E+02 -0.41390649156E+02  0.62438016434E+01  0.48620775862E+02  0.10000000000E+01 0.  0.
    9000005    1    3    3    0    0  0.24714549336E+02  0.41390649156E+02 -0.89187272452E+02  0.10138720015E+03  0.10000000000E+01 0.  0.
<mgrwt>
<rscale>  0 0.12499109E+03</rscale>
<asrwt>0</asrwt>
<pdfrwt beam="1">  1        4 0.51588082E-02 0.12499109E+03</pdfrwt>
<pdfrwt beam="2">  1       -4 0.17919342E-01 0.12499109E+03</pdfrwt>
<totfact> 0.99322015E+03</totfact>
</mgrwt>
</event>
<event>
 5    1  0.3312706E-002  0.1249977E+03  0.7818608E-02  0.1235073E+00
          4   -1    0    0  501    0  0.00000000000E+00  0.00000000000E+00  0.70528621791E+02  0.70540055229E+02  0.12700000000E+01 0. -1.
         -4   -1    0    0    0  501 -0.00000000000E+00 -0.00000000000E+00 -0.55360076115E+02  0.55374641556E+02  0.12700000000E+01 0. -1.
         25    2    1    2    0    0  0.00000000000E+00  0.00000000000E+00  0.15168545675E+02  0.12591469679E+03  0.12499770433E+03 0.  0.
    9000005    1    3    3    0    0  0.42047487252E+02  0.45106422285E+02 -0.26155213362E+01  0.61728611416E+02  0.10000000000E+01 0.  0.
    9000005    1    3    3    0    0 -0.42047487252E+02 -0.45106422285E+02  0.17784067012E+02  0.64186085369E+02  0.10000000000E+01 0.  0.
<mgrwt>
<rscale>  0 0.12499770E+03</rscale>
<asrwt>0</asrwt>
<pdfrwt beam="1">  1        4 0.10852557E-01 0.12499770E+03</pdfrwt>
<pdfrwt beam="2">  1       -4 0.85189347E-02 0.12499770E+03</pdfrwt>
<totfact> 0.10433368E+04</totfact>
</mgrwt>
</event>
<event>
 5    1  0.3312706E-002  0.1249981E+03  0.7818608E-02  0.1235072E+00
          4   -1    0    0  501    0  0.00000000000E+00  0.00000000000E+00  0.12094075472E+02  0.12160574062E+02  0.12700000000E+01 0. -1.
         -4   -1    0    0    0  501 -0.00000000000E+00 -0.00000000000E+00 -0.32202548354E+03  0.32202798784E+03  0.12700000000E+01 0. -1.
         25    2    1    2    0    0  0.00000000000E+00  0.00000000000E+00 -0.30993140807E+03  0.33418856190E+03  0.12499806877E+03 0.  0.
    9000005    1    3    3    0    0 -0.14871919466E+01 -0.42179257199E+02 -0.31755144153E+02  0.52826987969E+02  0.10000000000E+01 0.  0.
    9000005    1    3    3    0    0  0.14871919466E+01  0.42179257199E+02 -0.27817626392E+03  0.28136157393E+03  0.10000000000E+01 0.  0.
<mgrwt>
<rscale>  0 0.12499807E+03</rscale>
<asrwt>0</asrwt>
<pdfrwt beam="1">  1        4 0.18659351E-02 0.12499807E+03</pdfrwt>
<pdfrwt beam="2">  1       -4 0.49547684E-01 0.12499807E+03</pdfrwt>
<totfact> 0.71502827E+03</totfact>
</mgrwt>
</event>
<event>
 5    1  0.3312706E-002  0.1249971E+03  0.7818608E-02  0.1235074E+00
          4   -1    0    0  501    0  0.00000000000E+00  0.00000000000E+00  0.80866937720E+03  0.80867037445E+03  0.12700000000E+01 0.  1.
         -4   -1    0    0    0  501 -0.00000000000E+00 -0.00000000000E+00 -0.47457482963E+01  0.49127412808E+01  0.12700000000E+01 0.  1.
         25    2    1    2    0    0  0.00000000000E+00  0.00000000000E+00  0.80392362890E+03  0.81358311574E+03  0.12499714037E+03 0.  0.
    9000005    1    3    3    0    0 -0.41953944455E+02  0.20692486663E+02  0.67164662890E+03  0.67327446601E+03  0.10000000000E+01 0.  0.
    9000005    1    3    3    0    0  0.41953944455E+02 -0.20692486663E+02  0.13227700000E+03  0.14030864973E+03  0.10000000000E+01 0.  0.
<mgrwt>
<rscale>  0 0.12499714E+03</rscale>
<asrwt>0</asrwt>
<pdfrwt beam="1">  1        4 0.12442345E+00 0.12499714E+03</pdfrwt>
<pdfrwt beam="2">  1       -4 0.74303829E-03 0.12499714E+03</pdfrwt>
<totfact> 0.37667880E+03</totfact>
</mgrwt>
</event>
<event>
 5    1  0.3312706E-002  0.1249973E+03  0.7818608E-02  0.1235073E+00
          4   -1    0    0  501    0  0.00000000000E+00  0.00000000000E+00  0.61515806541E+02  0.61528914783E+02  0.12700000000E+01 0. -1.
         -4   -1    0    0    0  501 -0.00000000000E+00 -0.00000000000E+00 -0.63471021276E+02  0.63483725803E+02  0.12700000000E+01 0. -1.
         25    2    1    2    0    0  0.00000000000E+00  0.00000000000E+00 -0.19552147354E+01  0.12501264059E+03  0.12499734974E+03 0.  0.
    9000005    1    3    3    0    0 -0.57938582601E+02 -0.21068706020E+02 -0.11192310313E+02  0.62666079639E+02  0.10000000000E+01 0.  0.
    9000005    1    3    3    0    0  0.57938582601E+02  0.21068706020E+02  0.92370955777E+01  0.62346560947E+02  0.10000000000E+01 0.  0.
<mgrwt>
<rscale>  0 0.12499735E+03</rscale>
<asrwt>0</asrwt>
<pdfrwt beam="1">  1        4 0.94659558E-02 0.12499735E+03</pdfrwt>
<pdfrwt beam="2">  1       -4 0.97667581E-02 0.12499735E+03</pdfrwt>
<totfact> 0.10453214E+04</totfact>
</mgrwt>
</event>
<event>
 5    1  0.3312706E-002  0.1250031E+03  0.7818608E-02  0.1235064E+00
         -4   -1    0    0    0  501 -0.00000000000E+00  0.00000000000E+00  0.60770115228E+03  0.60770247933E+03  0.12700000000E+01 0. -1.
          4   -1    0    0  501    0  0.00000000000E+00 -0.00000000000E+00 -0.63641546709E+01  0.64896351727E+01  0.12700000000E+01 0. -1.
         25    2    1    2    0    0  0.00000000000E+00  0.00000000000E+00  0.60133699761E+03  0.61419211450E+03  0.12500307525E+03 0.  0.
    9000005    1    3    3    0    0  0.59117556707E+02  0.17302001040E+02  0.35248057099E+03  0.35782369636E+03  0.10000000000E+01 0.  0.
    9000005    1    3    3    0    0 -0.59117556707E+02 -0.17302001040E+02  0.24885642661E+03  0.25636841814E+03  0.10000000000E+01 0.  0.
<mgrwt>
<rscale>  0 0.12500308E+03</rscale>
<asrwt>0</asrwt>
<pdfrwt beam="2">  1        4 0.98885511E-03 0.12500308E+03</pdfrwt>
<pdfrwt beam="1">  1       -4 0.93502242E-01 0.12500308E+03</pdfrwt>
<totfact> 0.47980609E+03</totfact>
</mgrwt>
</event>
<event>
 5    1  0.3312706E-002  0.1249976E+03  0.7818608E-02  0.1235073E+00
         -4   -1    0    0    0  501 -0.00000000000E+00  0.00000000000E+00  0.14199565273E+03  0.14200133202E+03  0.12700000000E+01 0.  1.
          4   -1    0    0  501    0  0.00000000000E+00 -0.00000000000E+00 -0.27487675778E+02  0.27516998740E+02  0.12700000000E+01 0.  1.
         25    2    1    2    0    0  0.00000000000E+00  0.00000000000E+00  0.11450797695E+03  0.16951833076E+03  0.12499755068E+03 0.  0.
    9000005    1    3    3    0    0  0.31981637645E+02  0.46696796937E+02  0.21329962607E+02  0.60492836728E+02  0.10000000000E+01 0.  0.
    9000005    1    3    3    0    0 -0.31981637645E+02 -0.46696796937E+02  0.93178014346E+02  0.10902549403E+03  0.10000000000E+01 0.  0.
<mgrwt>
<rscale>  0 0.12499755E+03</rscale>
<asrwt>0</asrwt>
<pdfrwt beam="2">  1        4 0.42315657E-02 0.12499755E+03</pdfrwt>
<pdfrwt beam="1">  1       -4 0.21848178E-01 0.12499755E+03</pdfrwt>
<totfact> 0.95543723E+03</totfact>
</mgrwt>
</event>
<event>
 5    1  0.3312706E-002  0.1250028E+03  0.7818608E-02  0.1235065E+00
         -4   -1    0    0    0  501 -0.00000000000E+00  0.00000000000E+00  0.17711493785E+02  0.17756967987E+02  0.12700000000E+01 0.  1.
          4   -1    0    0  501    0  0.00000000000E+00 -0.00000000000E+00 -0.22022856388E+03  0.22023222572E+03  0.12700000000E+01 0.  1.
         25    2    1    2    0    0  0.00000000000E+00  0.00000000000E+00 -0.20251707009E+03  0.23798919371E+03  0.12500277055E+03 0.  0.
    9000005    1    3    3    0    0 -0.40750440552E+02  0.41128009873E+02 -0.56474577370E+02  0.80885656890E+02  0.10000000000E+01 0.  0.
    9000005    1    3    3    0    0  0.40750440552E+02 -0.41128009873E+02 -0.14604249272E+03  0.15710353682E+03  0.10000000000E+01 0.  0.
<mgrwt>
<rscale>  0 0.12500277E+03</rscale>
<asrwt>0</asrwt>
<pdfrwt beam="2">  1        4 0.33885095E-01 0.12500277E+03</pdfrwt>
<pdfrwt beam="1">  1       -4 0.27286251E-02 0.12500277E+03</pdfrwt>
<totfact> 0.84092561E+03</totfact>
</mgrwt>
</event>
<event>
 5    1  0.3312706E-002  0.1249988E+03  0.7818608E-02  0.1235071E+00
         -4   -1    0    0    0  501 -0.00000000000E+00  0.00000000000E+00  0.46882978010E+02  0.46900176195E+02  0.12700000000E+01 0. -1.
          4   -1    0    0  501    0  0.00000000000E+00 -0.00000000000E+00 -0.83280168059E+02  0.83289851074E+02  0.12700000000E+01 0. -1.
         25    2    1    2    0    0  0.00000000000E+00  0.00000000000E+00 -0.36397190049E+02  0.13019002727E+03  0.12499875102E+03 0.  0.
    9000005    1    3    3    0    0 -0.44155439280E+01  0.58835738234E+02 -0.39645802592E+02  0.71091003544E+02  0.10000000000E+01 0.  0.
    9000005    1    3    3    0    0  0.44155439280E+01 -0.58835738234E+02  0.32486125427E+01  0.59099023725E+02  0.10000000000E+01 0.  0.
<mgrwt>
<rscale>  0 0.12499875E+03</rscale>
<asrwt>0</asrwt>
<pdfrwt beam="2">  1        4 0.12814401E-01 0.12499875E+03</pdfrwt>
<pdfrwt beam="1">  1       -4 0.72148337E-02 0.12499875E+03</pdfrwt>
<totfact> 0.10340736E+04</totfact>
</mgrwt>
</event>
<event>
 5    1  0.3312706E-002  0.1249963E+03  0.7818608E-02  0.1235075E+00
         -4   -1    0    0    0  501 -0.00000000000E+00  0.00000000000E+00  0.66670435355E+02  0.66682530324E+02  0.12700000000E+01 0. -1.
          4   -1    0    0  501    0  0.00000000000E+00 -0.00000000000E+00 -0.58562629526E+02  0.58576398634E+02  0.12700000000E+01 0. -1.
         25    2    1    2    0    0  0.00000000000E+00  0.00000000000E+00  0.81078058293E+01  0.12525892896E+03  0.12499625102E+03 0.  0.
    9000005    1    3    3    0    0 -0.42040722191E+02  0.45959930963E+02  0.90922032781E+01  0.62955585430E+02  0.10000000000E+01 0.  0.
    9000005    1    3    3    0    0  0.42040722191E+02 -0.45959930963E+02 -0.98439744879E+00  0.62303343528E+02  0.10000000000E+01 0.  0.
<mgrwt>
<rscale>  0 0.12499625E+03</rscale>
<asrwt>0</asrwt>
<pdfrwt beam="2">  1        4 0.90116249E-02 0.12499625E+03</pdfrwt>
<pdfrwt beam="1">  1       -4 0.10258980E-01 0.12499625E+03</pdfrwt>
<totfact> 0.10448126E+04</totfact>
</mgrwt>
</event>
<event>
 5    1  0.3312706E-002  0.1249991E+03  0.7818608E-02  0.1235071E+00
         -4   -1    0    0    0  501 -0.00000000000E+00  0.00000000000E+00  0.14347455087E+03  0.14348017162E+03  0.12700000000E+01 0. -1.
          4   -1    0    0  501    0  0.00000000000E+00 -0.00000000000E+00 -0.27204712625E+02  0.27234340253E+02  0.12700000000E+01 0. -1.
         25    2    1    2    0    0  0.00000000000E+00  0.00000000000E+00  0.11626983825E+03  0.17071451187E+03  0.12499907711E+03 0.  0.
    9000005    1    3    3    0    0 -0.15344637855E+02  0.51961219256E+02  0.15604747647E+02  0.56390906772E+02  0.10000000000E+01 0.  0.
    9000005    1    3    3    0    0  0.15344637855E+02 -0.51961219256E+02  0.10066509060E+03  0.11432360510E+03  0.10000000000E+01 0.  0.
<mgrwt>
<rscale>  0 0.12499908E+03</rscale>
<asrwt>0</asrwt>
<pdfrwt beam="2">  1        4 0.41880519E-02 0.12499908E+03</pdfrwt>
<pdfrwt beam="1">  1       -4 0.22075719E-01 0.12499908E+03</pdfrwt>
<totfact> 0.95317603E+03</totfact>
</mgrwt>
</event>
<event>
 5    1  0.3312706E-002  0.1249980E+03  0.7818608E-02  0.1235072E+00
          4   -1    0    0  501    0  0.00000000000E+00  0.00000000000E+00  0.95729949849E+02  0.95738373697E+02  0.12700000000E+01 0.  1.
         -4   -1    0    0    0  501 -0.00000000000E+00 -0.00000000000E+00 -0.40783506812E+02  0.40803275946E+02  0.12700000000E+01 0.  1.
         25    2    1    2    0    0  0.00000000000E+00  0.00000000000E+00  0.54946443037E+02  0.13654164964E+03  0.12499804192E+03 0.  0.
    9000005    1    3    3    0    0  0.23101904049E+02 -0.19338519469E+02 -0.32331848698E+02  0.44204352118E+02  0.10000000000E+01 0.  0.
    9000005    1    3    3    0    0 -0.23101904049E+02  0.19338519469E+02  0.87278291735E+02  0.92337297524E+02  0.10000000000E+01 0.  0.
<mgrwt>
<rscale>  0 0.12499804E+03</rscale>
<asrwt>0</asrwt>
<pdfrwt beam="1">  1        4 0.14729853E-01 0.12499804E+03</pdfrwt>
<pdfrwt beam="2">  1       -4 0.62765543E-02 0.12499804E+03</pdfrwt>
<totfact> 0.10206129E+04</totfact>
</mgrwt>
</event>
<event>
 5    1  0.3312706E-002  0.1250005E+03  0.7818608E-02  0.1235069E+00
         -4   -1    0    0    0  501 -0.00000000000E+00  0.00000000000E+00  0.15649140699E+01  0.20154046854E+01  0.12700000000E+01 0. -1.
          4   -1    0    0  501    0  0.00000000000E+00 -0.00000000000E+00 -0.21816335999E+04  0.21816339695E+04  0.12700000000E+01 0. -1.
         25    2    1    2    0    0  0.00000000000E+00  0.00000000000E+00 -0.21800686858E+04  0.21836493742E+04  0.12500045872E+03 0.  0.
    9000005    1    3    3    0    0  0.61559779102E+01 -0.31937148790E+02 -0.20222054238E+04  0.20224672194E+04  0.10000000000E+01 0.  0.
    9000005    1    3    3    0    0 -0.61559779102E+01  0.31937148790E+02 -0.15786326199E+03  0.16118215479E+03  0.10000000000E+01 0.  0.
<mgrwt>
<rscale>  0 0.12500046E+03</rscale>
<asrwt>0</asrwt>
<pdfrwt beam="2">  1        4 0.33566849E+00 0.12500046E+03</pdfrwt>
<pdfrwt beam="1">  1       -4 0.27543932E-03 0.12500046E+03</pdfrwt>
<totfact> 0.76507111E+02</totfact>
</mgrwt>
</event>
<event>
 5    1  0.3312706E-002  0.1249996E+03  0.7818608E-02  0.1235070E+00
         -4   -1    0    0    0  501 -0.00000000000E+00  0.00000000000E+00  0.15486254761E+02  0.15538242710E+02  0.12700000000E+01 0.  1.
          4   -1    0    0  501    0  0.00000000000E+00 -0.00000000000E+00 -0.25176203034E+03  0.25176523355E+03  0.12700000000E+01 0.  1.
         25    2    1    2    0    0  0.00000000000E+00  0.00000000000E+00 -0.23627577558E+03  0.26730347626E+03  0.12499962517E+03 0.  0.
    9000005    1    3    3    0    0  0.45386821057E+02 -0.23743179119E+02 -0.41585392493E+02  0.65985202501E+02  0.10000000000E+01 0.  0.
    9000005    1    3    3    0    0 -0.45386821057E+02  0.23743179119E+02 -0.19469038309E+03  0.20131827376E+03  0.10000000000E+01 0.  0.
<mgrwt>
<rscale>  0 0.12499963E+03</rscale>
<asrwt>0</asrwt>
<pdfrwt beam="2">  1        4 0.38736862E-01 0.12499963E+03</pdfrwt>
<pdfrwt beam="1">  1       -4 0.23867464E-02 0.12499963E+03</pdfrwt>
<totfact> 0.79892590E+03</totfact>
</mgrwt>
</event>
<event>
 5    1  0.3312706E-002  0.1249995E+03  0.7818608E-02  0.1235070E+00
          4   -1    0    0  501    0  0.00000000000E+00  0.00000000000E+00  0.72837782557E+01  0.73936679449E+01  0.12700000000E+01 0. -1.
         -4   -1    0    0    0  501 -0.00000000000E+00 -0.00000000000E+00 -0.53216425624E+03  0.53216577165E+03  0.12700000000E+01 0. -1.
         25    2    1    2    0    0  0.00000000000E+00  0.00000000000E+00 -0.52488047798E+03  0.53955943960E+03  0.12499949076E+03 0.  0.
    9000005    1    3    3    0    0  0.32909400767E+02 -0.13264412007E+02 -0.40392647297E+02  0.53773034510E+02  0.10000000000E+01 0.  0.
    9000005    1    3    3    0    0 -0.32909400767E+02  0.13264412007E+02 -0.48448783069E+03  0.48578640509E+03  0.10000000000E+01 0.  0.
<mgrwt>
<rscale>  0 0.12499949E+03</rscale>
<asrwt>0</asrwt>
<pdfrwt beam="1">  1        4 0.11291513E-02 0.12499949E+03</pdfrwt>
<pdfrwt beam="2">  1       -4 0.81879964E-01 0.12499949E+03</pdfrwt>
<totfact> 0.52921180E+03</totfact>
</mgrwt>
</event>
<event>
 5    1  0.3312706E-002  0.1250036E+03  0.7818608E-02  0.1235064E+00
          4   -1    0    0  501    0  0.00000000000E+00  0.00000000000E+00  0.11649181264E+03  0.11649873524E+03  0.12700000000E+01 0. -1.
         -4   -1    0    0    0  501 -0.00000000000E+00 -0.00000000000E+00 -0.33514410817E+02  0.33538464968E+02  0.12700000000E+01 0. -1.
         25    2    1    2    0    0  0.00000000000E+00  0.00000000000E+00  0.82977401821E+02  0.15003720020E+03  0.12500364888E+03 0.  0.
    9000005    1    3    3    0    0 -0.33169791265E+02 -0.13399070160E+02 -0.20014747742E+02  0.41004393190E+02  0.10000000000E+01 0.  0.
    9000005    1    3    3    0    0  0.33169791265E+02  0.13399070160E+02  0.10299214956E+03  0.10903280701E+03  0.10000000000E+01 0.  0.
<mgrwt>
<rscale>  0 0.12500365E+03</rscale>
<asrwt>0</asrwt>
<pdfrwt beam="1">  1        4 0.17924200E-01 0.12500365E+03</pdfrwt>
<pdfrwt beam="2">  1       -4 0.51584460E-02 0.12500365E+03</pdfrwt>
<totfact> 0.99288129E+03</totfact>
</mgrwt>
</event>
<event>
 5    1  0.3312706E-002  0.1250047E+03  0.7818608E-02  0.1235062E+00
          4   -1    0    0  501    0  0.00000000000E+00  0.00000000000E+00  0.37696773381E+02  0.37718160392E+02  0.12700000000E+01 0.  1.
         -4   -1    0    0    0  501 -0.00000000000E+00 -0.00000000000E+00 -0.10357604546E+03  0.10358383123E+03  0.12700000000E+01 0.  1.
         25    2    1    2    0    0  0.00000000000E+00  0.00000000000E+00 -0.65879272078E+02  0.14130199162E+03  0.12500469730E+03 0.  0.
    9000005    1    3    3    0    0  0.21274531636E+02 -0.55496310279E+02 -0.11105647267E+02  0.60471328348E+02  0.10000000000E+01 0.  0.
    9000005    1    3    3    0    0 -0.21274531636E+02  0.55496310279E+02 -0.54773624811E+02  0.80830663277E+02  0.10000000000E+01 0.  0.
<mgrwt>
<rscale>  0 0.12500470E+03</rscale>
<asrwt>0</asrwt>
<pdfrwt beam="1">  1        4 0.58017477E-02 0.12500470E+03</pdfrwt>
<pdfrwt beam="2">  1       -4 0.15937020E-01 0.12500470E+03</pdfrwt>
<totfact> 0.10105603E+04</totfact>
</mgrwt>
</event>
<event>
 5    1  0.3312706E-002  0.1249933E+03  0.7818608E-02  0.1235080E+00
         -4   -1    0    0    0  501 -0.00000000000E+00  0.00000000000E+00  0.18903670092E+03  0.18904096697E+03  0.12700000000E+01 0. -1.
          4   -1    0    0  501    0  0.00000000000E+00 -0.00000000000E+00 -0.20637737267E+02  0.20676776816E+02  0.12700000000E+01 0. -1.
         25    2    1    2    0    0  0.00000000000E+00  0.00000000000E+00  0.16839896365E+03  0.20971774379E+03  0.12499328422E+03 0.  0.
    9000005    1    3    3    0    0 -0.49477280381E+02 -0.27095603212E+02  0.12930344364E+03  0.14107641023E+03  0.10000000000E+01 0.  0.
    9000005    1    3    3    0    0  0.49477280381E+02  0.27095603212E+02  0.39095520011E+02  0.68641333556E+02  0.10000000000E+01 0.  0.
<mgrwt>
<rscale>  0 0.12499328E+03</rscale>
<asrwt>0</asrwt>
<pdfrwt beam="2">  1        4 0.31783679E-02 0.12499328E+03</pdfrwt>
<pdfrwt beam="1">  1       -4 0.29085899E-01 0.12499328E+03</pdfrwt>
<totfact> 0.88535292E+03</totfact>
</mgrwt>
</event>
<event>
 5    1  0.3312706E-002  0.1250021E+03  0.7818608E-02  0.1235066E+00
          4   -1    0    0  501    0  0.00000000000E+00  0.00000000000E+00  0.11633789712E+02  0.11702904044E+02  0.12700000000E+01 0. -1.
         -4   -1    0    0    0  501 -0.00000000000E+00 -0.00000000000E+00 -0.33471392886E+03  0.33471633822E+03  0.12700000000E+01 0. -1.
         25    2    1    2    0    0  0.00000000000E+00  0.00000000000E+00 -0.32308013915E+03  0.34641924227E+03  0.12500206038E+03 0.  0.
    9000005    1    3    3    0    0  0.40109233762E+02 -0.38190688867E+02 -0.81310842631E+02  0.98385631464E+02  0.10000000000E+01 0.  0.
    9000005    1    3    3    0    0 -0.40109233762E+02  0.38190688867E+02 -0.24176929652E+03  0.24803361080E+03  0.10000000000E+01 0.  0.
<mgrwt>
<rscale>  0 0.12500206E+03</rscale>
<asrwt>0</asrwt>
<pdfrwt beam="1">  1        4 0.17953159E-02 0.12500206E+03</pdfrwt>
<pdfrwt beam="2">  1       -4 0.51499945E-01 0.12500206E+03</pdfrwt>
<totfact> 0.70117093E+03</totfact>
</mgrwt>
</event>
<event>
 5    1  0.3312706E-002  0.1249923E+03  0.7818608E-02  0.1235081E+00
         -4   -1    0    0    0  501 -0.00000000000E+00  0.00000000000E+00  0.32253838126E+02  0.32278831669E+02  0.12700000000E+01 0. -1.
          4   -1    0    0  501    0  0.00000000000E+00 -0.00000000000E+00 -0.12101950216E+03  0.12102616577E+03  0.12700000000E+01 0. -1.
         25    2    1    2    0    0  0.00000000000E+00  0.00000000000E+00 -0.88765664030E+02  0.15330499744E+03  0.12499231629E+03 0.  0.
    9000005    1    3    3    0    0 -0.54088666112E+02  0.31135250542E+02 -0.40546729050E+02  0.74431343295E+02  0.10000000000E+01 0.  0.
    9000005    1    3    3    0    0  0.54088666112E+02 -0.31135250542E+02 -0.48218934980E+02  0.78873654148E+02  0.10000000000E+01 0.  0.
<mgrwt>
<rscale>  0 0.12499232E+03</rscale>
<asrwt>0</asrwt>
<pdfrwt beam="2">  1        4 0.18620820E-01 0.12499232E+03</pdfrwt>
<pdfrwt beam="1">  1       -4 0.49645642E-02 0.12499232E+03</pdfrwt>
<totfact> 0.98665984E+03</totfact>
</mgrwt>
</event>
<event>
 5    1  0.3312706E-002  0.1250024E+03  0.7818608E-02  0.1235065E+00
         -4   -1    0    0    0  501 -0.00000000000E+00  0.00000000000E+00  0.15225995075E+03  0.15226524719E+03  0.12700000000E+01 0. -1.
          4   -1    0    0  501    0  0.00000000000E+00 -0.00000000000E+00 -0.25634671434E+02  0.25666111500E+02  0.12700000000E+01 0. -1.
         25    2    1    2    0    0  0.00000000000E+00  0.00000000000E+00  0.12662527932E+03  0.17793135869E+03  0.12500242815E+03 0.  0.
    9000005    1    3    3    0    0  0.58788306116E+02 -0.53661458802E+01  0.92502927266E+02  0.10973901772E+03  0.10000000000E+01 0.  0.
    9000005    1    3    3    0    0 -0.58788306116E+02  0.53661458802E+01  0.34122352050E+02  0.68192340970E+02  0.10000000000E+01 0.  0.
<mgrwt>
<rscale>  0 0.12500243E+03</rscale>
<asrwt>0</asrwt>
<pdfrwt beam="2">  1        4 0.39466215E-02 0.12500243E+03</pdfrwt>
<pdfrwt beam="1">  1       -4 0.23427434E-01 0.12500243E+03</pdfrwt>
<totfact> 0.93985578E+03</totfact>
</mgrwt>
</event>
<event>
 5    1  0.3312706E-002  0.1250002E+03  0.7818608E-02  0.1235069E+00
         -4   -1    0    0    0  501 -0.00000000000E+00  0.00000000000E+00  0.34447625494E+02  0.34471028447E+02  0.12700000000E+01 0. -1.
          4   -1    0    0  501    0  0.00000000000E+00 -0.00000000000E+00 -0.11333165653E+03  0.11333877215E+03  0.12700000000E+01 0. -1.
         25    2    1    2    0    0  0.00000000000E+00  0.00000000000E+00 -0.78884031035E+02  0.14780980059E+03  0.12500018720E+03 0.  0.
    9000005    1    3    3    0    0 -0.38782768522E+02 -0.15375116456E+02  0.15575108256E+02  0.44543027933E+02  0.10000000000E+01 0.  0.
    9000005    1    3    3    0    0  0.38782768522E+02  0.15375116456E+02 -0.94459139291E+02  0.10326677266E+03  0.10000000000E+01 0.  0.
<mgrwt>
<rscale>  0 0.12500019E+03</rscale>
<asrwt>0</asrwt>
<pdfrwt beam="2">  1        4 0.17437987E-01 0.12500019E+03</pdfrwt>
<pdfrwt beam="1">  1       -4 0.53019823E-02 0.12500019E+03</pdfrwt>
<totfact> 0.99741666E+03</totfact>
</mgrwt>
</event>
<event>
 5    1  0.3312706E-002  0.1250041E+03  0.7818608E-02  0.1235063E+00
         -4   -1    0    0    0  501 -0.00000000000E+00  0.00000000000E+00  0.16086952823E+02  0.16137005643E+02  0.12700000000E+01 0. -1.
          4   -1    0    0  501    0  0.00000000000E+00 -0.00000000000E+00 -0.24240812099E+03  0.24241144779E+03  0.12700000000E+01 0. -1.
         25    2    1    2    0    0  0.00000000000E+00  0.00000000000E+00 -0.22632116817E+03  0.25854845344E+03  0.12500412639E+03 0.  0.
    9000005    1    3    3    0    0  0.38481219707E+01 -0.49344860480E+02 -0.19207678252E+03  0.19835375893E+03  0.10000000000E+01 0.  0.
    9000005    1    3    3    0    0 -0.38481219707E+01  0.49344860480E+02 -0.34244385646E+02  0.60194694507E+02  0.10000000000E+01 0.  0.
<mgrwt>
<rscale>  0 0.12500413E+03</rscale>
<asrwt>0</asrwt>
<pdfrwt beam="2">  1        4 0.37297660E-01 0.12500413E+03</pdfrwt>
<pdfrwt beam="1">  1       -4 0.24790221E-02 0.12500413E+03</pdfrwt>
<totfact> 0.81102748E+03</totfact>
</mgrwt>
</event>
<event>
 5    1  0.3312706E-002  0.1249969E+03  0.7818608E-02  0.1235074E+00
         -4   -1    0    0    0  501 -0.00000000000E+00  0.00000000000E+00  0.60446947440E+02  0.60460287420E+02  0.12700000000E+01 0. -1.
          4   -1    0    0  501    0  0.00000000000E+00 -0.00000000000E+00 -0.64592861264E+02  0.64605345184E+02  0.12700000000E+01 0. -1.
         25    2    1    2    0    0  0.00000000000E+00  0.00000000000E+00 -0.41459138240E+01  0.12506563260E+03  0.12499689539E+03 0.  0.
    9000005    1    3    3    0    0  0.39501127874E+02 -0.31598984503E+02 -0.38784018609E+02  0.63749784505E+02  0.10000000000E+01 0.  0.
    9000005    1    3    3    0    0 -0.39501127874E+02  0.31598984503E+02  0.34638104785E+02  0.61315848099E+02  0.10000000000E+01 0.  0.
<mgrwt>
<rscale>  0 0.12499690E+03</rscale>
<asrwt>0</asrwt>
<pdfrwt beam="2">  1        4 0.99393497E-02 0.12499690E+03</pdfrwt>
<pdfrwt beam="1">  1       -4 0.93015169E-02 0.12499690E+03</pdfrwt>
<totfact> 0.10452171E+04</totfact>
</mgrwt>
</event>
<event>
 5    1  0.3312706E-002  0.1249992E+03  0.7818608E-02  0.1235071E+00
         -4   -1    0    0    0  501 -0.00000000000E+00  0.00000000000E+00  0.25719870091E+01  0.28684520521E+01  0.12700000000E+01 0.  1.
          4   -1    0    0  501    0  0.00000000000E+00 -0.00000000000E+00 -0.14356892704E+04  0.14356898321E+04  0.12700000000E+01 0.  1.
         25    2    1    2    0    0  0.00000000000E+00  0.00000000000E+00 -0.14331172834E+04  0.14385582841E+04  0.12499915598E+03 0.  0.
    9000005    1    3    3    0    0  0.17129018798E+02  0.57216382062E+02 -0.50495172623E+03  0.50847257889E+03  0.10000000000E+01 0.  0.
    9000005    1    3    3    0    0 -0.17129018798E+02 -0.57216382062E+02 -0.92816555712E+03  0.93008570524E+03  0.10000000000E+01 0.  0.
<mgrwt>
<rscale>  0 0.12499916E+03</rscale>
<asrwt>0</asrwt>
<pdfrwt beam="2">  1        4 0.22089751E+00 0.12499916E+03</pdfrwt>
<pdfrwt beam="1">  1       -4 0.41853967E-03 0.12499916E+03</pdfrwt>
<totfact> 0.19168746E+03</totfact>
</mgrwt>
</event>
<event>
 5    1  0.3312706E-002  0.1250000E+03  0.7818608E-02  0.1235069E+00
         -4   -1    0    0    0  501 -0.00000000000E+00  0.00000000000E+00  0.46420077696E+02  0.46437447316E+02  0.12700000000E+01 0.  1.
          4   -1    0    0  501    0  0.00000000000E+00 -0.00000000000E+00 -0.84112155010E+02  0.84121742257E+02  0.12700000000E+01 0.  1.
         25    2    1    2    0    0  0.00000000000E+00  0.00000000000E+00 -0.37692077314E+02  0.13055918957E+03  0.12500003716E+03 0.  0.
    9000005    1    3    3    0    0  0.58163175051E+01  0.22129579417E+02  0.41892610717E+02  0.47744514524E+02  0.10000000000E+01 0.  0.
    9000005    1    3    3    0    0 -0.58163175051E+01 -0.22129579417E+02 -0.79584688031E+02  0.82814675049E+02  0.10000000000E+01 0.  0.
<mgrwt>
<rscale>  0 0.12500004E+03</rscale>
<asrwt>0</asrwt>
<pdfrwt beam="2">  1        4 0.12942405E-01 0.12500004E+03</pdfrwt>
<pdfrwt beam="1">  1       -4 0.71436240E-02 0.12500004E+03</pdfrwt>
<totfact> 0.10332540E+04</totfact>
</mgrwt>
</event>
<event>
 5    1  0.3312706E-002  0.1249679E+03  0.7818608E-02  0.1235119E+00
          4   -1    0    0  501    0  0.00000000000E+00  0.00000000000E+00  0.65868172076E+02  0.65880414332E+02  0.12700000000E+01 0.  1.
         -4   -1    0    0    0  501 -0.00000000000E+00 -0.00000000000E+00 -0.59249057359E+02  0.59262666983E+02  0.12700000000E+01 0.  1.
         25    2    1    2    0    0  0.00000000000E+00  0.00000000000E+00  0.66191147169E+01  0.12514308132E+03  0.12496790837E+03 0.  0.
    9000005    1    3    3    0    0 -0.60571831624E+02  0.11562376743E+02  0.13354030583E+02  0.63102816697E+02  0.10000000000E+01 0.  0.
    9000005    1    3    3    0    0  0.60571831624E+02 -0.11562376743E+02 -0.67349158665E+01  0.62040264619E+02  0.10000000000E+01 0.  0.
<mgrwt>
<rscale>  0 0.12496791E+03</rscale>
<asrwt>0</asrwt>
<pdfrwt beam="1">  1        4 0.10135554E-01 0.12496791E+03</pdfrwt>
<pdfrwt beam="2">  1       -4 0.91172282E-02 0.12496791E+03</pdfrwt>
<totfact> 0.10457338E+04</totfact>
</mgrwt>
</event>
<event>
 5    1  0.3312706E-002  0.1249902E+03  0.7818608E-02  0.1235085E+00
          4   -1    0    0  501    0  0.00000000000E+00  0.00000000000E+00  0.16668084090E+02  0.16716396958E+02  0.12700000000E+01 0. -1.
         -4   -1    0    0    0  501 -0.00000000000E+00 -0.00000000000E+00 -0.23392922892E+03  0.23393267630E+03  0.12700000000E+01 0. -1.
         25    2    1    2    0    0  0.00000000000E+00  0.00000000000E+00 -0.21726114483E+03  0.25064907326E+03  0.12499021112E+03 0.  0.
    9000005    1    3    3    0    0 -0.36709138458E+02 -0.46640910187E+02 -0.14780952433E+03  0.15928462208E+03  0.10000000000E+01 0.  0.
    9000005    1    3    3    0    0  0.36709138458E+02  0.46640910187E+02 -0.69451620501E+02  0.91364451181E+02  0.10000000000E+01 0.  0.
<mgrwt>
<rscale>  0 0.12499021E+03</rscale>
<asrwt>0</asrwt>
<pdfrwt beam="1">  1        4 0.25683023E-02 0.12499021E+03</pdfrwt>
<pdfrwt beam="2">  1       -4 0.35993091E-01 0.12499021E+03</pdfrwt>
<totfact> 0.82254442E+03</totfact>
</mgrwt>
</event>
<event>
 5    1  0.3312706E-002  0.1249985E+03  0.7818608E-02  0.1235072E+00
          4   -1    0    0  501    0  0.00000000000E+00  0.00000000000E+00  0.63596256140E+02  0.63608935654E+02  0.12700000000E+01 0. -1.
         -4   -1    0    0    0  501 -0.00000000000E+00 -0.00000000000E+00 -0.61395807789E+02  0.61408941646E+02  0.12700000000E+01 0. -1.
         25    2    1    2    0    0  0.00000000000E+00  0.00000000000E+00  0.22004483514E+01  0.12501787730E+03  0.12499851068E+03 0.  0.
    9000005    1    3    3    0    0  0.31337323413E+01 -0.21420472329E+01  0.63485751274E+02  0.63606990650E+02  0.10000000000E+01 0.  0.
    9000005    1    3    3    0    0 -0.31337323413E+01  0.21420472329E+01 -0.61285302923E+02  0.61410886650E+02  0.10000000000E+01 0.  0.
<mgrwt>
<rscale>  0 0.12499851E+03</rscale>
<asrwt>0</asrwt>
<pdfrwt beam="1">  1        4 0.97860250E-02 0.12499851E+03</pdfrwt>
<pdfrwt beam="2">  1       -4 0.94474946E-02 0.12499851E+03</pdfrwt>
<totfact> 0.10452826E+04</totfact>
</mgrwt>
</event>
<event>
 5    1  0.3312706E-002  0.1250046E+03  0.7818608E-02  0.1235062E+00
          4   -1    0    0  501    0  0.00000000000E+00  0.00000000000E+00  0.91450547152E+01  0.92328178659E+01  0.12700000000E+01 0.  1.
         -4   -1    0    0    0  501 -0.00000000000E+00 -0.00000000000E+00 -0.42504599867E+03  0.42504789599E+03  0.12700000000E+01 0.  1.
         25    2    1    2    0    0  0.00000000000E+00  0.00000000000E+00 -0.41590094396E+03  0.43428071386E+03  0.12500457289E+03 0.  0.
    9000005    1    3    3    0    0 -0.48442526813E+02 -0.99782767000E+01 -0.75236803487E+02  0.90043439566E+02  0.10000000000E+01 0.  0.
    9000005    1    3    3    0    0  0.48442526813E+02  0.99782767000E+01 -0.34066414047E+03  0.34423727429E+03  0.10000000000E+01 0.  0.
<mgrwt>
<rscale>  0 0.12500457E+03</rscale>
<asrwt>0</asrwt>
<pdfrwt beam="1">  1        4 0.14138288E-02 0.12500457E+03</pdfrwt>
<pdfrwt beam="2">  1       -4 0.65398574E-01 0.12500457E+03</pdfrwt>
<totfact> 0.61343701E+03</totfact>
</mgrwt>
</event>
<event>
 5    1  0.3312706E-002  0.1249972E+03  0.7818608E-02  0.1235074E+00
         -4   -1    0    0    0  501 -0.00000000000E+00  0.00000000000E+00  0.57454055737E+02  0.57468090456E+02  0.12700000000E+01 0. -1.
          4   -1    0    0  501    0  0.00000000000E+00 -0.00000000000E+00 -0.67957813071E+02  0.67969678956E+02  0.12700000000E+01 0. -1.
         25    2    1    2    0    0  0.00000000000E+00  0.00000000000E+00 -0.10503757334E+02  0.12543776941E+03  0.12499722028E+03 0.  0.
    9000005    1    3    3    0    0 -0.53659530285E+02 -0.16082631742E+02  0.22541945594E+02  0.60391518820E+02  0.10000000000E+01 0.  0.
    9000005    1    3    3    0    0  0.53659530285E+02  0.16082631742E+02 -0.33045702928E+02  0.65046250593E+02  0.10000000000E+01 0.  0.
<mgrwt>
<rscale>  0 0.12499722E+03</rscale>
<asrwt>0</asrwt>
<pdfrwt beam="2">  1        4 0.10457040E-01 0.12499722E+03</pdfrwt>
<pdfrwt beam="1">  1       -4 0.88410779E-02 0.12499722E+03</pdfrwt>
<totfact> 0.10443985E+04</totfact>
</mgrwt>
</event>
<event>
 5    1  0.3312706E-002  0.1249995E+03  0.7818608E-02  0.1235070E+00
         -4   -1    0    0    0  501 -0.00000000000E+00  0.00000000000E+00  0.93960111308E+01  0.94814516384E+01  0.12700000000E+01 0.  1.
          4   -1    0    0  501    0  0.00000000000E+00 -0.00000000000E+00 -0.41376335283E+03  0.41376530188E+03  0.12700000000E+01 0.  1.
         25    2    1    2    0    0  0.00000000000E+00  0.00000000000E+00 -0.40436734170E+03  0.42324675352E+03  0.12499946934E+03 0.  0.
    9000005    1    3    3    0    0  0.48693033487E+02 -0.30719044158E+02 -0.11990027559E+03  0.13301032769E+03  0.10000000000E+01 0.  0.
    9000005    1    3    3    0    0 -0.48693033487E+02  0.30719044158E+02 -0.28446706610E+03  0.29023642583E+03  0.10000000000E+01 0.  0.
<mgrwt>
<rscale>  0 0.12499947E+03</rscale>
<asrwt>0</asrwt>
<pdfrwt beam="2">  1        4 0.63662609E-01 0.12499947E+03</pdfrwt>
<pdfrwt beam="1">  1       -4 0.14522628E-02 0.12499947E+03</pdfrwt>
<totfact> 0.62353675E+03</totfact>
</mgrwt>
</event>
<event>
 5    1  0.3312706E-002  0.1250016E+03  0.7818608E-02  0.1235067E+00
          4   -1    0    0  501    0  0.00000000000E+00  0.00000000000E+00  0.44723390042E+03  0.44723570361E+03  0.12700000000E+01 0. -1.
         -4   -1    0    0    0  501 -0.00000000000E+00 -0.00000000000E+00 -0.86864768287E+01  0.87788256445E+01  0.12700000000E+01 0. -1.
         25    2    1    2    0    0  0.00000000000E+00  0.00000000000E+00  0.43854742359E+03  0.45601452925E+03  0.12500163261E+03 0.  0.
    9000005    1    3    3    0    0 -0.59420067862E+02 -0.15791520522E+02  0.26009875388E+03  0.26726855100E+03  0.10000000000E+01 0.  0.
    9000005    1    3    3    0    0  0.59420067862E+02  0.15791520522E+02  0.17844866971E+03  0.18874597825E+03  0.10000000000E+01 0.  0.
<mgrwt>
<rscale>  0 0.12500163E+03</rscale>
<asrwt>0</asrwt>
<pdfrwt beam="1">  1        4 0.68812486E-01 0.12500163E+03</pdfrwt>
<pdfrwt beam="2">  1       -4 0.13436230E-02 0.12500163E+03</pdfrwt>
<totfact> 0.59444121E+03</totfact>
</mgrwt>
</event>
<event>
 5    1  0.3312706E-002  0.1250015E+03  0.7818608E-02  0.1235067E+00
         -4   -1    0    0    0  501 -0.00000000000E+00  0.00000000000E+00  0.43988277901E+03  0.43988461234E+03  0.12700000000E+01 0.  1.
          4   -1    0    0  501    0  0.00000000000E+00 -0.00000000000E+00 -0.88331500799E+01  0.89239811931E+01  0.12700000000E+01 0.  1.
         25    2    1    2    0    0  0.00000000000E+00  0.00000000000E+00  0.43104962893E+03  0.44880859353E+03  0.12500148409E+03 0.  0.
    9000005    1    3    3    0    0 -0.33128591821E+02  0.46113561946E+02  0.12180309921E+03  0.13439106804E+03  0.10000000000E+01 0.  0.
    9000005    1    3    3    0    0  0.33128591821E+02 -0.46113561946E+02  0.30924652972E+03  0.31441752549E+03  0.10000000000E+01 0.  0.
<mgrwt>
<rscale>  0 0.12500148E+03</rscale>
<asrwt>0</asrwt>
<pdfrwt beam="2">  1        4 0.13660742E-02 0.12500148E+03</pdfrwt>
<pdfrwt beam="1">  1       -4 0.67681401E-01 0.12500148E+03</pdfrwt>
<totfact> 0.60065180E+03</totfact>
</mgrwt>
</event>
<event>
 5    1  0.3312706E-002  0.1249990E+03  0.7818608E-02  0.1235071E+00
         -4   -1    0    0    0  501 -0.00000000000E+00  0.00000000000E+00  0.52678948120E+03  0.52679101208E+03  0.12700000000E+01 0. -1.
          4   -1    0    0  501    0  0.00000000000E+00 -0.00000000000E+00 -0.73591455125E+01  0.74679262633E+01  0.12700000000E+01 0. -1.
         25    2    1    2    0    0  0.00000000000E+00  0.00000000000E+00  0.51943033569E+03  0.53425893834E+03  0.12499895824E+03 0.  0.
    9000005    1    3    3    0    0 -0.90416971181E+01  0.61460131834E+02  0.28873027981E+03  0.29533925335E+03  0.10000000000E+01 0.  0.
    9000005    1    3    3    0    0  0.90416971181E+01 -0.61460131834E+02  0.23070005589E+03  0.23891968499E+03  0.10000000000E+01 0.  0.
<mgrwt>
<rscale>  0 0.12499896E+03</rscale>
<asrwt>0</asrwt>
<pdfrwt beam="2">  1        4 0.11406618E-02 0.12499896E+03</pdfrwt>
<pdfrwt beam="1">  1       -4 0.81053016E-01 0.12499896E+03</pdfrwt>
<totfact> 0.53302157E+03</totfact>
</mgrwt>
</event>
<event>
 5    1  0.3312706E-002  0.1249970E+03  0.7818608E-02  0.1235074E+00
          4   -1    0    0  501    0  0.00000000000E+00  0.00000000000E+00  0.14935653242E+02  0.14989550953E+02  0.12700000000E+01 0. -1.
         -4   -1    0    0    0  501 -0.00000000000E+00 -0.00000000000E+00 -0.26099972293E+03  0.26100281277E+03  0.12700000000E+01 0. -1.
         25    2    1    2    0    0  0.00000000000E+00  0.00000000000E+00 -0.24606406969E+03  0.27599236372E+03  0.12499703372E+03 0.  0.
    9000005    1    3    3    0    0  0.11831874869E+02  0.33372500533E+01 -0.25831424245E+03  0.25860854269E+03  0.10000000000E+01 0.  0.
    9000005    1    3    3    0    0 -0.11831874869E+02 -0.33372500533E+01  0.12250172759E+02  0.17383821026E+02  0.10000000000E+01 0.  0.
<mgrwt>
<rscale>  0 0.12499703E+03</rscale>
<asrwt>0</asrwt>
<pdfrwt beam="1">  1        4 0.23021766E-02 0.12499703E+03</pdfrwt>
<pdfrwt beam="2">  1       -4 0.40158184E-01 0.12499703E+03</pdfrwt>
<totfact> 0.78717700E+03</totfact>
</mgrwt>
</event>
<event>
 5    1  0.3312706E-002  0.1249982E+03  0.7818608E-02  0.1235072E+00
          4   -1    0    0  501    0  0.00000000000E+00  0.00000000000E+00  0.25871383438E+03  0.25871695151E+03  0.12700000000E+01 0.  1.
         -4   -1    0    0    0  501 -0.00000000000E+00 -0.00000000000E+00 -0.15068367353E+02  0.15121792047E+02  0.12700000000E+01 0.  1.
         25    2    1    2    0    0  0.00000000000E+00  0.00000000000E+00  0.24364546702E+03  0.27383874356E+03  0.12499817547E+03 0.  0.
    9000005    1    3    3    0    0  0.54202439307E+02 -0.30548003714E+02  0.13460642316E+03  0.14829354036E+03  0.10000000000E+01 0.  0.
    9000005    1    3    3    0    0 -0.54202439307E+02  0.30548003714E+02  0.10903904387E+03  0.12554520320E+03  0.10000000000E+01 0.  0.
<mgrwt>
<rscale>  0 0.12499818E+03</rscale>
<asrwt>0</asrwt>
<pdfrwt beam="1">  1        4 0.39806476E-01 0.12499818E+03</pdfrwt>
<pdfrwt beam="2">  1       -4 0.23225598E-02 0.12499818E+03</pdfrwt>
<totfact> 0.79005405E+03</totfact>
</mgrwt>
</event>
<event>
 5    1  0.3312706E-002  0.1250099E+03  0.7818608E-02  0.1235054E+00
         -4   -1    0    0    0  501 -0.00000000000E+00  0.00000000000E+00  0.52022303565E+03  0.52022458585E+03  0.12700000000E+01 0. -1.
          4   -1    0    0  501    0  0.00000000000E+00 -0.00000000000E+00 -0.74547199904E+01  0.75621260328E+01  0.12700000000E+01 0. -1.
         25    2    1    2    0    0  0.00000000000E+00  0.00000000000E+00  0.51276831566E+03  0.52778671189E+03  0.12500987039E+03 0.  0.
    9000005    1    3    3    0    0 -0.54483757246E+02 -0.29890228832E+02  0.22839114722E+03  0.23669689840E+03  0.10000000000E+01 0.  0.
    9000005    1    3    3    0    0  0.54483757246E+02  0.29890228832E+02  0.28437716844E+03  0.29108981348E+03  0.10000000000E+01 0.  0.
<mgrwt>
<rscale>  0 0.12500987E+03</rscale>
<asrwt>0</asrwt>
<pdfrwt beam="2">  1        4 0.11552608E-02 0.12500987E+03</pdfrwt>
<pdfrwt beam="1">  1       -4 0.80042724E-01 0.12500987E+03</pdfrwt>
<totfact> 0.53759448E+03</totfact>
</mgrwt>
</event>
<event>
 5    1  0.3312706E-002  0.1249974E+03  0.7818608E-02  0.1235073E+00
         -4   -1    0    0    0  501 -0.00000000000E+00  0.00000000000E+00  0.12946590698E+03  0.12947213588E+03  0.12700000000E+01 0. -1.
          4   -1    0    0  501    0  0.00000000000E+00 -0.00000000000E+00 -0.30150477287E+02  0.30177212937E+02  0.12700000000E+01 0. -1.
         25    2    1    2    0    0  0.00000000000E+00  0.00000000000E+00  0.99315429690E+02  0.15964934882E+03  0.12499743999E+03 0.  0.
    9000005    1    3    3    0    0 -0.24915233641E+02  0.32135514510E+01  0.12273879996E+03  0.12528730500E+03  0.10000000000E+01 0.  0.
    9000005    1    3    3    0    0  0.24915233641E+02 -0.32135514510E+01 -0.23423370267E+02  0.34362043813E+02  0.10000000000E+01 0.  0.
<mgrwt>
<rscale>  0 0.12499744E+03</rscale>
<asrwt>0</asrwt>
<pdfrwt beam="2">  1        4 0.46410707E-02 0.12499744E+03</pdfrwt>
<pdfrwt beam="1">  1       -4 0.19920368E-01 0.12499744E+03</pdfrwt>
<totfact> 0.97416036E+03</totfact>
</mgrwt>
</event>
<event>
 5    1  0.3312706E-002  0.1250007E+03  0.7818608E-02  0.1235068E+00
         -4   -1    0    0    0  501 -0.00000000000E+00  0.00000000000E+00  0.62075329594E+01  0.63361159587E+01  0.12700000000E+01 0. -1.
          4   -1    0    0  501    0  0.00000000000E+00 -0.00000000000E+00 -0.62270270284E+03  0.62270399792E+03  0.12700000000E+01 0. -1.
         25    2    1    2    0    0  0.00000000000E+00  0.00000000000E+00 -0.61649516988E+03  0.62904011387E+03  0.12500068152E+03 0.  0.
    9000005    1    3    3    0    0  0.36517037145E+02  0.46604886716E+02 -0.40886616659E+03  0.41313200269E+03  0.10000000000E+01 0.  0.
    9000005    1    3    3    0    0 -0.36517037145E+02 -0.46604886716E+02 -0.20762900329E+03  0.21590811119E+03  0.10000000000E+01 0.  0.
<mgrwt>
<rscale>  0 0.12500068E+03</rscale>
<asrwt>0</asrwt>
<pdfrwt beam="2">  1        4 0.95810357E-01 0.12500068E+03</pdfrwt>
<pdfrwt beam="1">  1       -4 0.96499619E-03 0.12500068E+03</pdfrwt>
<totfact> 0.47083682E+03</totfact>
</mgrwt>
</event>
<event>
 5    1  0.3312706E-002  0.1250020E+03  0.7818608E-02  0.1235066E+00
          4   -1    0    0  501    0  0.00000000000E+00  0.00000000000E+00  0.32144241383E+02  0.32169320075E+02  0.12700000000E+01 0.  1.
         -4   -1    0    0    0  501 -0.00000000000E+00 -0.00000000000E+00 -0.12145063419E+03  0.12145727415E+03  0.12700000000E+01 0.  1.
         25    2    1    2    0    0  0.00000000000E+00  0.00000000000E+00 -0.89306392805E+02  0.15362659423E+03  0.12500199462E+03 0.  0.
    9000005    1    3    3    0    0  0.19135066494E+02 -0.28556442177E+02  0.19487454198E+02  0.39526978517E+02  0.10000000000E+01 0.  0.
    9000005    1    3    3    0    0 -0.19135066494E+02  0.28556442177E+02 -0.10879384700E+03  0.11409961571E+03  0.10000000000E+01 0.  0.
<mgrwt>
<rscale>  0 0.12500199E+03</rscale>
<asrwt>0</asrwt>
<pdfrwt beam="1">  1        4 0.49477079E-02 0.12500199E+03</pdfrwt>
<pdfrwt beam="2">  1       -4 0.18687153E-01 0.12500199E+03</pdfrwt>
<totfact> 0.98581218E+03</totfact>
</mgrwt>
</event>
<event>
 5    1  0.3312706E-002  0.1250360E+03  0.7818608E-02  0.1235013E+00
         -4   -1    0    0    0  501 -0.00000000000E+00  0.00000000000E+00  0.18825505058E+03  0.18825933435E+03  0.12700000000E+01 0. -1.
          4   -1    0    0  501    0  0.00000000000E+00 -0.00000000000E+00 -0.20737777869E+02  0.20776629442E+02  0.12700000000E+01 0. -1.
         25    2    1    2    0    0  0.00000000000E+00  0.00000000000E+00  0.16751727271E+03  0.20903596379E+03  0.12503598482E+03 0.  0.
    9000005    1    3    3    0    0 -0.98448647650E+01 -0.54686319876E+02  0.13163143262E+03  0.14288229070E+03  0.10000000000E+01 0.  0.
    9000005    1    3    3    0    0  0.98448647650E+01  0.54686319876E+02  0.35885840098E+02  0.66153673090E+02  0.10000000000E+01 0.  0.
<mgrwt>
<rscale>  0 0.12503598E+03</rscale>
<asrwt>0</asrwt>
<pdfrwt beam="2">  1        4 0.31937455E-02 0.12503598E+03</pdfrwt>
<pdfrwt beam="1">  1       -4 0.28965634E-01 0.12503598E+03</pdfrwt>
<totfact> 0.88562288E+03</totfact>
</mgrwt>
</event>
<event>
 5    1  0.3312706E-002  0.1250155E+03  0.7818608E-02  0.1235045E+00
         -4   -1    0    0    0  501 -0.00000000000E+00  0.00000000000E+00  0.22553007566E+03  0.22553365143E+03  0.12700000000E+01 0.  1.
          4   -1    0    0  501    0  0.00000000000E+00 -0.00000000000E+00 -0.17297616117E+02  0.17344175488E+02  0.12700000000E+01 0.  1.
         25    2    1    2    0    0  0.00000000000E+00  0.00000000000E+00  0.20823245954E+03  0.24287782692E+03  0.12501552544E+03 0.  0.
    9000005    1    3    3    0    0 -0.47517268569E+02 -0.34725821180E+02  0.14498151284E+03  0.15647495817E+03  0.10000000000E+01 0.  0.
    9000005    1    3    3    0    0  0.47517268569E+02  0.34725821180E+02  0.63250946700E+02  0.86402868745E+02  0.10000000000E+01 0.  0.
<mgrwt>
<rscale>  0 0.12501553E+03</rscale>
<asrwt>0</asrwt>
<pdfrwt beam="2">  1        4 0.26650285E-02 0.12501553E+03</pdfrwt>
<pdfrwt beam="1">  1       -4 0.34700788E-01 0.12501553E+03</pdfrwt>
<totfact> 0.83341783E+03</totfact>
</mgrwt>
</event>
<event>
 5    1  0.3312706E-002  0.1249994E+03  0.7818608E-02  0.1235070E+00
          4   -1    0    0  501    0  0.00000000000E+00  0.00000000000E+00  0.99082347573E+03  0.99082428965E+03  0.12700000000E+01 0. -1.
         -4   -1    0    0    0  501 -0.00000000000E+00 -0.00000000000E+00 -0.38392726427E+01  0.40438736905E+01  0.12700000000E+01 0. -1.
         25    2    1    2    0    0  0.00000000000E+00  0.00000000000E+00  0.98698420309E+03  0.99486816334E+03  0.12499938113E+03 0.  0.
    9000005    1    3    3    0    0 -0.96843709808E+01  0.11224730035E+02  0.97666407732E+03  0.97677709921E+03  0.10000000000E+01 0.  0.
    9000005    1    3    3    0    0  0.96843709808E+01 -0.11224730035E+02  0.10320125769E+02  0.18091064135E+02  0.10000000000E+01 0.  0.
<mgrwt>
<rscale>  0 0.12499938E+03</rscale>
<asrwt>0</asrwt>
<pdfrwt beam="1">  1        4 0.15245007E+00 0.12499938E+03</pdfrwt>
<pdfrwt beam="2">  1       -4 0.60645894E-03 0.12499938E+03</pdfrwt>
<totfact> 0.30774971E+03</totfact>
</mgrwt>
</event>
<event>
 5    1  0.3312706E-002  0.1249938E+03  0.7818608E-02  0.1235079E+00
         -4   -1    0    0    0  501 -0.00000000000E+00  0.00000000000E+00  0.97751268453E+01  0.98572818181E+01  0.12700000000E+01 0. -1.
          4   -1    0    0  501    0  0.00000000000E+00 -0.00000000000E+00 -0.39781651615E+03  0.39781854334E+03  0.12700000000E+01 0. -1.
         25    2    1    2    0    0  0.00000000000E+00  0.00000000000E+00 -0.38804138931E+03  0.40767582516E+03  0.12499383425E+03 0.  0.
    9000005    1    3    3    0    0  0.52558566098E+02  0.31827005728E+02 -0.23113720167E+03  0.23916681869E+03  0.10000000000E+01 0.  0.
    9000005    1    3    3    0    0 -0.52558566098E+02 -0.31827005728E+02 -0.15690418763E+03  0.16850900647E+03  0.10000000000E+01 0.  0.
<mgrwt>
<rscale>  0 0.12499383E+03</rscale>
<asrwt>0</asrwt>
<pdfrwt beam="2">  1        4 0.61209004E-01 0.12499383E+03</pdfrwt>
<pdfrwt beam="1">  1       -4 0.15103415E-02 0.12499383E+03</pdfrwt>
<totfact> 0.63821722E+03</totfact>
</mgrwt>
</event>
<event>
 5    1  0.3312706E-002  0.1249980E+03  0.7818608E-02  0.1235072E+00
          4   -1    0    0  501    0  0.00000000000E+00  0.00000000000E+00  0.69754588648E+01  0.70901287982E+01  0.12700000000E+01 0.  1.
         -4   -1    0    0    0  501 -0.00000000000E+00 -0.00000000000E+00 -0.55530020411E+03  0.55530165639E+03  0.12700000000E+01 0.  1.
         25    2    1    2    0    0  0.00000000000E+00  0.00000000000E+00 -0.54832474525E+03  0.56239178519E+03  0.12499797516E+03 0.  0.
    9000005    1    3    3    0    0 -0.56018737304E+02  0.12972318608E+02 -0.16407021452E+03  0.17385745676E+03  0.10000000000E+01 0.  0.
    9000005    1    3    3    0    0  0.56018737304E+02 -0.12972318608E+02 -0.38425453073E+03  0.38853432843E+03  0.10000000000E+01 0.  0.
<mgrwt>
<rscale>  0 0.12499798E+03</rscale>
<asrwt>0</asrwt>
<pdfrwt beam="1">  1        4 0.10820804E-02 0.12499798E+03</pdfrwt>
<pdfrwt beam="2">  1       -4 0.85439699E-01 0.12499798E+03</pdfrwt>
<totfact> 0.51333285E+03</totfact>
</mgrwt>
</event>
<event>
 5    1  0.3312706E-002  0.1250026E+03  0.7818608E-02  0.1235065E+00
          4   -1    0    0  501    0  0.00000000000E+00  0.00000000000E+00  0.56268221251E+01  0.57683643460E+01  0.12700000000E+01 0. -1.
         -4   -1    0    0    0  501 -0.00000000000E+00 -0.00000000000E+00 -0.68548243357E+03  0.68548361004E+03  0.12700000000E+01 0. -1.
         25    2    1    2    0    0  0.00000000000E+00  0.00000000000E+00 -0.67985561145E+03  0.69125197439E+03  0.12500255869E+03 0.  0.
    9000005    1    3    3    0    0  0.14891108431E+02 -0.60628209122E+02 -0.32439963818E+03  0.33035382562E+03  0.10000000000E+01 0.  0.
    9000005    1    3    3    0    0 -0.14891108431E+02  0.60628209122E+02 -0.35545597327E+03  0.36089814877E+03  0.10000000000E+01 0.  0.
<mgrwt>
<rscale>  0 0.12500256E+03</rscale>
<asrwt>0</asrwt>
<pdfrwt beam="1">  1        4 0.87664385E-03 0.12500256E+03</pdfrwt>
<pdfrwt beam="2">  1       -4 0.10546975E+00 0.12500256E+03</pdfrwt>
<totfact> 0.43550110E+03</totfact>
</mgrwt>
</event>
<event>
 5    1  0.3312706E-002  0.1249995E+03  0.7818608E-02  0.1235070E+00
         -4   -1    0    0    0  501 -0.00000000000E+00  0.00000000000E+00  0.39316701896E+03  0.39316907012E+03  0.12700000000E+01 0. -1.
          4   -1    0    0  501    0  0.00000000000E+00 -0.00000000000E+00 -0.98925982420E+01  0.99737856393E+01  0.12700000000E+01 0. -1.
         25    2    1    2    0    0  0.00000000000E+00  0.00000000000E+00  0.38327442072E+03  0.40314285576E+03  0.12499952229E+03 0.  0.
    9000005    1    3    3    0    0 -0.34149632926E+01  0.10943588179E+02  0.38976246021E+03  0.38993230115E+03  0.10000000000E+01 0.  0.
    9000005    1    3    3    0    0  0.34149632926E+01 -0.10943588179E+02 -0.64880394895E+01  0.13210554604E+02  0.10000000000E+01 0.  0.
<mgrwt>
<rscale>  0 0.12499952E+03</rscale>
<asrwt>0</asrwt>
<pdfrwt beam="2">  1        4 0.15283409E-02 0.12499952E+03</pdfrwt>
<pdfrwt beam="1">  1       -4 0.60493646E-01 0.12499952E+03</pdfrwt>
<totfact> 0.64248932E+03</totfact>
</mgrwt>
</event>
<event>
 5    1  0.3312706E-002  0.1250008E+03  0.7818608E-02  0.1235068E+00
         -4   -1    0    0    0  501 -0.00000000000E+00  0.00000000000E+00  0.14610997467E+02  0.14666088333E+02  0.12700000000E+01 0. -1.
          4   -1    0    0  501    0  0.00000000000E+00 -0.00000000000E+00 -0.26679366812E+03  0.26679669085E+03  0.12700000000E+01 0. -1.
         25    2    1    2    0    0  0.00000000000E+00  0.00000000000E+00 -0.25218267066E+03  0.28146277919E+03  0.12500078675E+03 0.  0.
    9000005    1    3    3    0    0  0.51599960278E+02 -0.32422735127E+02 -0.94930907834E+02  0.11281252996E+03  0.10000000000E+01 0.  0.
    9000005    1    3    3    0    0 -0.51599960278E+02  0.32422735127E+02 -0.15725176282E+03  0.16865024923E+03  0.10000000000E+01 0.  0.
<mgrwt>
<rscale>  0 0.12500079E+03</rscale>
<asrwt>0</asrwt>
<pdfrwt beam="2">  1        4 0.41049646E-01 0.12500079E+03</pdfrwt>
<pdfrwt beam="1">  1       -4 0.22523162E-02 0.12500079E+03</pdfrwt>
<totfact> 0.77983188E+03</totfact>
</mgrwt>
</event>
<event>
 5    1  0.3312706E-002  0.1249976E+03  0.7818608E-02  0.1235073E+00
         -4   -1    0    0    0  501 -0.00000000000E+00  0.00000000000E+00  0.13265240852E+03  0.13265848780E+03  0.12700000000E+01 0.  1.
          4   -1    0    0  501    0  0.00000000000E+00 -0.00000000000E+00 -0.29425700541E+02  0.29453094104E+02  0.12700000000E+01 0.  1.
         25    2    1    2    0    0  0.00000000000E+00  0.00000000000E+00  0.10322670798E+03  0.16211158191E+03  0.12499764697E+03 0.  0.
    9000005    1    3    3    0    0 -0.29133516888E+02 -0.43016444842E+02  0.65760231242E+01  0.52377670941E+02  0.10000000000E+01 0.  0.
    9000005    1    3    3    0    0  0.29133516888E+02  0.43016444842E+02  0.96650684854E+02  0.10973391097E+03  0.10000000000E+01 0.  0.
<mgrwt>
<rscale>  0 0.12499765E+03</rscale>
<asrwt>0</asrwt>
<pdfrwt beam="2">  1        4 0.45296058E-02 0.12499765E+03</pdfrwt>
<pdfrwt beam="1">  1       -4 0.20410637E-01 0.12499765E+03</pdfrwt>
<totfact> 0.96942353E+03</totfact>
</mgrwt>
</event>
<event>
 5    1  0.3312706E-002  0.1250005E+03  0.7818608E-02  0.1235069E+00
          4   -1    0    0  501    0  0.00000000000E+00  0.00000000000E+00  0.49445058340E+01  0.51050012676E+01  0.12700000000E+01 0.  1.
         -4   -1    0    0    0  501 -0.00000000000E+00 -0.00000000000E+00 -0.77724618468E+03  0.77724722225E+03  0.12700000000E+01 0.  1.
         25    2    1    2    0    0  0.00000000000E+00  0.00000000000E+00 -0.77230167884E+03  0.78235222352E+03  0.12500047399E+03 0.  0.
    9000005    1    3    3    0    0  0.13326782684E+02  0.51755943888E+02 -0.58886222812E+03  0.59128335387E+03  0.10000000000E+01 0.  0.
    9000005    1    3    3    0    0 -0.13326782684E+02 -0.51755943888E+02 -0.18343945072E+03  0.19106886964E+03  0.10000000000E+01 0.  0.
<mgrwt>
<rscale>  0 0.12500047E+03</rscale>
<asrwt>0</asrwt>
<pdfrwt beam="1">  1        4 0.77311944E-03 0.12500047E+03</pdfrwt>
<pdfrwt beam="2">  1       -4 0.11958867E+00 0.12500047E+03</pdfrwt>
<totfact> 0.39064436E+03</totfact>
</mgrwt>
</event>
<event>
 5    1  0.3312706E-002  0.1250000E+03  0.7818608E-02  0.1235069E+00
         -4   -1    0    0    0  501 -0.00000000000E+00  0.00000000000E+00  0.62270688102E+02  0.62283637471E+02  0.12700000000E+01 0. -1.
          4   -1    0    0  501    0  0.00000000000E+00 -0.00000000000E+00 -0.62704209732E+02  0.62717069592E+02  0.12700000000E+01 0. -1.
         25    2    1    2    0    0  0.00000000000E+00  0.00000000000E+00 -0.43352163061E+00  0.12500070706E+03  0.12499995530E+03 0.  0.
    9000005    1    3    3    0    0  0.16927459002E+02 -0.51094952766E+02  0.31532668543E+02  0.62390241639E+02  0.10000000000E+01 0.  0.
    9000005    1    3    3    0    0 -0.16927459002E+02  0.51094952766E+02 -0.31966190173E+02  0.62610465424E+02  0.10000000000E+01 0.  0.
<mgrwt>
<rscale>  0 0.12499996E+03</rscale>
<asrwt>0</asrwt>
<pdfrwt beam="2">  1        4 0.96487869E-02 0.12499996E+03</pdfrwt>
<pdfrwt beam="1">  1       -4 0.95820911E-02 0.12499996E+03</pdfrwt>
<totfact> 0.10452858E+04</totfact>
</mgrwt>
</event>
<event>
 5    1  0.3312706E-002  0.1250010E+03  0.7818608E-02  0.1235068E+00
          4   -1    0    0  501    0  0.00000000000E+00  0.00000000000E+00  0.83476299465E+03  0.83476396073E+03  0.12700000000E+01 0.  1.
         -4   -1    0    0    0  501 -0.00000000000E+00 -0.00000000000E+00 -0.45923932565E+01  0.47647639839E+01  0.12700000000E+01 0.  1.
         25    2    1    2    0    0  0.00000000000E+00  0.00000000000E+00  0.83017060139E+03  0.83952872471E+03  0.12500100882E+03 0.  0.
    9000005    1    3    3    0    0  0.40508718270E+02  0.39498120462E+02  0.23685271950E+03  0.24351851779E+03  0.10000000000E+01 0.  0.
    9000005    1    3    3    0    0 -0.40508718270E+02 -0.39498120462E+02  0.59331788189E+03  0.59601020692E+03  0.10000000000E+01 0.  0.
<mgrwt>
<rscale>  0 0.12500101E+03</rscale>
<asrwt>0</asrwt>
<pdfrwt beam="1">  1        4 0.12843817E+00 0.12500101E+03</pdfrwt>
<pdfrwt beam="2">  1       -4 0.71985699E-03 0.12500101E+03</pdfrwt>
<totfact> 0.36558950E+03</totfact>
</mgrwt>
</event>
<event>
 5    1  0.3312706E-002  0.1249993E+03  0.7818608E-02  0.1235070E+00
         -4   -1    0    0    0  501 -0.00000000000E+00  0.00000000000E+00  0.89072669827E+01  0.89973498932E+01  0.12700000000E+01 0.  1.
          4   -1    0    0  501    0  0.00000000000E+00 -0.00000000000E+00 -0.43624436818E+03  0.43624621680E+03  0.12700000000E+01 0.  1.
         25    2    1    2    0    0  0.00000000000E+00  0.00000000000E+00 -0.42733710120E+03  0.44524356669E+03  0.12499934247E+03 0.  0.
    9000005    1    3    3    0    0 -0.62196975079E+02  0.59658278470E+01 -0.20984197342E+03  0.21894910053E+03  0.10000000000E+01 0.  0.
    9000005    1    3    3    0    0  0.62196975079E+02 -0.59658278470E+01 -0.21749512778E+03  0.22629446616E+03  0.10000000000E+01 0.  0.
<mgrwt>
<rscale>  0 0.12499934E+03</rscale>
<asrwt>0</asrwt>
<pdfrwt beam="2">  1        4 0.67121573E-01 0.12499934E+03</pdfrwt>
<pdfrwt beam="1">  1       -4 0.13774208E-02 0.12499934E+03</pdfrwt>
<totfact> 0.60378953E+03</totfact>
</mgrwt>
</event>
<event>
 5    1  0.3312706E-002  0.1250015E+03  0.7818608E-02  0.1235067E+00
          4   -1    0    0  501    0  0.00000000000E+00  0.00000000000E+00  0.35746671854E+02  0.35769224882E+02  0.12700000000E+01 0. -1.
         -4   -1    0    0    0  501 -0.00000000000E+00 -0.00000000000E+00 -0.10921785158E+03  0.10922523519E+03  0.12700000000E+01 0. -1.
         25    2    1    2    0    0  0.00000000000E+00  0.00000000000E+00 -0.73471179724E+02  0.14499446008E+03  0.12500151680E+03 0.  0.
    9000005    1    3    3    0    0  0.11785473567E+02  0.59987585442E+02 -0.21703847281E+02  0.64880388263E+02  0.10000000000E+01 0.  0.
    9000005    1    3    3    0    0 -0.11785473567E+02 -0.59987585442E+02 -0.51767332443E+02  0.80114071814E+02  0.10000000000E+01 0.  0.
<mgrwt>
<rscale>  0 0.12500152E+03</rscale>
<asrwt>0</asrwt>
<pdfrwt beam="1">  1        4 0.55017908E-02 0.12500152E+03</pdfrwt>
<pdfrwt beam="2">  1       -4 0.16805049E-01 0.12500152E+03</pdfrwt>
<totfact> 0.10030758E+04</totfact>
</mgrwt>
</event>
<event>
 5    1  0.3312706E-002  0.1250014E+03  0.7818608E-02  0.1235067E+00
         -4   -1    0    0    0  501 -0.00000000000E+00  0.00000000000E+00  0.89988199909E+03  0.89988289526E+03  0.12700000000E+01 0.  1.
          4   -1    0    0  501    0  0.00000000000E+00 -0.00000000000E+00 -0.42471352758E+01  0.44329513928E+01  0.12700000000E+01 0.  1.
         25    2    1    2    0    0  0.00000000000E+00  0.00000000000E+00  0.89563486382E+03  0.90431584666E+03  0.12500136492E+03 0.  0.
    9000005    1    3    3    0    0 -0.64611718776E+00  0.26493805680E+02  0.85725113658E+03  0.85766126786E+03  0.10000000000E+01 0.  0.
    9000005    1    3    3    0    0  0.64611718776E+00 -0.26493805680E+02  0.38383727232E+02  0.46654578800E+02  0.10000000000E+01 0.  0.
<mgrwt>
<rscale>  0 0.12500136E+03</rscale>
<asrwt>0</asrwt>
<pdfrwt beam="2">  1        4 0.66776780E-03 0.12500136E+03</pdfrwt>
<pdfrwt beam="1">  1       -4 0.13845777E+00 0.12500136E+03</pdfrwt>
<totfact> 0.33994177E+03</totfact>
</mgrwt>
</event>
<event>
 5    1  0.3312706E-002  0.1250210E+03  0.7818608E-02  0.1235036E+00
         -4   -1    0    0    0  501 -0.00000000000E+00  0.00000000000E+00  0.57504387664E+02  0.57518410101E+02  0.12700000000E+01 0.  1.
          4   -1    0    0  501    0  0.00000000000E+00 -0.00000000000E+00 -0.67924194690E+02  0.67936066447E+02  0.12700000000E+01 0.  1.
         25    2    1    2    0    0  0.00000000000E+00  0.00000000000E+00 -0.10419807026E+02  0.12545447655E+03  0.12502101146E+03 0.  0.
    9000005    1    3    3    0    0  0.49371043163E+02 -0.21530261210E+02  0.26609836521E+02  0.60084402722E+02  0.10000000000E+01 0.  0.
    9000005    1    3    3    0    0 -0.49371043163E+02  0.21530261210E+02 -0.37029643547E+02  0.65370073826E+02  0.10000000000E+01 0.  0.
<mgrwt>
<rscale>  0 0.12502101E+03</rscale>
<asrwt>0</asrwt>
<pdfrwt beam="2">  1        4 0.10451868E-01 0.12502101E+03</pdfrwt>
<pdfrwt beam="1">  1       -4 0.88488207E-02 0.12502101E+03</pdfrwt>
<totfact> 0.10438014E+04</totfact>
</mgrwt>
</event>
<event>
 5    1  0.3312706E-002  0.1250016E+03  0.7818608E-02  0.1235067E+00
         -4   -1    0    0    0  501 -0.00000000000E+00  0.00000000000E+00  0.30356369418E+03  0.30356635078E+03  0.12700000000E+01 0.  1.
          4   -1    0    0  501    0  0.00000000000E+00 -0.00000000000E+00 -0.12834257512E+02  0.12896940175E+02  0.12700000000E+01 0.  1.
         25    2    1    2    0    0  0.00000000000E+00  0.00000000000E+00  0.29072943667E+03  0.31646329095E+03  0.12500163669E+03 0.  0.
    9000005    1    3    3    0    0 -0.38110574895E+02 -0.49526259325E+02  0.14610720336E+03  0.15891375383E+03  0.10000000000E+01 0.  0.
    9000005    1    3    3    0    0  0.38110574895E+02  0.49526259325E+02  0.14462223331E+03  0.15754953713E+03  0.10000000000E+01 0.  0.
<mgrwt>
<rscale>  0 0.12500164E+03</rscale>
<asrwt>0</asrwt>
<pdfrwt beam="2">  1        4 0.19795273E-02 0.12500164E+03</pdfrwt>
<pdfrwt beam="1">  1       -4 0.46707131E-01 0.12500164E+03</pdfrwt>
<totfact> 0.73576083E+03</totfact>
</mgrwt>
</event>
<event>
 5    1  0.3312706E-002  0.1249997E+03  0.7818608E-02  0.1235070E+00
         -4   -1    0    0    0  501 -0.00000000000E+00  0.00000000000E+00  0.18427191045E+02  0.18470903330E+02  0.12700000000E+01 0. -1.
          4   -1    0    0  501    0  0.00000000000E+00 -0.00000000000E+00 -0.21168513809E+03  0.21168894772E+03  0.12700000000E+01 0. -1.
         25    2    1    2    0    0  0.00000000000E+00  0.00000000000E+00 -0.19325794704E+03  0.23015985105E+03  0.12499969176E+03 0.  0.
    9000005    1    3    3    0    0  0.50091372353E+02  0.36688518725E+02 -0.83604220733E+02  0.10414345258E+03  0.10000000000E+01 0.  0.
    9000005    1    3    3    0    0 -0.50091372353E+02 -0.36688518725E+02 -0.10965372631E+03  0.12601639847E+03  0.10000000000E+01 0.  0.
<mgrwt>
<rscale>  0 0.12499969E+03</rscale>
<asrwt>0</asrwt>
<pdfrwt beam="2">  1        4 0.32570598E-01 0.12499969E+03</pdfrwt>
<pdfrwt beam="1">  1       -4 0.28386081E-02 0.12499969E+03</pdfrwt>
<totfact> 0.85285645E+03</totfact>
</mgrwt>
</event>
<event>
 5    1  0.3312706E-002  0.1250014E+03  0.7818608E-02  0.1235067E+00
          4   -1    0    0  501    0  0.00000000000E+00  0.00000000000E+00  0.32673913512E+03  0.32674160329E+03  0.12700000000E+01 0. -1.
         -4   -1    0    0    0  501 -0.00000000000E+00 -0.00000000000E+00 -0.11919272944E+02  0.11986741322E+02  0.12700000000E+01 0. -1.
         25    2    1    2    0    0  0.00000000000E+00  0.00000000000E+00  0.31481986218E+03  0.33872834461E+03  0.12500138328E+03 0.  0.
    9000005    1    3    3    0    0  0.33286990739E+02 -0.52877867548E+02  0.15438777692E+03  0.16655533102E+03  0.10000000000E+01 0.  0.
    9000005    1    3    3    0    0 -0.33286990739E+02  0.52877867548E+02  0.16043208525E+03  0.17217301359E+03  0.10000000000E+01 0.  0.
<mgrwt>
<rscale>  0 0.12500138E+03</rscale>
<asrwt>0</asrwt>
<pdfrwt beam="1">  1        4 0.50272942E-01 0.12500138E+03</pdfrwt>
<pdfrwt beam="2">  1       -4 0.18391139E-02 0.12500138E+03</pdfrwt>
<totfact> 0.70980461E+03</totfact>
</mgrwt>
</event>
<event>
 5    1  0.3312706E-002  0.1250395E+03  0.7818608E-02  0.1235008E+00
          4   -1    0    0  501    0  0.00000000000E+00  0.00000000000E+00  0.10558584653E+02  0.10634688988E+02  0.12700000000E+01 0.  1.
         -4   -1    0    0    0  501 -0.00000000000E+00 -0.00000000000E+00 -0.36878668535E+03  0.36878887211E+03  0.12700000000E+01 0.  1.
         25    2    1    2    0    0  0.00000000000E+00  0.00000000000E+00 -0.35822810070E+03  0.37942356110E+03  0.12503946012E+03 0.  0.
    9000005    1    3    3    0    0 -0.53904850010E+02  0.29397371187E+02 -0.14349619954E+03  0.15608362364E+03  0.10000000000E+01 0.  0.
    9000005    1    3    3    0    0  0.53904850010E+02 -0.29397371187E+02 -0.21473190116E+03  0.22333993745E+03  0.10000000000E+01 0.  0.
<mgrwt>
<rscale>  0 0.12503946E+03</rscale>
<asrwt>0</asrwt>
<pdfrwt beam="1">  1        4 0.16304203E-02 0.12503946E+03</pdfrwt>
<pdfrwt beam="2">  1       -4 0.56742426E-01 0.12503946E+03</pdfrwt>
<totfact> 0.66546405E+03</totfact>
</mgrwt>
</event>
<event>
 5    1  0.3312706E-002  0.1249977E+03  0.7818608E-02  0.1235073E+00
         -4   -1    0    0    0  501 -0.00000000000E+00  0.00000000000E+00  0.18451743249E+02  0.18495397507E+02  0.12700000000E+01 0.  1.
          4   -1    0    0  501    0  0.00000000000E+00 -0.00000000000E+00 -0.21139743570E+03  0.21140125052E+03  0.12700000000E+01 0.  1.
         25    2    1    2    0    0  0.00000000000E+00  0.00000000000E+00 -0.19294569245E+03  0.22989664802E+03  0.12499771413E+03 0.  0.
    9000005    1    3    3    0    0 -0.17914809661E+02  0.11145126564E+02 -0.20465750024E+03  0.20574461513E+03  0.10000000000E+01 0.  0.
    9000005    1    3    3    0    0  0.17914809661E+02 -0.11145126564E+02  0.11711807787E+02  0.24152032895E+02  0.10000000000E+01 0.  0.
<mgrwt>
<rscale>  0 0.12499771E+03</rscale>
<asrwt>0</asrwt>
<pdfrwt beam="2">  1        4 0.32526332E-01 0.12499771E+03</pdfrwt>
<pdfrwt beam="1">  1       -4 0.28423814E-02 0.12499771E+03</pdfrwt>
<totfact> 0.85329822E+03</totfact>
</mgrwt>
</event>
<event>
 5    1  0.3312706E-002  0.1249978E+03  0.7818608E-02  0.1235073E+00
          4   -1    0    0  501    0  0.00000000000E+00  0.00000000000E+00  0.27514980416E+02  0.27544274310E+02  0.12700000000E+01 0.  1.
         -4   -1    0    0    0  501 -0.00000000000E+00 -0.00000000000E+00 -0.14185543573E+03  0.14186112063E+03  0.12700000000E+01 0.  1.
         25    2    1    2    0    0  0.00000000000E+00  0.00000000000E+00 -0.11434045531E+03  0.16940539494E+03  0.12499779243E+03 0.  0.
    9000005    1    3    3    0    0  0.12995443810E+02  0.51325360315E+02 -0.10215892783E+03  0.11506789607E+03  0.10000000000E+01 0.  0.
    9000005    1    3    3    0    0 -0.12995443810E+02 -0.51325360315E+02 -0.12181527485E+02  0.54337498867E+02  0.10000000000E+01 0.  0.
<mgrwt>
<rscale>  0 0.12499779E+03</rscale>
<asrwt>0</asrwt>
<pdfrwt beam="1">  1        4 0.42357647E-02 0.12499779E+03</pdfrwt>
<pdfrwt beam="2">  1       -4 0.21826603E-01 0.12499779E+03</pdfrwt>
<totfact> 0.95564261E+03</totfact>
</mgrwt>
</event>
<event>
 4    1  0.3312706E-002  0.1247842E+03  0.7818608E-02  0.1235407E+00
          4   -1    0    0  501    0  0.00000000000E+00  0.00000000000E+00  0.28688370152E+02  0.28716467087E+02  0.12700000000E+01 0.  1.
         -4   -1    0    0    0  501 -0.00000000000E+00 -0.00000000000E+00 -0.13559423627E+03  0.13560018367E+03  0.12700000000E+01 0.  1.
    9000005    1    1    2    0    0  0.37428103511E+02  0.40349742965E+02 -0.92132309854E+02  0.10732346998E+03  0.10000000000E+01 0.  0.
    9000005    1    1    2    0    0 -0.37428103511E+02 -0.40349742965E+02 -0.14773556267E+02  0.56993180772E+02  0.10000000000E+01 0.  0.
<mgrwt>
<rscale>  0 0.12478420E+03</rscale>
<asrwt>0</asrwt>
<pdfrwt beam="1">  1        4 0.44162143E-02 0.12478420E+03</pdfrwt>
<pdfrwt beam="2">  1       -4 0.20863270E-01 0.12478420E+03</pdfrwt>
<totfact> 0.96986391E+03</totfact>
</mgrwt>
</event>
<event>
 5    1  0.3312706E-002  0.1249986E+03  0.7818608E-02  0.1235071E+00
         -4   -1    0    0    0  501 -0.00000000000E+00  0.00000000000E+00  0.90252969959E+03  0.90253059313E+03  0.12700000000E+01 0. -1.
          4   -1    0    0  501    0  0.00000000000E+00 -0.00000000000E+00 -0.42339371312E+01  0.44203080923E+01  0.12700000000E+01 0. -1.
         25    2    1    2    0    0  0.00000000000E+00  0.00000000000E+00  0.89829576246E+03  0.90695090122E+03  0.12499864152E+03 0.  0.
    9000005    1    3    3    0    0  0.24746520603E+02  0.30638977541E+02  0.80118161636E+03  0.80214968654E+03  0.10000000000E+01 0.  0.
    9000005    1    3    3    0    0 -0.24746520603E+02 -0.30638977541E+02  0.97114146101E+02  0.10480121469E+03  0.10000000000E+01 0.  0.
<mgrwt>
<rscale>  0 0.12499864E+03</rscale>
<asrwt>0</asrwt>
<pdfrwt beam="2">  1        4 0.66578003E-03 0.12499864E+03</pdfrwt>
<pdfrwt beam="1">  1       -4 0.13886510E+00 0.12499864E+03</pdfrwt>
<totfact> 0.33896165E+03</totfact>
</mgrwt>
</event>
<event>
 5    1  0.3312706E-002  0.1250020E+03  0.7818608E-02  0.1235066E+00
         -4   -1    0    0    0  501 -0.00000000000E+00  0.00000000000E+00  0.23982344153E+02  0.24015947432E+02  0.12700000000E+01 0. -1.
          4   -1    0    0  501    0  0.00000000000E+00 -0.00000000000E+00 -0.16273531883E+03  0.16274027435E+03  0.12700000000E+01 0. -1.
         25    2    1    2    0    0  0.00000000000E+00  0.00000000000E+00 -0.13875297468E+03  0.18675622178E+03  0.12500199355E+03 0.  0.
    9000005    1    3    3    0    0  0.11676194163E+02 -0.32571306045E+02 -0.14712544704E+03  0.15114271618E+03  0.10000000000E+01 0.  0.
    9000005    1    3    3    0    0 -0.11676194163E+02  0.32571306045E+02  0.83724723621E+01  0.35613505600E+02  0.10000000000E+01 0.  0.
<mgrwt>
<rscale>  0 0.12500199E+03</rscale>
<asrwt>0</asrwt>
<pdfrwt beam="2">  1        4 0.25039168E-01 0.12500199E+03</pdfrwt>
<pdfrwt beam="1">  1       -4 0.36925576E-02 0.12500199E+03</pdfrwt>
<totfact> 0.92410677E+03</totfact>
</mgrwt>
</event>
<event>
 5    1  0.3312706E-002  0.1250001E+03  0.7818608E-02  0.1235069E+00
         -4   -1    0    0    0  501 -0.00000000000E+00  0.00000000000E+00  0.57798536883E+01  0.59177367852E+01  0.12700000000E+01 0.  1.
          4   -1    0    0  501    0  0.00000000000E+00 -0.00000000000E+00 -0.66773550529E+03  0.66773671303E+03  0.12700000000E+01 0.  1.
         25    2    1    2    0    0  0.00000000000E+00  0.00000000000E+00 -0.66195565160E+03  0.67365444981E+03  0.12500013226E+03 0.  0.
    9000005    1    3    3    0    0  0.12600132855E+01 -0.58497207053E+02 -0.21269099395E+03  0.22059458237E+03  0.10000000000E+01 0.  0.
    9000005    1    3    3    0    0 -0.12600132855E+01  0.58497207053E+02 -0.44926465766E+03  0.45305986744E+03  0.10000000000E+01 0.  0.
<mgrwt>
<rscale>  0 0.12500013E+03</rscale>
<asrwt>0</asrwt>
<pdfrwt beam="2">  1        4 0.10273918E+00 0.12500013E+03</pdfrwt>
<pdfrwt beam="1">  1       -4 0.89990808E-03 0.12500013E+03</pdfrwt>
<totfact> 0.44514295E+03</totfact>
</mgrwt>
</event>
<event>
 5    1  0.3312706E-002  0.1249984E+03  0.7818608E-02  0.1235072E+00
         -4   -1    0    0    0  501 -0.00000000000E+00  0.00000000000E+00  0.64669654246E+02  0.64682123344E+02  0.12700000000E+01 0.  1.
          4   -1    0    0  501    0  0.00000000000E+00 -0.00000000000E+00 -0.60376658883E+02  0.60390014389E+02  0.12700000000E+01 0.  1.
         25    2    1    2    0    0  0.00000000000E+00  0.00000000000E+00  0.42929953629E+01  0.12507213773E+03  0.12499843930E+03 0.  0.
    9000005    1    3    3    0    0 -0.15904392302E+02 -0.56095574155E+02 -0.20349847937E+02  0.61763900827E+02  0.10000000000E+01 0.  0.
    9000005    1    3    3    0    0  0.15904392302E+02  0.56095574155E+02  0.24642843300E+02  0.63308236906E+02  0.10000000000E+01 0.  0.
<mgrwt>
<rscale>  0 0.12499844E+03</rscale>
<asrwt>0</asrwt>
<pdfrwt beam="2">  1        4 0.92907033E-02 0.12499844E+03</pdfrwt>
<pdfrwt beam="1">  1       -4 0.99511641E-02 0.12499844E+03</pdfrwt>
<totfact> 0.10451665E+04</totfact>
</mgrwt>
</event>
<event>
 5    1  0.3312706E-002  0.1249996E+03  0.7818608E-02  0.1235070E+00
         -4   -1    0    0    0  501 -0.00000000000E+00  0.00000000000E+00  0.23336228714E+03  0.23336574290E+03  0.12700000000E+01 0. -1.
          4   -1    0    0  501    0  0.00000000000E+00 -0.00000000000E+00 -0.16711214594E+02  0.16759403128E+02  0.12700000000E+01 0. -1.
         25    2    1    2    0    0  0.00000000000E+00  0.00000000000E+00  0.21665107255E+03  0.25012514603E+03  0.12499960576E+03 0.  0.
    9000005    1    3    3    0    0  0.73969179116E+01  0.29343622229E+02  0.21773258139E+03  0.21982774974E+03  0.10000000000E+01 0.  0.
    9000005    1    3    3    0    0 -0.73969179116E+01 -0.29343622229E+02 -0.10815088424E+01  0.30297396282E+02  0.10000000000E+01 0.  0.
<mgrwt>
<rscale>  0 0.12499961E+03</rscale>
<asrwt>0</asrwt>
<pdfrwt beam="2">  1        4 0.25749287E-02 0.12499961E+03</pdfrwt>
<pdfrwt beam="1">  1       -4 0.35905863E-01 0.12499961E+03</pdfrwt>
<totfact> 0.82312866E+03</totfact>
</mgrwt>
</event>
<event>
 5    1  0.3312706E-002  0.1249982E+03  0.7818608E-02  0.1235072E+00
         -4   -1    0    0    0  501 -0.00000000000E+00  0.00000000000E+00  0.12858629170E+03  0.12859256321E+03  0.12700000000E+01 0.  1.
          4   -1    0    0  501    0  0.00000000000E+00 -0.00000000000E+00 -0.30357279628E+02  0.30383833307E+02  0.12700000000E+01 0.  1.
         25    2    1    2    0    0  0.00000000000E+00  0.00000000000E+00  0.98229012069E+02  0.15897639651E+03  0.12499822333E+03 0.  0.
    9000005    1    3    3    0    0 -0.45850799919E+02  0.42317673493E+02  0.44698196186E+02  0.76759429944E+02  0.10000000000E+01 0.  0.
    9000005    1    3    3    0    0  0.45850799919E+02 -0.42317673493E+02  0.53530815883E+02  0.82216966571E+02  0.10000000000E+01 0.  0.
<mgrwt>
<rscale>  0 0.12499822E+03</rscale>
<asrwt>0</asrwt>
<pdfrwt beam="2">  1        4 0.46728757E-02 0.12499822E+03</pdfrwt>
<pdfrwt beam="1">  1       -4 0.19785032E-01 0.12499822E+03</pdfrwt>
<totfact> 0.97544387E+03</totfact>
</mgrwt>
</event>
<event>
 5    1  0.3312706E-002  0.1249992E+03  0.7818608E-02  0.1235070E+00
         -4   -1    0    0    0  501 -0.00000000000E+00  0.00000000000E+00  0.21546811386E+03  0.21547185661E+03  0.12700000000E+01 0. -1.
          4   -1    0    0  501    0  0.00000000000E+00 -0.00000000000E+00 -0.18102762991E+02  0.18147256759E+02  0.12700000000E+01 0. -1.
         25    2    1    2    0    0  0.00000000000E+00  0.00000000000E+00  0.19736535087E+03  0.23361911337E+03  0.12499923363E+03 0.  0.
    9000005    1    3    3    0    0 -0.43513673433E+02  0.25534021712E+02  0.16760100090E+03  0.17503291559E+03  0.10000000000E+01 0.  0.
    9000005    1    3    3    0    0  0.43513673433E+02 -0.25534021712E+02  0.29764349979E+02  0.58586197778E+02  0.10000000000E+01 0.  0.
<mgrwt>
<rscale>  0 0.12499923E+03</rscale>
<asrwt>0</asrwt>
<pdfrwt beam="2">  1        4 0.27887511E-02 0.12499923E+03</pdfrwt>
<pdfrwt beam="1">  1       -4 0.33152650E-01 0.12499923E+03</pdfrwt>
<totfact> 0.84758409E+03</totfact>
</mgrwt>
</event>
<event>
 5    1  0.3312706E-002  0.1249986E+03  0.7818608E-02  0.1235072E+00
         -4   -1    0    0    0  501 -0.00000000000E+00  0.00000000000E+00  0.84255023586E+03  0.84255119302E+03  0.12700000000E+01 0.  1.
          4   -1    0    0  501    0  0.00000000000E+00 -0.00000000000E+00 -0.45481628036E+01  0.47221483340E+01  0.12700000000E+01 0.  1.
         25    2    1    2    0    0  0.00000000000E+00  0.00000000000E+00  0.83800207306E+03  0.84727334135E+03  0.12499856203E+03 0.  0.
    9000005    1    3    3    0    0 -0.75111789878E+01 -0.57763624656E+02  0.57239153208E+03  0.57534869440E+03  0.10000000000E+01 0.  0.
    9000005    1    3    3    0    0  0.75111789878E+01  0.57763624656E+02  0.26561054098E+03  0.27192464695E+03  0.10000000000E+01 0.  0.
<mgrwt>
<rscale>  0 0.12499856E+03</rscale>
<asrwt>0</asrwt>
<pdfrwt beam="2">  1        4 0.71317372E-03 0.12499856E+03</pdfrwt>
<pdfrwt beam="1">  1       -4 0.12963671E+00 0.12499856E+03</pdfrwt>
<totfact> 0.36240261E+03</totfact>
</mgrwt>
</event>
<event>
 5    1  0.3312706E-002  0.1249837E+03  0.7818608E-02  0.1235095E+00
          4   -1    0    0  501    0  0.00000000000E+00  0.00000000000E+00  0.87792156178E+02  0.87801341597E+02  0.12700000000E+01 0.  1.
         -4   -1    0    0    0  501 -0.00000000000E+00 -0.00000000000E+00 -0.44462089876E+02  0.44480224102E+02  0.12700000000E+01 0.  1.
         25    2    1    2    0    0  0.00000000000E+00  0.00000000000E+00  0.43330066301E+02  0.13228156570E+03  0.12498367085E+03 0.  0.
    9000005    1    3    3    0    0 -0.16776439561E+02  0.14753158665E+02 -0.40095718453E+02  0.45910469974E+02  0.10000000000E+01 0.  0.
    9000005    1    3    3    0    0  0.16776439561E+02 -0.14753158665E+02  0.83425784755E+02  0.86371095726E+02  0.10000000000E+01 0.  0.
<mgrwt>
<rscale>  0 0.12498367E+03</rscale>
<asrwt>0</asrwt>
<pdfrwt beam="1">  1        4 0.13508587E-01 0.12498367E+03</pdfrwt>
<pdfrwt beam="2">  1       -4 0.68424231E-02 0.12498367E+03</pdfrwt>
<totfact> 0.10299486E+04</totfact>
</mgrwt>
</event>
<event>
 5    1  0.3312706E-002  0.1250001E+03  0.7818608E-02  0.1235069E+00
         -4   -1    0    0    0  501 -0.00000000000E+00  0.00000000000E+00  0.26868465429E+03  0.26868765575E+03  0.12700000000E+01 0.  1.
          4   -1    0    0  501    0  0.00000000000E+00 -0.00000000000E+00 -0.14507627177E+02  0.14563109088E+02  0.12700000000E+01 0.  1.
         25    2    1    2    0    0  0.00000000000E+00  0.00000000000E+00  0.25417702712E+03  0.28325076484E+03  0.12500013867E+03 0.  0.
    9000005    1    3    3    0    0  0.22531172313E+02 -0.50371285232E+02  0.19355386292E+03  0.20126852201E+03  0.10000000000E+01 0.  0.
    9000005    1    3    3    0    0 -0.22531172313E+02  0.50371285232E+02  0.60623164197E+02  0.81982242827E+02  0.10000000000E+01 0.  0.
<mgrwt>
<rscale>  0 0.12500014E+03</rscale>
<asrwt>0</asrwt>
<pdfrwt beam="2">  1        4 0.22364415E-02 0.12500014E+03</pdfrwt>
<pdfrwt beam="1">  1       -4 0.41340598E-01 0.12500014E+03</pdfrwt>
<totfact> 0.77748803E+03</totfact>
</mgrwt>
</event>
<event>
 5    1  0.3312706E-002  0.1249996E+03  0.7818608E-02  0.1235070E+00
          4   -1    0    0  501    0  0.00000000000E+00  0.00000000000E+00  0.73392836551E+02  0.73403823858E+02  0.12700000000E+01 0. -1.
         -4   -1    0    0    0  501 -0.00000000000E+00 -0.00000000000E+00 -0.53200954025E+02  0.53216110429E+02  0.12700000000E+01 0. -1.
         25    2    1    2    0    0  0.00000000000E+00  0.00000000000E+00  0.20191882526E+02  0.12661993429E+03  0.12499958255E+03 0.  0.
    9000005    1    3    3    0    0 -0.57920353886E+01 -0.29197986765E+02 -0.45563153673E+02  0.54434098483E+02  0.10000000000E+01 0.  0.
    9000005    1    3    3    0    0  0.57920353886E+01  0.29197986765E+02  0.65755036199E+02  0.72185835803E+02  0.10000000000E+01 0.  0.
<mgrwt>
<rscale>  0 0.12499958E+03</rscale>
<asrwt>0</asrwt>
<pdfrwt beam="1">  1        4 0.11293217E-01 0.12499958E+03</pdfrwt>
<pdfrwt beam="2">  1       -4 0.81867732E-02 0.12499958E+03</pdfrwt>
<totfact> 0.10417512E+04</totfact>
</mgrwt>
</event>
<event>
 5    1  0.3312706E-002  0.1250039E+03  0.7818608E-02  0.1235063E+00
          4   -1    0    0  501    0  0.00000000000E+00  0.00000000000E+00  0.19780582779E+02  0.19821310630E+02  0.12700000000E+01 0. -1.
         -4   -1    0    0    0  501 -0.00000000000E+00 -0.00000000000E+00 -0.19724545591E+03  0.19724954443E+03  0.12700000000E+01 0. -1.
         25    2    1    2    0    0  0.00000000000E+00  0.00000000000E+00 -0.17746487313E+03  0.21707085506E+03  0.12500389962E+03 0.  0.
    9000005    1    3    3    0    0 -0.10490386465E+02 -0.38741422334E+02 -0.55509835487E+01  0.40530968789E+02  0.10000000000E+01 0.  0.
    9000005    1    3    3    0    0  0.10490386465E+02  0.38741422334E+02 -0.17191388958E+03  0.17653988627E+03  0.10000000000E+01 0.  0.
<mgrwt>
<rscale>  0 0.12500390E+03</rscale>
<asrwt>0</asrwt>
<pdfrwt beam="1">  1        4 0.30466141E-02 0.12500390E+03</pdfrwt>
<pdfrwt beam="2">  1       -4 0.30348901E-01 0.12500390E+03</pdfrwt>
<totfact> 0.87326373E+03</totfact>
</mgrwt>
</event>
<event>
 5    1  0.3312706E-002  0.1249993E+03  0.7818608E-02  0.1235070E+00
         -4   -1    0    0    0  501 -0.00000000000E+00  0.00000000000E+00  0.43901671389E+03  0.43901855083E+03  0.12700000000E+01 0. -1.
          4   -1    0    0  501    0  0.00000000000E+00 -0.00000000000E+00 -0.88504484945E+01  0.89411038778E+01  0.12700000000E+01 0. -1.
         25    2    1    2    0    0  0.00000000000E+00  0.00000000000E+00  0.43016626540E+03  0.44795965471E+03  0.12499934545E+03 0.  0.
    9000005    1    3    3    0    0  0.32615380733E+01  0.59595730891E+02  0.28144640193E+03  0.28770708356E+03  0.10000000000E+01 0.  0.
    9000005    1    3    3    0    0 -0.32615380733E+01 -0.59595730891E+02  0.14871986346E+03  0.16025257115E+03  0.10000000000E+01 0.  0.
<mgrwt>
<rscale>  0 0.12499935E+03</rscale>
<asrwt>0</asrwt>
<pdfrwt beam="2">  1        4 0.13687223E-02 0.12499935E+03</pdfrwt>
<pdfrwt beam="1">  1       -4 0.67548143E-01 0.12499935E+03</pdfrwt>
<totfact> 0.60141826E+03</totfact>
</mgrwt>
</event>
<event>
 5    1  0.3312706E-002  0.1249985E+03  0.7818608E-02  0.1235072E+00
         -4   -1    0    0    0  501 -0.00000000000E+00  0.00000000000E+00  0.17883715640E+02  0.17928753027E+02  0.12700000000E+01 0. -1.
          4   -1    0    0  501    0  0.00000000000E+00 -0.00000000000E+00 -0.21809812585E+03  0.21810182347E+03  0.12700000000E+01 0. -1.
         25    2    1    2    0    0  0.00000000000E+00  0.00000000000E+00 -0.20021441021E+03  0.23603057649E+03  0.12499849193E+03 0.  0.
    9000005    1    3    3    0    0  0.10710622309E+01  0.34799981705E+02 -0.19809663680E+03  0.20113543550E+03  0.10000000000E+01 0.  0.
    9000005    1    3    3    0    0 -0.10710622309E+01 -0.34799981705E+02 -0.21177734108E+01  0.34895140997E+02  0.10000000000E+01 0.  0.
<mgrwt>
<rscale>  0 0.12499849E+03</rscale>
<asrwt>0</asrwt>
<pdfrwt beam="2">  1        4 0.33557305E-01 0.12499849E+03</pdfrwt>
<pdfrwt beam="1">  1       -4 0.27550899E-02 0.12499849E+03</pdfrwt>
<totfact> 0.84394956E+03</totfact>
</mgrwt>
</event>
<event>
 5    1  0.3312706E-002  0.1249828E+03  0.7818608E-02  0.1235096E+00
         -4   -1    0    0    0  501 -0.00000000000E+00  0.00000000000E+00  0.44748004901E+02  0.44766023306E+02  0.12700000000E+01 0.  1.
          4   -1    0    0  501    0  0.00000000000E+00 -0.00000000000E+00 -0.87230157483E+02  0.87239402076E+02  0.12700000000E+01 0.  1.
         25    2    1    2    0    0  0.00000000000E+00  0.00000000000E+00 -0.42482152582E+02  0.13200542538E+03  0.12498279499E+03 0.  0.
    9000005    1    3    3    0    0  0.24660233306E+02 -0.54257454921E+02 -0.14202582682E+01  0.59623952022E+02  0.10000000000E+01 0.  0.
    9000005    1    3    3    0    0 -0.24660233306E+02  0.54257454921E+02 -0.41061894314E+02  0.72381473360E+02  0.10000000000E+01 0.  0.
<mgrwt>
<rscale>  0 0.12498279E+03</rscale>
<asrwt>0</asrwt>
<pdfrwt beam="2">  1        4 0.13422121E-01 0.12498279E+03</pdfrwt>
<pdfrwt beam="1">  1       -4 0.68864056E-02 0.12498279E+03</pdfrwt>
<totfact> 0.10305582E+04</totfact>
</mgrwt>
</event>
<event>
 5    1  0.3312706E-002  0.1249975E+03  0.7818608E-02  0.1235073E+00
          4   -1    0    0  501    0  0.00000000000E+00  0.00000000000E+00  0.11302381555E+02  0.11373509960E+02  0.12700000000E+01 0.  1.
         -4   -1    0    0    0  501 -0.00000000000E+00 -0.00000000000E+00 -0.34444279798E+03  0.34444513929E+03  0.12700000000E+01 0.  1.
         25    2    1    2    0    0  0.00000000000E+00  0.00000000000E+00 -0.33314041643E+03  0.35581864925E+03  0.12499749637E+03 0.  0.
    9000005    1    3    3    0    0 -0.23332322192E+02 -0.54089090988E+02 -0.22594542593E+03  0.23350024095E+03  0.10000000000E+01 0.  0.
    9000005    1    3    3    0    0  0.23332322192E+02  0.54089090988E+02 -0.10719499050E+03  0.12231840830E+03  0.10000000000E+01 0.  0.
<mgrwt>
<rscale>  0 0.12499750E+03</rscale>
<asrwt>0</asrwt>
<pdfrwt beam="1">  1        4 0.17444797E-02 0.12499750E+03</pdfrwt>
<pdfrwt beam="2">  1       -4 0.52996843E-01 0.12499750E+03</pdfrwt>
<totfact> 0.69092972E+03</totfact>
</mgrwt>
</event>
<event>
 5    1  0.3312706E-002  0.1249970E+03  0.7818608E-02  0.1235074E+00
          4   -1    0    0  501    0  0.00000000000E+00  0.00000000000E+00  0.40604891222E+02  0.40624747275E+02  0.12700000000E+01 0. -1.
         -4   -1    0    0    0  501 -0.00000000000E+00 -0.00000000000E+00 -0.96149289544E+02  0.96157676655E+02  0.12700000000E+01 0. -1.
         25    2    1    2    0    0  0.00000000000E+00  0.00000000000E+00 -0.55544398322E+02  0.13678242393E+03  0.12499700521E+03 0.  0.
    9000005    1    3    3    0    0 -0.75807031521E+01  0.61315269187E+02 -0.38039463683E+02  0.72560527100E+02  0.10000000000E+01 0.  0.
    9000005    1    3    3    0    0  0.75807031521E+01 -0.61315269187E+02 -0.17504934639E+02  0.64221896830E+02  0.10000000000E+01 0.  0.
<mgrwt>
<rscale>  0 0.12499701E+03</rscale>
<asrwt>0</asrwt>
<pdfrwt beam="1">  1        4 0.62490789E-02 0.12499701E+03</pdfrwt>
<pdfrwt beam="2">  1       -4 0.14794371E-01 0.12499701E+03</pdfrwt>
<totfact> 0.10201326E+04</totfact>
</mgrwt>
</event>
<event>
 5    1  0.3312706E-002  0.1249994E+03  0.7818608E-02  0.1235070E+00
         -4   -1    0    0    0  501 -0.00000000000E+00  0.00000000000E+00  0.80276608575E+03  0.80276709034E+03  0.12700000000E+01 0. -1.
          4   -1    0    0  501    0  0.00000000000E+00 -0.00000000000E+00 -0.47820494046E+01  0.49478173479E+01  0.12700000000E+01 0. -1.
         25    2    1    2    0    0  0.00000000000E+00  0.00000000000E+00  0.79798403634E+03  0.80771490768E+03  0.12499939934E+03 0.  0.
    9000005    1    3    3    0    0 -0.10189217460E+02  0.53718720352E+02  0.20345691364E+03  0.21067804057E+03  0.10000000000E+01 0.  0.
    9000005    1    3    3    0    0  0.10189217460E+02 -0.53718720352E+02  0.59452712270E+03  0.59703686711E+03  0.10000000000E+01 0.  0.
<mgrwt>
<rscale>  0 0.12499940E+03</rscale>
<asrwt>0</asrwt>
<pdfrwt beam="2">  1        4 0.74852764E-03 0.12499940E+03</pdfrwt>
<pdfrwt beam="1">  1       -4 0.12351546E+00 0.12499940E+03</pdfrwt>
<totfact> 0.37923077E+03</totfact>
</mgrwt>
</event>
<event>
 5    1  0.3312706E-002  0.1249884E+03  0.7818608E-02  0.1235087E+00
          4   -1    0    0  501    0  0.00000000000E+00  0.00000000000E+00  0.12909506111E+02  0.12971825162E+02  0.12700000000E+01 0.  1.
         -4   -1    0    0    0  501 -0.00000000000E+00 -0.00000000000E+00 -0.30173889782E+03  0.30174157048E+03  0.12700000000E+01 0.  1.
         25    2    1    2    0    0  0.00000000000E+00  0.00000000000E+00 -0.28882939171E+03  0.31471339564E+03  0.12498841500E+03 0.  0.
    9000005    1    3    3    0    0  0.29868429260E+02 -0.30317979725E+02 -0.29214499799E+02  0.51631288572E+02  0.10000000000E+01 0.  0.
    9000005    1    3    3    0    0 -0.29868429260E+02  0.30317979725E+02 -0.25961489191E+03  0.26308210707E+03  0.10000000000E+01 0.  0.
<mgrwt>
<rscale>  0 0.12498841E+03</rscale>
<asrwt>0</asrwt>
<pdfrwt beam="1">  1        4 0.19910775E-02 0.12498841E+03</pdfrwt>
<pdfrwt beam="2">  1       -4 0.46426363E-01 0.12498841E+03</pdfrwt>
<totfact> 0.73808301E+03</totfact>
</mgrwt>
</event>
<event>
 5    1  0.3312706E-002  0.1249990E+03  0.7818608E-02  0.1235071E+00
         -4   -1    0    0    0  501 -0.00000000000E+00  0.00000000000E+00  0.10195167800E+02  0.10273964496E+02  0.12700000000E+01 0. -1.
          4   -1    0    0  501    0  0.00000000000E+00 -0.00000000000E+00 -0.38158638532E+03  0.38158849872E+03  0.12700000000E+01 0. -1.
         25    2    1    2    0    0  0.00000000000E+00  0.00000000000E+00 -0.37139121752E+03  0.39186246322E+03  0.12499901453E+03 0.  0.
    9000005    1    3    3    0    0 -0.35860728025E+02  0.74300944011E+01 -0.34443520200E+03  0.34637812647E+03  0.10000000000E+01 0.  0.
    9000005    1    3    3    0    0  0.35860728025E+02 -0.74300944011E+01 -0.26956015512E+02  0.45484336750E+02  0.10000000000E+01 0.  0.
<mgrwt>
<rscale>  0 0.12499901E+03</rscale>
<asrwt>0</asrwt>
<pdfrwt beam="2">  1        4 0.58711811E-01 0.12499901E+03</pdfrwt>
<pdfrwt beam="1">  1       -4 0.15747115E-02 0.12499901E+03</pdfrwt>
<totfact> 0.65353434E+03</totfact>
</mgrwt>
</event>
<event>
 5    1  0.3312706E-002  0.1250000E+03  0.7818608E-02  0.1235069E+00
         -4   -1    0    0    0  501 -0.00000000000E+00  0.00000000000E+00  0.12531809684E+03  0.12532453190E+03  0.12700000000E+01 0. -1.
          4   -1    0    0  501    0  0.00000000000E+00 -0.00000000000E+00 -0.31150520138E+02  0.31176398202E+02  0.12700000000E+01 0. -1.
         25    2    1    2    0    0  0.00000000000E+00  0.00000000000E+00  0.94167576707E+02  0.15650093010E+03  0.12500003448E+03 0.  0.
    9000005    1    3    3    0    0 -0.41012739044E+02  0.50328947289E+01  0.10577978997E+03  0.11356821193E+03  0.10000000000E+01 0.  0.
    9000005    1    3    3    0    0  0.41012739044E+02 -0.50328947289E+01 -0.11612213267E+02  0.42932718179E+02  0.10000000000E+01 0.  0.
<mgrwt>
<rscale>  0 0.12500003E+03</rscale>
<asrwt>0</asrwt>
<pdfrwt beam="2">  1        4 0.47948733E-02 0.12500003E+03</pdfrwt>
<pdfrwt beam="1">  1       -4 0.19282193E-01 0.12500003E+03</pdfrwt>
<totfact> 0.98021575E+03</totfact>
</mgrwt>
</event>
<event>
 5    1  0.3312706E-002  0.1250016E+03  0.7818608E-02  0.1235067E+00
          4   -1    0    0  501    0  0.00000000000E+00  0.00000000000E+00  0.61633741780E+02  0.61646824945E+02  0.12700000000E+01 0. -1.
         -4   -1    0    0    0  501 -0.00000000000E+00 -0.00000000000E+00 -0.63353851752E+02  0.63366579770E+02  0.12700000000E+01 0. -1.
         25    2    1    2    0    0  0.00000000000E+00  0.00000000000E+00 -0.17201099716E+01  0.12501340472E+03  0.12500157031E+03 0.  0.
    9000005    1    3    3    0    0  0.24926306934E+02 -0.57221658978E+02  0.22561847368E+01  0.62463824756E+02  0.10000000000E+01 0.  0.
    9000005    1    3    3    0    0 -0.24926306934E+02  0.57221658978E+02 -0.39762947084E+01  0.62549579960E+02  0.10000000000E+01 0.  0.
<mgrwt>
<rscale>  0 0.12500157E+03</rscale>
<asrwt>0</asrwt>
<pdfrwt beam="1">  1        4 0.94840995E-02 0.12500157E+03</pdfrwt>
<pdfrwt beam="2">  1       -4 0.97487320E-02 0.12500157E+03</pdfrwt>
<totfact> 0.10452200E+04</totfact>
</mgrwt>
</event>
<event>
 5    1  0.3312706E-002  0.1250190E+03  0.7818608E-02  0.1235040E+00
         -4   -1    0    0    0  501 -0.00000000000E+00  0.00000000000E+00  0.51362880233E+03  0.51363037243E+03  0.12700000000E+01 0.  1.
          4   -1    0    0  501    0  0.00000000000E+00 -0.00000000000E+00 -0.75529176345E+01  0.76589467156E+01  0.12700000000E+01 0.  1.
         25    2    1    2    0    0  0.00000000000E+00  0.00000000000E+00  0.50607588469E+03  0.52128931914E+03  0.12501901129E+03 0.  0.
    9000005    1    3    3    0    0  0.69801485546E+01 -0.59113699835E+02  0.33251234738E+03  0.33779966421E+03  0.10000000000E+01 0.  0.
    9000005    1    3    3    0    0 -0.69801485546E+01  0.59113699835E+02  0.17356353731E+03  0.18348965493E+03  0.10000000000E+01 0.  0.
<mgrwt>
<rscale>  0 0.12501901E+03</rscale>
<asrwt>0</asrwt>
<pdfrwt beam="2">  1        4 0.11702638E-02 0.12501901E+03</pdfrwt>
<pdfrwt beam="1">  1       -4 0.79028120E-01 0.12501901E+03</pdfrwt>
<totfact> 0.54226930E+03</totfact>
</mgrwt>
</event>
<event>
 5    1  0.3312706E-002  0.1250135E+03  0.7818608E-02  0.1235048E+00
         -4   -1    0    0    0  501 -0.00000000000E+00  0.00000000000E+00  0.22544104423E+01  0.25875212932E+01  0.12700000000E+01 0. -1.
          4   -1    0    0  501    0  0.00000000000E+00 -0.00000000000E+00 -0.16135252356E+04  0.16135257354E+04  0.12700000000E+01 0. -1.
         25    2    1    2    0    0  0.00000000000E+00  0.00000000000E+00 -0.16112708252E+04  0.16161132567E+04  0.12501354517E+03 0.  0.
    9000005    1    3    3    0    0  0.44995210843E+02 -0.42165170943E+02 -0.93723333878E+03  0.93926024187E+03  0.10000000000E+01 0.  0.
    9000005    1    3    3    0    0 -0.44995210843E+02  0.42165170943E+02 -0.67403748638E+03  0.67685301483E+03  0.10000000000E+01 0.  0.
<mgrwt>
<rscale>  0 0.12501355E+03</rscale>
<asrwt>0</asrwt>
<pdfrwt beam="2">  1        4 0.24825945E+00 0.12501355E+03</pdfrwt>
<pdfrwt beam="1">  1       -4 0.37249602E-03 0.12501355E+03</pdfrwt>
<totfact> 0.15752067E+03</totfact>
</mgrwt>
</event>
<event>
 5    1  0.3312706E-002  0.1249932E+03  0.7818608E-02  0.1235080E+00
          4   -1    0    0  501    0  0.00000000000E+00  0.00000000000E+00  0.13523241437E+03  0.13523837767E+03  0.12700000000E+01 0.  1.
         -4   -1    0    0    0  501 -0.00000000000E+00 -0.00000000000E+00 -0.28861747251E+02  0.28889675568E+02  0.12700000000E+01 0.  1.
         25    2    1    2    0    0  0.00000000000E+00  0.00000000000E+00  0.10637066712E+03  0.16412805324E+03  0.12499319597E+03 0.  0.
    9000005    1    3    3    0    0 -0.22237068954E+02 -0.57443666663E+02  0.66992378303E+02  0.91012311398E+02  0.10000000000E+01 0.  0.
    9000005    1    3    3    0    0  0.22237068954E+02  0.57443666663E+02  0.39378288813E+02  0.73115741843E+02  0.10000000000E+01 0.  0.
<mgrwt>
<rscale>  0 0.12499320E+03</rscale>
<asrwt>0</asrwt>
<pdfrwt beam="1">  1        4 0.20807594E-01 0.12499320E+03</pdfrwt>
<pdfrwt beam="2">  1       -4 0.44428757E-02 0.12499320E+03</pdfrwt>
<totfact> 0.96567541E+03</totfact>
</mgrwt>
</event>
<event>
 5    1  0.3312706E-002  0.1250000E+03  0.7818608E-02  0.1235069E+00
         -4   -1    0    0    0  501 -0.00000000000E+00  0.00000000000E+00  0.99497271847E+00  0.16133414736E+01  0.12700000000E+01 0. -1.
          4   -1    0    0  501    0  0.00000000000E+00 -0.00000000000E+00 -0.29946120103E+04  0.29946122796E+04  0.12700000000E+01 0. -1.
         25    2    1    2    0    0  0.00000000000E+00  0.00000000000E+00 -0.29936170375E+04  0.29962256210E+04  0.12500001872E+03 0.  0.
    9000005    1    3    3    0    0  0.48097261521E+02 -0.39806096002E+02 -0.14316947593E+04  0.14330557406E+04  0.10000000000E+01 0.  0.
    9000005    1    3    3    0    0 -0.48097261521E+02  0.39806096002E+02 -0.15619222782E+04  0.15631698804E+04  0.10000000000E+01 0.  0.
<mgrwt>
<rscale>  0 0.12500002E+03</rscale>
<asrwt>0</asrwt>
<pdfrwt beam="2">  1        4 0.46075162E+00 0.12500002E+03</pdfrwt>
<pdfrwt beam="1">  1       -4 0.20066267E-03 0.12500002E+03</pdfrwt>
<totfact> 0.18322622E+02</totfact>
</mgrwt>
</event>
<event>
 5    1  0.3312706E-002  0.1250176E+03  0.7818608E-02  0.1235042E+00
          4   -1    0    0  501    0  0.00000000000E+00  0.00000000000E+00  0.21283630093E+02  0.21321487048E+02  0.12700000000E+01 0.  1.
         -4   -1    0    0    0  501 -0.00000000000E+00 -0.00000000000E+00 -0.18338159734E+03  0.18338599494E+03  0.12700000000E+01 0.  1.
         25    2    1    2    0    0  0.00000000000E+00  0.00000000000E+00 -0.16209796724E+03  0.20470748199E+03  0.12501760756E+03 0.  0.
    9000005    1    3    3    0    0  0.18850910210E+02  0.26565994153E+02 -0.16839077888E+03  0.17151548989E+03  0.10000000000E+01 0.  0.
    9000005    1    3    3    0    0 -0.18850910210E+02 -0.26565994153E+02  0.62928116385E+01  0.33191992098E+02  0.10000000000E+01 0.  0.
<mgrwt>
<rscale>  0 0.12501761E+03</rscale>
<asrwt>0</asrwt>
<pdfrwt beam="1">  1        4 0.32776551E-02 0.12501761E+03</pdfrwt>
<pdfrwt beam="2">  1       -4 0.28215803E-01 0.12501761E+03</pdfrwt>
<totfact> 0.89312400E+03</totfact>
</mgrwt>
</event>
<event>
 5    1  0.3312706E-002  0.1249993E+03  0.7818608E-02  0.1235070E+00
          4   -1    0    0  501    0  0.00000000000E+00  0.00000000000E+00  0.54404601864E+02  0.54419423040E+02  0.12700000000E+01 0. -1.
         -4   -1    0    0    0  501 -0.00000000000E+00 -0.00000000000E+00 -0.71768928000E+02  0.71780163877E+02  0.12700000000E+01 0. -1.
         25    2    1    2    0    0  0.00000000000E+00  0.00000000000E+00 -0.17364326136E+02  0.12619958692E+03  0.12499926366E+03 0.  0.
    9000005    1    3    3    0    0 -0.41915554096E+02 -0.28200789211E+02 -0.45818606294E+02  0.68209551164E+02  0.10000000000E+01 0.  0.
    9000005    1    3    3    0    0  0.41915554096E+02  0.28200789211E+02  0.28454280158E+02  0.57990035753E+02  0.10000000000E+01 0.  0.
<mgrwt>
<rscale>  0 0.12499926E+03</rscale>
<asrwt>0</asrwt>
<pdfrwt beam="1">  1        4 0.83719431E-02 0.12499926E+03</pdfrwt>
<pdfrwt beam="2">  1       -4 0.11043378E-01 0.12499926E+03</pdfrwt>
<totfact> 0.10426761E+04</totfact>
</mgrwt>
</event>
<event>
 5    1  0.3312706E-002  0.1250007E+03  0.7818608E-02  0.1235068E+00
          4   -1    0    0  501    0  0.00000000000E+00  0.00000000000E+00  0.77943173635E+02  0.77953519589E+02  0.12700000000E+01 0. -1.
         -4   -1    0    0    0  501 -0.00000000000E+00 -0.00000000000E+00 -0.50095484009E+02  0.50111579681E+02  0.12700000000E+01 0. -1.
         25    2    1    2    0    0  0.00000000000E+00  0.00000000000E+00  0.27847689627E+02  0.12806509927E+03  0.12500070333E+03 0.  0.
    9000005    1    3    3    0    0 -0.59459785479E+02 -0.30807208072E+01 -0.55240582102E+01  0.59803613177E+02  0.10000000000E+01 0.  0.
    9000005    1    3    3    0    0  0.59459785479E+02  0.30807208072E+01  0.33371747837E+02  0.68261486093E+02  0.10000000000E+01 0.  0.
<mgrwt>
<rscale>  0 0.12500070E+03</rscale>
<asrwt>0</asrwt>
<pdfrwt beam="1">  1        4 0.11993291E-01 0.12500070E+03</pdfrwt>
<pdfrwt beam="2">  1       -4 0.77090316E-02 0.12500070E+03</pdfrwt>
<totfact> 0.10385917E+04</totfact>
</mgrwt>
</event>
<event>
 5    1  0.3312706E-002  0.1249990E+03  0.7818608E-02  0.1235071E+00
         -4   -1    0    0    0  501 -0.00000000000E+00  0.00000000000E+00  0.70573263739E+02  0.70584689946E+02  0.12700000000E+01 0. -1.
          4   -1    0    0  501    0  0.00000000000E+00 -0.00000000000E+00 -0.55326195743E+02  0.55340770101E+02  0.12700000000E+01 0. -1.
         25    2    1    2    0    0  0.00000000000E+00  0.00000000000E+00  0.15247067996E+02  0.12592546005E+03  0.12499899362E+03 0.  0.
    9000005    1    3    3    0    0 -0.11166727035E+02  0.61432744719E+02  0.10193754230E+02  0.63273932561E+02  0.10000000000E+01 0.  0.
    9000005    1    3    3    0    0  0.11166727035E+02 -0.61432744719E+02  0.50533137658E+01  0.62651527487E+02  0.10000000000E+01 0.  0.
<mgrwt>
<rscale>  0 0.12499899E+03</rscale>
<asrwt>0</asrwt>
<pdfrwt beam="2">  1        4 0.85137224E-02 0.12499899E+03</pdfrwt>
<pdfrwt beam="1">  1       -4 0.10859425E-01 0.12499899E+03</pdfrwt>
<totfact> 0.10432828E+04</totfact>
</mgrwt>
</event>
<event>
 5    1  0.3312706E-002  0.1249907E+03  0.7818608E-02  0.1235084E+00
         -4   -1    0    0    0  501 -0.00000000000E+00  0.00000000000E+00  0.16115975820E+03  0.16116476216E+03  0.12700000000E+01 0.  1.
          4   -1    0    0  501    0  0.00000000000E+00 -0.00000000000E+00 -0.24212744912E+02  0.24246028874E+02  0.12700000000E+01 0.  1.
         25    2    1    2    0    0  0.00000000000E+00  0.00000000000E+00  0.13694701329E+03  0.18541079104E+03  0.12499070759E+03 0.  0.
    9000005    1    3    3    0    0 -0.12231749271E+02 -0.39360117990E+01  0.15918610612E+03  0.15970699503E+03  0.10000000000E+01 0.  0.
    9000005    1    3    3    0    0  0.12231749271E+02  0.39360117990E+01 -0.22239092834E+02  0.25703796008E+02  0.10000000000E+01 0.  0.
<mgrwt>
<rscale>  0 0.12499071E+03</rscale>
<asrwt>0</asrwt>
<pdfrwt beam="2">  1        4 0.37279829E-02 0.12499071E+03</pdfrwt>
<pdfrwt beam="1">  1       -4 0.24796754E-01 0.12499071E+03</pdfrwt>
<totfact> 0.92671307E+03</totfact>
</mgrwt>
</event>
<event>
 5    1  0.3312706E-002  0.1250237E+03  0.7818608E-02  0.1235032E+00
         -4   -1    0    0    0  501 -0.00000000000E+00  0.00000000000E+00  0.55013050537E+03  0.55013197129E+03  0.12700000000E+01 0.  1.
          4   -1    0    0  501    0  0.00000000000E+00 -0.00000000000E+00 -0.70450318164E+01  0.71585873812E+01  0.12700000000E+01 0.  1.
         25    2    1    2    0    0  0.00000000000E+00  0.00000000000E+00  0.54308547355E+03  0.55729055867E+03  0.12502373855E+03 0.  0.
    9000005    1    3    3    0    0  0.29202431505E+02  0.25135297453E+02  0.52165586552E+02  0.64859953779E+02  0.10000000000E+01 0.  0.
    9000005    1    3    3    0    0 -0.29202431505E+02 -0.25135297453E+02  0.49091988700E+03  0.49243060489E+03  0.10000000000E+01 0.  0.
<mgrwt>
<rscale>  0 0.12502374E+03</rscale>
<asrwt>0</asrwt>
<pdfrwt beam="2">  1        4 0.10926985E-02 0.12502374E+03</pdfrwt>
<pdfrwt beam="1">  1       -4 0.84644340E-01 0.12502374E+03</pdfrwt>
<totfact> 0.51652589E+03</totfact>
</mgrwt>
</event>
<event>
 4    1  0.3312706E-002  0.1248444E+03  0.7818608E-02  0.1235313E+00
          4   -1    0    0  501    0  0.00000000000E+00  0.00000000000E+00  0.22709032152E+02  0.22744516730E+02  0.12700000000E+01 0.  1.
         -4   -1    0    0    0  501 -0.00000000000E+00 -0.00000000000E+00 -0.17141330929E+03  0.17141801393E+03  0.12700000000E+01 0.  1.
    9000005    1    1    2    0    0  0.62710246706E+01  0.24431505749E+02 -0.16314110209E+03  0.16508253516E+03  0.10000000000E+01 0.  0.
    9000005    1    1    2    0    0 -0.62710246706E+01 -0.24431505749E+02  0.14436824956E+02  0.29079995502E+02  0.10000000000E+01 0.  0.
<mgrwt>
<rscale>  0 0.12484441E+03</rscale>
<asrwt>0</asrwt>
<pdfrwt beam="1">  1        4 0.34967888E-02 0.12484441E+03</pdfrwt>
<pdfrwt beam="2">  1       -4 0.26374369E-01 0.12484441E+03</pdfrwt>
<totfact> 0.91446254E+03</totfact>
</mgrwt>
</event>
<event>
 5    1  0.3312706E-002  0.1250038E+03  0.7818608E-02  0.1235063E+00
          4   -1    0    0  501    0  0.00000000000E+00  0.00000000000E+00  0.10629932306E+03  0.10630690939E+03  0.12700000000E+01 0.  1.
         -4   -1    0    0    0  501 -0.00000000000E+00 -0.00000000000E+00 -0.36730035179E+02  0.36751984766E+02  0.12700000000E+01 0.  1.
         25    2    1    2    0    0  0.00000000000E+00  0.00000000000E+00  0.69569287885E+02  0.14305889416E+03  0.12500384546E+03 0.  0.
    9000005    1    3    3    0    0 -0.22649588771E+02  0.56291213607E+02  0.51904799206E+02  0.79854948384E+02  0.10000000000E+01 0.  0.
    9000005    1    3    3    0    0  0.22649588771E+02 -0.56291213607E+02  0.17664488679E+02  0.63203945772E+02  0.10000000000E+01 0.  0.
<mgrwt>
<rscale>  0 0.12500385E+03</rscale>
<asrwt>0</asrwt>
<pdfrwt beam="1">  1        4 0.16356014E-01 0.12500385E+03</pdfrwt>
<pdfrwt beam="2">  1       -4 0.56530467E-02 0.12500385E+03</pdfrwt>
<totfact> 0.10069705E+04</totfact>
</mgrwt>
</event>
<event>
 5    1  0.3312706E-002  0.1250027E+03  0.7818608E-02  0.1235065E+00
         -4   -1    0    0    0  501 -0.00000000000E+00  0.00000000000E+00  0.12185915844E+02  0.12251915971E+02  0.12700000000E+01 0. -1.
          4   -1    0    0  501    0  0.00000000000E+00 -0.00000000000E+00 -0.31963554598E+03  0.31963806900E+03  0.12700000000E+01 0. -1.
         25    2    1    2    0    0  0.00000000000E+00  0.00000000000E+00 -0.30744963014E+03  0.33188998497E+03  0.12500274818E+03 0.  0.
    9000005    1    3    3    0    0 -0.32393244053E+01  0.22597647781E+01 -0.31931685289E+03  0.31934284445E+03  0.10000000000E+01 0.  0.
    9000005    1    3    3    0    0  0.32393244053E+01 -0.22597647781E+01  0.11867222754E+02  0.12547140525E+02  0.10000000000E+01 0.  0.
<mgrwt>
<rscale>  0 0.12500275E+03</rscale>
<asrwt>0</asrwt>
<pdfrwt beam="2">  1        4 0.49179964E-01 0.12500275E+03</pdfrwt>
<pdfrwt beam="1">  1       -4 0.18800275E-02 0.12500275E+03</pdfrwt>
<totfact> 0.71759568E+03</totfact>
</mgrwt>
</event>
<event>
 5    1  0.3312706E-002  0.1250007E+03  0.7818608E-02  0.1235068E+00
          4   -1    0    0  501    0  0.00000000000E+00  0.00000000000E+00  0.39180025128E+03  0.39180230960E+03  0.12700000000E+01 0. -1.
         -4   -1    0    0    0  501 -0.00000000000E+00 -0.00000000000E+00 -0.99275762214E+01  0.10008479886E+02  0.12700000000E+01 0. -1.
         25    2    1    2    0    0  0.00000000000E+00  0.00000000000E+00  0.38187267506E+03  0.40181078948E+03  0.12500068234E+03 0.  0.
    9000005    1    3    3    0    0  0.40599291071E+01 -0.43427842533E+02  0.33479349807E+03  0.33762426880E+03  0.10000000000E+01 0.  0.
    9000005    1    3    3    0    0 -0.40599291071E+01  0.43427842533E+02  0.47079176992E+02  0.64186520685E+02  0.10000000000E+01 0.  0.
<mgrwt>
<rscale>  0 0.12500068E+03</rscale>
<asrwt>0</asrwt>
<pdfrwt beam="1">  1        4 0.60283335E-01 0.12500068E+03</pdfrwt>
<pdfrwt beam="2">  1       -4 0.15337013E-02 0.12500068E+03</pdfrwt>
<totfact> 0.64376088E+03</totfact>
</mgrwt>
</event>
<event>
 5    1  0.3312706E-002  0.1249783E+03  0.7818608E-02  0.1235103E+00
          4   -1    0    0  501    0  0.00000000000E+00  0.00000000000E+00  0.36762934531E+03  0.36763153895E+03  0.12700000000E+01 0.  1.
         -4   -1    0    0    0  501 -0.00000000000E+00 -0.00000000000E+00 -0.10581621526E+02  0.10657561359E+02  0.12700000000E+01 0.  1.
         25    2    1    2    0    0  0.00000000000E+00  0.00000000000E+00  0.35704772379E+03  0.37828910031E+03  0.12497826353E+03 0.  0.
    9000005    1    3    3    0    0  0.28536835145E+02 -0.31487415869E+02  0.31716774143E+03  0.32000341330E+03  0.10000000000E+01 0.  0.
    9000005    1    3    3    0    0 -0.28536835145E+02  0.31487415869E+02  0.39879982355E+02  0.58285687015E+02  0.10000000000E+01 0.  0.
<mgrwt>
<rscale>  0 0.12497826E+03</rscale>
<asrwt>0</asrwt>
<pdfrwt beam="1">  1        4 0.56564382E-01 0.12497826E+03</pdfrwt>
<pdfrwt beam="2">  1       -4 0.16339517E-02 0.12497826E+03</pdfrwt>
<totfact> 0.66752617E+03</totfact>
</mgrwt>
</event>
<event>
 5    1  0.3312706E-002  0.1250003E+03  0.7818608E-02  0.1235069E+00
          4   -1    0    0  501    0  0.00000000000E+00  0.00000000000E+00  0.16179078924E+03  0.16179577368E+03  0.12700000000E+01 0. -1.
         -4   -1    0    0    0  501 -0.00000000000E+00 -0.00000000000E+00 -0.24121881578E+02  0.24155290742E+02  0.12700000000E+01 0. -1.
         25    2    1    2    0    0  0.00000000000E+00  0.00000000000E+00  0.13766890766E+03  0.18595106443E+03  0.12500028090E+03 0.  0.
    9000005    1    3    3    0    0 -0.42694788790E+02 -0.45191549604E+02  0.59408809631E+02  0.85997254649E+02  0.10000000000E+01 0.  0.
    9000005    1    3    3    0    0  0.42694788790E+02  0.45191549604E+02  0.78260098028E+02  0.99953809776E+02  0.10000000000E+01 0.  0.
<mgrwt>
<rscale>  0 0.12500028E+03</rscale>
<asrwt>0</asrwt>
<pdfrwt beam="1">  1        4 0.24893845E-01 0.12500028E+03</pdfrwt>
<pdfrwt beam="2">  1       -4 0.37140120E-02 0.12500028E+03</pdfrwt>
<totfact> 0.92556044E+03</totfact>
</mgrwt>
</event>
<event>
 5    1  0.3312706E-002  0.1250123E+03  0.7818608E-02  0.1235050E+00
          4   -1    0    0  501    0  0.00000000000E+00  0.00000000000E+00  0.54267228641E+02  0.54282087325E+02  0.12700000000E+01 0.  1.
         -4   -1    0    0    0  501 -0.00000000000E+00 -0.00000000000E+00 -0.71965601131E+02  0.71976806307E+02  0.12700000000E+01 0.  1.
         25    2    1    2    0    0  0.00000000000E+00  0.00000000000E+00 -0.17698372490E+02  0.12625889363E+03  0.12501230272E+03 0.  0.
    9000005    1    3    3    0    0 -0.49880829646E+02  0.35554297684E+02 -0.21375022948E+02  0.64885259158E+02  0.10000000000E+01 0.  0.
    9000005    1    3    3    0    0  0.49880829646E+02 -0.35554297684E+02  0.36766504585E+01  0.61373634474E+02  0.10000000000E+01 0.  0.
<mgrwt>
<rscale>  0 0.12501230E+03</rscale>
<asrwt>0</asrwt>
<pdfrwt beam="1">  1        4 0.83508093E-02 0.12501230E+03</pdfrwt>
<pdfrwt beam="2">  1       -4 0.11073636E-01 0.12501230E+03</pdfrwt>
<totfact> 0.10422397E+04</totfact>
</mgrwt>
</event>
<event>
 5    1  0.3312706E-002  0.1250009E+03  0.7818608E-02  0.1235068E+00
          4   -1    0    0  501    0  0.00000000000E+00  0.00000000000E+00  0.14674035877E+03  0.14674585442E+03  0.12700000000E+01 0. -1.
         -4   -1    0    0    0  501 -0.00000000000E+00 -0.00000000000E+00 -0.26599383151E+02  0.26629684264E+02  0.12700000000E+01 0. -1.
         25    2    1    2    0    0  0.00000000000E+00  0.00000000000E+00  0.12014097561E+03  0.17337553869E+03  0.12500089357E+03 0.  0.
    9000005    1    3    3    0    0 -0.79821863944E+01 -0.60927950020E+02  0.75846624164E+02  0.97619879074E+02  0.10000000000E+01 0.  0.
    9000005    1    3    3    0    0  0.79821863944E+01  0.60927950020E+02  0.44294351450E+02  0.75755659614E+02  0.10000000000E+01 0.  0.
<mgrwt>
<rscale>  0 0.12500089E+03</rscale>
<asrwt>0</asrwt>
<pdfrwt beam="1">  1        4 0.22578194E-01 0.12500089E+03</pdfrwt>
<pdfrwt beam="2">  1       -4 0.40949664E-02 0.12500089E+03</pdfrwt>
<totfact> 0.94821300E+03</totfact>
</mgrwt>
</event>
<event>
 5    1  0.3312706E-002  0.1250034E+03  0.7818608E-02  0.1235064E+00
          4   -1    0    0  501    0  0.00000000000E+00  0.00000000000E+00  0.64113332507E+02  0.64125909780E+02  0.12700000000E+01 0.  1.
         -4   -1    0    0    0  501 -0.00000000000E+00 -0.00000000000E+00 -0.60905375996E+02  0.60918615588E+02  0.12700000000E+01 0.  1.
         25    2    1    2    0    0  0.00000000000E+00  0.00000000000E+00  0.32079565111E+01  0.12504452537E+03  0.12500336931E+03 0.  0.
    9000005    1    3    3    0    0 -0.47932895348E+02  0.10979873582E+02  0.40182729513E+02  0.63511981794E+02  0.10000000000E+01 0.  0.
    9000005    1    3    3    0    0  0.47932895348E+02 -0.10979873582E+02 -0.36974773002E+02  0.61532543575E+02  0.10000000000E+01 0.  0.
<mgrwt>
<rscale>  0 0.12500337E+03</rscale>
<asrwt>0</asrwt>
<pdfrwt beam="1">  1        4 0.98655755E-02 0.12500337E+03</pdfrwt>
<pdfrwt beam="2">  1       -4 0.93720438E-02 0.12500337E+03</pdfrwt>
<totfact> 0.10451100E+04</totfact>
</mgrwt>
</event>
<event>
 5    1  0.3312706E-002  0.1250059E+03  0.7818608E-02  0.1235060E+00
          4   -1    0    0  501    0  0.00000000000E+00  0.00000000000E+00  0.39094292293E+03  0.39094498576E+03  0.12700000000E+01 0.  1.
         -4   -1    0    0    0  501 -0.00000000000E+00 -0.00000000000E+00 -0.99503581399E+01  0.10031078063E+02  0.12700000000E+01 0.  1.
         25    2    1    2    0    0  0.00000000000E+00  0.00000000000E+00  0.38099256479E+03  0.40097606382E+03  0.12500587719E+03 0.  0.
    9000005    1    3    3    0    0  0.28040931281E+02 -0.54043036704E+02  0.23570874838E+03  0.24344723804E+03  0.10000000000E+01 0.  0.
    9000005    1    3    3    0    0 -0.28040931281E+02  0.54043036704E+02  0.14528381641E+03  0.15752882579E+03  0.10000000000E+01 0.  0.
<mgrwt>
<rscale>  0 0.12500588E+03</rscale>
<asrwt>0</asrwt>
<pdfrwt beam="1">  1        4 0.60151440E-01 0.12500588E+03</pdfrwt>
<pdfrwt beam="2">  1       -4 0.15371920E-02 0.12500588E+03</pdfrwt>
<totfact> 0.64449600E+03</totfact>
</mgrwt>
</event>
<event>
 5    1  0.3312706E-002  0.1250024E+03  0.7818608E-02  0.1235066E+00
          4   -1    0    0  501    0  0.00000000000E+00  0.00000000000E+00  0.56421341642E+01  0.57833016458E+01  0.12700000000E+01 0. -1.
         -4   -1    0    0    0  501 -0.00000000000E+00 -0.00000000000E+00 -0.68366576982E+03  0.68366694942E+03  0.12700000000E+01 0. -1.
         25    2    1    2    0    0  0.00000000000E+00  0.00000000000E+00 -0.67802363566E+03  0.68945025106E+03  0.12500239270E+03 0.  0.
    9000005    1    3    3    0    0  0.14660197602E+02 -0.60715549662E+02 -0.35018009316E+03  0.35570830326E+03  0.10000000000E+01 0.  0.
    9000005    1    3    3    0    0 -0.14660197602E+02  0.60715549662E+02 -0.32784354249E+03  0.33374194780E+03  0.10000000000E+01 0.  0.
<mgrwt>
<rscale>  0 0.12500239E+03</rscale>
<asrwt>0</asrwt>
<pdfrwt beam="1">  1        4 0.87897096E-03 0.12500239E+03</pdfrwt>
<pdfrwt beam="2">  1       -4 0.10519023E+00 0.12500239E+03</pdfrwt>
<totfact> 0.43647216E+03</totfact>
</mgrwt>
</event>
<event>
 5    1  0.3312706E-002  0.1250349E+03  0.7818608E-02  0.1235015E+00
          4   -1    0    0  501    0  0.00000000000E+00  0.00000000000E+00  0.33776360551E+01  0.36085073535E+01  0.12700000000E+01 0. -1.
         -4   -1    0    0    0  501 -0.00000000000E+00 -0.00000000000E+00 -0.11186790489E+04  0.11186797698E+04  0.12700000000E+01 0. -1.
         25    2    1    2    0    0  0.00000000000E+00  0.00000000000E+00 -0.11153014129E+04  0.11222882772E+04  0.12503493724E+03 0.  0.
    9000005    1    3    3    0    0 -0.38398374624E+02  0.28210762957E+02 -0.92082699785E+03  0.92205945703E+03  0.10000000000E+01 0.  0.
    9000005    1    3    3    0    0  0.38398374624E+02 -0.28210762957E+02 -0.19447441501E+03  0.20022882014E+03  0.10000000000E+01 0.  0.
<mgrwt>
<rscale>  0 0.12503494E+03</rscale>
<asrwt>0</asrwt>
<pdfrwt beam="1">  1        4 0.53745199E-03 0.12503494E+03</pdfrwt>
<pdfrwt beam="2">  1       -4 0.17212200E+00 0.12503494E+03</pdfrwt>
<totfact> 0.26819676E+03</totfact>
</mgrwt>
</event>
<event>
 5    1  0.3312706E-002  0.1250024E+03  0.7818608E-02  0.1235066E+00
         -4   -1    0    0    0  501 -0.00000000000E+00  0.00000000000E+00  0.30590844845E+03  0.30591108469E+03  0.12700000000E+01 0. -1.
          4   -1    0    0  501    0  0.00000000000E+00 -0.00000000000E+00 -0.12735550601E+02  0.12798716698E+02  0.12700000000E+01 0. -1.
         25    2    1    2    0    0  0.00000000000E+00  0.00000000000E+00  0.29317289785E+03  0.31870980138E+03  0.12500235784E+03 0.  0.
    9000005    1    3    3    0    0 -0.40133965779E+02 -0.28617324722E+02  0.24453045306E+03  0.24945105523E+03  0.10000000000E+01 0.  0.
    9000005    1    3    3    0    0  0.40133965779E+02  0.28617324722E+02  0.48642444795E+02  0.69258746156E+02  0.10000000000E+01 0.  0.
<mgrwt>
<rscale>  0 0.12500236E+03</rscale>
<asrwt>0</asrwt>
<pdfrwt beam="2">  1        4 0.19643772E-02 0.12500236E+03</pdfrwt>
<pdfrwt beam="1">  1       -4 0.47067900E-01 0.12500236E+03</pdfrwt>
<totfact> 0.73306007E+03</totfact>
</mgrwt>
</event>
<event>
 5    1  0.3312706E-002  0.1250100E+03  0.7818608E-02  0.1235054E+00
         -4   -1    0    0    0  501 -0.00000000000E+00  0.00000000000E+00  0.34622101098E+02  0.34645386193E+02  0.12700000000E+01 0.  1.
          4   -1    0    0  501    0  0.00000000000E+00 -0.00000000000E+00 -0.11277856887E+03  0.11278571938E+03  0.12700000000E+01 0.  1.
         25    2    1    2    0    0  0.00000000000E+00  0.00000000000E+00 -0.78156467771E+02  0.14743110557E+03  0.12500998935E+03 0.  0.
    9000005    1    3    3    0    0 -0.45213900871E+02  0.27262929602E+02  0.36073450337E+00  0.52808089265E+02  0.10000000000E+01 0.  0.
    9000005    1    3    3    0    0  0.45213900871E+02 -0.27262929602E+02 -0.78517202275E+02  0.94623016309E+02  0.10000000000E+01 0.  0.
<mgrwt>
<rscale>  0 0.12500999E+03</rscale>
<asrwt>0</asrwt>
<pdfrwt beam="2">  1        4 0.17352890E-01 0.12500999E+03</pdfrwt>
<pdfrwt beam="1">  1       -4 0.53288184E-02 0.12500999E+03</pdfrwt>
<totfact> 0.99795812E+03</totfact>
</mgrwt>
</event>
<event>
 5    1  0.3312706E-002  0.1250063E+03  0.7818608E-02  0.1235059E+00
          4   -1    0    0  501    0  0.00000000000E+00  0.00000000000E+00  0.45222115001E+03  0.45222293332E+03  0.12700000000E+01 0.  1.
         -4   -1    0    0    0  501 -0.00000000000E+00 -0.00000000000E+00 -0.85903080158E+01  0.86836796236E+01  0.12700000000E+01 0.  1.
         25    2    1    2    0    0  0.00000000000E+00  0.00000000000E+00  0.44363084200E+03  0.46090661294E+03  0.12500632737E+03 0.  0.
    9000005    1    3    3    0    0 -0.48578923873E+02  0.27372856551E+02  0.11776040424E+03  0.13029849549E+03  0.10000000000E+01 0.  0.
    9000005    1    3    3    0    0  0.48578923873E+02 -0.27372856551E+02  0.32587043776E+03  0.33060811745E+03  0.10000000000E+01 0.  0.
<mgrwt>
<rscale>  0 0.12500633E+03</rscale>
<asrwt>0</asrwt>
<pdfrwt beam="1">  1        4 0.69579805E-01 0.12500633E+03</pdfrwt>
<pdfrwt beam="2">  1       -4 0.13289054E-02 0.12500633E+03</pdfrwt>
<totfact> 0.59022240E+03</totfact>
</mgrwt>
</event>
<event>
 5    1  0.3312706E-002  0.1250037E+03  0.7818608E-02  0.1235063E+00
         -4   -1    0    0    0  501 -0.00000000000E+00  0.00000000000E+00  0.39018795260E+01  0.41033600665E+01  0.12700000000E+01 0. -1.
          4   -1    0    0  501    0  0.00000000000E+00 -0.00000000000E+00 -0.97577994729E+03  0.97578077375E+03  0.12700000000E+01 0. -1.
         25    2    1    2    0    0  0.00000000000E+00  0.00000000000E+00 -0.97187806776E+03  0.97988413382E+03  0.12500374842E+03 0.  0.
    9000005    1    3    3    0    0 -0.36199252963E+02 -0.46722602286E+02 -0.64506875827E+03  0.64777163444E+03  0.10000000000E+01 0.  0.
    9000005    1    3    3    0    0  0.36199252963E+02  0.46722602286E+02 -0.32680930949E+03  0.33211249938E+03  0.10000000000E+01 0.  0.
<mgrwt>
<rscale>  0 0.12500375E+03</rscale>
<asrwt>0</asrwt>
<pdfrwt beam="2">  1        4 0.15013536E+00 0.12500375E+03</pdfrwt>
<pdfrwt beam="1">  1       -4 0.61585201E-03 0.12500375E+03</pdfrwt>
<totfact> 0.31275639E+03</totfact>
</mgrwt>
</event>
<event>
 5    1  0.3312706E-002  0.1249983E+03  0.7818608E-02  0.1235072E+00
         -4   -1    0    0    0  501 -0.00000000000E+00  0.00000000000E+00  0.28704238102E+02  0.28732319520E+02  0.12700000000E+01 0. -1.
          4   -1    0    0  501    0  0.00000000000E+00 -0.00000000000E+00 -0.13598493074E+03  0.13599086105E+03  0.12700000000E+01 0. -1.
         25    2    1    2    0    0  0.00000000000E+00  0.00000000000E+00 -0.10728069264E+03  0.16472318057E+03  0.12499831680E+03 0.  0.
    9000005    1    3    3    0    0  0.10219385839E+02 -0.53794409739E+02 -0.13955639507E+02  0.56515787530E+02  0.10000000000E+01 0.  0.
    9000005    1    3    3    0    0 -0.10219385839E+02  0.53794409739E+02 -0.93325053130E+02  0.10820739304E+03  0.10000000000E+01 0.  0.
<mgrwt>
<rscale>  0 0.12499832E+03</rscale>
<asrwt>0</asrwt>
<pdfrwt beam="2">  1        4 0.20923374E-01 0.12499832E+03</pdfrwt>
<pdfrwt beam="1">  1       -4 0.44186530E-02 0.12499832E+03</pdfrwt>
<totfact> 0.96443490E+03</totfact>
</mgrwt>
</event>
<event>
 5    1  0.3312706E-002  0.1250084E+03  0.7818608E-02  0.1235056E+00
          4   -1    0    0  501    0  0.00000000000E+00  0.00000000000E+00  0.23187440136E+04  0.23187443614E+04  0.12700000000E+01 0.  1.
         -4   -1    0    0    0  501 -0.00000000000E+00 -0.00000000000E+00 -0.14451486510E+01  0.19238904916E+01  0.12700000000E+01 0.  1.
         25    2    1    2    0    0  0.00000000000E+00  0.00000000000E+00  0.23172988650E+04  0.23206682519E+04  0.12500842302E+03 0.  0.
    9000005    1    3    3    0    0  0.69979293058E+01  0.12405886138E+02  0.28997257593E+02  0.32322097292E+02  0.10000000000E+01 0.  0.
    9000005    1    3    3    0    0 -0.69979293058E+01 -0.12405886138E+02  0.22883016074E+04  0.22883461546E+04  0.10000000000E+01 0.  0.
<mgrwt>
<rscale>  0 0.12500842E+03</rscale>
<asrwt>0</asrwt>
<pdfrwt beam="1">  1        4 0.35676461E+00 0.12500842E+03</pdfrwt>
<pdfrwt beam="2">  1       -4 0.25918513E-03 0.12500842E+03</pdfrwt>
<totfact> 0.62341610E+02</totfact>
</mgrwt>
</event>
<event>
 5    1  0.3312706E-002  0.1249989E+03  0.7818608E-02  0.1235071E+00
          4   -1    0    0  501    0  0.00000000000E+00  0.00000000000E+00  0.11168866454E+03  0.11169588482E+03  0.12700000000E+01 0. -1.
         -4   -1    0    0    0  501 -0.00000000000E+00 -0.00000000000E+00 -0.34953974250E+02  0.34977038409E+02  0.12700000000E+01 0. -1.
         25    2    1    2    0    0  0.00000000000E+00  0.00000000000E+00  0.76734690285E+02  0.14667292323E+03  0.12499893486E+03 0.  0.
    9000005    1    3    3    0    0 -0.32232904760E+02 -0.36919795760E+02  0.83860397750E+02  0.97137005199E+02  0.10000000000E+01 0.  0.
    9000005    1    3    3    0    0  0.32232904760E+02  0.36919795760E+02 -0.71257074643E+01  0.49535918030E+02  0.10000000000E+01 0.  0.
<mgrwt>
<rscale>  0 0.12499893E+03</rscale>
<asrwt>0</asrwt>
<pdfrwt beam="1">  1        4 0.17185201E-01 0.12499893E+03</pdfrwt>
<pdfrwt beam="2">  1       -4 0.53798641E-02 0.12499893E+03</pdfrwt>
<totfact> 0.99973482E+03</totfact>
</mgrwt>
</event>
<event>
 4    1  0.3312706E-002  0.1279367E+03  0.7818608E-02  0.1230550E+00
          4   -1    0    0  501    0  0.00000000000E+00  0.00000000000E+00  0.23122805581E+03  0.23123154347E+03  0.12700000000E+01 0. -1.
         -4   -1    0    0    0  501 -0.00000000000E+00 -0.00000000000E+00 -0.17670198340E+02  0.17715778543E+02  0.12700000000E+01 0. -1.
    9000005    1    1    2    0    0  0.14059352104E+02 -0.57358228026E+02  0.58983499220E+02  0.83472659501E+02  0.10000000000E+01 0.  0.
    9000005    1    1    2    0    0 -0.14059352104E+02  0.57358228026E+02  0.15457435825E+03  0.16547466251E+03  0.10000000000E+01 0.  0.
<mgrwt>
<rscale>  0 0.12793674E+03</rscale>
<asrwt>0</asrwt>
<pdfrwt beam="1">  1        4 0.35577321E-01 0.12793674E+03</pdfrwt>
<pdfrwt beam="2">  1       -4 0.27222665E-02 0.12793674E+03</pdfrwt>
<totfact> 0.77310592E+03</totfact>
</mgrwt>
</event>
<event>
 4    1  0.3312706E-002  0.1248894E+03  0.7818608E-02  0.1235242E+00
          4   -1    0    0  501    0  0.00000000000E+00  0.00000000000E+00  0.61789400880E+03  0.61789531396E+03  0.12700000000E+01 0.  1.
         -4   -1    0    0    0  501 -0.00000000000E+00 -0.00000000000E+00 -0.62454753812E+01  0.63732929273E+01  0.12700000000E+01 0.  1.
    9000005    1    1    2    0    0  0.30790092067E+02 -0.18398487234E+02  0.50368075961E+02  0.61842357475E+02  0.10000000000E+01 0.  0.
    9000005    1    1    2    0    0 -0.30790092067E+02  0.18398487234E+02  0.56128045745E+03  0.56242624941E+03  0.10000000000E+01 0.  0.
<mgrwt>
<rscale>  0 0.12488941E+03</rscale>
<asrwt>0</asrwt>
<pdfrwt beam="1">  1        4 0.95070580E-01 0.12488941E+03</pdfrwt>
<pdfrwt beam="2">  1       -4 0.97077456E-03 0.12488941E+03</pdfrwt>
<totfact> 0.47485660E+03</totfact>
</mgrwt>
</event>
<event>
 5    1  0.3312706E-002  0.1249969E+03  0.7818608E-02  0.1235074E+00
          4   -1    0    0  501    0  0.00000000000E+00  0.00000000000E+00  0.73080334007E+02  0.73091368291E+02  0.12700000000E+01 0. -1.
         -4   -1    0    0    0  501 -0.00000000000E+00 -0.00000000000E+00 -0.53426152321E+02  0.53441244857E+02  0.12700000000E+01 0. -1.
         25    2    1    2    0    0  0.00000000000E+00  0.00000000000E+00  0.19654181686E+02  0.12653261315E+03  0.12499686129E+03 0.  0.
    9000005    1    3    3    0    0 -0.22670713208E+02  0.57937348603E+02  0.15760525123E+02  0.64187940866E+02  0.10000000000E+01 0.  0.
    9000005    1    3    3    0    0  0.22670713208E+02 -0.57937348603E+02  0.38936565630E+01  0.62344672282E+02  0.10000000000E+01 0.  0.
<mgrwt>
<rscale>  0 0.12499686E+03</rscale>
<asrwt>0</asrwt>
<pdfrwt beam="1">  1        4 0.11245138E-01 0.12499686E+03</pdfrwt>
<pdfrwt beam="2">  1       -4 0.82214178E-02 0.12499686E+03</pdfrwt>
<totfact> 0.10420055E+04</totfact>
</mgrwt>
</event>
<event>
 5    1  0.3312706E-002  0.1249997E+03  0.7818608E-02  0.1235070E+00
         -4   -1    0    0    0  501 -0.00000000000E+00  0.00000000000E+00  0.25937707364E+03  0.25938018280E+03  0.12700000000E+01 0.  1.
          4   -1    0    0  501    0  0.00000000000E+00 -0.00000000000E+00 -0.15030080206E+02  0.15083640509E+02  0.12700000000E+01 0.  1.
         25    2    1    2    0    0  0.00000000000E+00  0.00000000000E+00  0.24434699343E+03  0.27446382331E+03  0.12499974842E+03 0.  0.
    9000005    1    3    3    0    0  0.42263540401E+02  0.43993241484E+02  0.92419967724E+02  0.11074322813E+03  0.10000000000E+01 0.  0.
    9000005    1    3    3    0    0 -0.42263540401E+02 -0.43993241484E+02  0.15192702571E+03  0.16372059518E+03  0.10000000000E+01 0.  0.
<mgrwt>
<rscale>  0 0.12499975E+03</rscale>
<asrwt>0</asrwt>
<pdfrwt beam="2">  1        4 0.23166793E-02 0.12499975E+03</pdfrwt>
<pdfrwt beam="1">  1       -4 0.39908524E-01 0.12499975E+03</pdfrwt>
<totfact> 0.78918376E+03</totfact>
</mgrwt>
</event>
<event>
 4    1  0.3312706E-002  0.1250640E+03  0.7818608E-02  0.1234969E+00
         -4   -1    0    0    0  501 -0.00000000000E+00  0.00000000000E+00  0.22208096545E+03  0.22208459675E+03  0.12700000000E+01 0.  1.
          4   -1    0    0  501    0  0.00000000000E+00 -0.00000000000E+00 -0.17580631674E+02  0.17626443489E+02  0.12700000000E+01 0.  1.
    9000005    1    1    2    0    0  0.18237727438E+02 -0.24698647693E+02 -0.21463824749E+01  0.30793584684E+02  0.10000000000E+01 0.  0.
    9000005    1    1    2    0    0 -0.18237727438E+02  0.24698647693E+02  0.20664671625E+03  0.20891745556E+03  0.10000000000E+01 0.  0.
<mgrwt>
<rscale>  0 0.12506397E+03</rscale>
<asrwt>0</asrwt>
<pdfrwt beam="2">  1        4 0.27085158E-02 0.12506397E+03</pdfrwt>
<pdfrwt beam="1">  1       -4 0.34170106E-01 0.12506397E+03</pdfrwt>
<totfact> 0.83720965E+03</totfact>
</mgrwt>
</event>
<event>
 5    1  0.3312706E-002  0.1250028E+03  0.7818608E-02  0.1235065E+00
         -4   -1    0    0    0  501 -0.00000000000E+00  0.00000000000E+00  0.24454100664E+02  0.24487056567E+02  0.12700000000E+01 0. -1.
          4   -1    0    0  501    0  0.00000000000E+00 -0.00000000000E+00 -0.15960216702E+03  0.15960721981E+03  0.12700000000E+01 0. -1.
         25    2    1    2    0    0  0.00000000000E+00  0.00000000000E+00 -0.13514806635E+03  0.18409427638E+03  0.12500281100E+03 0.  0.
    9000005    1    3    3    0    0 -0.53584448646E+01 -0.41288546920E+02  0.10612268257E+01  0.41660331738E+02  0.10000000000E+01 0.  0.
    9000005    1    3    3    0    0  0.53584448646E+01  0.41288546920E+02 -0.13620929318E+03  0.14243394464E+03  0.10000000000E+01 0.  0.
<mgrwt>
<rscale>  0 0.12500281E+03</rscale>
<asrwt>0</asrwt>
<pdfrwt beam="2">  1        4 0.24557103E-01 0.12500281E+03</pdfrwt>
<pdfrwt beam="1">  1       -4 0.37650932E-02 0.12500281E+03</pdfrwt>
<totfact> 0.92879317E+03</totfact>
</mgrwt>
</event>
<event>
 5    1  0.3312706E-002  0.1249991E+03  0.7818608E-02  0.1235071E+00
          4   -1    0    0  501    0  0.00000000000E+00  0.00000000000E+00  0.72107657208E+01  0.73217513124E+01  0.12700000000E+01 0.  1.
         -4   -1    0    0    0  501 -0.00000000000E+00 -0.00000000000E+00 -0.53746797374E+03  0.53746947420E+03  0.12700000000E+01 0.  1.
         25    2    1    2    0    0  0.00000000000E+00  0.00000000000E+00 -0.53025720802E+03  0.54479122551E+03  0.12499909095E+03 0.  0.
    9000005    1    3    3    0    0  0.95877459727E+01 -0.21974715936E+00 -0.53426298561E+03  0.53434998920E+03  0.10000000000E+01 0.  0.
    9000005    1    3    3    0    0 -0.95877459727E+01  0.21974715936E+00  0.40057775918E+01  0.10441236314E+02  0.10000000000E+01 0.  0.
<mgrwt>
<rscale>  0 0.12499909E+03</rscale>
<asrwt>0</asrwt>
<pdfrwt beam="1">  1        4 0.11180018E-02 0.12499909E+03</pdfrwt>
<pdfrwt beam="2">  1       -4 0.82696002E-01 0.12499909E+03</pdfrwt>
<totfact> 0.52550291E+03</totfact>
</mgrwt>
</event>
<event>
 5    1  0.3312706E-002  0.1250002E+03  0.7818608E-02  0.1235069E+00
         -4   -1    0    0    0  501 -0.00000000000E+00  0.00000000000E+00  0.50429905417E+02  0.50445894385E+02  0.12700000000E+01 0.  1.
          4   -1    0    0  501    0  0.00000000000E+00 -0.00000000000E+00 -0.77425825184E+02  0.77436240259E+02  0.12700000000E+01 0.  1.
         25    2    1    2    0    0  0.00000000000E+00  0.00000000000E+00 -0.26995919767E+02  0.12788213464E+03  0.12500024271E+03 0.  0.
    9000005    1    3    3    0    0  0.44904597341E+01  0.62298813030E+02 -0.15533514504E+02  0.64370772921E+02  0.10000000000E+01 0.  0.
    9000005    1    3    3    0    0 -0.44904597341E+01 -0.62298813030E+02 -0.11462405263E+02  0.63511361724E+02  0.10000000000E+01 0.  0.
<mgrwt>
<rscale>  0 0.12500024E+03</rscale>
<asrwt>0</asrwt>
<pdfrwt beam="2">  1        4 0.11913696E-01 0.12500024E+03</pdfrwt>
<pdfrwt beam="1">  1       -4 0.77604781E-02 0.12500024E+03</pdfrwt>
<totfact> 0.10389977E+04</totfact>
</mgrwt>
</event>
<event>
 5    1  0.3312706E-002  0.1249985E+03  0.7818608E-02  0.1235072E+00
         -4   -1    0    0    0  501 -0.00000000000E+00  0.00000000000E+00  0.27514365283E+02  0.27543659832E+02  0.12700000000E+01 0. -1.
          4   -1    0    0  501    0  0.00000000000E+00 -0.00000000000E+00 -0.14186030055E+03  0.14186598525E+03  0.12700000000E+01 0. -1.
         25    2    1    2    0    0  0.00000000000E+00  0.00000000000E+00 -0.11434593527E+03  0.16940964508E+03  0.12499853974E+03 0.  0.
    9000005    1    3    3    0    0  0.51233861950E+02 -0.30551808256E+02 -0.31932581833E+02  0.67668392773E+02  0.10000000000E+01 0.  0.
    9000005    1    3    3    0    0 -0.51233861950E+02  0.30551808256E+02 -0.82413353432E+02  0.10174125231E+03  0.10000000000E+01 0.  0.
<mgrwt>
<rscale>  0 0.12499854E+03</rscale>
<asrwt>0</asrwt>
<pdfrwt beam="2">  1        4 0.21827352E-01 0.12499854E+03</pdfrwt>
<pdfrwt beam="1">  1       -4 0.42356701E-02 0.12499854E+03</pdfrwt>
<totfact> 0.95561865E+03</totfact>
</mgrwt>
</event>
<event>
 5    1  0.3312706E-002  0.1250011E+03  0.7818608E-02  0.1235067E+00
          4   -1    0    0  501    0  0.00000000000E+00  0.00000000000E+00  0.66062578666E+01  0.67272240189E+01  0.12700000000E+01 0. -1.
         -4   -1    0    0    0  501 -0.00000000000E+00 -0.00000000000E+00 -0.58582001815E+03  0.58582139476E+03  0.12700000000E+01 0. -1.
         25    2    1    2    0    0  0.00000000000E+00  0.00000000000E+00 -0.57921376028E+03  0.59254861878E+03  0.12500114208E+03 0.  0.
    9000005    1    3    3    0    0  0.40041021856E+02  0.45580701003E+02 -0.36062315063E+03  0.36569241242E+03  0.10000000000E+01 0.  0.
    9000005    1    3    3    0    0 -0.40041021856E+02 -0.45580701003E+02 -0.21859060966E+03  0.22685620636E+03  0.10000000000E+01 0.  0.
<mgrwt>
<rscale>  0 0.12500114E+03</rscale>
<asrwt>0</asrwt>
<pdfrwt beam="1">  1        4 0.10257588E-02 0.12500114E+03</pdfrwt>
<pdfrwt beam="2">  1       -4 0.90135527E-01 0.12500114E+03</pdfrwt>
<totfact> 0.49340147E+03</totfact>
</mgrwt>
</event>
<event>
 5    1  0.3312706E-002  0.1249958E+03  0.7818608E-02  0.1235076E+00
          4   -1    0    0  501    0  0.00000000000E+00  0.00000000000E+00  0.30193449527E+03  0.30193716621E+03  0.12700000000E+01 0. -1.
         -4   -1    0    0    0  501 -0.00000000000E+00 -0.00000000000E+00 -0.12902625512E+02  0.12964977636E+02  0.12700000000E+01 0. -1.
         25    2    1    2    0    0  0.00000000000E+00  0.00000000000E+00  0.28903186976E+03  0.31490214384E+03  0.12499575376E+03 0.  0.
    9000005    1    3    3    0    0  0.18413455994E+02  0.27435736840E+02  0.10892878063E+02  0.34805600269E+02  0.10000000000E+01 0.  0.
    9000005    1    3    3    0    0 -0.18413455994E+02 -0.27435736840E+02  0.27813899170E+03  0.28009654357E+03  0.10000000000E+01 0.  0.
<mgrwt>
<rscale>  0 0.12499575E+03</rscale>
<asrwt>0</asrwt>
<pdfrwt beam="1">  1        4 0.46456461E-01 0.12499575E+03</pdfrwt>
<pdfrwt beam="2">  1       -4 0.19900212E-02 0.12499575E+03</pdfrwt>
<totfact> 0.73773524E+03</totfact>
</mgrwt>
</event>
<event>
 5    1  0.3312706E-002  0.1249871E+03  0.7818608E-02  0.1235089E+00
          4   -1    0    0  501    0  0.00000000000E+00  0.00000000000E+00  0.55066797939E+03  0.55066944388E+03  0.12700000000E+01 0.  1.
         -4   -1    0    0    0  501 -0.00000000000E+00 -0.00000000000E+00 -0.70338548150E+01  0.71475879539E+01  0.12700000000E+01 0.  1.
         25    2    1    2    0    0  0.00000000000E+00  0.00000000000E+00  0.54363412457E+03  0.55781703183E+03  0.12498711775E+03 0.  0.
    9000005    1    3    3    0    0 -0.34566617761E+02  0.45800546461E+02  0.38221681123E+03  0.38650127025E+03  0.10000000000E+01 0.  0.
    9000005    1    3    3    0    0  0.34566617761E+02 -0.45800546461E+02  0.16141731334E+03  0.17131576158E+03  0.10000000000E+01 0.  0.
<mgrwt>
<rscale>  0 0.12498712E+03</rscale>
<asrwt>0</asrwt>
<pdfrwt beam="1">  1        4 0.84726984E-01 0.12498712E+03</pdfrwt>
<pdfrwt beam="2">  1       -4 0.10909932E-02 0.12498712E+03</pdfrwt>
<totfact> 0.51658005E+03</totfact>
</mgrwt>
</event>
<event>
 5    1  0.3312706E-002  0.1250022E+03  0.7818608E-02  0.1235066E+00
         -4   -1    0    0    0  501 -0.00000000000E+00  0.00000000000E+00  0.15289785409E+02  0.15342439110E+02  0.12700000000E+01 0.  1.
          4   -1    0    0  501    0  0.00000000000E+00 -0.00000000000E+00 -0.25499671422E+03  0.25499987679E+03  0.12700000000E+01 0.  1.
         25    2    1    2    0    0  0.00000000000E+00  0.00000000000E+00 -0.23970692881E+03  0.27034231590E+03  0.12500222417E+03 0.  0.
    9000005    1    3    3    0    0 -0.20424000553E+02 -0.38744754859E+02 -0.23447166420E+02  0.49689691495E+02  0.10000000000E+01 0.  0.
    9000005    1    3    3    0    0  0.20424000553E+02  0.38744754859E+02 -0.21625976239E+03  0.22065262441E+03  0.10000000000E+01 0.  0.
<mgrwt>
<rscale>  0 0.12500222E+03</rscale>
<asrwt>0</asrwt>
<pdfrwt beam="2">  1        4 0.39234554E-01 0.12500222E+03</pdfrwt>
<pdfrwt beam="1">  1       -4 0.23565684E-02 0.12500222E+03</pdfrwt>
<totfact> 0.79472290E+03</totfact>
</mgrwt>
</event>
<event>
 5    1  0.3312706E-002  0.1249980E+03  0.7818608E-02  0.1235072E+00
         -4   -1    0    0    0  501 -0.00000000000E+00  0.00000000000E+00  0.57592620033E+01  0.58976265415E+01  0.12700000000E+01 0. -1.
          4   -1    0    0  501    0  0.00000000000E+00 -0.00000000000E+00 -0.67004414841E+03  0.67004535199E+03  0.12700000000E+01 0. -1.
         25    2    1    2    0    0  0.00000000000E+00  0.00000000000E+00 -0.66428488641E+03  0.67594297853E+03  0.12499799963E+03 0.  0.
    9000005    1    3    3    0    0 -0.39479143461E+02  0.45634127667E+02 -0.24427076228E+03  0.25161534468E+03  0.10000000000E+01 0.  0.
    9000005    1    3    3    0    0  0.39479143461E+02 -0.45634127667E+02 -0.42001412413E+03  0.42432763385E+03  0.10000000000E+01 0.  0.
<mgrwt>
<rscale>  0 0.12499800E+03</rscale>
<asrwt>0</asrwt>
<pdfrwt beam="2">  1        4 0.10309439E+00 0.12499800E+03</pdfrwt>
<pdfrwt beam="1">  1       -4 0.89677685E-03 0.12499800E+03</pdfrwt>
<totfact> 0.44389387E+03</totfact>
</mgrwt>
</event>
<event>
 5    1  0.3312706E-002  0.1249989E+03  0.7818608E-02  0.1235071E+00
         -4   -1    0    0    0  501 -0.00000000000E+00  0.00000000000E+00  0.93037241240E+01  0.93900043970E+01  0.12700000000E+01 0. -1.
          4   -1    0    0  501    0  0.00000000000E+00 -0.00000000000E+00 -0.41782619880E+03  0.41782812890E+03  0.12700000000E+01 0. -1.
         25    2    1    2    0    0  0.00000000000E+00  0.00000000000E+00 -0.40852247467E+03  0.42721813330E+03  0.12499888442E+03 0.  0.
    9000005    1    3    3    0    0  0.38805562715E+02 -0.25691475427E+02 -0.34679750406E+03  0.34990774846E+03  0.10000000000E+01 0.  0.
    9000005    1    3    3    0    0 -0.38805562715E+02  0.25691475427E+02 -0.61724970610E+02  0.77310384840E+02  0.10000000000E+01 0.  0.
<mgrwt>
<rscale>  0 0.12499888E+03</rscale>
<asrwt>0</asrwt>
<pdfrwt beam="2">  1        4 0.64287725E-01 0.12499888E+03</pdfrwt>
<pdfrwt beam="1">  1       -4 0.14381279E-02 0.12499888E+03</pdfrwt>
<totfact> 0.61990494E+03</totfact>
</mgrwt>
</event>
<event>
 5    1  0.3312706E-002  0.1250004E+03  0.7818608E-02  0.1235069E+00
         -4   -1    0    0    0  501 -0.00000000000E+00  0.00000000000E+00  0.28820918094E+01  0.31495004680E+01  0.12700000000E+01 0. -1.
          4   -1    0    0  501    0  0.00000000000E+00 -0.00000000000E+00 -0.12950039435E+04  0.12950045663E+04  0.12700000000E+01 0. -1.
         25    2    1    2    0    0  0.00000000000E+00  0.00000000000E+00 -0.12921218517E+04  0.12981540667E+04  0.12500040517E+03 0.  0.
    9000005    1    3    3    0    0  0.15306081112E+02  0.55111242894E+02 -0.90750201354E+03  0.90930326613E+03  0.10000000000E+01 0.  0.
    9000005    1    3    3    0    0 -0.15306081112E+02 -0.55111242894E+02 -0.38461983818E+03  0.38885080061E+03  0.10000000000E+01 0.  0.
<mgrwt>
<rscale>  0 0.12500041E+03</rscale>
<asrwt>0</asrwt>
<pdfrwt beam="2">  1        4 0.19925155E+00 0.12500041E+03</pdfrwt>
<pdfrwt beam="1">  1       -4 0.46401757E-03 0.12500041E+03</pdfrwt>
<totfact> 0.22271994E+03</totfact>
</mgrwt>
</event>
<event>
 5    1  0.3312706E-002  0.1250033E+03  0.7818608E-02  0.1235064E+00
         -4   -1    0    0    0  501 -0.00000000000E+00  0.00000000000E+00  0.52923470862E+02  0.52938706709E+02  0.12700000000E+01 0.  1.
          4   -1    0    0  501    0  0.00000000000E+00 -0.00000000000E+00 -0.73782036568E+02  0.73792965926E+02  0.12700000000E+01 0.  1.
         25    2    1    2    0    0  0.00000000000E+00  0.00000000000E+00 -0.20858565706E+02  0.12673167263E+03  0.12500334830E+03 0.  0.
    9000005    1    3    3    0    0 -0.25486841135E+02  0.30680235995E+02  0.38346225746E+02  0.55337952444E+02  0.10000000000E+01 0.  0.
    9000005    1    3    3    0    0  0.25486841135E+02 -0.30680235995E+02 -0.59204791452E+02  0.71393720191E+02  0.10000000000E+01 0.  0.
<mgrwt>
<rscale>  0 0.12500335E+03</rscale>
<asrwt>0</asrwt>
<pdfrwt beam="2">  1        4 0.11353095E-01 0.12500335E+03</pdfrwt>
<pdfrwt beam="1">  1       -4 0.81440851E-02 0.12500335E+03</pdfrwt>
<totfact> 0.10414194E+04</totfact>
</mgrwt>
</event>
<event>
 5    1  0.3312706E-002  0.1250058E+03  0.7818608E-02  0.1235060E+00
          4   -1    0    0  501    0  0.00000000000E+00  0.00000000000E+00  0.12519702197E+03  0.12520346325E+03  0.12700000000E+01 0.  1.
         -4   -1    0    0    0  501 -0.00000000000E+00 -0.00000000000E+00 -0.31183523813E+02  0.31209374511E+02  0.12700000000E+01 0.  1.
         25    2    1    2    0    0  0.00000000000E+00  0.00000000000E+00  0.94013498155E+02  0.15641283776E+03  0.12500575179E+03 0.  0.
    9000005    1    3    3    0    0  0.14958785540E+01 -0.43978926070E+02  0.10253195388E+03  0.11158039773E+03  0.10000000000E+01 0.  0.
    9000005    1    3    3    0    0 -0.14958785540E+01  0.43978926070E+02 -0.85184557283E+01  0.44832440028E+02  0.10000000000E+01 0.  0.
<mgrwt>
<rscale>  0 0.12500575E+03</rscale>
<asrwt>0</asrwt>
<pdfrwt beam="1">  1        4 0.19263565E-01 0.12500575E+03</pdfrwt>
<pdfrwt beam="2">  1       -4 0.47999491E-02 0.12500575E+03</pdfrwt>
<totfact> 0.98026174E+03</totfact>
</mgrwt>
</event>
<event>
 5    1  0.3312706E-002  0.1249893E+03  0.7818608E-02  0.1235086E+00
          4   -1    0    0  501    0  0.00000000000E+00  0.00000000000E+00  0.46169755543E+01  0.47884614720E+01  0.12700000000E+01 0. -1.
         -4   -1    0    0    0  501 -0.00000000000E+00 -0.00000000000E+00 -0.83032234609E+03  0.83032331733E+03  0.12700000000E+01 0. -1.
         25    2    1    2    0    0  0.00000000000E+00  0.00000000000E+00 -0.82570537053E+03  0.83511177881E+03  0.12498929625E+03 0.  0.
    9000005    1    3    3    0    0 -0.18084013695E+02  0.58964987926E+02 -0.47989403128E+03  0.48384210504E+03  0.10000000000E+01 0.  0.
    9000005    1    3    3    0    0  0.18084013695E+02 -0.58964987926E+02 -0.34581133926E+03  0.35126967377E+03  0.10000000000E+01 0.  0.
<mgrwt>
<rscale>  0 0.12498930E+03</rscale>
<asrwt>0</asrwt>
<pdfrwt beam="1">  1        4 0.72357053E-03 0.12498930E+03</pdfrwt>
<pdfrwt beam="2">  1       -4 0.12775505E+00 0.12498930E+03</pdfrwt>
<totfact> 0.36753050E+03</totfact>
</mgrwt>
</event>
<event>
 5    1  0.3312706E-002  0.1249985E+03  0.7818608E-02  0.1235072E+00
          4   -1    0    0  501    0  0.00000000000E+00  0.00000000000E+00  0.52472416219E+02  0.52487782996E+02  0.12700000000E+01 0. -1.
         -4   -1    0    0    0  501 -0.00000000000E+00 -0.00000000000E+00 -0.74410419085E+02  0.74421256160E+02  0.12700000000E+01 0. -1.
         25    2    1    2    0    0  0.00000000000E+00  0.00000000000E+00 -0.21938002866E+02  0.12690903916E+03  0.12499851299E+03 0.  0.
    9000005    1    3    3    0    0 -0.58614618667E+00  0.55058091585E+02 -0.40974392204E+02  0.68641371146E+02  0.10000000000E+01 0.  0.
    9000005    1    3    3    0    0  0.58614618667E+00 -0.55058091585E+02  0.19036389338E+02  0.58267668010E+02  0.10000000000E+01 0.  0.
<mgrwt>
<rscale>  0 0.12499851E+03</rscale>
<asrwt>0</asrwt>
<pdfrwt beam="1">  1        4 0.80746951E-02 0.12499851E+03</pdfrwt>
<pdfrwt beam="2">  1       -4 0.11449773E-01 0.12499851E+03</pdfrwt>
<totfact> 0.10411472E+04</totfact>
</mgrwt>
</event>
<event>
 5    1  0.3312706E-002  0.1249602E+03  0.7818608E-02  0.1235132E+00
         -4   -1    0    0    0  501 -0.00000000000E+00  0.00000000000E+00  0.14889347438E+02  0.14943412165E+02  0.12700000000E+01 0. -1.
          4   -1    0    0  501    0  0.00000000000E+00 -0.00000000000E+00 -0.26165408394E+03  0.26165716605E+03  0.12700000000E+01 0. -1.
         25    2    1    2    0    0  0.00000000000E+00  0.00000000000E+00 -0.24676473651E+03  0.27660057821E+03  0.12496017239E+03 0.  0.
    9000005    1    3    3    0    0 -0.15751059971E+02  0.50816872770E+02 -0.50898428221E+02  0.73634913211E+02  0.10000000000E+01 0.  0.
    9000005    1    3    3    0    0  0.15751059971E+02 -0.50816872770E+02 -0.19586630829E+03  0.20296566500E+03  0.10000000000E+01 0.  0.
<mgrwt>
<rscale>  0 0.12496017E+03</rscale>
<asrwt>0</asrwt>
<pdfrwt beam="2">  1        4 0.40258867E-01 0.12496017E+03</pdfrwt>
<pdfrwt beam="1">  1       -4 0.22950649E-02 0.12496017E+03</pdfrwt>
<totfact> 0.78700684E+03</totfact>
</mgrwt>
</event>
<event>
 5    1  0.3312706E-002  0.1250006E+03  0.7818608E-02  0.1235068E+00
          4   -1    0    0  501    0  0.00000000000E+00  0.00000000000E+00  0.56216135499E+01  0.57632836911E+01  0.12700000000E+01 0.  1.
         -4   -1    0    0    0  501 -0.00000000000E+00 -0.00000000000E+00 -0.68608014730E+03  0.68608132275E+03  0.12700000000E+01 0.  1.
         25    2    1    2    0    0  0.00000000000E+00  0.00000000000E+00 -0.68045853375E+03  0.69184460644E+03  0.12500057320E+03 0.  0.
    9000005    1    3    3    0    0  0.25859356674E+02  0.28752890078E+01 -0.65470295890E+03  0.65522052624E+03  0.10000000000E+01 0.  0.
    9000005    1    3    3    0    0 -0.25859356674E+02 -0.28752890078E+01 -0.25755574859E+02  0.36624080204E+02  0.10000000000E+01 0.  0.
<mgrwt>
<rscale>  0 0.12500057E+03</rscale>
<asrwt>0</asrwt>
<pdfrwt beam="1">  1        4 0.87585229E-03 0.12500057E+03</pdfrwt>
<pdfrwt beam="2">  1       -4 0.10556171E+00 0.12500057E+03</pdfrwt>
<totfact> 0.43520188E+03</totfact>
</mgrwt>
</event>
<event>
 5    1  0.3312706E-002  0.1250027E+03  0.7818608E-02  0.1235065E+00
          4   -1    0    0  501    0  0.00000000000E+00  0.00000000000E+00  0.27973625568E+02  0.28002439669E+02  0.12700000000E+01 0. -1.
         -4   -1    0    0    0  501 -0.00000000000E+00 -0.00000000000E+00 -0.13954293180E+03  0.13954871090E+03  0.12700000000E+01 0. -1.
         25    2    1    2    0    0  0.00000000000E+00  0.00000000000E+00 -0.11156930623E+03  0.16755115057E+03  0.12500271183E+03 0.  0.
    9000005    1    3    3    0    0 -0.26776330071E+02  0.14699351683E+02 -0.12886151744E+03  0.13243614865E+03  0.10000000000E+01 0.  0.
    9000005    1    3    3    0    0  0.26776330071E+02 -0.14699351683E+02  0.17292211206E+02  0.35115001927E+02  0.10000000000E+01 0.  0.
<mgrwt>
<rscale>  0 0.12500271E+03</rscale>
<asrwt>0</asrwt>
<pdfrwt beam="1">  1        4 0.43062958E-02 0.12500271E+03</pdfrwt>
<pdfrwt beam="2">  1       -4 0.21470804E-01 0.12500271E+03</pdfrwt>
<totfact> 0.95900574E+03</totfact>
</mgrwt>
</event>
<event>
 5    1  0.3312706E-002  0.1249936E+03  0.7818608E-02  0.1235079E+00
         -4   -1    0    0    0  501 -0.00000000000E+00  0.00000000000E+00  0.20093480486E+03  0.20093881831E+03  0.12700000000E+01 0.  1.
          4   -1    0    0  501    0  0.00000000000E+00 -0.00000000000E+00 -0.19413427820E+02  0.19454924305E+02  0.12700000000E+01 0.  1.
         25    2    1    2    0    0  0.00000000000E+00  0.00000000000E+00  0.18152137704E+03  0.22039374262E+03  0.12499356568E+03 0.  0.
    9000005    1    3    3    0    0  0.44021592210E+02  0.44350278992E+02  0.90749805888E+02  0.11018790812E+03  0.10000000000E+01 0.  0.
    9000005    1    3    3    0    0 -0.44021592210E+02 -0.44350278992E+02  0.90771571151E+02  0.11020583449E+03  0.10000000000E+01 0.  0.
<mgrwt>
<rscale>  0 0.12499357E+03</rscale>
<asrwt>0</asrwt>
<pdfrwt beam="2">  1        4 0.29901818E-02 0.12499357E+03</pdfrwt>
<pdfrwt beam="1">  1       -4 0.30916549E-01 0.12499357E+03</pdfrwt>
<totfact> 0.86818558E+03</totfact>
</mgrwt>
</event>
<event>
 5    1  0.3312706E-002  0.1250004E+03  0.7818608E-02  0.1235069E+00
         -4   -1    0    0    0  501 -0.00000000000E+00  0.00000000000E+00  0.17359348147E+03  0.17359812703E+03  0.12700000000E+01 0. -1.
          4   -1    0    0  501    0  0.00000000000E+00 -0.00000000000E+00 -0.22479571875E+02  0.22515418088E+02  0.12700000000E+01 0. -1.
         25    2    1    2    0    0  0.00000000000E+00  0.00000000000E+00  0.15111390959E+03  0.19611354512E+03  0.12500043562E+03 0.  0.
    9000005    1    3    3    0    0 -0.13172901898E+02 -0.57898377081E+02  0.10612157562E+03  0.12160812565E+03  0.10000000000E+01 0.  0.
    9000005    1    3    3    0    0  0.13172901898E+02  0.57898377081E+02  0.44992333973E+02  0.74505419463E+02  0.10000000000E+01 0.  0.
<mgrwt>
<rscale>  0 0.12500044E+03</rscale>
<asrwt>0</asrwt>
<pdfrwt beam="2">  1        4 0.34615105E-02 0.12500044E+03</pdfrwt>
<pdfrwt beam="1">  1       -4 0.26709804E-01 0.12500044E+03</pdfrwt>
<totfact> 0.90793439E+03</totfact>
</mgrwt>
</event>
<event>
 5    1  0.3312706E-002  0.1249993E+03  0.7818608E-02  0.1235070E+00
         -4   -1    0    0    0  501 -0.00000000000E+00  0.00000000000E+00  0.24908452108E+02  0.24940807654E+02  0.12700000000E+01 0. -1.
          4   -1    0    0  501    0  0.00000000000E+00 -0.00000000000E+00 -0.15668567729E+03  0.15669082413E+03  0.12700000000E+01 0. -1.
         25    2    1    2    0    0  0.00000000000E+00  0.00000000000E+00 -0.13177722518E+03  0.18163163178E+03  0.12499925035E+03 0.  0.
    9000005    1    3    3    0    0 -0.57465692421E+02  0.53188058085E+01 -0.10071992004E+03  0.11608659610E+03  0.10000000000E+01 0.  0.
    9000005    1    3    3    0    0  0.57465692421E+02 -0.53188058085E+01 -0.31057305135E+02  0.65545035684E+02  0.10000000000E+01 0.  0.
<mgrwt>
<rscale>  0 0.12499925E+03</rscale>
<asrwt>0</asrwt>
<pdfrwt beam="2">  1        4 0.24108373E-01 0.12499925E+03</pdfrwt>
<pdfrwt beam="1">  1       -4 0.38349544E-02 0.12499925E+03</pdfrwt>
<totfact> 0.93325695E+03</totfact>
</mgrwt>
</event>
<event>
 5    1  0.3312706E-002  0.1249978E+03  0.7818608E-02  0.1235073E+00
         -4   -1    0    0    0  501 -0.00000000000E+00  0.00000000000E+00  0.23928843756E+03  0.23929180773E+03  0.12700000000E+01 0. -1.
          4   -1    0    0  501    0  0.00000000000E+00 -0.00000000000E+00 -0.16295664912E+02  0.16345078615E+02  0.12700000000E+01 0. -1.
         25    2    1    2    0    0  0.00000000000E+00  0.00000000000E+00  0.22299277265E+03  0.25563688635E+03  0.12499776402E+03 0.  0.
    9000005    1    3    3    0    0  0.35120588330E+02  0.42683861784E+02  0.51880097462E+02  0.75814987265E+02  0.10000000000E+01 0.  0.
    9000005    1    3    3    0    0 -0.35120588330E+02 -0.42683861784E+02  0.17111267518E+03  0.17982189908E+03  0.10000000000E+01 0.  0.
<mgrwt>
<rscale>  0 0.12499776E+03</rscale>
<asrwt>0</asrwt>
<pdfrwt beam="2">  1        4 0.25110857E-02 0.12499776E+03</pdfrwt>
<pdfrwt beam="1">  1       -4 0.36817666E-01 0.12499776E+03</pdfrwt>
<totfact> 0.81526346E+03</totfact>
</mgrwt>
</event>
<event>
 5    1  0.3312706E-002  0.1249930E+03  0.7818608E-02  0.1235080E+00
          4   -1    0    0  501    0  0.00000000000E+00  0.00000000000E+00  0.31609746998E+02  0.31635249410E+02  0.12700000000E+01 0.  1.
         -4   -1    0    0    0  501 -0.00000000000E+00 -0.00000000000E+00 -0.12348486206E+03  0.12349139265E+03  0.12700000000E+01 0.  1.
         25    2    1    2    0    0  0.00000000000E+00  0.00000000000E+00 -0.91875115062E+02  0.15512664206E+03  0.12499295304E+03 0.  0.
    9000005    1    3    3    0    0  0.12657467250E+02  0.11375258769E+02 -0.12055959840E+03  0.12175887957E+03  0.10000000000E+01 0.  0.
    9000005    1    3    3    0    0 -0.12657467250E+02 -0.11375258769E+02  0.28684483333E+02  0.33367762486E+02  0.10000000000E+01 0.  0.
<mgrwt>
<rscale>  0 0.12499295E+03</rscale>
<asrwt>0</asrwt>
<pdfrwt beam="1">  1        4 0.48655022E-02 0.12499295E+03</pdfrwt>
<pdfrwt beam="2">  1       -4 0.19000135E-01 0.12499295E+03</pdfrwt>
<totfact> 0.98306222E+03</totfact>
</mgrwt>
</event>
<event>
 5    1  0.3312706E-002  0.1250006E+03  0.7818608E-02  0.1235068E+00
          4   -1    0    0  501    0  0.00000000000E+00  0.00000000000E+00  0.24452758676E+02  0.24485716385E+02  0.12700000000E+01 0. -1.
         -4   -1    0    0    0  501 -0.00000000000E+00 -0.00000000000E+00 -0.15960527512E+03  0.15961032782E+03  0.12700000000E+01 0. -1.
         25    2    1    2    0    0  0.00000000000E+00  0.00000000000E+00 -0.13515251644E+03  0.18409604420E+03  0.12500060316E+03 0.  0.
    9000005    1    3    3    0    0 -0.22167998035E+02 -0.43668950054E+02 -0.10405602213E+02  0.50076680132E+02  0.10000000000E+01 0.  0.
    9000005    1    3    3    0    0  0.22167998035E+02  0.43668950054E+02 -0.12474691423E+03  0.13401936407E+03  0.10000000000E+01 0.  0.
<mgrwt>
<rscale>  0 0.12500060E+03</rscale>
<asrwt>0</asrwt>
<pdfrwt beam="1">  1        4 0.37648868E-02 0.12500060E+03</pdfrwt>
<pdfrwt beam="2">  1       -4 0.24557581E-01 0.12500060E+03</pdfrwt>
<totfact> 0.92883599E+03</totfact>
</mgrwt>
</event>
<event>
 5    1  0.3312706E-002  0.1249896E+03  0.7818608E-02  0.1235085E+00
         -4   -1    0    0    0  501 -0.00000000000E+00  0.00000000000E+00  0.27967131297E+02  0.27995952082E+02  0.12700000000E+01 0.  1.
          4   -1    0    0  501    0  0.00000000000E+00 -0.00000000000E+00 -0.13954609680E+03  0.13955187578E+03  0.12700000000E+01 0.  1.
         25    2    1    2    0    0  0.00000000000E+00  0.00000000000E+00 -0.11157896550E+03  0.16754782786E+03  0.12498963588E+03 0.  0.
    9000005    1    3    3    0    0  0.11459019190E+02  0.42137948441E+02 -0.11570350287E+03  0.12367383068E+03  0.10000000000E+01 0.  0.
    9000005    1    3    3    0    0 -0.11459019190E+02 -0.42137948441E+02  0.41245373640E+01  0.43873997175E+02  0.10000000000E+01 0.  0.
<mgrwt>
<rscale>  0 0.12498964E+03</rscale>
<asrwt>0</asrwt>
<pdfrwt beam="2">  1        4 0.21471291E-01 0.12498964E+03</pdfrwt>
<pdfrwt beam="1">  1       -4 0.43052972E-02 0.12498964E+03</pdfrwt>
<totfact> 0.95929365E+03</totfact>
</mgrwt>
</event>
<event>
 5    1  0.3312706E-002  0.1249993E+03  0.7818608E-02  0.1235070E+00
          4   -1    0    0  501    0  0.00000000000E+00  0.00000000000E+00  0.14373304506E+02  0.14429302908E+02  0.12700000000E+01 0.  1.
         -4   -1    0    0    0  501 -0.00000000000E+00 -0.00000000000E+00 -0.27118242337E+03  0.27118539718E+03  0.12700000000E+01 0.  1.
         25    2    1    2    0    0  0.00000000000E+00  0.00000000000E+00 -0.25680911886E+03  0.28561470009E+03  0.12499933350E+03 0.  0.
    9000005    1    3    3    0    0 -0.47381861480E+02  0.14398511853E+02 -0.21549757092E+03  0.22111662311E+03  0.10000000000E+01 0.  0.
    9000005    1    3    3    0    0  0.47381861480E+02 -0.14398511853E+02 -0.41311547937E+02  0.64498076978E+02  0.10000000000E+01 0.  0.
<mgrwt>
<rscale>  0 0.12499933E+03</rscale>
<asrwt>0</asrwt>
<pdfrwt beam="1">  1        4 0.22158141E-02 0.12499933E+03</pdfrwt>
<pdfrwt beam="2">  1       -4 0.41724906E-01 0.12499933E+03</pdfrwt>
<totfact> 0.77440627E+03</totfact>
</mgrwt>
</event>
<event>
 5    1  0.3312706E-002  0.1250018E+03  0.7818608E-02  0.1235066E+00
          4   -1    0    0  501    0  0.00000000000E+00  0.00000000000E+00  0.30099957840E+03  0.30100225763E+03  0.12700000000E+01 0. -1.
         -4   -1    0    0    0  501 -0.00000000000E+00 -0.00000000000E+00 -0.12944162702E+02  0.13006315699E+02  0.12700000000E+01 0. -1.
         25    2    1    2    0    0  0.00000000000E+00  0.00000000000E+00  0.28805541570E+03  0.31400857333E+03  0.12500184643E+03 0.  0.
    9000005    1    3    3    0    0 -0.25156177190E+01  0.26692064456E+02  0.28583117881E+03  0.28708754313E+03  0.10000000000E+01 0.  0.
    9000005    1    3    3    0    0  0.25156177190E+01 -0.26692064456E+02  0.22242368883E+01  0.26921030203E+02  0.10000000000E+01 0.  0.
<mgrwt>
<rscale>  0 0.12500185E+03</rscale>
<asrwt>0</asrwt>
<pdfrwt beam="1">  1        4 0.46312609E-01 0.12500185E+03</pdfrwt>
<pdfrwt beam="2">  1       -4 0.19963970E-02 0.12500185E+03</pdfrwt>
<totfact> 0.73871416E+03</totfact>
</mgrwt>
</event>
<event>
 5    1  0.3312706E-002  0.1249835E+03  0.7818608E-02  0.1235095E+00
          4   -1    0    0  501    0  0.00000000000E+00  0.00000000000E+00  0.22978533192E+02  0.23013602231E+02  0.12700000000E+01 0. -1.
         -4   -1    0    0    0  501 -0.00000000000E+00 -0.00000000000E+00 -0.16978365674E+03  0.16978840654E+03  0.12700000000E+01 0. -1.
         25    2    1    2    0    0  0.00000000000E+00  0.00000000000E+00 -0.14680512355E+03  0.19280200877E+03  0.12498348006E+03 0.  0.
    9000005    1    3    3    0    0 -0.61956022528E+02 -0.77743614715E+01 -0.69875339091E+02  0.93715273231E+02  0.10000000000E+01 0.  0.
    9000005    1    3    3    0    0  0.61956022528E+02  0.77743614715E+01 -0.76929784457E+02  0.99086735542E+02  0.10000000000E+01 0.  0.
<mgrwt>
<rscale>  0 0.12498348E+03</rscale>
<asrwt>0</asrwt>
<pdfrwt beam="1">  1        4 0.35382220E-02 0.12498348E+03</pdfrwt>
<pdfrwt beam="2">  1       -4 0.26123625E-01 0.12498348E+03</pdfrwt>
<totfact> 0.91395855E+03</totfact>
</mgrwt>
</event>
<event>
 5    1  0.3312706E-002  0.1250022E+03  0.7818608E-02  0.1235066E+00
         -4   -1    0    0    0  501 -0.00000000000E+00  0.00000000000E+00  0.41760358787E+01  0.43648797990E+01  0.12700000000E+01 0.  1.
          4   -1    0    0  501    0  0.00000000000E+00 -0.00000000000E+00 -0.91455707268E+03  0.91455795447E+03  0.12700000000E+01 0.  1.
         25    2    1    2    0    0  0.00000000000E+00  0.00000000000E+00 -0.91038103680E+03  0.91892283427E+03  0.12500217269E+03 0.  0.
    9000005    1    3    3    0    0  0.31516789444E+02  0.53956642192E+02 -0.46159303961E+03  0.46580442405E+03  0.10000000000E+01 0.  0.
    9000005    1    3    3    0    0 -0.31516789444E+02 -0.53956642192E+02 -0.44878799719E+03  0.45311841022E+03  0.10000000000E+01 0.  0.
<mgrwt>
<rscale>  0 0.12500217E+03</rscale>
<asrwt>0</asrwt>
<pdfrwt beam="2">  1        4 0.14071553E+00 0.12500217E+03</pdfrwt>
<pdfrwt beam="1">  1       -4 0.65706207E-03 0.12500217E+03</pdfrwt>
<totfact> 0.33444080E+03</totfact>
</mgrwt>
</event>
<event>
 5    1  0.3312706E-002  0.1250007E+03  0.7818608E-02  0.1235068E+00
          4   -1    0    0  501    0  0.00000000000E+00  0.00000000000E+00  0.50195702206E+02  0.50211765752E+02  0.12700000000E+01 0. -1.
         -4   -1    0    0    0  501 -0.00000000000E+00 -0.00000000000E+00 -0.77787636017E+02  0.77798002655E+02  0.12700000000E+01 0. -1.
         25    2    1    2    0    0  0.00000000000E+00  0.00000000000E+00 -0.27591933811E+02  0.12800976841E+03  0.12500074398E+03 0.  0.
    9000005    1    3    3    0    0 -0.33026948364E+02 -0.16702986889E+02 -0.65362112310E+02  0.75119736520E+02  0.10000000000E+01 0.  0.
    9000005    1    3    3    0    0  0.33026948364E+02  0.16702986889E+02  0.37770178498E+02  0.52890031888E+02  0.10000000000E+01 0.  0.
<mgrwt>
<rscale>  0 0.12500074E+03</rscale>
<asrwt>0</asrwt>
<pdfrwt beam="1">  1        4 0.77244488E-02 0.12500074E+03</pdfrwt>
<pdfrwt beam="2">  1       -4 0.11969362E-01 0.12500074E+03</pdfrwt>
<totfact> 0.10387102E+04</totfact>
</mgrwt>
</event>
<event>
 5    1  0.3312706E-002  0.1249994E+03  0.7818608E-02  0.1235070E+00
         -4   -1    0    0    0  501 -0.00000000000E+00  0.00000000000E+00  0.21227501341E+03  0.21227881246E+03  0.12700000000E+01 0.  1.
          4   -1    0    0  501    0  0.00000000000E+00 -0.00000000000E+00 -0.18375784369E+02  0.18419618649E+02  0.12700000000E+01 0.  1.
         25    2    1    2    0    0  0.00000000000E+00  0.00000000000E+00  0.19389922904E+03  0.23069843111E+03  0.12499942037E+03 0.  0.
    9000005    1    3    3    0    0  0.31468978802E+02  0.47781568136E+01  0.19620230102E+03  0.19876989293E+03  0.10000000000E+01 0.  0.
    9000005    1    3    3    0    0 -0.31468978802E+02 -0.47781568136E+01 -0.23030719826E+01  0.31928538174E+02  0.10000000000E+01 0.  0.
<mgrwt>
<rscale>  0 0.12499942E+03</rscale>
<asrwt>0</asrwt>
<pdfrwt beam="2">  1        4 0.28307081E-02 0.12499942E+03</pdfrwt>
<pdfrwt beam="1">  1       -4 0.32661356E-01 0.12499942E+03</pdfrwt>
<totfact> 0.85203571E+03</totfact>
</mgrwt>
</event>
<event>
 4    1  0.3312706E-002  0.1249147E+03  0.7818608E-02  0.1235203E+00
         -4   -1    0    0    0  501 -0.00000000000E+00  0.00000000000E+00  0.15993864776E+02  0.16044208004E+02  0.12700000000E+01 0. -1.
          4   -1    0    0  501    0  0.00000000000E+00 -0.00000000000E+00 -0.24346573194E+03  0.24346904429E+03  0.12700000000E+01 0. -1.
    9000005    1    1    2    0    0  0.59972824942E+02  0.16642582095E+02 -0.12437078114E+03  0.13907841842E+03  0.10000000000E+01 0.  0.
    9000005    1    1    2    0    0 -0.59972824942E+02 -0.16642582095E+02 -0.10310108602E+03  0.12043483387E+03  0.10000000000E+01 0.  0.
<mgrwt>
<rscale>  0 0.12491468E+03</rscale>
<asrwt>0</asrwt>
<pdfrwt beam="2">  1        4 0.37460391E-01 0.12491468E+03</pdfrwt>
<pdfrwt beam="1">  1       -4 0.24647221E-02 0.12491468E+03</pdfrwt>
<totfact> 0.81128401E+03</totfact>
</mgrwt>
</event>
<event>
 5    1  0.3312706E-002  0.1250043E+03  0.7818608E-02  0.1235063E+00
         -4   -1    0    0    0  501 -0.00000000000E+00  0.00000000000E+00  0.10548681053E+02  0.10624856326E+02  0.12700000000E+01 0.  1.
          4   -1    0    0  501    0  0.00000000000E+00 -0.00000000000E+00 -0.36892265206E+03  0.36892483801E+03  0.12700000000E+01 0.  1.
         25    2    1    2    0    0  0.00000000000E+00  0.00000000000E+00 -0.35837397100E+03  0.37954969433E+03  0.12500426944E+03 0.  0.
    9000005    1    3    3    0    0 -0.12337443203E+02 -0.13991787431E+02  0.19129697870E+01  0.18778766565E+02  0.10000000000E+01 0.  0.
    9000005    1    3    3    0    0  0.12337443203E+02  0.13991787431E+02 -0.36028694079E+03  0.36077092777E+03  0.10000000000E+01 0.  0.
<mgrwt>
<rscale>  0 0.12500427E+03</rscale>
<asrwt>0</asrwt>
<pdfrwt beam="2">  1        4 0.56763349E-01 0.12500427E+03</pdfrwt>
<pdfrwt beam="1">  1       -4 0.16289021E-02 0.12500427E+03</pdfrwt>
<totfact> 0.66585277E+03</totfact>
</mgrwt>
</event>
<event>
 5    1  0.3312706E-002  0.1249999E+03  0.7818608E-02  0.1235070E+00
          4   -1    0    0  501    0  0.00000000000E+00  0.00000000000E+00  0.24152204826E+02  0.24185572104E+02  0.12700000000E+01 0. -1.
         -4   -1    0    0    0  501 -0.00000000000E+00 -0.00000000000E+00 -0.16158683771E+03  0.16159182845E+03  0.12700000000E+01 0. -1.
         25    2    1    2    0    0  0.00000000000E+00  0.00000000000E+00 -0.13743463288E+03  0.18577740055E+03  0.12499985696E+03 0.  0.
    9000005    1    3    3    0    0 -0.60946485931E+02 -0.12882219871E+02 -0.61313709752E+02  0.87411651052E+02  0.10000000000E+01 0.  0.
    9000005    1    3    3    0    0  0.60946485931E+02  0.12882219871E+02 -0.76120923131E+02  0.98365749499E+02  0.10000000000E+01 0.  0.
<mgrwt>
<rscale>  0 0.12499986E+03</rscale>
<asrwt>0</asrwt>
<pdfrwt beam="1">  1        4 0.37186745E-02 0.12499986E+03</pdfrwt>
<pdfrwt beam="2">  1       -4 0.24862463E-01 0.12499986E+03</pdfrwt>
<totfact> 0.92587566E+03</totfact>
</mgrwt>
</event>
<event>
 5    1  0.3312706E-002  0.1249992E+03  0.7818608E-02  0.1235071E+00
         -4   -1    0    0    0  501 -0.00000000000E+00  0.00000000000E+00  0.48581224661E+03  0.48581390661E+03  0.12700000000E+01 0. -1.
          4   -1    0    0  501    0  0.00000000000E+00 -0.00000000000E+00 -0.79887159441E+01  0.80890347035E+01  0.12700000000E+01 0. -1.
         25    2    1    2    0    0  0.00000000000E+00  0.00000000000E+00  0.47782353067E+03  0.49390294132E+03  0.12499915592E+03 0.  0.
    9000005    1    3    3    0    0 -0.29001507914E+02  0.35623746378E+02  0.40631884976E+03  0.40890848173E+03  0.10000000000E+01 0.  0.
    9000005    1    3    3    0    0  0.29001507914E+02 -0.35623746378E+02  0.71504680913E+02  0.84994459583E+02  0.10000000000E+01 0.  0.
<mgrwt>
<rscale>  0 0.12499916E+03</rscale>
<asrwt>0</asrwt>
<pdfrwt beam="2">  1        4 0.12368778E-02 0.12499916E+03</pdfrwt>
<pdfrwt beam="1">  1       -4 0.74748186E-01 0.12499916E+03</pdfrwt>
<totfact> 0.56341592E+03</totfact>
</mgrwt>
</event>
<event>
 5    1  0.3312706E-002  0.1250010E+03  0.7818608E-02  0.1235068E+00
         -4   -1    0    0    0  501 -0.00000000000E+00  0.00000000000E+00  0.68887192947E+01  0.70048093137E+01  0.12700000000E+01 0. -1.
          4   -1    0    0  501    0  0.00000000000E+00 -0.00000000000E+00 -0.56220430075E+03  0.56220573519E+03  0.12700000000E+01 0. -1.
         25    2    1    2    0    0  0.00000000000E+00  0.00000000000E+00 -0.55531558146E+03  0.56921054451E+03  0.12500099587E+03 0.  0.
    9000005    1    3    3    0    0  0.22621102694E+01 -0.60622342871E+02 -0.34598173226E+03  0.35126136232E+03  0.10000000000E+01 0.  0.
    9000005    1    3    3    0    0 -0.22621102694E+01  0.60622342871E+02 -0.20933384919E+03  0.21794918219E+03  0.10000000000E+01 0.  0.
<mgrwt>
<rscale>  0 0.12500100E+03</rscale>
<asrwt>0</asrwt>
<pdfrwt beam="2">  1        4 0.86501974E-01 0.12500100E+03</pdfrwt>
<pdfrwt beam="1">  1       -4 0.10688438E-02 0.12500100E+03</pdfrwt>
<totfact> 0.50869554E+03</totfact>
</mgrwt>
</event>
<event>
 5    1  0.3312706E-002  0.1250006E+03  0.7818608E-02  0.1235068E+00
          4   -1    0    0  501    0  0.00000000000E+00  0.00000000000E+00  0.14627308650E+02  0.14682338313E+02  0.12700000000E+01 0. -1.
         -4   -1    0    0    0  501 -0.00000000000E+00 -0.00000000000E+00 -0.26649659541E+03  0.26649962151E+03  0.12700000000E+01 0. -1.
         25    2    1    2    0    0  0.00000000000E+00  0.00000000000E+00 -0.25186928676E+03  0.28118195983E+03  0.12500062767E+03 0.  0.
    9000005    1    3    3    0    0 -0.43347038319E+02 -0.23658619727E+02 -0.39789639480E+02  0.63426425316E+02  0.10000000000E+01 0.  0.
    9000005    1    3    3    0    0  0.43347038319E+02  0.23658619727E+02 -0.21207964728E+03  0.21775553451E+03  0.10000000000E+01 0.  0.
<mgrwt>
<rscale>  0 0.12500063E+03</rscale>
<asrwt>0</asrwt>
<pdfrwt beam="1">  1        4 0.22548212E-02 0.12500063E+03</pdfrwt>
<pdfrwt beam="2">  1       -4 0.41003938E-01 0.12500063E+03</pdfrwt>
<totfact> 0.78020560E+03</totfact>
</mgrwt>
</event>
<event>
 5    1  0.3312706E-002  0.1250004E+03  0.7818608E-02  0.1235069E+00
         -4   -1    0    0    0  501 -0.00000000000E+00  0.00000000000E+00  0.69793648793E+03  0.69793764341E+03  0.12700000000E+01 0. -1.
          4   -1    0    0  501    0  0.00000000000E+00 -0.00000000000E+00 -0.55236741265E+01  0.56677928557E+01  0.12700000000E+01 0. -1.
         25    2    1    2    0    0  0.00000000000E+00  0.00000000000E+00  0.69241281380E+03  0.70360543626E+03  0.12500042087E+03 0.  0.
    9000005    1    3    3    0    0  0.51335106254E+02  0.17369907000E+02  0.17105410983E+03  0.17943666095E+03  0.10000000000E+01 0.  0.
    9000005    1    3    3    0    0 -0.51335106254E+02 -0.17369907000E+02  0.52135870397E+03  0.52416877531E+03  0.10000000000E+01 0.  0.
<mgrwt>
<rscale>  0 0.12500042E+03</rscale>
<asrwt>0</asrwt>
<pdfrwt beam="2">  1        4 0.86097081E-03 0.12500042E+03</pdfrwt>
<pdfrwt beam="1">  1       -4 0.10738604E+00 0.12500042E+03</pdfrwt>
<totfact> 0.42896647E+03</totfact>
</mgrwt>
</event>
<event>
 5    1  0.3312706E-002  0.1250054E+03  0.7818608E-02  0.1235061E+00
          4   -1    0    0  501    0  0.00000000000E+00  0.00000000000E+00  0.20764703553E+03  0.20765091925E+03  0.12700000000E+01 0. -1.
         -4   -1    0    0    0  501 -0.00000000000E+00 -0.00000000000E+00 -0.18788108229E+02  0.18830982736E+02  0.12700000000E+01 0. -1.
         25    2    1    2    0    0  0.00000000000E+00  0.00000000000E+00  0.18885892730E+03  0.22648190199E+03  0.12500542990E+03 0.  0.
    9000005    1    3    3    0    0  0.33320459359E+02 -0.51053556430E+02  0.69530173466E+02  0.92477909028E+02  0.10000000000E+01 0.  0.
    9000005    1    3    3    0    0 -0.33320459359E+02  0.51053556430E+02  0.11932875384E+03  0.13400399296E+03  0.10000000000E+01 0.  0.
<mgrwt>
<rscale>  0 0.12500543E+03</rscale>
<asrwt>0</asrwt>
<pdfrwt beam="1">  1        4 0.31949294E-01 0.12500543E+03</pdfrwt>
<pdfrwt beam="2">  1       -4 0.28940750E-02 0.12500543E+03</pdfrwt>
<totfact> 0.85842344E+03</totfact>
</mgrwt>
</event>
<event>
 5    1  0.3312706E-002  0.1250001E+03  0.7818608E-02  0.1235069E+00
         -4   -1    0    0    0  501 -0.00000000000E+00  0.00000000000E+00  0.17645720924E+02  0.17691364191E+02  0.12700000000E+01 0. -1.
          4   -1    0    0  501    0  0.00000000000E+00 -0.00000000000E+00 -0.22103807464E+03  0.22104172308E+03  0.12700000000E+01 0. -1.
         25    2    1    2    0    0  0.00000000000E+00  0.00000000000E+00 -0.20339235372E+03  0.23873308727E+03  0.12500014963E+03 0.  0.
    9000005    1    3    3    0    0  0.27855114314E+02 -0.58964293671E+01  0.45475324452E+01  0.28850568869E+02  0.10000000000E+01 0.  0.
    9000005    1    3    3    0    0 -0.27855114314E+02  0.58964293671E+01 -0.20793988616E+03  0.20988251840E+03  0.10000000000E+01 0.  0.
<mgrwt>
<rscale>  0 0.12500015E+03</rscale>
<asrwt>0</asrwt>
<pdfrwt beam="2">  1        4 0.34009647E-01 0.12500015E+03</pdfrwt>
<pdfrwt beam="1">  1       -4 0.27185181E-02 0.12500015E+03</pdfrwt>
<totfact> 0.83986135E+03</totfact>
</mgrwt>
</event>
<event>
 5    1  0.3312706E-002  0.1249988E+03  0.7818608E-02  0.1235071E+00
         -4   -1    0    0    0  501 -0.00000000000E+00  0.00000000000E+00  0.26069423282E+02  0.26100339658E+02  0.12700000000E+01 0.  1.
          4   -1    0    0  501    0  0.00000000000E+00 -0.00000000000E+00 -0.14971506075E+03  0.14972044722E+03  0.12700000000E+01 0.  1.
         25    2    1    2    0    0  0.00000000000E+00  0.00000000000E+00 -0.12364563747E+03  0.17582078688E+03  0.12499882173E+03 0.  0.
    9000005    1    3    3    0    0  0.92885258674E+01 -0.61036770640E+02 -0.75417413789E+02  0.97470766825E+02  0.10000000000E+01 0.  0.
    9000005    1    3    3    0    0 -0.92885258674E+01  0.61036770640E+02 -0.48228223684E+02  0.78350020055E+02  0.10000000000E+01 0.  0.
<mgrwt>
<rscale>  0 0.12499882E+03</rscale>
<asrwt>0</asrwt>
<pdfrwt beam="2">  1        4 0.23035878E-01 0.12499882E+03</pdfrwt>
<pdfrwt beam="1">  1       -4 0.40134731E-02 0.12499882E+03</pdfrwt>
<totfact> 0.94377225E+03</totfact>
</mgrwt>
</event>
<event>
 5    1  0.3312706E-002  0.1249992E+03  0.7818608E-02  0.1235070E+00
         -4   -1    0    0    0  501 -0.00000000000E+00  0.00000000000E+00  0.58818749414E+02  0.58832458580E+02  0.12700000000E+01 0.  1.
          4   -1    0    0  501    0  0.00000000000E+00 -0.00000000000E+00 -0.66383312634E+02  0.66395459907E+02  0.12700000000E+01 0.  1.
         25    2    1    2    0    0  0.00000000000E+00  0.00000000000E+00 -0.75645632200E+01  0.12522791849E+03  0.12499923580E+03 0.  0.
    9000005    1    3    3    0    0 -0.78432147134E+01  0.48866792531E+01 -0.65699935271E+02  0.66354179565E+02  0.10000000000E+01 0.  0.
    9000005    1    3    3    0    0  0.78432147134E+01 -0.48866792531E+01  0.58135372051E+02  0.58873738922E+02  0.10000000000E+01 0.  0.
<mgrwt>
<rscale>  0 0.12499924E+03</rscale>
<asrwt>0</asrwt>
<pdfrwt beam="2">  1        4 0.10214806E-01 0.12499924E+03</pdfrwt>
<pdfrwt beam="1">  1       -4 0.90510273E-02 0.12499924E+03</pdfrwt>
<totfact> 0.10448095E+04</totfact>
</mgrwt>
</event>
<event>
 5    1  0.3312706E-002  0.1249987E+03  0.7818608E-02  0.1235071E+00
          4   -1    0    0  501    0  0.00000000000E+00  0.00000000000E+00  0.12281363935E+02  0.12346853855E+02  0.12700000000E+01 0. -1.
         -4   -1    0    0    0  501 -0.00000000000E+00 -0.00000000000E+00 -0.31714411301E+03  0.31714665585E+03  0.12700000000E+01 0. -1.
         25    2    1    2    0    0  0.00000000000E+00  0.00000000000E+00 -0.30486274908E+03  0.32949350971E+03  0.12499870865E+03 0.  0.
    9000005    1    3    3    0    0  0.29319339465E+02 -0.54114536396E+02 -0.12389913954E+03  0.13834740148E+03  0.10000000000E+01 0.  0.
    9000005    1    3    3    0    0 -0.29319339465E+02  0.54114536396E+02 -0.18096360954E+03  0.19114610823E+03  0.10000000000E+01 0.  0.
<mgrwt>
<rscale>  0 0.12499871E+03</rscale>
<asrwt>0</asrwt>
<pdfrwt beam="1">  1        4 0.18946741E-02 0.12499871E+03</pdfrwt>
<pdfrwt beam="2">  1       -4 0.48796629E-01 0.12499871E+03</pdfrwt>
<totfact> 0.72043109E+03</totfact>
</mgrwt>
</event>
<event>
 5    1  0.3312706E-002  0.1249992E+03  0.7818608E-02  0.1235070E+00
         -4   -1    0    0    0  501 -0.00000000000E+00  0.00000000000E+00  0.15972381802E+02  0.16022792529E+02  0.12700000000E+01 0. -1.
          4   -1    0    0  501    0  0.00000000000E+00 -0.00000000000E+00 -0.24412233989E+03  0.24412564334E+03  0.12700000000E+01 0. -1.
         25    2    1    2    0    0  0.00000000000E+00  0.00000000000E+00 -0.22814995809E+03  0.26014843587E+03  0.12499922122E+03 0.  0.
    9000005    1    3    3    0    0  0.56978846278E+01 -0.45241436693E+02 -0.20300698653E+03  0.20806751323E+03  0.10000000000E+01 0.  0.
    9000005    1    3    3    0    0 -0.56978846278E+01  0.45241436693E+02 -0.25142971561E+02  0.52080922632E+02  0.10000000000E+01 0.  0.
<mgrwt>
<rscale>  0 0.12499922E+03</rscale>
<asrwt>0</asrwt>
<pdfrwt beam="2">  1        4 0.37561412E-01 0.12499922E+03</pdfrwt>
<pdfrwt beam="1">  1       -4 0.24614215E-02 0.12499922E+03</pdfrwt>
<totfact> 0.80886638E+03</totfact>
</mgrwt>
</event>
<event>
 5    1  0.3312706E-002  0.1249954E+03  0.7818608E-02  0.1235076E+00
         -4   -1    0    0    0  501 -0.00000000000E+00  0.00000000000E+00  0.58691170565E+02  0.58704909524E+02  0.12700000000E+01 0.  1.
          4   -1    0    0  501    0  0.00000000000E+00 -0.00000000000E+00 -0.66523569460E+02  0.66535691127E+02  0.12700000000E+01 0.  1.
         25    2    1    2    0    0  0.00000000000E+00  0.00000000000E+00 -0.78323988958E+01  0.12524060065E+03  0.12499544623E+03 0.  0.
    9000005    1    3    3    0    0 -0.18281550546E+01 -0.42593890618E+02 -0.49693702167E+02  0.65483171151E+02  0.10000000000E+01 0.  0.
    9000005    1    3    3    0    0  0.18281550546E+01  0.42593890618E+02  0.41861303272E+02  0.59757429500E+02  0.10000000000E+01 0.  0.
<mgrwt>
<rscale>  0 0.12499545E+03</rscale>
<asrwt>0</asrwt>
<pdfrwt beam="2">  1        4 0.10236385E-01 0.12499545E+03</pdfrwt>
<pdfrwt beam="1">  1       -4 0.90314002E-02 0.12499545E+03</pdfrwt>
<totfact> 0.10448714E+04</totfact>
</mgrwt>
</event>
<event>
 5    1  0.3312706E-002  0.1250039E+03  0.7818608E-02  0.1235063E+00
          4   -1    0    0  501    0  0.00000000000E+00  0.00000000000E+00  0.42163584954E+02  0.42182707312E+02  0.12700000000E+01 0.  1.
         -4   -1    0    0    0  501 -0.00000000000E+00 -0.00000000000E+00 -0.92606476508E+02  0.92615184453E+02  0.12700000000E+01 0.  1.
         25    2    1    2    0    0  0.00000000000E+00  0.00000000000E+00 -0.50442891554E+02  0.13479789176E+03  0.12500394520E+03 0.  0.
    9000005    1    3    3    0    0 -0.56436216764E+02  0.20755181036E+01  0.36360755649E+01  0.56600135897E+02  0.10000000000E+01 0.  0.
    9000005    1    3    3    0    0  0.56436216764E+02 -0.20755181036E+01 -0.54078967119E+02  0.78197755867E+02  0.10000000000E+01 0.  0.
<mgrwt>
<rscale>  0 0.12500395E+03</rscale>
<asrwt>0</asrwt>
<pdfrwt beam="1">  1        4 0.64888462E-02 0.12500395E+03</pdfrwt>
<pdfrwt beam="2">  1       -4 0.14249291E-01 0.12500395E+03</pdfrwt>
<totfact> 0.10241421E+04</totfact>
</mgrwt>
</event>
<event>
 5    1  0.3312706E-002  0.1249944E+03  0.7818608E-02  0.1235078E+00
         -4   -1    0    0    0  501 -0.00000000000E+00  0.00000000000E+00  0.16984459979E+02  0.17031875433E+02  0.12700000000E+01 0. -1.
          4   -1    0    0  501    0  0.00000000000E+00 -0.00000000000E+00 -0.22959918316E+03  0.22960269556E+03  0.12700000000E+01 0. -1.
         25    2    1    2    0    0  0.00000000000E+00  0.00000000000E+00 -0.21261472318E+03  0.24663457099E+03  0.12499436425E+03 0.  0.
    9000005    1    3    3    0    0 -0.30182224243E+02  0.13404134190E+02 -0.16317150264E+01  0.33080205071E+02  0.10000000000E+01 0.  0.
    9000005    1    3    3    0    0  0.30182224243E+02 -0.13404134190E+02 -0.21098300815E+03  0.21355436592E+03  0.10000000000E+01 0.  0.
<mgrwt>
<rscale>  0 0.12499436E+03</rscale>
<asrwt>0</asrwt>
<pdfrwt beam="2">  1        4 0.35326867E-01 0.12499436E+03</pdfrwt>
<pdfrwt beam="1">  1       -4 0.26169115E-02 0.12499436E+03</pdfrwt>
<totfact> 0.82829485E+03</totfact>
</mgrwt>
</event>
<event>
 5    1  0.3312706E-002  0.1250004E+03  0.7818608E-02  0.1235069E+00
         -4   -1    0    0    0  501 -0.00000000000E+00  0.00000000000E+00  0.45541408990E+03  0.45541586070E+03  0.12700000000E+01 0. -1.
          4   -1    0    0  501    0  0.00000000000E+00 -0.00000000000E+00 -0.85286024284E+01  0.86226422506E+01  0.12700000000E+01 0. -1.
         25    2    1    2    0    0  0.00000000000E+00  0.00000000000E+00  0.44688548747E+03  0.46403850295E+03  0.12500037324E+03 0.  0.
    9000005    1    3    3    0    0  0.11308901148E+02  0.58899462883E+02  0.28861817785E+03  0.29478549923E+03  0.10000000000E+01 0.  0.
    9000005    1    3    3    0    0 -0.11308901148E+02 -0.58899462883E+02  0.15826730962E+03  0.16925300372E+03  0.10000000000E+01 0.  0.
<mgrwt>
<rscale>  0 0.12500037E+03</rscale>
<asrwt>0</asrwt>
<pdfrwt beam="2">  1        4 0.13194620E-02 0.12500037E+03</pdfrwt>
<pdfrwt beam="1">  1       -4 0.70071113E-01 0.12500037E+03</pdfrwt>
<totfact> 0.58766140E+03</totfact>
</mgrwt>
</event>
<event>
 5    1  0.3312706E-002  0.1250024E+03  0.7818608E-02  0.1235066E+00
         -4   -1    0    0    0  501 -0.00000000000E+00  0.00000000000E+00  0.53492436291E+03  0.53492587051E+03  0.12700000000E+01 0.  1.
          4   -1    0    0  501    0  0.00000000000E+00 -0.00000000000E+00 -0.72459679710E+01  0.73564224890E+01  0.12700000000E+01 0.  1.
         25    2    1    2    0    0  0.00000000000E+00  0.00000000000E+00  0.52767839494E+03  0.54228229300E+03  0.12500238721E+03 0.  0.
    9000005    1    3    3    0    0 -0.13996059565E+02  0.51156861242E+02  0.40722787901E+03  0.41066830847E+03  0.10000000000E+01 0.  0.
    9000005    1    3    3    0    0  0.13996059565E+02 -0.51156861242E+02  0.12045051593E+03  0.13161398453E+03  0.10000000000E+01 0.  0.
<mgrwt>
<rscale>  0 0.12500239E+03</rscale>
<asrwt>0</asrwt>
<pdfrwt beam="2">  1        4 0.11233768E-02 0.12500239E+03</pdfrwt>
<pdfrwt beam="1">  1       -4 0.82304664E-01 0.12500239E+03</pdfrwt>
<totfact> 0.52724045E+03</totfact>
</mgrwt>
</event>
<event>
 4    1  0.3312706E-002  0.1252335E+03  0.7818608E-02  0.1234705E+00
         -4   -1    0    0    0  501 -0.00000000000E+00  0.00000000000E+00  0.26064261122E+02  0.26095183614E+02  0.12700000000E+01 0. -1.
          4   -1    0    0  501    0  0.00000000000E+00 -0.00000000000E+00 -0.15030767642E+03  0.15031304165E+03  0.12700000000E+01 0. -1.
    9000005    1    1    2    0    0 -0.28763168632E+02  0.54979589319E+02 -0.73888973735E+02  0.96491738253E+02  0.10000000000E+01 0.  0.
    9000005    1    1    2    0    0  0.28763168632E+02 -0.54979589319E+02 -0.50354441562E+02  0.79916487013E+02  0.10000000000E+01 0.  0.
<mgrwt>
<rscale>  0 0.12523352E+03</rscale>
<asrwt>0</asrwt>
<pdfrwt beam="2">  1        4 0.23127049E-01 0.12523352E+03</pdfrwt>
<pdfrwt beam="1">  1       -4 0.40126778E-02 0.12523352E+03</pdfrwt>
<totfact> 0.93775482E+03</totfact>
</mgrwt>
</event>
<event>
 5    1  0.3312706E-002  0.1249990E+03  0.7818608E-02  0.1235071E+00
         -4   -1    0    0    0  501 -0.00000000000E+00  0.00000000000E+00  0.36586567354E+03  0.36586787776E+03  0.12700000000E+01 0.  1.
          4   -1    0    0  501    0  0.00000000000E+00 -0.00000000000E+00 -0.10636556335E+02  0.10712106733E+02  0.12700000000E+01 0.  1.
         25    2    1    2    0    0  0.00000000000E+00  0.00000000000E+00  0.35522911721E+03  0.37657998449E+03  0.12499903603E+03 0.  0.
    9000005    1    3    3    0    0  0.37348550754E+02  0.49851740412E+02  0.19270180181E+03  0.20252183756E+03  0.10000000000E+01 0.  0.
    9000005    1    3    3    0    0 -0.37348550754E+02 -0.49851740412E+02  0.16252731539E+03  0.17405814693E+03  0.10000000000E+01 0.  0.
<mgrwt>
<rscale>  0 0.12499904E+03</rscale>
<asrwt>0</asrwt>
<pdfrwt beam="2">  1        4 0.16423741E-02 0.12499904E+03</pdfrwt>
<pdfrwt beam="1">  1       -4 0.56293018E-01 0.12499904E+03</pdfrwt>
<totfact> 0.66897537E+03</totfact>
</mgrwt>
</event>
<event>
 5    1  0.3312706E-002  0.1250030E+03  0.7818608E-02  0.1235065E+00
         -4   -1    0    0    0  501 -0.00000000000E+00  0.00000000000E+00  0.15383905320E+02  0.15436237977E+02  0.12700000000E+01 0. -1.
          4   -1    0    0  501    0  0.00000000000E+00 -0.00000000000E+00 -0.25344506970E+03  0.25344825163E+03  0.12700000000E+01 0. -1.
         25    2    1    2    0    0  0.00000000000E+00  0.00000000000E+00 -0.23806116438E+03  0.26888448961E+03  0.12500300303E+03 0.  0.
    9000005    1    3    3    0    0 -0.45247937376E+02  0.42360339335E+02 -0.10186768578E+03  0.11924680118E+03  0.10000000000E+01 0.  0.
    9000005    1    3    3    0    0  0.45247937376E+02 -0.42360339335E+02 -0.13619347859E+03  0.14963768842E+03  0.10000000000E+01 0.  0.
<mgrwt>
<rscale>  0 0.12500300E+03</rscale>
<asrwt>0</asrwt>
<pdfrwt beam="2">  1        4 0.38995817E-01 0.12500300E+03</pdfrwt>
<pdfrwt beam="1">  1       -4 0.23710252E-02 0.12500300E+03</pdfrwt>
<totfact> 0.79669872E+03</totfact>
</mgrwt>
</event>
<event>
 5    1  0.3312706E-002  0.1249999E+03  0.7818608E-02  0.1235069E+00
          4   -1    0    0  501    0  0.00000000000E+00  0.00000000000E+00  0.47782781734E+01  0.49441725599E+01  0.12700000000E+01 0. -1.
         -4   -1    0    0    0  501 -0.00000000000E+00 -0.00000000000E+00 -0.80338472696E+03  0.80338573078E+03  0.12700000000E+01 0. -1.
         25    2    1    2    0    0  0.00000000000E+00  0.00000000000E+00 -0.79860644879E+03  0.80832990334E+03  0.12499989033E+03 0.  0.
    9000005    1    3    3    0    0 -0.55376252202E+02 -0.65869828195E+00 -0.21207403637E+03  0.21918795608E+03  0.10000000000E+01 0.  0.
    9000005    1    3    3    0    0  0.55376252202E+02  0.65869828195E+00 -0.58653241243E+03  0.58914194726E+03  0.10000000000E+01 0.  0.
<mgrwt>
<rscale>  0 0.12499989E+03</rscale>
<asrwt>0</asrwt>
<pdfrwt beam="1">  1        4 0.74795868E-03 0.12499989E+03</pdfrwt>
<pdfrwt beam="2">  1       -4 0.12361038E+00 0.12499989E+03</pdfrwt>
<totfact> 0.37895671E+03</totfact>
</mgrwt>
</event>
<event>
 5    1  0.3312706E-002  0.1249940E+03  0.7818608E-02  0.1235079E+00
          4   -1    0    0  501    0  0.00000000000E+00  0.00000000000E+00  0.23386011038E+02  0.23420469942E+02  0.12700000000E+01 0. -1.
         -4   -1    0    0    0  501 -0.00000000000E+00 -0.00000000000E+00 -0.16685785501E+03  0.16686268809E+03  0.12700000000E+01 0. -1.
         25    2    1    2    0    0  0.00000000000E+00  0.00000000000E+00 -0.14347184397E+03  0.19028315804E+03  0.12499404074E+03 0.  0.
    9000005    1    3    3    0    0  0.54663670544E+02 -0.81785037066E+01 -0.27355850638E+02  0.61679391732E+02  0.10000000000E+01 0.  0.
    9000005    1    3    3    0    0 -0.54663670544E+02  0.81785037066E+01 -0.11611599333E+03  0.12860376631E+03  0.10000000000E+01 0.  0.
<mgrwt>
<rscale>  0 0.12499404E+03</rscale>
<asrwt>0</asrwt>
<pdfrwt beam="1">  1        4 0.36008704E-02 0.12499404E+03</pdfrwt>
<pdfrwt beam="2">  1       -4 0.25673461E-01 0.12499404E+03</pdfrwt>
<totfact> 0.91810324E+03</totfact>
</mgrwt>
</event>
<event>
 5    1  0.3312706E-002  0.1249999E+03  0.7818608E-02  0.1235069E+00
          4   -1    0    0  501    0  0.00000000000E+00  0.00000000000E+00  0.22532665077E+03  0.22533022976E+03  0.12700000000E+01 0. -1.
         -4   -1    0    0    0  501 -0.00000000000E+00 -0.00000000000E+00 -0.17308939844E+02  0.17355468836E+02  0.12700000000E+01 0. -1.
         25    2    1    2    0    0  0.00000000000E+00  0.00000000000E+00  0.20801771092E+03  0.24268569860E+03  0.12499992099E+03 0.  0.
    9000005    1    3    3    0    0  0.30177359482E+02 -0.43029935392E+02  0.16964709635E+03  0.17760457670E+03  0.10000000000E+01 0.  0.
    9000005    1    3    3    0    0 -0.30177359482E+02  0.43029935392E+02  0.38370614575E+02  0.65081121902E+02  0.10000000000E+01 0.  0.
<mgrwt>
<rscale>  0 0.12499992E+03</rscale>
<asrwt>0</asrwt>
<pdfrwt beam="1">  1        4 0.34669491E-01 0.12499992E+03</pdfrwt>
<pdfrwt beam="2">  1       -4 0.26667685E-02 0.12499992E+03</pdfrwt>
<totfact> 0.83399147E+03</totfact>
</mgrwt>
</event>
<event>
 5    1  0.3312706E-002  0.1249798E+03  0.7818608E-02  0.1235101E+00
         -4   -1    0    0    0  501 -0.00000000000E+00  0.00000000000E+00  0.93519495324E+01  0.94377889390E+01  0.12700000000E+01 0.  1.
          4   -1    0    0  501    0  0.00000000000E+00 -0.00000000000E+00 -0.41556442058E+03  0.41556636119E+03  0.12700000000E+01 0.  1.
         25    2    1    2    0    0  0.00000000000E+00  0.00000000000E+00 -0.40621247104E+03  0.42500415012E+03  0.12497982234E+03 0.  0.
    9000005    1    3    3    0    0 -0.46117539063E+02  0.14311600546E+02 -0.68263841340E+02  0.83621775596E+02  0.10000000000E+01 0.  0.
    9000005    1    3    3    0    0  0.46117539063E+02 -0.14311600546E+02 -0.33794862970E+03  0.34138237453E+03  0.10000000000E+01 0.  0.
<mgrwt>
<rscale>  0 0.12497982E+03</rscale>
<asrwt>0</asrwt>
<pdfrwt beam="2">  1        4 0.63939726E-01 0.12497982E+03</pdfrwt>
<pdfrwt beam="1">  1       -4 0.14455141E-02 0.12497982E+03</pdfrwt>
<totfact> 0.62219148E+03</totfact>
</mgrwt>
</event>
<event>
 5    1  0.3312706E-002  0.1250055E+03  0.7818608E-02  0.1235061E+00
          4   -1    0    0  501    0  0.00000000000E+00  0.00000000000E+00  0.34156674675E+02  0.34180276840E+02  0.12700000000E+01 0.  1.
         -4   -1    0    0    0  501 -0.00000000000E+00 -0.00000000000E+00 -0.11430618382E+03  0.11431323878E+03  0.12700000000E+01 0.  1.
         25    2    1    2    0    0  0.00000000000E+00  0.00000000000E+00 -0.80149509150E+02  0.14849351562E+03  0.12500552134E+03 0.  0.
    9000005    1    3    3    0    0 -0.52173487852E+02  0.30913209698E+02 -0.22142025773E+02  0.64567551246E+02  0.10000000000E+01 0.  0.
    9000005    1    3    3    0    0  0.52173487852E+02 -0.30913209698E+02 -0.58007483377E+02  0.83925964375E+02  0.10000000000E+01 0.  0.
<mgrwt>
<rscale>  0 0.12500552E+03</rscale>
<asrwt>0</asrwt>
<pdfrwt beam="1">  1        4 0.52572313E-02 0.12500552E+03</pdfrwt>
<pdfrwt beam="2">  1       -4 0.17587925E-01 0.12500552E+03</pdfrwt>
<totfact> 0.99592466E+03</totfact>
</mgrwt>
</event>
<event>
 5    1  0.3312706E-002  0.1250009E+03  0.7818608E-02  0.1235068E+00
         -4   -1    0    0    0  501 -0.00000000000E+00  0.00000000000E+00  0.14992089501E+03  0.14992627409E+03  0.12700000000E+01 0.  1.
          4   -1    0    0  501    0  0.00000000000E+00 -0.00000000000E+00 -0.26034459617E+02  0.26065417464E+02  0.12700000000E+01 0.  1.
         25    2    1    2    0    0  0.00000000000E+00  0.00000000000E+00  0.12388643539E+03  0.17599169155E+03  0.12500090648E+03 0.  0.
    9000005    1    3    3    0    0  0.31893448719E+02  0.58489741720E+01 -0.13270782980E+02  0.35050196161E+02  0.10000000000E+01 0.  0.
    9000005    1    3    3    0    0 -0.31893448719E+02 -0.58489741720E+01  0.13715721837E+03  0.14094149539E+03  0.10000000000E+01 0.  0.
<mgrwt>
<rscale>  0 0.12500091E+03</rscale>
<asrwt>0</asrwt>
<pdfrwt beam="2">  1        4 0.40080966E-02 0.12500091E+03</pdfrwt>
<pdfrwt beam="1">  1       -4 0.23067548E-01 0.12500091E+03</pdfrwt>
<totfact> 0.94341609E+03</totfact>
</mgrwt>
</event>
<event>
 5    1  0.3312706E-002  0.1249998E+03  0.7818608E-02  0.1235070E+00
         -4   -1    0    0    0  501 -0.00000000000E+00  0.00000000000E+00  0.14301425626E+03  0.14301989510E+03  0.12700000000E+01 0. -1.
          4   -1    0    0  501    0  0.00000000000E+00 -0.00000000000E+00 -0.27292676145E+02  0.27322208388E+02  0.12700000000E+01 0. -1.
         25    2    1    2    0    0  0.00000000000E+00  0.00000000000E+00  0.11572158011E+03  0.17034210348E+03  0.12499979246E+03 0.  0.
    9000005    1    3    3    0    0  0.18800832458E+02 -0.24940822518E+02  0.13162162997E+03  0.13528033635E+03  0.10000000000E+01 0.  0.
    9000005    1    3    3    0    0 -0.18800832458E+02  0.24940822518E+02 -0.15900049852E+02  0.35061767130E+02  0.10000000000E+01 0.  0.
<mgrwt>
<rscale>  0 0.12499979E+03</rscale>
<asrwt>0</asrwt>
<pdfrwt beam="2">  1        4 0.42015788E-02 0.12499979E+03</pdfrwt>
<pdfrwt beam="1">  1       -4 0.22004898E-01 0.12499979E+03</pdfrwt>
<totfact> 0.95385356E+03</totfact>
</mgrwt>
</event>
<event>
 5    1  0.3312706E-002  0.1250013E+03  0.7818608E-02  0.1235067E+00
         -4   -1    0    0    0  501 -0.00000000000E+00  0.00000000000E+00  0.29019127051E+03  0.29019404952E+03  0.12700000000E+01 0.  1.
          4   -1    0    0  501    0  0.00000000000E+00 -0.00000000000E+00 -0.13428426489E+02  0.13488348230E+02  0.12700000000E+01 0.  1.
         25    2    1    2    0    0  0.00000000000E+00  0.00000000000E+00  0.27676284402E+03  0.30368239775E+03  0.12500130750E+03 0.  0.
    9000005    1    3    3    0    0 -0.77309038235E+01  0.61691321348E+02  0.12306525044E+03  0.13788271055E+03  0.10000000000E+01 0.  0.
    9000005    1    3    3    0    0  0.77309038235E+01 -0.61691321348E+02  0.15369759358E+03  0.16579968720E+03  0.10000000000E+01 0.  0.
<mgrwt>
<rscale>  0 0.12500131E+03</rscale>
<asrwt>0</asrwt>
<pdfrwt beam="2">  1        4 0.20707347E-02 0.12500131E+03</pdfrwt>
<pdfrwt beam="1">  1       -4 0.44649638E-01 0.12500131E+03</pdfrwt>
<totfact> 0.75137050E+03</totfact>
</mgrwt>
</event>
<event>
 5    1  0.3312706E-002  0.1250006E+03  0.7818608E-02  0.1235068E+00
         -4   -1    0    0    0  501 -0.00000000000E+00  0.00000000000E+00  0.31857761490E+01  0.34295873909E+01  0.12700000000E+01 0.  1.
          4   -1    0    0  501    0  0.00000000000E+00 -0.00000000000E+00 -0.11807309349E+04  0.11807316179E+04  0.12700000000E+01 0.  1.
         25    2    1    2    0    0  0.00000000000E+00  0.00000000000E+00 -0.11775451588E+04  0.11841612053E+04  0.12500063696E+03 0.  0.
    9000005    1    3    3    0    0  0.46991604892E+02 -0.31834686260E+02 -0.83646326605E+03  0.83838741262E+03  0.10000000000E+01 0.  0.
    9000005    1    3    3    0    0 -0.46991604892E+02  0.31834686260E+02 -0.34108189271E+03  0.34577379270E+03  0.10000000000E+01 0.  0.
<mgrwt>
<rscale>  0 0.12500064E+03</rscale>
<asrwt>0</asrwt>
<pdfrwt beam="2">  1        4 0.18166938E+00 0.12500064E+03</pdfrwt>
<pdfrwt beam="1">  1       -4 0.50892760E-03 0.12500064E+03</pdfrwt>
<totfact> 0.25130841E+03</totfact>
</mgrwt>
</event>
<event>
 5    1  0.3312706E-002  0.1249987E+03  0.7818608E-02  0.1235071E+00
          4   -1    0    0  501    0  0.00000000000E+00  0.00000000000E+00  0.18556223691E+03  0.18556658284E+03  0.12700000000E+01 0. -1.
         -4   -1    0    0    0  501 -0.00000000000E+00 -0.00000000000E+00 -0.21026691868E+02  0.21065010584E+02  0.12700000000E+01 0. -1.
         25    2    1    2    0    0  0.00000000000E+00  0.00000000000E+00  0.16453554504E+03  0.20663159342E+03  0.12499867927E+03 0.  0.
    9000005    1    3    3    0    0 -0.56476457897E+02  0.24937844408E+02  0.98267671172E+02  0.11605611392E+03  0.10000000000E+01 0.  0.
    9000005    1    3    3    0    0  0.56476457897E+02 -0.24937844408E+02  0.66267873869E+02  0.90575479504E+02  0.10000000000E+01 0.  0.
<mgrwt>
<rscale>  0 0.12499868E+03</rscale>
<asrwt>0</asrwt>
<pdfrwt beam="1">  1        4 0.28551318E-01 0.12499868E+03</pdfrwt>
<pdfrwt beam="2">  1       -4 0.32381576E-02 0.12499868E+03</pdfrwt>
<totfact> 0.89031587E+03</totfact>
</mgrwt>
</event>
<event>
 5    1  0.3312706E-002  0.1250018E+03  0.7818608E-02  0.1235067E+00
         -4   -1    0    0    0  501 -0.00000000000E+00  0.00000000000E+00  0.51954695419E+03  0.51954850641E+03  0.12700000000E+01 0.  1.
          4   -1    0    0  501    0  0.00000000000E+00 -0.00000000000E+00 -0.74635787015E+01  0.75708590684E+01  0.12700000000E+01 0.  1.
         25    2    1    2    0    0  0.00000000000E+00  0.00000000000E+00  0.51208337549E+03  0.52711936547E+03  0.12500176801E+03 0.  0.
    9000005    1    3    3    0    0  0.18911003185E+02 -0.55360018483E+02  0.34871776574E+03  0.35359219141E+03  0.10000000000E+01 0.  0.
    9000005    1    3    3    0    0 -0.18911003185E+02  0.55360018483E+02  0.16336560975E+03  0.17352717406E+03  0.10000000000E+01 0.  0.
<mgrwt>
<rscale>  0 0.12500177E+03</rscale>
<asrwt>0</asrwt>
<pdfrwt beam="2">  1        4 0.11566146E-02 0.12500177E+03</pdfrwt>
<pdfrwt beam="1">  1       -4 0.79938676E-01 0.12500177E+03</pdfrwt>
<totfact> 0.53817872E+03</totfact>
</mgrwt>
</event>
<event>
 5    1  0.3312706E-002  0.1249993E+03  0.7818608E-02  0.1235070E+00
         -4   -1    0    0    0  501 -0.00000000000E+00  0.00000000000E+00  0.21486291862E+03  0.21486667191E+03  0.12700000000E+01 0.  1.
          4   -1    0    0  501    0  0.00000000000E+00 -0.00000000000E+00 -0.18153887309E+02  0.18198256082E+02  0.12700000000E+01 0.  1.
         25    2    1    2    0    0  0.00000000000E+00  0.00000000000E+00  0.19670903131E+03  0.23306492799E+03  0.12499927064E+03 0.  0.
    9000005    1    3    3    0    0  0.48082554639E+02 -0.26747665231E+02  0.43111696575E+02  0.69906995626E+02  0.10000000000E+01 0.  0.
    9000005    1    3    3    0    0 -0.48082554639E+02  0.26747665231E+02  0.15359733474E+03  0.16315793237E+03  0.10000000000E+01 0.  0.
<mgrwt>
<rscale>  0 0.12499927E+03</rscale>
<asrwt>0</asrwt>
<pdfrwt beam="2">  1        4 0.27966075E-02 0.12499927E+03</pdfrwt>
<pdfrwt beam="1">  1       -4 0.33059535E-01 0.12499927E+03</pdfrwt>
<totfact> 0.84842565E+03</totfact>
</mgrwt>
</event>
<event>
 5    1  0.3312706E-002  0.1249993E+03  0.7818608E-02  0.1235070E+00
         -4   -1    0    0    0  501 -0.00000000000E+00  0.00000000000E+00  0.18760746325E+02  0.18803683221E+02  0.12700000000E+01 0.  1.
          4   -1    0    0  501    0  0.00000000000E+00 -0.00000000000E+00 -0.20792872006E+03  0.20793259851E+03  0.12700000000E+01 0.  1.
         25    2    1    2    0    0  0.00000000000E+00  0.00000000000E+00 -0.18916797373E+03  0.22673628174E+03  0.12499927667E+03 0.  0.
    9000005    1    3    3    0    0  0.60418863944E+01  0.40438327196E+02 -0.18030767922E+03  0.18488813343E+03  0.10000000000E+01 0.  0.
    9000005    1    3    3    0    0 -0.60418863944E+01 -0.40438327196E+02 -0.88602945118E+01  0.41848148304E+02  0.10000000000E+01 0.  0.
<mgrwt>
<rscale>  0 0.12499928E+03</rscale>
<asrwt>0</asrwt>
<pdfrwt beam="2">  1        4 0.31992633E-01 0.12499928E+03</pdfrwt>
<pdfrwt beam="1">  1       -4 0.28898700E-02 0.12499928E+03</pdfrwt>
<totfact> 0.85814662E+03</totfact>
</mgrwt>
</event>
<event>
 5    1  0.3312706E-002  0.1250001E+03  0.7818608E-02  0.1235069E+00
         -4   -1    0    0    0  501 -0.00000000000E+00  0.00000000000E+00  0.49678660596E+01  0.51276303675E+01  0.12700000000E+01 0.  1.
          4   -1    0    0  501    0  0.00000000000E+00 -0.00000000000E+00 -0.77370143845E+03  0.77370248078E+03  0.12700000000E+01 0.  1.
         25    2    1    2    0    0  0.00000000000E+00  0.00000000000E+00 -0.76873357239E+03  0.77883011115E+03  0.12500014682E+03 0.  0.
    9000005    1    3    3    0    0 -0.21503970831E+02 -0.48205766903E+02 -0.59279451295E+03  0.59514078276E+03  0.10000000000E+01 0.  0.
    9000005    1    3    3    0    0  0.21503970831E+02  0.48205766903E+02 -0.17593905944E+03  0.18368932838E+03  0.10000000000E+01 0.  0.
<mgrwt>
<rscale>  0 0.12500015E+03</rscale>
<asrwt>0</asrwt>
<pdfrwt beam="2">  1        4 0.11904327E+00 0.12500015E+03</pdfrwt>
<pdfrwt beam="1">  1       -4 0.77665744E-03 0.12500015E+03</pdfrwt>
<totfact> 0.39227350E+03</totfact>
</mgrwt>
</event>
<event>
 5    1  0.3312706E-002  0.1249996E+03  0.7818608E-02  0.1235070E+00
         -4   -1    0    0    0  501 -0.00000000000E+00  0.00000000000E+00  0.40188304825E+02  0.40208366601E+02  0.12700000000E+01 0.  1.
          4   -1    0    0  501    0  0.00000000000E+00 -0.00000000000E+00 -0.97149511365E+02  0.97157812133E+02  0.12700000000E+01 0.  1.
         25    2    1    2    0    0  0.00000000000E+00  0.00000000000E+00 -0.56961206540E+02  0.13736617873E+03  0.12499955204E+03 0.  0.
    9000005    1    3    3    0    0  0.22303752030E+02 -0.58324614057E+02 -0.25787870520E+02  0.67566502244E+02  0.10000000000E+01 0.  0.
    9000005    1    3    3    0    0 -0.22303752030E+02  0.58324614057E+02 -0.31173336020E+02  0.69799676490E+02  0.10000000000E+01 0.  0.
<mgrwt>
<rscale>  0 0.12499955E+03</rscale>
<asrwt>0</asrwt>
<pdfrwt beam="2">  1        4 0.14948260E-01 0.12499955E+03</pdfrwt>
<pdfrwt beam="1">  1       -4 0.61849979E-02 0.12499955E+03</pdfrwt>
<totfact> 0.10188538E+04</totfact>
</mgrwt>
</event>
<event>
 5    1  0.3312706E-002  0.1249854E+03  0.7818608E-02  0.1235092E+00
          4   -1    0    0  501    0  0.00000000000E+00  0.00000000000E+00  0.42237221713E+02  0.42256310748E+02  0.12700000000E+01 0. -1.
         -4   -1    0    0    0  501 -0.00000000000E+00 -0.00000000000E+00 -0.92417665990E+02  0.92426391724E+02  0.12700000000E+01 0. -1.
         25    2    1    2    0    0  0.00000000000E+00  0.00000000000E+00 -0.50180444277E+02  0.13468270247E+03  0.12498541258E+03 0.  0.
    9000005    1    3    3    0    0 -0.50701339587E+02  0.33140491142E+02 -0.41624091233E+02  0.73501584745E+02  0.10000000000E+01 0.  0.
    9000005    1    3    3    0    0  0.50701339587E+02 -0.33140491142E+02 -0.85563530441E+01  0.61181117728E+02  0.10000000000E+01 0.  0.
<mgrwt>
<rscale>  0 0.12498541E+03</rscale>
<asrwt>0</asrwt>
<pdfrwt beam="1">  1        4 0.65001737E-02 0.12498541E+03</pdfrwt>
<pdfrwt beam="2">  1       -4 0.14220242E-01 0.12498541E+03</pdfrwt>
<totfact> 0.10248134E+04</totfact>
</mgrwt>
</event>
<event>
 5    1  0.3312706E-002  0.1250017E+03  0.7818608E-02  0.1235067E+00
          4   -1    0    0  501    0  0.00000000000E+00  0.00000000000E+00  0.89864366598E+02  0.89873340229E+02  0.12700000000E+01 0. -1.
         -4   -1    0    0    0  501 -0.00000000000E+00 -0.00000000000E+00 -0.43449035255E+02  0.43467592119E+02  0.12700000000E+01 0. -1.
         25    2    1    2    0    0  0.00000000000E+00  0.00000000000E+00  0.46415331342E+02  0.13334093235E+03  0.12500168501E+03 0.  0.
    9000005    1    3    3    0    0  0.21919748470E+02  0.20517399762E+01 -0.39180645398E+02  0.44953397910E+02  0.10000000000E+01 0.  0.
    9000005    1    3    3    0    0 -0.21919748470E+02 -0.20517399762E+01  0.85595976740E+02  0.88387534438E+02  0.10000000000E+01 0.  0.
<mgrwt>
<rscale>  0 0.12500169E+03</rscale>
<asrwt>0</asrwt>
<pdfrwt beam="1">  1        4 0.13827405E-01 0.12500169E+03</pdfrwt>
<pdfrwt beam="2">  1       -4 0.66865847E-02 0.12500169E+03</pdfrwt>
<totfact> 0.10272769E+04</totfact>
</mgrwt>
</event>
<event>
 5    1  0.3312706E-002  0.1249999E+03  0.7818608E-02  0.1235069E+00
         -4   -1    0    0    0  501 -0.00000000000E+00  0.00000000000E+00  0.27351554960E+02  0.27381023697E+02  0.12700000000E+01 0. -1.
          4   -1    0    0  501    0  0.00000000000E+00 -0.00000000000E+00 -0.14270706184E+03  0.14271271281E+03  0.12700000000E+01 0. -1.
         25    2    1    2    0    0  0.00000000000E+00  0.00000000000E+00 -0.11535550688E+03  0.17009373651E+03  0.12499994493E+03 0.  0.
    9000005    1    3    3    0    0 -0.32912198053E+02 -0.49189002752E+02 -0.84976856517E+02  0.10356078851E+03  0.10000000000E+01 0.  0.
    9000005    1    3    3    0    0  0.32912198053E+02  0.49189002752E+02 -0.30378650361E+02  0.66532948004E+02  0.10000000000E+01 0.  0.
<mgrwt>
<rscale>  0 0.12499994E+03</rscale>
<asrwt>0</asrwt>
<pdfrwt beam="2">  1        4 0.21957634E-01 0.12499994E+03</pdfrwt>
<pdfrwt beam="1">  1       -4 0.42106331E-02 0.12499994E+03</pdfrwt>
<totfact> 0.95431286E+03</totfact>
</mgrwt>
</event>
<event>
 5    1  0.3312706E-002  0.1249841E+03  0.7818608E-02  0.1235094E+00
          4   -1    0    0  501    0  0.00000000000E+00  0.00000000000E+00  0.28902097848E+02  0.28929987211E+02  0.12700000000E+01 0.  1.
         -4   -1    0    0    0  501 -0.00000000000E+00 -0.00000000000E+00 -0.13502414445E+03  0.13503011696E+03  0.12700000000E+01 0.  1.
         25    2    1    2    0    0  0.00000000000E+00  0.00000000000E+00 -0.10612204661E+03  0.16396010417E+03  0.12498410692E+03 0.  0.
    9000005    1    3    3    0    0  0.54579545438E+02 -0.29631577880E+02 -0.44038833999E+02  0.76140502283E+02  0.10000000000E+01 0.  0.
    9000005    1    3    3    0    0 -0.54579545438E+02  0.29631577880E+02 -0.62083212607E+02  0.87819601887E+02  0.10000000000E+01 0.  0.
<mgrwt>
<rscale>  0 0.12498411E+03</rscale>
<asrwt>0</asrwt>
<pdfrwt beam="1">  1        4 0.44490814E-02 0.12498411E+03</pdfrwt>
<pdfrwt beam="2">  1       -4 0.20775550E-01 0.12498411E+03</pdfrwt>
<totfact> 0.96619191E+03</totfact>
</mgrwt>
</event>
<event>
 5    1  0.3312706E-002  0.1250007E+03  0.7818608E-02  0.1235068E+00
          4   -1    0    0  501    0  0.00000000000E+00  0.00000000000E+00  0.50014959120E+03  0.50015120362E+03  0.12700000000E+01 0. -1.
         -4   -1    0    0    0  501 -0.00000000000E+00 -0.00000000000E+00 -0.77569890653E+01  0.78602658580E+01  0.12700000000E+01 0. -1.
         25    2    1    2    0    0  0.00000000000E+00  0.00000000000E+00  0.49239260214E+03  0.50801146948E+03  0.12500071392E+03 0.  0.
    9000005    1    3    3    0    0 -0.46379196077E+02  0.29956911742E+02  0.36515959374E+03  0.36931148817E+03  0.10000000000E+01 0.  0.
    9000005    1    3    3    0    0  0.46379196077E+02 -0.29956911742E+02  0.12723300840E+03  0.13869998131E+03  0.10000000000E+01 0.  0.
<mgrwt>
<rscale>  0 0.12500071E+03</rscale>
<asrwt>0</asrwt>
<pdfrwt beam="1">  1        4 0.76954164E-01 0.12500071E+03</pdfrwt>
<pdfrwt beam="2">  1       -4 0.12014513E-02 0.12500071E+03</pdfrwt>
<totfact> 0.55247218E+03</totfact>
</mgrwt>
</event>
<event>
 5    1  0.3312706E-002  0.1249999E+03  0.7818608E-02  0.1235069E+00
         -4   -1    0    0    0  501 -0.00000000000E+00  0.00000000000E+00  0.14095662741E+03  0.14096234856E+03  0.12700000000E+01 0.  1.
          4   -1    0    0  501    0  0.00000000000E+00 -0.00000000000E+00 -0.27691552035E+02  0.27720659338E+02  0.12700000000E+01 0.  1.
         25    2    1    2    0    0  0.00000000000E+00  0.00000000000E+00  0.11326507537E+03  0.16868300789E+03  0.12499991941E+03 0.  0.
    9000005    1    3    3    0    0  0.37689529606E+02 -0.48305829477E+02  0.40034055385E+02  0.73196170623E+02  0.10000000000E+01 0.  0.
    9000005    1    3    3    0    0 -0.37689529606E+02  0.48305829477E+02  0.73231019990E+02  0.95486837271E+02  0.10000000000E+01 0.  0.
<mgrwt>
<rscale>  0 0.12499992E+03</rscale>
<asrwt>0</asrwt>
<pdfrwt beam="2">  1        4 0.42629178E-02 0.12499992E+03</pdfrwt>
<pdfrwt beam="1">  1       -4 0.21688314E-01 0.12499992E+03</pdfrwt>
<totfact> 0.95694572E+03</totfact>
</mgrwt>
</event>
<event>
 5    1  0.3312706E-002  0.1250073E+03  0.7818608E-02  0.1235058E+00
          4   -1    0    0  501    0  0.00000000000E+00  0.00000000000E+00  0.81674789490E+02  0.81684662809E+02  0.12700000000E+01 0.  1.
         -4   -1    0    0    0  501 -0.00000000000E+00 -0.00000000000E+00 -0.47811260200E+02  0.47828124591E+02  0.12700000000E+01 0.  1.
         25    2    1    2    0    0  0.00000000000E+00  0.00000000000E+00  0.33863529290E+02  0.12951278740E+03  0.12500729372E+03 0.  0.
    9000005    1    3    3    0    0  0.52237616505E+02 -0.31640813560E+02  0.31950761046E+01  0.61164680757E+02  0.10000000000E+01 0.  0.
    9000005    1    3    3    0    0 -0.52237616505E+02  0.31640813560E+02  0.30668453185E+02  0.68348106642E+02  0.10000000000E+01 0.  0.
<mgrwt>
<rscale>  0 0.12500729E+03</rscale>
<asrwt>0</asrwt>
<pdfrwt beam="1">  1        4 0.12567409E-01 0.12500729E+03</pdfrwt>
<pdfrwt beam="2">  1       -4 0.73576353E-02 0.12500729E+03</pdfrwt>
<totfact> 0.10353236E+04</totfact>
</mgrwt>
</event>
<event>
 5    1  0.3312706E-002  0.1250285E+03  0.7818608E-02  0.1235025E+00
          4   -1    0    0  501    0  0.00000000000E+00  0.00000000000E+00  0.72386360544E+02  0.72397500598E+02  0.12700000000E+01 0.  1.
         -4   -1    0    0    0  501 -0.00000000000E+00 -0.00000000000E+00 -0.53965757699E+02  0.53980699366E+02  0.12700000000E+01 0.  1.
         25    2    1    2    0    0  0.00000000000E+00  0.00000000000E+00  0.18420602844E+02  0.12637819996E+03  0.12502852001E+03 0.  0.
    9000005    1    3    3    0    0  0.36869113746E+02 -0.84753467949E+01  0.59505550496E+02  0.70520022628E+02  0.10000000000E+01 0.  0.
    9000005    1    3    3    0    0 -0.36869113746E+02  0.84753467949E+01 -0.41084947651E+02  0.55858177335E+02  0.10000000000E+01 0.  0.
<mgrwt>
<rscale>  0 0.12502852E+03</rscale>
<asrwt>0</asrwt>
<pdfrwt beam="1">  1        4 0.11138369E-01 0.12502852E+03</pdfrwt>
<pdfrwt beam="2">  1       -4 0.83044306E-02 0.12502852E+03</pdfrwt>
<totfact> 0.10415979E+04</totfact>
</mgrwt>
</event>
<event>
 5    1  0.3312706E-002  0.1250008E+03  0.7818608E-02  0.1235068E+00
          4   -1    0    0  501    0  0.00000000000E+00  0.00000000000E+00  0.13257081028E+02  0.13317773740E+02  0.12700000000E+01 0.  1.
         -4   -1    0    0    0  501 -0.00000000000E+00 -0.00000000000E+00 -0.29392278585E+03  0.29392552958E+03  0.12700000000E+01 0.  1.
         25    2    1    2    0    0  0.00000000000E+00  0.00000000000E+00 -0.28066570482E+03  0.30724330332E+03  0.12500083830E+03 0.  0.
    9000005    1    3    3    0    0  0.16599966275E+02  0.15133484365E+01 -0.28836989985E+03  0.28885298725E+03  0.10000000000E+01 0.  0.
    9000005    1    3    3    0    0 -0.16599966275E+02 -0.15133484365E+01  0.77041950374E+01  0.18390316066E+02  0.10000000000E+01 0.  0.
<mgrwt>
<rscale>  0 0.12500084E+03</rscale>
<asrwt>0</asrwt>
<pdfrwt beam="1">  1        4 0.20444309E-02 0.12500084E+03</pdfrwt>
<pdfrwt beam="2">  1       -4 0.45223765E-01 0.12500084E+03</pdfrwt>
<totfact> 0.74697756E+03</totfact>
</mgrwt>
</event>
<event>
 5    1  0.3312706E-002  0.1250054E+03  0.7818608E-02  0.1235061E+00
         -4   -1    0    0    0  501 -0.00000000000E+00  0.00000000000E+00  0.26822656965E+03  0.26822957623E+03  0.12700000000E+01 0. -1.
          4   -1    0    0  501    0  0.00000000000E+00 -0.00000000000E+00 -0.14533722835E+02  0.14589105506E+02  0.12700000000E+01 0. -1.
         25    2    1    2    0    0  0.00000000000E+00  0.00000000000E+00  0.25369284682E+03  0.28281868174E+03  0.12500538475E+03 0.  0.
    9000005    1    3    3    0    0 -0.54811419924E+02 -0.11701760976E+01  0.58975673380E+02  0.80528200755E+02  0.10000000000E+01 0.  0.
    9000005    1    3    3    0    0  0.54811419924E+02  0.11701760976E+01  0.19471717344E+03  0.20229048098E+03  0.10000000000E+01 0.  0.
<mgrwt>
<rscale>  0 0.12500538E+03</rscale>
<asrwt>0</asrwt>
<pdfrwt beam="2">  1        4 0.22404489E-02 0.12500538E+03</pdfrwt>
<pdfrwt beam="1">  1       -4 0.41270117E-01 0.12500538E+03</pdfrwt>
<totfact> 0.77796536E+03</totfact>
</mgrwt>
</event>
<event>
 5    1  0.3312706E-002  0.1250007E+03  0.7818608E-02  0.1235068E+00
         -4   -1    0    0    0  501 -0.00000000000E+00  0.00000000000E+00  0.12082448628E+04  0.12082455303E+04  0.12700000000E+01 0. -1.
          4   -1    0    0  501    0  0.00000000000E+00 -0.00000000000E+00 -0.31076156008E+01  0.33571080892E+01  0.12700000000E+01 0. -1.
         25    2    1    2    0    0  0.00000000000E+00  0.00000000000E+00  0.12051372472E+04  0.12116026384E+04  0.12500067463E+03 0.  0.
    9000005    1    3    3    0    0 -0.61034005005E+02 -0.70763451325E+01  0.49202526750E+03  0.49584784792E+03  0.10000000000E+01 0.  0.
    9000005    1    3    3    0    0  0.61034005005E+02  0.70763451325E+01  0.71311197974E+03  0.71575479047E+03  0.10000000000E+01 0.  0.
<mgrwt>
<rscale>  0 0.12500067E+03</rscale>
<asrwt>0</asrwt>
<pdfrwt beam="2">  1        4 0.49733792E-03 0.12500067E+03</pdfrwt>
<pdfrwt beam="1">  1       -4 0.18590302E+00 0.12500067E+03</pdfrwt>
<totfact> 0.24410706E+03</totfact>
</mgrwt>
</event>
<event>
 5    1  0.3312706E-002  0.1250039E+03  0.7818608E-02  0.1235063E+00
          4   -1    0    0  501    0  0.00000000000E+00  0.00000000000E+00  0.27024127292E+03  0.27024425709E+03  0.12700000000E+01 0. -1.
         -4   -1    0    0    0  501 -0.00000000000E+00 -0.00000000000E+00 -0.14424605478E+02  0.14480405491E+02  0.12700000000E+01 0. -1.
         25    2    1    2    0    0  0.00000000000E+00  0.00000000000E+00  0.25581666745E+03  0.28472466259E+03  0.12500386450E+03 0.  0.
    9000005    1    3    3    0    0  0.95778081086E+01  0.60742344724E+02  0.15328477549E+03  0.16516231182E+03  0.10000000000E+01 0.  0.
    9000005    1    3    3    0    0 -0.95778081086E+01 -0.60742344724E+02  0.10253189196E+03  0.11956235076E+03  0.10000000000E+01 0.  0.
<mgrwt>
<rscale>  0 0.12500386E+03</rscale>
<asrwt>0</asrwt>
<pdfrwt beam="1">  1        4 0.41580099E-01 0.12500386E+03</pdfrwt>
<pdfrwt beam="2">  1       -4 0.22236921E-02 0.12500386E+03</pdfrwt>
<totfact> 0.77549133E+03</totfact>
</mgrwt>
</event>
<event>
 5    1  0.3312706E-002  0.1249998E+03  0.7818608E-02  0.1235070E+00
         -4   -1    0    0    0  501 -0.00000000000E+00  0.00000000000E+00  0.17208940515E+03  0.17209409131E+03  0.12700000000E+01 0.  1.
          4   -1    0    0  501    0  0.00000000000E+00 -0.00000000000E+00 -0.22676119568E+02  0.22711655569E+02  0.12700000000E+01 0.  1.
         25    2    1    2    0    0  0.00000000000E+00  0.00000000000E+00  0.14941328558E+03  0.19480574688E+03  0.12499979644E+03 0.  0.
    9000005    1    3    3    0    0 -0.46769083583E+02  0.33573691207E+02  0.11258359036E+03  0.12645396292E+03  0.10000000000E+01 0.  0.
    9000005    1    3    3    0    0  0.46769083583E+02 -0.33573691207E+02  0.36829695225E+02  0.68351783962E+02  0.10000000000E+01 0.  0.
<mgrwt>
<rscale>  0 0.12499980E+03</rscale>
<asrwt>0</asrwt>
<pdfrwt beam="2">  1        4 0.34917277E-02 0.12499980E+03</pdfrwt>
<pdfrwt beam="1">  1       -4 0.26478388E-01 0.12499980E+03</pdfrwt>
<totfact> 0.91018203E+03</totfact>
</mgrwt>
</event>
<event>
 5    1  0.3312706E-002  0.1249975E+03  0.7818608E-02  0.1235073E+00
          4   -1    0    0  501    0  0.00000000000E+00  0.00000000000E+00  0.14863369801E+02  0.14917528677E+02  0.12700000000E+01 0.  1.
         -4   -1    0    0    0  501 -0.00000000000E+00 -0.00000000000E+00 -0.26226637144E+03  0.26226944635E+03  0.12700000000E+01 0.  1.
         25    2    1    2    0    0  0.00000000000E+00  0.00000000000E+00 -0.24740300164E+03  0.27718697503E+03  0.12499749559E+03 0.  0.
    9000005    1    3    3    0    0  0.50069847082E+01 -0.62179490059E+02 -0.11548324879E+03  0.13125829357E+03  0.10000000000E+01 0.  0.
    9000005    1    3    3    0    0 -0.50069847082E+01  0.62179490059E+02 -0.13191975286E+03  0.14592868146E+03  0.10000000000E+01 0.  0.
<mgrwt>
<rscale>  0 0.12499750E+03</rscale>
<asrwt>0</asrwt>
<pdfrwt beam="1">  1        4 0.22910751E-02 0.12499750E+03</pdfrwt>
<pdfrwt beam="2">  1       -4 0.40353072E-01 0.12499750E+03</pdfrwt>
<totfact> 0.78556952E+03</totfact>
</mgrwt>
</event>
<event>
 5    1  0.3312706E-002  0.1250014E+03  0.7818608E-02  0.1235067E+00
          4   -1    0    0  501    0  0.00000000000E+00  0.00000000000E+00  0.10444479161E+02  0.10521408886E+02  0.12700000000E+01 0.  1.
         -4   -1    0    0    0  501 -0.00000000000E+00 -0.00000000000E+00 -0.37255948099E+03  0.37256164560E+03  0.12700000000E+01 0.  1.
         25    2    1    2    0    0  0.00000000000E+00  0.00000000000E+00 -0.36211500183E+03  0.38308305449E+03  0.12500140834E+03 0.  0.
    9000005    1    3    3    0    0 -0.26503455077E+02 -0.19933473613E+02 -0.34338344362E+03  0.34498255877E+03  0.10000000000E+01 0.  0.
    9000005    1    3    3    0    0  0.26503455077E+02  0.19933473613E+02 -0.18731558207E+02  0.38100495720E+02  0.10000000000E+01 0.  0.
<mgrwt>
<rscale>  0 0.12500141E+03</rscale>
<asrwt>0</asrwt>
<pdfrwt beam="1">  1        4 0.16129274E-02 0.12500141E+03</pdfrwt>
<pdfrwt beam="2">  1       -4 0.57322917E-01 0.12500141E+03</pdfrwt>
<totfact> 0.66229996E+03</totfact>
</mgrwt>
</event>
<event>
 5    1  0.3312706E-002  0.1250013E+03  0.7818608E-02  0.1235067E+00
         -4   -1    0    0    0  501 -0.00000000000E+00  0.00000000000E+00  0.38566257085E+01  0.40603524299E+01  0.12700000000E+01 0.  1.
          4   -1    0    0  501    0  0.00000000000E+00 -0.00000000000E+00 -0.98661970264E+03  0.98662052002E+03  0.12700000000E+01 0.  1.
         25    2    1    2    0    0  0.00000000000E+00  0.00000000000E+00 -0.98276307693E+03  0.99068087245E+03  0.12500130268E+03 0.  0.
    9000005    1    3    3    0    0 -0.33762914828E+02  0.18854155732E+02 -0.10231815904E+03  0.10938655893E+03  0.10000000000E+01 0.  0.
    9000005    1    3    3    0    0  0.33762914828E+02 -0.18854155732E+02 -0.88044491789E+03  0.88129431352E+03  0.10000000000E+01 0.  0.
<mgrwt>
<rscale>  0 0.12500130E+03</rscale>
<asrwt>0</asrwt>
<pdfrwt beam="2">  1        4 0.15180318E+00 0.12500130E+03</pdfrwt>
<pdfrwt beam="1">  1       -4 0.60906198E-03 0.12500130E+03</pdfrwt>
<totfact> 0.30913355E+03</totfact>
</mgrwt>
</event>
<event>
 5    1  0.3312706E-002  0.1250027E+03  0.7818608E-02  0.1235065E+00
         -4   -1    0    0    0  501 -0.00000000000E+00  0.00000000000E+00  0.12402591750E+03  0.12403241960E+03  0.12700000000E+01 0. -1.
          4   -1    0    0  501    0  0.00000000000E+00 -0.00000000000E+00 -0.31476672614E+02  0.31502282756E+02  0.12700000000E+01 0. -1.
         25    2    1    2    0    0  0.00000000000E+00  0.00000000000E+00  0.92549244886E+02  0.15553470236E+03  0.12500272360E+03 0.  0.
    9000005    1    3    3    0    0 -0.41983575546E+02 -0.10502771613E+02 -0.98201234562E+01  0.44388778445E+02  0.10000000000E+01 0.  0.
    9000005    1    3    3    0    0  0.41983575546E+02  0.10502771613E+02  0.10236936834E+03  0.11114592391E+03  0.10000000000E+01 0.  0.
<mgrwt>
<rscale>  0 0.12500272E+03</rscale>
<asrwt>0</asrwt>
<pdfrwt beam="2">  1        4 0.48450351E-02 0.12500272E+03</pdfrwt>
<pdfrwt beam="1">  1       -4 0.19083381E-01 0.12500272E+03</pdfrwt>
<totfact> 0.98204617E+03</totfact>
</mgrwt>
</event>
<event>
 5    1  0.3312706E-002  0.1250059E+03  0.7818608E-02  0.1235060E+00
          4   -1    0    0  501    0  0.00000000000E+00  0.00000000000E+00  0.61358318184E+02  0.61371460064E+02  0.12700000000E+01 0.  1.
         -4   -1    0    0    0  501 -0.00000000000E+00 -0.00000000000E+00 -0.63642628387E+02  0.63655298664E+02  0.12700000000E+01 0.  1.
         25    2    1    2    0    0  0.00000000000E+00  0.00000000000E+00 -0.22843102031E+01  0.12502675873E+03  0.12500588916E+03 0.  0.
    9000005    1    3    3    0    0  0.39395999377E+02 -0.37301089114E+02 -0.32166715837E+02  0.63080215787E+02  0.10000000000E+01 0.  0.
    9000005    1    3    3    0    0 -0.39395999377E+02  0.37301089114E+02  0.29882405634E+02  0.61946542942E+02  0.10000000000E+01 0.  0.
<mgrwt>
<rscale>  0 0.12500589E+03</rscale>
<asrwt>0</asrwt>
<pdfrwt beam="1">  1        4 0.94417268E-02 0.12500589E+03</pdfrwt>
<pdfrwt beam="2">  1       -4 0.97931591E-02 0.12500589E+03</pdfrwt>
<totfact> 0.10450890E+04</totfact>
</mgrwt>
</event>
<event>
 5    1  0.3312706E-002  0.1250012E+03  0.7818608E-02  0.1235067E+00
         -4   -1    0    0    0  501 -0.00000000000E+00  0.00000000000E+00  0.36371017898E+03  0.36371239626E+03  0.12700000000E+01 0.  1.
          4   -1    0    0  501    0  0.00000000000E+00 -0.00000000000E+00 -0.10700412165E+02  0.10775514860E+02  0.12700000000E+01 0.  1.
         25    2    1    2    0    0  0.00000000000E+00  0.00000000000E+00  0.35300976681E+03  0.37448791112E+03  0.12500120043E+03 0.  0.
    9000005    1    3    3    0    0  0.35653635720E+02  0.37802030261E+01  0.32984723182E+03  0.33179160329E+03  0.10000000000E+01 0.  0.
    9000005    1    3    3    0    0 -0.35653635720E+02 -0.37802030261E+01  0.23162534995E+02  0.42696307830E+02  0.10000000000E+01 0.  0.
<mgrwt>
<rscale>  0 0.12500120E+03</rscale>
<asrwt>0</asrwt>
<pdfrwt beam="2">  1        4 0.16521649E-02 0.12500120E+03</pdfrwt>
<pdfrwt beam="1">  1       -4 0.55961361E-01 0.12500120E+03</pdfrwt>
<totfact> 0.67110234E+03</totfact>
</mgrwt>
</event>
<event>
 5    1  0.3312706E-002  0.1249958E+03  0.7818608E-02  0.1235076E+00
         -4   -1    0    0    0  501 -0.00000000000E+00  0.00000000000E+00  0.11139990532E+02  0.11212149172E+02  0.12700000000E+01 0.  1.
          4   -1    0    0  501    0  0.00000000000E+00 -0.00000000000E+00 -0.34942231535E+03  0.34942462329E+03  0.12700000000E+01 0.  1.
         25    2    1    2    0    0  0.00000000000E+00  0.00000000000E+00 -0.33828232481E+03  0.36063677246E+03  0.12499580141E+03 0.  0.
    9000005    1    3    3    0    0 -0.11163403888E+02 -0.58991730034E+02 -0.21914259730E+03  0.22722042987E+03  0.10000000000E+01 0.  0.
    9000005    1    3    3    0    0  0.11163403888E+02  0.58991730034E+02 -0.11913972751E+03  0.13341634259E+03  0.10000000000E+01 0.  0.
<mgrwt>
<rscale>  0 0.12499580E+03</rscale>
<asrwt>0</asrwt>
<pdfrwt beam="2">  1        4 0.53762999E-01 0.12499580E+03</pdfrwt>
<pdfrwt beam="1">  1       -4 0.17195732E-02 0.12499580E+03</pdfrwt>
<totfact> 0.68576389E+03</totfact>
</mgrwt>
</event>
<event>
 5    1  0.3312706E-002  0.1249982E+03  0.7818608E-02  0.1235072E+00
          4   -1    0    0  501    0  0.00000000000E+00  0.00000000000E+00  0.30303057128E+03  0.30303323255E+03  0.12700000000E+01 0.  1.
         -4   -1    0    0    0  501 -0.00000000000E+00 -0.00000000000E+00 -0.12856240115E+02  0.12918816119E+02  0.12700000000E+01 0.  1.
         25    2    1    2    0    0  0.00000000000E+00  0.00000000000E+00  0.29017433116E+03  0.31595204867E+03  0.12499821835E+03 0.  0.
    9000005    1    3    3    0    0 -0.55071713530E+00  0.59075706923E+02  0.19657292070E+03  0.20526118871E+03  0.10000000000E+01 0.  0.
    9000005    1    3    3    0    0  0.55071713530E+00 -0.59075706923E+02  0.93601410465E+02  0.11069085996E+03  0.10000000000E+01 0.  0.
<mgrwt>
<rscale>  0 0.12499822E+03</rscale>
<asrwt>0</asrwt>
<pdfrwt beam="1">  1        4 0.46625104E-01 0.12499822E+03</pdfrwt>
<pdfrwt beam="2">  1       -4 0.19829014E-02 0.12499822E+03</pdfrwt>
<totfact> 0.73643085E+03</totfact>
</mgrwt>
</event>
<event>
 5    1  0.3312706E-002  0.1249998E+03  0.7818608E-02  0.1235070E+00
          4   -1    0    0  501    0  0.00000000000E+00  0.00000000000E+00  0.41818594267E+03  0.41818787112E+03  0.12700000000E+01 0.  1.
         -4   -1    0    0    0  501 -0.00000000000E+00 -0.00000000000E+00 -0.92957779401E+01  0.93821312884E+01  0.12700000000E+01 0.  1.
         25    2    1    2    0    0  0.00000000000E+00  0.00000000000E+00  0.40889016473E+03  0.42757000241E+03  0.12499976057E+03 0.  0.
    9000005    1    3    3    0    0  0.36022921835E+02 -0.34498264089E+02  0.33322629810E+03  0.33693997517E+03  0.10000000000E+01 0.  0.
    9000005    1    3    3    0    0 -0.36022921835E+02  0.34498264089E+02  0.75663866633E+02  0.90630027234E+02  0.10000000000E+01 0.  0.
<mgrwt>
<rscale>  0 0.12499976E+03</rscale>
<asrwt>0</asrwt>
<pdfrwt beam="1">  1        4 0.64343100E-01 0.12499976E+03</pdfrwt>
<pdfrwt beam="2">  1       -4 0.14369104E-02 0.12499976E+03</pdfrwt>
<totfact> 0.61957194E+03</totfact>
</mgrwt>
</event>
<event>
 5    1  0.3312706E-002  0.1250022E+03  0.7818608E-02  0.1235066E+00
          4   -1    0    0  501    0  0.00000000000E+00  0.00000000000E+00  0.87711948194E+02  0.87721142013E+02  0.12700000000E+01 0.  1.
         -4   -1    0    0    0  501 -0.00000000000E+00 -0.00000000000E+00 -0.44515961313E+02  0.44534073602E+02  0.12700000000E+01 0.  1.
         25    2    1    2    0    0  0.00000000000E+00  0.00000000000E+00  0.43195986881E+02  0.13225521561E+03  0.12500219508E+03 0.  0.
    9000005    1    3    3    0    0  0.42696768822E+02 -0.45631885732E+02  0.21939409590E+02  0.66239118022E+02  0.10000000000E+01 0.  0.
    9000005    1    3    3    0    0 -0.42696768822E+02  0.45631885732E+02  0.21256577291E+02  0.66016097593E+02  0.10000000000E+01 0.  0.
<mgrwt>
<rscale>  0 0.12500220E+03</rscale>
<asrwt>0</asrwt>
<pdfrwt beam="1">  1        4 0.13496246E-01 0.12500220E+03</pdfrwt>
<pdfrwt beam="2">  1       -4 0.68507100E-02 0.12500220E+03</pdfrwt>
<totfact> 0.10295744E+04</totfact>
</mgrwt>
</event>
<event>
 5    1  0.3312706E-002  0.1250000E+03  0.7818608E-02  0.1235069E+00
          4   -1    0    0  501    0  0.00000000000E+00  0.00000000000E+00  0.16335613815E+02  0.16384907040E+02  0.12700000000E+01 0.  1.
         -4   -1    0    0    0  501 -0.00000000000E+00 -0.00000000000E+00 -0.23871345596E+03  0.23871683425E+03  0.12700000000E+01 0.  1.
         25    2    1    2    0    0  0.00000000000E+00  0.00000000000E+00 -0.22237784214E+03  0.25510174129E+03  0.12499997494E+03 0.  0.
    9000005    1    3    3    0    0 -0.35277253936E+02  0.15745092483E+02 -0.10942428684E+02  0.40163781298E+02  0.10000000000E+01 0.  0.
    9000005    1    3    3    0    0  0.35277253936E+02 -0.15745092483E+02 -0.21143541346E+03  0.21493795999E+03  0.10000000000E+01 0.  0.
<mgrwt>
<rscale>  0 0.12499997E+03</rscale>
<asrwt>0</asrwt>
<pdfrwt beam="1">  1        4 0.25172232E-02 0.12499997E+03</pdfrwt>
<pdfrwt beam="2">  1       -4 0.36729196E-01 0.12499997E+03</pdfrwt>
<totfact> 0.81598460E+03</totfact>
</mgrwt>
</event>
<event>
 5    1  0.3312706E-002  0.1250012E+03  0.7818608E-02  0.1235067E+00
         -4   -1    0    0    0  501 -0.00000000000E+00  0.00000000000E+00  0.12696384110E+02  0.12759744099E+02  0.12700000000E+01 0.  1.
          4   -1    0    0  501    0  0.00000000000E+00 -0.00000000000E+00 -0.30684157502E+03  0.30684420324E+03  0.12700000000E+01 0.  1.
         25    2    1    2    0    0  0.00000000000E+00  0.00000000000E+00 -0.29414519091E+03  0.31960394733E+03  0.12500115927E+03 0.  0.
    9000005    1    3    3    0    0  0.14582762682E+02  0.15349960709E+02  0.32591013937E+01  0.21445279273E+02  0.10000000000E+01 0.  0.
    9000005    1    3    3    0    0 -0.14582762682E+02 -0.15349960709E+02 -0.29740429230E+03  0.29815866806E+03  0.10000000000E+01 0.  0.
<mgrwt>
<rscale>  0 0.12500116E+03</rscale>
<asrwt>0</asrwt>
<pdfrwt beam="2">  1        4 0.47211467E-01 0.12500116E+03</pdfrwt>
<pdfrwt beam="1">  1       -4 0.19583661E-02 0.12500116E+03</pdfrwt>
<totfact> 0.73201376E+03</totfact>
</mgrwt>
</event>
<event>
 5    1  0.3312706E-002  0.1250001E+03  0.7818608E-02  0.1235069E+00
         -4   -1    0    0    0  501 -0.00000000000E+00  0.00000000000E+00  0.15792833740E+02  0.15843815750E+02  0.12700000000E+01 0.  1.
          4   -1    0    0  501    0  0.00000000000E+00 -0.00000000000E+00 -0.24689238307E+03  0.24689564945E+03  0.12700000000E+01 0.  1.
         25    2    1    2    0    0  0.00000000000E+00  0.00000000000E+00 -0.23109954933E+03  0.26273946520E+03  0.12500009949E+03 0.  0.
    9000005    1    3    3    0    0 -0.55710735663E+02 -0.25417146536E-01 -0.17505917115E+03  0.18371281969E+03  0.10000000000E+01 0.  0.
    9000005    1    3    3    0    0  0.55710735663E+02  0.25417146536E-01 -0.56040378174E+02  0.79026645507E+02  0.10000000000E+01 0.  0.
<mgrwt>
<rscale>  0 0.12500010E+03</rscale>
<asrwt>0</asrwt>
<pdfrwt beam="2">  1        4 0.37987614E-01 0.12500010E+03</pdfrwt>
<pdfrwt beam="1">  1       -4 0.24338399E-02 0.12500010E+03</pdfrwt>
<totfact> 0.80522969E+03</totfact>
</mgrwt>
</event>
<event>
 5    1  0.3312706E-002  0.1250006E+03  0.7818608E-02  0.1235068E+00
          4   -1    0    0  501    0  0.00000000000E+00  0.00000000000E+00  0.52736416015E+02  0.52751705888E+02  0.12700000000E+01 0.  1.
         -4   -1    0    0    0  501 -0.00000000000E+00 -0.00000000000E+00 -0.74040421802E+02  0.74051313025E+02  0.12700000000E+01 0.  1.
         25    2    1    2    0    0  0.00000000000E+00  0.00000000000E+00 -0.21304005787E+02  0.12680301891E+03  0.12500057977E+03 0.  0.
    9000005    1    3    3    0    0 -0.21016461788E+02  0.15289667438E+02 -0.68302992783E+02  0.73087375241E+02  0.10000000000E+01 0.  0.
    9000005    1    3    3    0    0  0.21016461788E+02 -0.15289667438E+02  0.46998986996E+02  0.53715643672E+02  0.10000000000E+01 0.  0.
<mgrwt>
<rscale>  0 0.12500058E+03</rscale>
<asrwt>0</asrwt>
<pdfrwt beam="1">  1        4 0.81153087E-02 0.12500058E+03</pdfrwt>
<pdfrwt beam="2">  1       -4 0.11392848E-01 0.12500058E+03</pdfrwt>
<totfact> 0.10413292E+04</totfact>
</mgrwt>
</event>
<event>
 5    1  0.3312706E-002  0.1250063E+03  0.7818608E-02  0.1235059E+00
         -4   -1    0    0    0  501 -0.00000000000E+00  0.00000000000E+00  0.11218284393E+03  0.11219003241E+03  0.12700000000E+01 0.  1.
          4   -1    0    0  501    0  0.00000000000E+00 -0.00000000000E+00 -0.34804015451E+02  0.34827178919E+02  0.12700000000E+01 0.  1.
         25    2    1    2    0    0  0.00000000000E+00  0.00000000000E+00  0.77378828477E+02  0.14701721133E+03  0.12500630916E+03 0.  0.
    9000005    1    3    3    0    0  0.34619765688E+02  0.12670766204E+02  0.98038478097E+02  0.10474549957E+03  0.10000000000E+01 0.  0.
    9000005    1    3    3    0    0 -0.34619765688E+02 -0.12670766204E+02 -0.20659649620E+02  0.42271711758E+02  0.10000000000E+01 0.  0.
<mgrwt>
<rscale>  0 0.12500631E+03</rscale>
<asrwt>0</asrwt>
<pdfrwt beam="2">  1        4 0.53567986E-02 0.12500631E+03</pdfrwt>
<pdfrwt beam="1">  1       -4 0.17261234E-01 0.12500631E+03</pdfrwt>
<totfact> 0.99887441E+03</totfact>
</mgrwt>
</event>
<event>
 5    1  0.3312706E-002  0.1249983E+03  0.7818608E-02  0.1235072E+00
         -4   -1    0    0    0  501 -0.00000000000E+00  0.00000000000E+00  0.85537055704E+02  0.85546483262E+02  0.12700000000E+01 0. -1.
          4   -1    0    0  501    0  0.00000000000E+00 -0.00000000000E+00 -0.45645356563E+02  0.45663020878E+02  0.12700000000E+01 0. -1.
         25    2    1    2    0    0  0.00000000000E+00  0.00000000000E+00  0.39891699142E+02  0.13120950414E+03  0.12499834525E+03 0.  0.
    9000005    1    3    3    0    0 -0.60610011773E+02  0.73744395563E+01  0.33918586548E+02  0.69852891131E+02  0.10000000000E+01 0.  0.
    9000005    1    3    3    0    0  0.60610011773E+02 -0.73744395563E+01  0.59731125938E+01  0.61356613010E+02  0.10000000000E+01 0.  0.
<mgrwt>
<rscale>  0 0.12499835E+03</rscale>
<asrwt>0</asrwt>
<pdfrwt beam="2">  1        4 0.70244467E-02 0.12499835E+03</pdfrwt>
<pdfrwt beam="1">  1       -4 0.13161631E-01 0.12499835E+03</pdfrwt>
<totfact> 0.10318985E+04</totfact>
</mgrwt>
</event>
<event>
 5    1  0.3312706E-002  0.1250146E+03  0.7818608E-02  0.1235047E+00
         -4   -1    0    0    0  501 -0.00000000000E+00  0.00000000000E+00  0.34183232863E+03  0.34183468782E+03  0.12700000000E+01 0. -1.
          4   -1    0    0  501    0  0.00000000000E+00 -0.00000000000E+00 -0.11392362770E+02  0.11462932849E+02  0.12700000000E+01 0. -1.
         25    2    1    2    0    0  0.00000000000E+00  0.00000000000E+00  0.33043996586E+03  0.35329762067E+03  0.12501455008E+03 0.  0.
    9000005    1    3    3    0    0 -0.58938897868E+01 -0.56312833147E+02  0.24000558105E+03  0.24659592870E+03  0.10000000000E+01 0.  0.
    9000005    1    3    3    0    0  0.58938897868E+01  0.56312833147E+02  0.90434384805E+02  0.10670169197E+03  0.10000000000E+01 0.  0.
<mgrwt>
<rscale>  0 0.12501455E+03</rscale>
<asrwt>0</asrwt>
<pdfrwt beam="2">  1        4 0.17582814E-02 0.12501455E+03</pdfrwt>
<pdfrwt beam="1">  1       -4 0.52595190E-01 0.12501455E+03</pdfrwt>
<totfact> 0.69340973E+03</totfact>
</mgrwt>
</event>
<event>
 5    1  0.3312706E-002  0.1249743E+03  0.7818608E-02  0.1235109E+00
         -4   -1    0    0    0  501 -0.00000000000E+00  0.00000000000E+00  0.97838969143E+02  0.97847211421E+02  0.12700000000E+01 0.  1.
          4   -1    0    0  501    0  0.00000000000E+00 -0.00000000000E+00 -0.39888873141E+02  0.39909085438E+02  0.12700000000E+01 0.  1.
         25    2    1    2    0    0  0.00000000000E+00  0.00000000000E+00  0.57950096001E+02  0.13775629686E+03  0.12497433216E+03 0.  0.
    9000005    1    3    3    0    0  0.26161415861E+02  0.56436486312E+02  0.35416462802E+02  0.71587865623E+02  0.10000000000E+01 0.  0.
    9000005    1    3    3    0    0 -0.26161415861E+02 -0.56436486312E+02  0.22533633199E+02  0.66168431236E+02  0.10000000000E+01 0.  0.
<mgrwt>
<rscale>  0 0.12497433E+03</rscale>
<asrwt>0</asrwt>
<pdfrwt beam="2">  1        4 0.61389386E-02 0.12497433E+03</pdfrwt>
<pdfrwt beam="1">  1       -4 0.15054338E-01 0.12497433E+03</pdfrwt>
<totfact> 0.10186190E+04</totfact>
</mgrwt>
</event>
<event>
 5    1  0.3312706E-002  0.1250010E+03  0.7818608E-02  0.1235068E+00
         -4   -1    0    0    0  501 -0.00000000000E+00  0.00000000000E+00  0.26573858803E+02  0.26604188987E+02  0.12700000000E+01 0. -1.
          4   -1    0    0  501    0  0.00000000000E+00 -0.00000000000E+00 -0.14688128336E+03  0.14688677375E+03  0.12700000000E+01 0. -1.
         25    2    1    2    0    0  0.00000000000E+00  0.00000000000E+00 -0.12030742456E+03  0.17349096274E+03  0.12500095098E+03 0.  0.
    9000005    1    3    3    0    0 -0.46598468585E+02 -0.97311046983E+01 -0.11634632383E+03  0.12571228557E+03  0.10000000000E+01 0.  0.
    9000005    1    3    3    0    0  0.46598468585E+02  0.97311046983E+01 -0.39611007280E+01  0.47778677170E+02  0.10000000000E+01 0.  0.
<mgrwt>
<rscale>  0 0.12500095E+03</rscale>
<asrwt>0</asrwt>
<pdfrwt beam="2">  1        4 0.22599875E-01 0.12500095E+03</pdfrwt>
<pdfrwt beam="1">  1       -4 0.40910415E-02 0.12500095E+03</pdfrwt>
<totfact> 0.94799923E+03</totfact>
</mgrwt>
</event>
<event>
 5    1  0.3312706E-002  0.1249995E+03  0.7818608E-02  0.1235070E+00
          4   -1    0    0  501    0  0.00000000000E+00  0.00000000000E+00  0.34068402189E+01  0.36358575711E+01  0.12700000000E+01 0. -1.
         -4   -1    0    0    0  501 -0.00000000000E+00 -0.00000000000E+00 -0.11090659044E+04  0.11090666316E+04  0.12700000000E+01 0. -1.
         25    2    1    2    0    0  0.00000000000E+00  0.00000000000E+00 -0.11056590642E+04  0.11127024891E+04  0.12499945230E+03 0.  0.
    9000005    1    3    3    0    0 -0.55501207216E+01  0.60747923449E+02 -0.43204818228E+03  0.43633444267E+03  0.10000000000E+01 0.  0.
    9000005    1    3    3    0    0  0.55501207216E+01 -0.60747923449E+02 -0.67361088191E+03  0.67636804646E+03  0.10000000000E+01 0.  0.
<mgrwt>
<rscale>  0 0.12499945E+03</rscale>
<asrwt>0</asrwt>
<pdfrwt beam="1">  1        4 0.54180280E-03 0.12499945E+03</pdfrwt>
<pdfrwt beam="2">  1       -4 0.17064292E+00 0.12499945E+03</pdfrwt>
<totfact> 0.27114950E+03</totfact>
</mgrwt>
</event>
<event>
 5    1  0.3312706E-002  0.1250005E+03  0.7818608E-02  0.1235068E+00
         -4   -1    0    0    0  501 -0.00000000000E+00  0.00000000000E+00  0.32799384678E+03  0.32799630551E+03  0.12700000000E+01 0. -1.
          4   -1    0    0  501    0  0.00000000000E+00 -0.00000000000E+00 -0.11873255749E+02  0.11940984134E+02  0.12700000000E+01 0. -1.
         25    2    1    2    0    0  0.00000000000E+00  0.00000000000E+00  0.31612059103E+03  0.33993728964E+03  0.12500053126E+03 0.  0.
    9000005    1    3    3    0    0  0.13227024974E+02 -0.11908954019E+01  0.32412523246E+03  0.32439873418E+03  0.10000000000E+01 0.  0.
    9000005    1    3    3    0    0 -0.13227024974E+02  0.11908954019E+01 -0.80046414251E+01  0.15538555463E+02  0.10000000000E+01 0.  0.
<mgrwt>
<rscale>  0 0.12500053E+03</rscale>
<asrwt>0</asrwt>
<pdfrwt beam="2">  1        4 0.18320536E-02 0.12500053E+03</pdfrwt>
<pdfrwt beam="1">  1       -4 0.50465995E-01 0.12500053E+03</pdfrwt>
<totfact> 0.70845113E+03</totfact>
</mgrwt>
</event>
<event>
 5    1  0.3312706E-002  0.1250009E+03  0.7818608E-02  0.1235068E+00
          4   -1    0    0  501    0  0.00000000000E+00  0.00000000000E+00  0.68894139242E+02  0.68905843887E+02  0.12700000000E+01 0. -1.
         -4   -1    0    0    0  501 -0.00000000000E+00 -0.00000000000E+00 -0.56676508415E+02  0.56690735628E+02  0.12700000000E+01 0. -1.
         25    2    1    2    0    0  0.00000000000E+00  0.00000000000E+00  0.12217630827E+02  0.12559657952E+03  0.12500092113E+03 0.  0.
    9000005    1    3    3    0    0 -0.11201239038E+02 -0.49659229235E+02  0.42527927572E+02  0.66341023717E+02  0.10000000000E+01 0.  0.
    9000005    1    3    3    0    0  0.11201239038E+02  0.49659229235E+02 -0.30310296745E+02  0.59255555799E+02  0.10000000000E+01 0.  0.
<mgrwt>
<rscale>  0 0.12500092E+03</rscale>
<asrwt>0</asrwt>
<pdfrwt beam="1">  1        4 0.10601093E-01 0.12500092E+03</pdfrwt>
<pdfrwt beam="2">  1       -4 0.87214576E-02 0.12500092E+03</pdfrwt>
<totfact> 0.10439605E+04</totfact>
</mgrwt>
</event>
<event>
 5    1  0.3312706E-002  0.1249999E+03  0.7818608E-02  0.1235069E+00
          4   -1    0    0  501    0  0.00000000000E+00  0.00000000000E+00  0.13568935032E+04  0.13568940975E+04  0.12700000000E+01 0. -1.
         -4   -1    0    0    0  501 -0.00000000000E+00 -0.00000000000E+00 -0.27381256006E+01  0.30183160544E+01  0.12700000000E+01 0. -1.
         25    2    1    2    0    0  0.00000000000E+00  0.00000000000E+00  0.13541553776E+04  0.13599124136E+04  0.12499994382E+03 0.  0.
    9000005    1    3    3    0    0  0.46936986301E+01 -0.61899209391E+02  0.75530552848E+03  0.75785287773E+03  0.10000000000E+01 0.  0.
    9000005    1    3    3    0    0 -0.46936986301E+01  0.61899209391E+02  0.59884984909E+03  0.60205953583E+03  0.10000000000E+01 0.  0.
<mgrwt>
<rscale>  0 0.12499994E+03</rscale>
<asrwt>0</asrwt>
<pdfrwt beam="1">  1        4 0.20877429E+00 0.12499994E+03</pdfrwt>
<pdfrwt beam="2">  1       -4 0.44284925E-03 0.12499994E+03</pdfrwt>
<totfact> 0.20857057E+03</totfact>
</mgrwt>
</event>
<event>
 5    1  0.3312706E-002  0.1249985E+03  0.7818608E-02  0.1235072E+00
          4   -1    0    0  501    0  0.00000000000E+00  0.00000000000E+00  0.14857929524E+03  0.14858472288E+03  0.12700000000E+01 0.  1.
         -4   -1    0    0    0  501 -0.00000000000E+00 -0.00000000000E+00 -0.26268803021E+02  0.26299485017E+02  0.12700000000E+01 0.  1.
         25    2    1    2    0    0  0.00000000000E+00  0.00000000000E+00  0.12231049222E+03  0.17488420790E+03  0.12499851865E+03 0.  0.
    9000005    1    3    3    0    0 -0.36117858334E+02 -0.49754889823E+02  0.76804348148E+02  0.98386770688E+02  0.10000000000E+01 0.  0.
    9000005    1    3    3    0    0  0.36117858334E+02  0.49754889823E+02  0.45506144073E+02  0.76497437214E+02  0.10000000000E+01 0.  0.
<mgrwt>
<rscale>  0 0.12499852E+03</rscale>
<asrwt>0</asrwt>
<pdfrwt beam="1">  1        4 0.22861131E-01 0.12499852E+03</pdfrwt>
<pdfrwt beam="2">  1       -4 0.40441320E-02 0.12499852E+03</pdfrwt>
<totfact> 0.94549194E+03</totfact>
</mgrwt>
</event>
<event>
 5    1  0.3312706E-002  0.1250010E+03  0.7818608E-02  0.1235068E+00
          4   -1    0    0  501    0  0.00000000000E+00  0.00000000000E+00  0.84639341393E+02  0.84648868932E+02  0.12700000000E+01 0.  1.
         -4   -1    0    0    0  501 -0.00000000000E+00 -0.00000000000E+00 -0.46131605291E+02  0.46149083487E+02  0.12700000000E+01 0.  1.
         25    2    1    2    0    0  0.00000000000E+00  0.00000000000E+00  0.38507736102E+02  0.13079795242E+03  0.12500103447E+03 0.  0.
    9000005    1    3    3    0    0 -0.61616677071E+02  0.10128072991E+02  0.21842858222E+02  0.66161191125E+02  0.10000000000E+01 0.  0.
    9000005    1    3    3    0    0  0.61616677071E+02 -0.10128072991E+02  0.16664877880E+02  0.64636761294E+02  0.10000000000E+01 0.  0.
<mgrwt>
<rscale>  0 0.12500103E+03</rscale>
<asrwt>0</asrwt>
<pdfrwt beam="1">  1        4 0.13023515E-01 0.12500103E+03</pdfrwt>
<pdfrwt beam="2">  1       -4 0.70992474E-02 0.12500103E+03</pdfrwt>
<totfact> 0.10327182E+04</totfact>
</mgrwt>
</event>
<event>
 5    1  0.3312706E-002  0.1250070E+03  0.7818608E-02  0.1235058E+00
         -4   -1    0    0    0  501 -0.00000000000E+00  0.00000000000E+00  0.67502163201E+02  0.67514109169E+02  0.12700000000E+01 0.  1.
          4   -1    0    0  501    0  0.00000000000E+00 -0.00000000000E+00 -0.57850978958E+02  0.57864917406E+02  0.12700000000E+01 0.  1.
         25    2    1    2    0    0  0.00000000000E+00  0.00000000000E+00  0.96511842426E+01  0.12537902657E+03  0.12500701959E+03 0.  0.
    9000005    1    3    3    0    0 -0.41406556141E+02 -0.45968177978E+02  0.13690018701E+02  0.63371861974E+02  0.10000000000E+01 0.  0.
    9000005    1    3    3    0    0  0.41406556141E+02  0.45968177978E+02 -0.40388344581E+01  0.62007164601E+02  0.10000000000E+01 0.  0.
<mgrwt>
<rscale>  0 0.12500702E+03</rscale>
<asrwt>0</asrwt>
<pdfrwt beam="2">  1        4 0.89021417E-02 0.12500702E+03</pdfrwt>
<pdfrwt beam="1">  1       -4 0.10386939E-01 0.12500702E+03</pdfrwt>
<totfact> 0.10442979E+04</totfact>
</mgrwt>
</event>
<event>
 5    1  0.3312706E-002  0.1249975E+03  0.7818608E-02  0.1235073E+00
          4   -1    0    0  501    0  0.00000000000E+00  0.00000000000E+00  0.82866107726E+03  0.82866205045E+03  0.12700000000E+01 0.  1.
         -4   -1    0    0    0  501 -0.00000000000E+00 -0.00000000000E+00 -0.46272083759E+01  0.47983286000E+01  0.12700000000E+01 0.  1.
         25    2    1    2    0    0  0.00000000000E+00  0.00000000000E+00  0.82403386888E+03  0.83346037905E+03  0.12499754553E+03 0.  0.
    9000005    1    3    3    0    0 -0.61614083237E+02  0.30037916996E+01  0.47862121353E+03  0.48258116836E+03  0.10000000000E+01 0.  0.
    9000005    1    3    3    0    0  0.61614083237E+02 -0.30037916996E+01  0.34541265536E+03  0.35087921069E+03  0.10000000000E+01 0.  0.
<mgrwt>
<rscale>  0 0.12499755E+03</rscale>
<asrwt>0</asrwt>
<pdfrwt beam="1">  1        4 0.12749948E+00 0.12499755E+03</pdfrwt>
<pdfrwt beam="2">  1       -4 0.72511662E-03 0.12499755E+03</pdfrwt>
<totfact> 0.36815856E+03</totfact>
</mgrwt>
</event>
<event>
 5    1  0.3312706E-002  0.1249969E+03  0.7818608E-02  0.1235074E+00
         -4   -1    0    0    0  501 -0.00000000000E+00  0.00000000000E+00  0.22888173233E+02  0.22923380509E+02  0.12700000000E+01 0.  1.
          4   -1    0    0  501    0  0.00000000000E+00 -0.00000000000E+00 -0.17048946028E+03  0.17049419042E+03  0.12700000000E+01 0.  1.
         25    2    1    2    0    0  0.00000000000E+00  0.00000000000E+00 -0.14760128705E+03  0.19341757093E+03  0.12499686718E+03 0.  0.
    9000005    1    3    3    0    0 -0.61515256969E+02 -0.10935875769E+02 -0.75587838312E+02  0.98072633897E+02  0.10000000000E+01 0.  0.
    9000005    1    3    3    0    0  0.61515256969E+02  0.10935875769E+02 -0.72013448734E+02  0.95344937030E+02  0.10000000000E+01 0.  0.
<mgrwt>
<rscale>  0 0.12499687E+03</rscale>
<asrwt>0</asrwt>
<pdfrwt beam="2">  1        4 0.26232219E-01 0.12499687E+03</pdfrwt>
<pdfrwt beam="1">  1       -4 0.35243296E-02 0.12499687E+03</pdfrwt>
<totfact> 0.91262448E+03</totfact>
</mgrwt>
</event>
<event>
 5    1  0.3312706E-002  0.1250008E+03  0.7818608E-02  0.1235068E+00
         -4   -1    0    0    0  501 -0.00000000000E+00  0.00000000000E+00  0.25594340993E+02  0.25625830540E+02  0.12700000000E+01 0. -1.
          4   -1    0    0  501    0  0.00000000000E+00 -0.00000000000E+00 -0.15249553301E+03  0.15250082127E+03  0.12700000000E+01 0. -1.
         25    2    1    2    0    0  0.00000000000E+00  0.00000000000E+00 -0.12690119202E+03  0.17812665181E+03  0.12500076620E+03 0.  0.
    9000005    1    3    3    0    0  0.30213389936E+02 -0.51791066704E+02 -0.38355366261E+02  0.71184953767E+02  0.10000000000E+01 0.  0.
    9000005    1    3    3    0    0 -0.30213389936E+02  0.51791066704E+02 -0.88545825759E+02  0.10694169805E+03  0.10000000000E+01 0.  0.
<mgrwt>
<rscale>  0 0.12500077E+03</rscale>
<asrwt>0</asrwt>
<pdfrwt beam="2">  1        4 0.23463680E-01 0.12500077E+03</pdfrwt>
<pdfrwt beam="1">  1       -4 0.39404201E-02 0.12500077E+03</pdfrwt>
<totfact> 0.93953689E+03</totfact>
</mgrwt>
</event>
<event>
 5    1  0.3312706E-002  0.1249996E+03  0.7818608E-02  0.1235070E+00
          4   -1    0    0  501    0  0.00000000000E+00  0.00000000000E+00  0.10509270190E+03  0.10510037532E+03  0.12700000000E+01 0.  1.
         -4   -1    0    0    0  501 -0.00000000000E+00 -0.00000000000E+00 -0.37149436198E+02  0.37171138129E+02  0.12700000000E+01 0.  1.
         25    2    1    2    0    0  0.00000000000E+00  0.00000000000E+00  0.67943265697E+02  0.14227151345E+03  0.12499958474E+03 0.  0.
    9000005    1    3    3    0    0  0.17051450305E+02  0.44789005777E+02  0.79618262361E+02  0.92934787337E+02  0.10000000000E+01 0.  0.
    9000005    1    3    3    0    0 -0.17051450305E+02 -0.44789005777E+02 -0.11674996664E+02  0.49336726108E+02  0.10000000000E+01 0.  0.
<mgrwt>
<rscale>  0 0.12499958E+03</rscale>
<asrwt>0</asrwt>
<pdfrwt beam="1">  1        4 0.16170367E-01 0.12499958E+03</pdfrwt>
<pdfrwt beam="2">  1       -4 0.57175577E-02 0.12499958E+03</pdfrwt>
<totfact> 0.10086817E+04</totfact>
</mgrwt>
</event>
<event>
 5    1  0.3312706E-002  0.1249990E+03  0.7818608E-02  0.1235071E+00
          4   -1    0    0  501    0  0.00000000000E+00  0.00000000000E+00  0.90993632218E+01  0.91875628456E+01  0.12700000000E+01 0.  1.
         -4   -1    0    0    0  501 -0.00000000000E+00 -0.00000000000E+00 -0.42712213136E+03  0.42712401946E+03  0.12700000000E+01 0.  1.
         25    2    1    2    0    0  0.00000000000E+00  0.00000000000E+00 -0.41802276814E+03  0.43631158230E+03  0.12499904868E+03 0.  0.
    9000005    1    3    3    0    0 -0.38079373885E+02  0.18944870724E+02 -0.49198820041E+02  0.65042068968E+02  0.10000000000E+01 0.  0.
    9000005    1    3    3    0    0  0.38079373885E+02 -0.18944870724E+02 -0.36882394810E+03  0.37126951334E+03  0.10000000000E+01 0.  0.
<mgrwt>
<rscale>  0 0.12499905E+03</rscale>
<asrwt>0</asrwt>
<pdfrwt beam="1">  1        4 0.14068322E-02 0.12499905E+03</pdfrwt>
<pdfrwt beam="2">  1       -4 0.65718011E-01 0.12499905E+03</pdfrwt>
<totfact> 0.61169312E+03</totfact>
</mgrwt>
</event>
<event>
 5    1  0.3312706E-002  0.1249941E+03  0.7818608E-02  0.1235078E+00
         -4   -1    0    0    0  501 -0.00000000000E+00  0.00000000000E+00  0.23826358206E+02  0.23860181168E+02  0.12700000000E+01 0. -1.
          4   -1    0    0  501    0  0.00000000000E+00 -0.00000000000E+00 -0.16377867301E+03  0.16378359695E+03  0.12700000000E+01 0. -1.
         25    2    1    2    0    0  0.00000000000E+00  0.00000000000E+00 -0.13995231480E+03  0.18764377812E+03  0.12499414807E+03 0.  0.
    9000005    1    3    3    0    0 -0.11101999108E+01  0.56868957150E+02 -0.10882191485E+03  0.12279462522E+03  0.10000000000E+01 0.  0.
    9000005    1    3    3    0    0  0.11101999108E+01 -0.56868957150E+02 -0.31130399947E+02  0.64849152902E+02  0.10000000000E+01 0.  0.
<mgrwt>
<rscale>  0 0.12499415E+03</rscale>
<asrwt>0</asrwt>
<pdfrwt beam="2">  1        4 0.25199699E-01 0.12499415E+03</pdfrwt>
<pdfrwt beam="1">  1       -4 0.36685742E-02 0.12499415E+03</pdfrwt>
<totfact> 0.92271011E+03</totfact>
</mgrwt>
</event>
<event>
 5    1  0.3312706E-002  0.1250129E+03  0.7818608E-02  0.1235049E+00
          4   -1    0    0  501    0  0.00000000000E+00  0.00000000000E+00  0.86264428540E+01  0.87194275221E+01  0.12700000000E+01 0.  1.
         -4   -1    0    0    0  501 -0.00000000000E+00 -0.00000000000E+00 -0.45039429682E+03  0.45039608736E+03  0.12700000000E+01 0.  1.
         25    2    1    2    0    0  0.00000000000E+00  0.00000000000E+00 -0.44176785397E+03  0.45911551488E+03  0.12501287616E+03 0.  0.
    9000005    1    3    3    0    0  0.28297882262E+00 -0.51789114744E+02 -0.34936332818E+03  0.35318256972E+03  0.10000000000E+01 0.  0.
    9000005    1    3    3    0    0 -0.28297882262E+00  0.51789114744E+02 -0.92404525791E+02  0.10593294516E+03  0.10000000000E+01 0.  0.
<mgrwt>
<rscale>  0 0.12501288E+03</rscale>
<asrwt>0</asrwt>
<pdfrwt beam="1">  1        4 0.13344358E-02 0.12501288E+03</pdfrwt>
<pdfrwt beam="2">  1       -4 0.69298703E-01 0.12501288E+03</pdfrwt>
<totfact> 0.59165405E+03</totfact>
</mgrwt>
</event>
<event>
 5    1  0.3312706E-002  0.1249892E+03  0.7818608E-02  0.1235086E+00
          4   -1    0    0  501    0  0.00000000000E+00  0.00000000000E+00  0.40300962425E+03  0.40301162532E+03  0.12700000000E+01 0.  1.
         -4   -1    0    0    0  501 -0.00000000000E+00 -0.00000000000E+00 -0.96473737280E+01  0.97306073730E+01  0.12700000000E+01 0.  1.
         25    2    1    2    0    0  0.00000000000E+00  0.00000000000E+00  0.39336225052E+03  0.41274223269E+03  0.12498916156E+03 0.  0.
    9000005    1    3    3    0    0  0.94515989488E+01  0.40514753347E+02  0.42718320657E+02  0.59637512366E+02  0.10000000000E+01 0.  0.
    9000005    1    3    3    0    0 -0.94515989488E+01 -0.40514753347E+02  0.35064392987E+03  0.35310472032E+03  0.10000000000E+01 0.  0.
<mgrwt>
<rscale>  0 0.12498916E+03</rscale>
<asrwt>0</asrwt>
<pdfrwt beam="1">  1        4 0.62008026E-01 0.12498916E+03</pdfrwt>
<pdfrwt beam="2">  1       -4 0.14907681E-02 0.12498916E+03</pdfrwt>
<totfact> 0.63347232E+03</totfact>
</mgrwt>
</event>
<event>
 5    1  0.3312706E-002  0.1249972E+03  0.7818608E-02  0.1235074E+00
          4   -1    0    0  501    0  0.00000000000E+00  0.00000000000E+00  0.19151028432E+03  0.19151449527E+03  0.12700000000E+01 0.  1.
         -4   -1    0    0    0  501 -0.00000000000E+00 -0.00000000000E+00 -0.20371968102E+02  0.20411515974E+02  0.12700000000E+01 0.  1.
         25    2    1    2    0    0  0.00000000000E+00  0.00000000000E+00  0.17113831622E+03  0.21192601125E+03  0.12499724383E+03 0.  0.
    9000005    1    3    3    0    0  0.49368158831E+02  0.38287040775E+02  0.83192421831E+02  0.10404370066E+03  0.10000000000E+01 0.  0.
    9000005    1    3    3    0    0 -0.49368158831E+02 -0.38287040775E+02  0.87945894385E+02  0.10788231058E+03  0.10000000000E+01 0.  0.
<mgrwt>
<rscale>  0 0.12499724E+03</rscale>
<asrwt>0</asrwt>
<pdfrwt beam="1">  1        4 0.29466487E-01 0.12499724E+03</pdfrwt>
<pdfrwt beam="2">  1       -4 0.31375150E-02 0.12499724E+03</pdfrwt>
<totfact> 0.88167732E+03</totfact>
</mgrwt>
</event>
<event>
 5    1  0.3312706E-002  0.1250034E+03  0.7818608E-02  0.1235064E+00
          4   -1    0    0  501    0  0.00000000000E+00  0.00000000000E+00  0.85770270913E+02  0.85779672840E+02  0.12700000000E+01 0. -1.
         -4   -1    0    0    0  501 -0.00000000000E+00 -0.00000000000E+00 -0.45524874957E+02  0.45542586003E+02  0.12700000000E+01 0. -1.
         25    2    1    2    0    0  0.00000000000E+00  0.00000000000E+00  0.40245395956E+02  0.13132225884E+03  0.12500337504E+03 0.  0.
    9000005    1    3    3    0    0 -0.40328445246E+02  0.46740852256E+02  0.30328191025E+02  0.68788734081E+02  0.10000000000E+01 0.  0.
    9000005    1    3    3    0    0  0.40328445246E+02 -0.46740852256E+02  0.99172049305E+01  0.62533524762E+02  0.10000000000E+01 0.  0.
<mgrwt>
<rscale>  0 0.12500338E+03</rscale>
<asrwt>0</asrwt>
<pdfrwt beam="1">  1        4 0.13197512E-01 0.12500338E+03</pdfrwt>
<pdfrwt beam="2">  1       -4 0.70059126E-02 0.12500338E+03</pdfrwt>
<totfact> 0.10315400E+04</totfact>
</mgrwt>
</event>
<event>
 5    1  0.3312706E-002  0.1250011E+03  0.7818608E-02  0.1235068E+00
          4   -1    0    0  501    0  0.00000000000E+00  0.00000000000E+00  0.38963827811E+02  0.38984519719E+02  0.12700000000E+01 0. -1.
         -4   -1    0    0    0  501 -0.00000000000E+00 -0.00000000000E+00 -0.10020363006E+03  0.10021167784E+03  0.12700000000E+01 0. -1.
         25    2    1    2    0    0  0.00000000000E+00  0.00000000000E+00 -0.61239802245E+02  0.13919619756E+03  0.12500107214E+03 0.  0.
    9000005    1    3    3    0    0 -0.27535491665E+02  0.36878815498E+01 -0.92954533227E+02  0.97022415034E+02  0.10000000000E+01 0.  0.
    9000005    1    3    3    0    0  0.27535491665E+02 -0.36878815498E+01  0.31714730982E+02  0.42173782529E+02  0.10000000000E+01 0.  0.
<mgrwt>
<rscale>  0 0.12500107E+03</rscale>
<asrwt>0</asrwt>
<pdfrwt beam="1">  1        4 0.59966459E-02 0.12500107E+03</pdfrwt>
<pdfrwt beam="2">  1       -4 0.15418154E-01 0.12500107E+03</pdfrwt>
<totfact> 0.10150027E+04</totfact>
</mgrwt>
</event>
<event>
 5    1  0.3312706E-002  0.1250005E+03  0.7818608E-02  0.1235069E+00
         -4   -1    0    0    0  501 -0.00000000000E+00  0.00000000000E+00  0.91930372867E+02  0.91939144849E+02  0.12700000000E+01 0.  1.
          4   -1    0    0  501    0  0.00000000000E+00 -0.00000000000E+00 -0.42471430603E+02  0.42490414419E+02  0.12700000000E+01 0.  1.
         25    2    1    2    0    0  0.00000000000E+00  0.00000000000E+00  0.49458942264E+02  0.13442955927E+03  0.12500047774E+03 0.  0.
    9000005    1    3    3    0    0  0.13358689227E+01 -0.30970088014E+02  0.83084426655E+02  0.88684569401E+02  0.10000000000E+01 0.  0.
    9000005    1    3    3    0    0 -0.13358689227E+01  0.30970088014E+02 -0.33625484391E+02  0.45744989866E+02  0.10000000000E+01 0.  0.
<mgrwt>
<rscale>  0 0.12500048E+03</rscale>
<asrwt>0</asrwt>
<pdfrwt beam="2">  1        4 0.65362014E-02 0.12500048E+03</pdfrwt>
<pdfrwt beam="1">  1       -4 0.14145269E-01 0.12500048E+03</pdfrwt>
<totfact> 0.10249998E+04</totfact>
</mgrwt>
</event>
<event>
 5    1  0.3312706E-002  0.1250000E+03  0.7818608E-02  0.1235069E+00
          4   -1    0    0  501    0  0.00000000000E+00  0.00000000000E+00  0.84503963714E+02  0.84513506514E+02  0.12700000000E+01 0. -1.
         -4   -1    0    0    0  501 -0.00000000000E+00 -0.00000000000E+00 -0.46204782432E+02  0.46222232957E+02  0.12700000000E+01 0. -1.
         25    2    1    2    0    0  0.00000000000E+00  0.00000000000E+00  0.38299181282E+02  0.13073573947E+03  0.12500002515E+03 0.  0.
    9000005    1    3    3    0    0 -0.99645176261E+00 -0.60218927608E+02  0.17130913755E+01  0.60259827750E+02  0.10000000000E+01 0.  0.
    9000005    1    3    3    0    0  0.99645176261E+00  0.60218927608E+02  0.36586089907E+02  0.70475911722E+02  0.10000000000E+01 0.  0.
<mgrwt>
<rscale>  0 0.12500003E+03</rscale>
<asrwt>0</asrwt>
<pdfrwt beam="1">  1        4 0.13002686E-01 0.12500003E+03</pdfrwt>
<pdfrwt beam="2">  1       -4 0.71105046E-02 0.12500003E+03</pdfrwt>
<totfact> 0.10328752E+04</totfact>
</mgrwt>
</event>
<event>
 5    1  0.3312706E-002  0.1249986E+03  0.7818608E-02  0.1235071E+00
         -4   -1    0    0    0  501 -0.00000000000E+00  0.00000000000E+00  0.89942691882E+03  0.89942781545E+03  0.12700000000E+01 0. -1.
          4   -1    0    0  501    0  0.00000000000E+00 -0.00000000000E+00 -0.42491810749E+01  0.44349114768E+01  0.12700000000E+01 0. -1.
         25    2    1    2    0    0  0.00000000000E+00  0.00000000000E+00  0.89517773774E+03  0.90386272692E+03  0.12499858786E+03 0.  0.
    9000005    1    3    3    0    0  0.49900575106E+02  0.37539345527E+02  0.43003695709E+03  0.43454810358E+03  0.10000000000E+01 0.  0.
    9000005    1    3    3    0    0 -0.49900575106E+02 -0.37539345527E+02  0.46514078065E+03  0.46931462334E+03  0.10000000000E+01 0.  0.
<mgrwt>
<rscale>  0 0.12499859E+03</rscale>
<asrwt>0</asrwt>
<pdfrwt beam="2">  1        4 0.66807591E-03 0.12499859E+03</pdfrwt>
<pdfrwt beam="1">  1       -4 0.13838777E+00 0.12499859E+03</pdfrwt>
<totfact> 0.34013478E+03</totfact>
</mgrwt>
</event>
<event>
 5    1  0.3312706E-002  0.1249998E+03  0.7818608E-02  0.1235070E+00
         -4   -1    0    0    0  501 -0.00000000000E+00  0.00000000000E+00  0.71161641776E+02  0.71172973524E+02  0.12700000000E+01 0.  1.
          4   -1    0    0  501    0  0.00000000000E+00 -0.00000000000E+00 -0.54869413737E+02  0.54884109393E+02  0.12700000000E+01 0.  1.
         25    2    1    2    0    0  0.00000000000E+00  0.00000000000E+00  0.16292228039E+02  0.12605708292E+03  0.12499980584E+03 0.  0.
    9000005    1    3    3    0    0  0.11830547778E+02  0.30729811413E+02  0.61708013504E+02  0.69951140811E+02  0.10000000000E+01 0.  0.
    9000005    1    3    3    0    0 -0.11830547778E+02 -0.30729811413E+02 -0.45415785465E+02  0.56105942106E+02  0.10000000000E+01 0.  0.
<mgrwt>
<rscale>  0 0.12499981E+03</rscale>
<asrwt>0</asrwt>
<pdfrwt beam="2">  1        4 0.84434503E-02 0.12499981E+03</pdfrwt>
<pdfrwt beam="1">  1       -4 0.10949947E-01 0.12499981E+03</pdfrwt>
<totfact> 0.10429752E+04</totfact>
</mgrwt>
</event>
<event>
 5    1  0.3312706E-002  0.1250112E+03  0.7818608E-02  0.1235052E+00
          4   -1    0    0  501    0  0.00000000000E+00  0.00000000000E+00  0.17064957633E+02  0.17112150041E+02  0.12700000000E+01 0. -1.
         -4   -1    0    0    0  501 -0.00000000000E+00 -0.00000000000E+00 -0.22858056167E+03  0.22858408972E+03  0.12700000000E+01 0. -1.
         25    2    1    2    0    0  0.00000000000E+00  0.00000000000E+00 -0.21151560404E+03  0.24569623976E+03  0.12501116543E+03 0.  0.
    9000005    1    3    3    0    0  0.51183534900E+02 -0.28174006377E+02 -0.62144687425E+02  0.85302350819E+02  0.10000000000E+01 0.  0.
    9000005    1    3    3    0    0 -0.51183534900E+02  0.28174006377E+02 -0.14937091662E+03  0.16039388894E+03  0.10000000000E+01 0.  0.
<mgrwt>
<rscale>  0 0.12501117E+03</rscale>
<asrwt>0</asrwt>
<pdfrwt beam="1">  1        4 0.26292798E-02 0.12501117E+03</pdfrwt>
<pdfrwt beam="2">  1       -4 0.35170140E-01 0.12501117E+03</pdfrwt>
<totfact> 0.82935625E+03</totfact>
</mgrwt>
</event>
<event>
 5    1  0.3312706E-002  0.1250024E+03  0.7818608E-02  0.1235065E+00
         -4   -1    0    0    0  501 -0.00000000000E+00  0.00000000000E+00  0.15161274490E+02  0.15214372947E+02  0.12700000000E+01 0.  1.
          4   -1    0    0  501    0  0.00000000000E+00 -0.00000000000E+00 -0.25715149540E+03  0.25715463147E+03  0.12700000000E+01 0.  1.
         25    2    1    2    0    0  0.00000000000E+00  0.00000000000E+00 -0.24199022091E+03  0.27236900442E+03  0.12500243018E+03 0.  0.
    9000005    1    3    3    0    0  0.38950286553E+01 -0.62244849403E+02 -0.12965867079E+03  0.14388176895E+03  0.10000000000E+01 0.  0.
    9000005    1    3    3    0    0 -0.38950286553E+01  0.62244849403E+02 -0.11233155013E+03  0.12848723547E+03  0.10000000000E+01 0.  0.
<mgrwt>
<rscale>  0 0.12500243E+03</rscale>
<asrwt>0</asrwt>
<pdfrwt beam="2">  1        4 0.39566091E-01 0.12500243E+03</pdfrwt>
<pdfrwt beam="1">  1       -4 0.23368297E-02 0.12500243E+03</pdfrwt>
<totfact> 0.79196644E+03</totfact>
</mgrwt>
</event>
<event>
 5    1  0.3312706E-002  0.1249982E+03  0.7818608E-02  0.1235072E+00
          4   -1    0    0  501    0  0.00000000000E+00  0.00000000000E+00  0.13858394457E+03  0.13858976367E+03  0.12700000000E+01 0.  1.
         -4   -1    0    0    0  501 -0.00000000000E+00 -0.00000000000E+00 -0.28165355086E+02  0.28193973241E+02  0.12700000000E+01 0.  1.
         25    2    1    2    0    0  0.00000000000E+00  0.00000000000E+00  0.11041858949E+03  0.16678373691E+03  0.12499819996E+03 0.  0.
    9000005    1    3    3    0    0  0.14074812846E+02 -0.91602688148E+01 -0.25104786772E+02  0.30220211784E+02  0.10000000000E+01 0.  0.
    9000005    1    3    3    0    0 -0.14074812846E+02  0.91602688148E+01  0.13552337626E+03  0.13656352512E+03  0.10000000000E+01 0.  0.
<mgrwt>
<rscale>  0 0.12499820E+03</rscale>
<asrwt>0</asrwt>
<pdfrwt beam="1">  1        4 0.21323256E-01 0.12499820E+03</pdfrwt>
<pdfrwt beam="2">  1       -4 0.43357806E-02 0.12499820E+03</pdfrwt>
<totfact> 0.96054527E+03</totfact>
</mgrwt>
</event>
<event>
 5    1  0.3312706E-002  0.1250002E+03  0.7818608E-02  0.1235069E+00
         -4   -1    0    0    0  501 -0.00000000000E+00  0.00000000000E+00  0.22299493734E+03  0.22299855376E+03  0.12700000000E+01 0.  1.
          4   -1    0    0  501    0  0.00000000000E+00 -0.00000000000E+00 -0.17490499373E+02  0.17536546647E+02  0.12700000000E+01 0.  1.
         25    2    1    2    0    0  0.00000000000E+00  0.00000000000E+00  0.20550443796E+03  0.24053510040E+03  0.12500024201E+03 0.  0.
    9000005    1    3    3    0    0 -0.55239572029E+02 -0.15442484223E+02  0.15048765340E+03  0.16105096852E+03  0.10000000000E+01 0.  0.
    9000005    1    3    3    0    0  0.55239572029E+02  0.15442484223E+02  0.55016784563E+02  0.79484131879E+02  0.10000000000E+01 0.  0.
<mgrwt>
<rscale>  0 0.12500024E+03</rscale>
<asrwt>0</asrwt>
<pdfrwt beam="2">  1        4 0.26946665E-02 0.12500024E+03</pdfrwt>
<pdfrwt beam="1">  1       -4 0.34310732E-01 0.12500024E+03</pdfrwt>
<totfact> 0.83717287E+03</totfact>
</mgrwt>
</event>
<event>
 5    1  0.3312706E-002  0.1249967E+03  0.7818608E-02  0.1235074E+00
          4   -1    0    0  501    0  0.00000000000E+00  0.00000000000E+00  0.92541471784E+02  0.92550185845E+02  0.12700000000E+01 0.  1.
         -4   -1    0    0    0  501 -0.00000000000E+00 -0.00000000000E+00 -0.42188307747E+02  0.42207418905E+02  0.12700000000E+01 0.  1.
         25    2    1    2    0    0  0.00000000000E+00  0.00000000000E+00  0.50353164036E+02  0.13475760475E+03  0.12499668359E+03 0.  0.
    9000005    1    3    3    0    0 -0.10996106975E+02  0.35733757013E+01  0.91383557730E+02  0.92117522795E+02  0.10000000000E+01 0.  0.
    9000005    1    3    3    0    0  0.10996106975E+02 -0.35733757013E+01 -0.41030393693E+02  0.42640081955E+02  0.10000000000E+01 0.  0.
<mgrwt>
<rscale>  0 0.12499668E+03</rscale>
<asrwt>0</asrwt>
<pdfrwt beam="1">  1        4 0.14239290E-01 0.12499668E+03</pdfrwt>
<pdfrwt beam="2">  1       -4 0.64926494E-02 0.12499668E+03</pdfrwt>
<totfact> 0.10243949E+04</totfact>
</mgrwt>
</event>
<event>
 5    1  0.3312706E-002  0.1249988E+03  0.7818608E-02  0.1235071E+00
          4   -1    0    0  501    0  0.00000000000E+00  0.00000000000E+00  0.11531105993E+02  0.11600832101E+02  0.12700000000E+01 0.  1.
         -4   -1    0    0    0  501 -0.00000000000E+00 -0.00000000000E+00 -0.33765920602E+03  0.33766159436E+03  0.12700000000E+01 0.  1.
         25    2    1    2    0    0  0.00000000000E+00  0.00000000000E+00 -0.32612810002E+03  0.34926242646E+03  0.12499881965E+03 0.  0.
    9000005    1    3    3    0    0 -0.94617609474E+01  0.22577261218E+01  0.94164545700E+01  0.13575413958E+02  0.10000000000E+01 0.  0.
    9000005    1    3    3    0    0  0.94617609474E+01 -0.22577261218E+01 -0.33554455459E+03  0.33568701251E+03  0.10000000000E+01 0.  0.
<mgrwt>
<rscale>  0 0.12499882E+03</rscale>
<asrwt>0</asrwt>
<pdfrwt beam="1">  1        4 0.17795638E-02 0.12499882E+03</pdfrwt>
<pdfrwt beam="2">  1       -4 0.51953110E-01 0.12499882E+03</pdfrwt>
<totfact> 0.69807601E+03</totfact>
</mgrwt>
</event>
<event>
 5    1  0.3312706E-002  0.1250017E+03  0.7818608E-02  0.1235067E+00
          4   -1    0    0  501    0  0.00000000000E+00  0.00000000000E+00  0.40062226641E+03  0.40062427940E+03  0.12700000000E+01 0.  1.
         -4   -1    0    0    0  501 -0.00000000000E+00 -0.00000000000E+00 -0.97073203242E+01  0.97900443245E+01  0.12700000000E+01 0.  1.
         25    2    1    2    0    0  0.00000000000E+00  0.00000000000E+00  0.39091494609E+03  0.41041432372E+03  0.12500168816E+03 0.  0.
    9000005    1    3    3    0    0 -0.27005677050E+02  0.53945870972E+02  0.14191983542E+03  0.15421317477E+03  0.10000000000E+01 0.  0.
    9000005    1    3    3    0    0  0.27005677050E+02 -0.53945870972E+02  0.24899511067E+03  0.25620114895E+03  0.10000000000E+01 0.  0.
<mgrwt>
<rscale>  0 0.12500169E+03</rscale>
<asrwt>0</asrwt>
<pdfrwt beam="1">  1        4 0.61640704E-01 0.12500169E+03</pdfrwt>
<pdfrwt beam="2">  1       -4 0.14999523E-02 0.12500169E+03</pdfrwt>
<totfact> 0.63549989E+03</totfact>
</mgrwt>
</event>
<event>
 5    1  0.3312706E-002  0.1250020E+03  0.7818608E-02  0.1235066E+00
         -4   -1    0    0    0  501 -0.00000000000E+00  0.00000000000E+00  0.13533336022E+02  0.13592795294E+02  0.12700000000E+01 0. -1.
          4   -1    0    0  501    0  0.00000000000E+00 -0.00000000000E+00 -0.28795491334E+03  0.28795771394E+03  0.12700000000E+01 0. -1.
         25    2    1    2    0    0  0.00000000000E+00  0.00000000000E+00 -0.27442157732E+03  0.30155050923E+03  0.12500203007E+03 0.  0.
    9000005    1    3    3    0    0 -0.62456893693E+02  0.18659693156E+01 -0.13476076050E+03  0.14854564276E+03  0.10000000000E+01 0.  0.
    9000005    1    3    3    0    0  0.62456893693E+02 -0.18659693156E+01 -0.13966081682E+03  0.15300486647E+03  0.10000000000E+01 0.  0.
<mgrwt>
<rscale>  0 0.12500203E+03</rscale>
<asrwt>0</asrwt>
<pdfrwt beam="2">  1        4 0.44305541E-01 0.12500203E+03</pdfrwt>
<pdfrwt beam="1">  1       -4 0.20868411E-02 0.12500203E+03</pdfrwt>
<totfact> 0.75401361E+03</totfact>
</mgrwt>
</event>
<event>
 5    1  0.3312706E-002  0.1249846E+03  0.7818608E-02  0.1235093E+00
         -4   -1    0    0    0  501 -0.00000000000E+00  0.00000000000E+00  0.25088459627E+02  0.25120583322E+02  0.12700000000E+01 0. -1.
          4   -1    0    0  501    0  0.00000000000E+00 -0.00000000000E+00 -0.15552629356E+03  0.15553147877E+03  0.12700000000E+01 0. -1.
         25    2    1    2    0    0  0.00000000000E+00  0.00000000000E+00 -0.13043783393E+03  0.18065206209E+03  0.12498455511E+03 0.  0.
    9000005    1    3    3    0    0  0.12945072170E+02 -0.60346902756E+02 -0.79304007581E+02  0.10049601576E+03  0.10000000000E+01 0.  0.
    9000005    1    3    3    0    0 -0.12945072170E+02  0.60346902756E+02 -0.51133826352E+02  0.80156046330E+02  0.10000000000E+01 0.  0.
<mgrwt>
<rscale>  0 0.12498456E+03</rscale>
<asrwt>0</asrwt>
<pdfrwt beam="2">  1        4 0.23929992E-01 0.12498456E+03</pdfrwt>
<pdfrwt beam="1">  1       -4 0.38626330E-02 0.12498456E+03</pdfrwt>
<totfact> 0.93532146E+03</totfact>
</mgrwt>
</event>
<event>
 5    1  0.3312706E-002  0.1250103E+03  0.7818608E-02  0.1235053E+00
         -4   -1    0    0    0  501 -0.00000000000E+00  0.00000000000E+00  0.42605951465E+02  0.42624875369E+02  0.12700000000E+01 0.  1.
          4   -1    0    0  501    0  0.00000000000E+00 -0.00000000000E+00 -0.91654659032E+02  0.91663457398E+02  0.12700000000E+01 0.  1.
         25    2    1    2    0    0  0.00000000000E+00  0.00000000000E+00 -0.49048707567E+02  0.13428833277E+03  0.12501032199E+03 0.  0.
    9000005    1    3    3    0    0  0.48450845601E+02 -0.39438606463E+02 -0.26387133107E+02  0.67824545062E+02  0.10000000000E+01 0.  0.
    9000005    1    3    3    0    0 -0.48450845601E+02  0.39438606463E+02 -0.22661574460E+02  0.66463787706E+02  0.10000000000E+01 0.  0.
<mgrwt>
<rscale>  0 0.12501032E+03</rscale>
<asrwt>0</asrwt>
<pdfrwt beam="2">  1        4 0.14102849E-01 0.12501032E+03</pdfrwt>
<pdfrwt beam="1">  1       -4 0.65568943E-02 0.12501032E+03</pdfrwt>
<totfact> 0.10250706E+04</totfact>
</mgrwt>
</event>
<event>
 5    1  0.3312706E-002  0.1249993E+03  0.7818608E-02  0.1235070E+00
         -4   -1    0    0    0  501 -0.00000000000E+00  0.00000000000E+00  0.58178550250E+02  0.58192410237E+02  0.12700000000E+01 0.  1.
          4   -1    0    0  501    0  0.00000000000E+00 -0.00000000000E+00 -0.67113801729E+02  0.67125816810E+02  0.12700000000E+01 0.  1.
         25    2    1    2    0    0  0.00000000000E+00  0.00000000000E+00 -0.89352514786E+01  0.12531822705E+03  0.12499927724E+03 0.  0.
    9000005    1    3    3    0    0  0.13360860911E+02 -0.27585819505E+02  0.50129707608E+02  0.58766296692E+02  0.10000000000E+01 0.  0.
    9000005    1    3    3    0    0 -0.13360860911E+02  0.27585819505E+02 -0.59064959087E+02  0.66551930355E+02  0.10000000000E+01 0.  0.
<mgrwt>
<rscale>  0 0.12499928E+03</rscale>
<asrwt>0</asrwt>
<pdfrwt beam="2">  1        4 0.10327191E-01 0.12499928E+03</pdfrwt>
<pdfrwt beam="1">  1       -4 0.89525366E-02 0.12499928E+03</pdfrwt>
<totfact> 0.10446125E+04</totfact>
</mgrwt>
</event>
<event>
 5    1  0.3312706E-002  0.1249954E+03  0.7818608E-02  0.1235076E+00
         -4   -1    0    0    0  501 -0.00000000000E+00  0.00000000000E+00  0.55005727666E+01  0.56452812827E+01  0.12700000000E+01 0.  1.
          4   -1    0    0  501    0  0.00000000000E+00 -0.00000000000E+00 -0.70073665770E+03  0.70073780855E+03  0.12700000000E+01 0.  1.
         25    2    1    2    0    0  0.00000000000E+00  0.00000000000E+00 -0.69523608493E+03  0.70638308984E+03  0.12499542320E+03 0.  0.
    9000005    1    3    3    0    0 -0.46881680139E+02 -0.38381043258E+02 -0.26117620536E+03  0.26811379424E+03  0.10000000000E+01 0.  0.
    9000005    1    3    3    0    0  0.46881680139E+02  0.38381043258E+02 -0.43405987956E+03  0.43826929560E+03  0.10000000000E+01 0.  0.
<mgrwt>
<rscale>  0 0.12499542E+03</rscale>
<asrwt>0</asrwt>
<pdfrwt beam="2">  1        4 0.10781679E+00 0.12499542E+03</pdfrwt>
<pdfrwt beam="1">  1       -4 0.85746247E-03 0.12499542E+03</pdfrwt>
<totfact> 0.42756180E+03</totfact>
</mgrwt>
</event>
<event>
 5    1  0.3312706E-002  0.1250045E+03  0.7818608E-02  0.1235062E+00
          4   -1    0    0  501    0  0.00000000000E+00  0.00000000000E+00  0.47064629471E+02  0.47081761301E+02  0.12700000000E+01 0.  1.
         -4   -1    0    0    0  501 -0.00000000000E+00 -0.00000000000E+00 -0.82966478938E+02  0.82976198560E+02  0.12700000000E+01 0.  1.
         25    2    1    2    0    0  0.00000000000E+00  0.00000000000E+00 -0.35901849467E+02  0.13005795986E+03  0.12500452043E+03 0.  0.
    9000005    1    3    3    0    0  0.80728085884E+01  0.29574447860E+02  0.38708984769E+02  0.49388295239E+02  0.10000000000E+01 0.  0.
    9000005    1    3    3    0    0 -0.80728085884E+01 -0.29574447860E+02 -0.74610834237E+02  0.80669664622E+02  0.10000000000E+01 0.  0.
<mgrwt>
<rscale>  0 0.12500452E+03</rscale>
<asrwt>0</asrwt>
<pdfrwt beam="1">  1        4 0.72427778E-02 0.12500452E+03</pdfrwt>
<pdfrwt beam="2">  1       -4 0.12766139E-01 0.12500452E+03</pdfrwt>
<totfact> 0.10342212E+04</totfact>
</mgrwt>
</event>
<event>
 4    1  0.3312706E-002  0.1249321E+03  0.7818608E-02  0.1235175E+00
         -4   -1    0    0    0  501 -0.00000000000E+00  0.00000000000E+00  0.24774479415E+02  0.24807009701E+02  0.12700000000E+01 0. -1.
          4   -1    0    0  501    0  0.00000000000E+00 -0.00000000000E+00 -0.15736270692E+03  0.15736783162E+03  0.12700000000E+01 0. -1.
    9000005    1    1    2    0    0  0.15398544686E+02 -0.59489246367E+02 -0.49996064817E+02  0.79225577366E+02  0.10000000000E+01 0.  0.
    9000005    1    1    2    0    0 -0.15398544686E+02  0.59489246367E+02 -0.82592162690E+02  0.10294926396E+03  0.10000000000E+01 0.  0.
<mgrwt>
<rscale>  0 0.12493212E+03</rscale>
<asrwt>0</asrwt>
<pdfrwt beam="2">  1        4 0.24212543E-01 0.12493212E+03</pdfrwt>
<pdfrwt beam="1">  1       -4 0.38143550E-02 0.12493212E+03</pdfrwt>
<totfact> 0.93368985E+03</totfact>
</mgrwt>
</event>
<event>
 5    1  0.3312706E-002  0.1250027E+03  0.7818608E-02  0.1235065E+00
          4   -1    0    0  501    0  0.00000000000E+00  0.00000000000E+00  0.15597517287E+03  0.15598034316E+03  0.12700000000E+01 0.  1.
         -4   -1    0    0    0  501 -0.00000000000E+00 -0.00000000000E+00 -0.25023459342E+02  0.25055666374E+02  0.12700000000E+01 0.  1.
         25    2    1    2    0    0  0.00000000000E+00  0.00000000000E+00  0.13095171353E+03  0.18103600954E+03  0.12500274186E+03 0.  0.
    9000005    1    3    3    0    0 -0.40140904367E+02  0.42085603352E+02  0.32357583328E+02  0.66562026800E+02  0.10000000000E+01 0.  0.
    9000005    1    3    3    0    0  0.40140904367E+02 -0.42085603352E+02  0.98594130205E+02  0.11447398274E+03  0.10000000000E+01 0.  0.
<mgrwt>
<rscale>  0 0.12500274E+03</rscale>
<asrwt>0</asrwt>
<pdfrwt beam="1">  1        4 0.23999056E-01 0.12500274E+03</pdfrwt>
<pdfrwt beam="2">  1       -4 0.38526382E-02 0.12500274E+03</pdfrwt>
<totfact> 0.93425106E+03</totfact>
</mgrwt>
</event>
<event>
 5    1  0.3312706E-002  0.1249988E+03  0.7818608E-02  0.1235071E+00
          4   -1    0    0  501    0  0.00000000000E+00  0.00000000000E+00  0.87695607005E+02  0.87704802536E+02  0.12700000000E+01 0.  1.
         -4   -1    0    0    0  501 -0.00000000000E+00 -0.00000000000E+00 -0.44521805031E+02  0.44539914944E+02  0.12700000000E+01 0.  1.
         25    2    1    2    0    0  0.00000000000E+00  0.00000000000E+00  0.43173801974E+02  0.13224471748E+03  0.12499875249E+03 0.  0.
    9000005    1    3    3    0    0  0.27904272136E+02  0.55871189680E+02  0.23936874923E+02  0.66889552404E+02  0.10000000000E+01 0.  0.
    9000005    1    3    3    0    0 -0.27904272136E+02 -0.55871189680E+02  0.19236927051E+02  0.65355165076E+02  0.10000000000E+01 0.  0.
<mgrwt>
<rscale>  0 0.12499875E+03</rscale>
<asrwt>0</asrwt>
<pdfrwt beam="1">  1        4 0.13493732E-01 0.12499875E+03</pdfrwt>
<pdfrwt beam="2">  1       -4 0.68516090E-02 0.12499875E+03</pdfrwt>
<totfact> 0.10296768E+04</totfact>
</mgrwt>
</event>
<event>
 5    1  0.3312706E-002  0.1250031E+03  0.7818608E-02  0.1235065E+00
          4   -1    0    0  501    0  0.00000000000E+00  0.00000000000E+00  0.56967302061E+02  0.56981456669E+02  0.12700000000E+01 0. -1.
         -4   -1    0    0    0  501 -0.00000000000E+00 -0.00000000000E+00 -0.68544829428E+02  0.68556593711E+02  0.12700000000E+01 0. -1.
         25    2    1    2    0    0  0.00000000000E+00  0.00000000000E+00 -0.11577527367E+02  0.12553805038E+03  0.12500305178E+03 0.  0.
    9000005    1    3    3    0    0 -0.90474699819E+01 -0.11710313727E+02  0.55187258533E+02  0.57145618074E+02  0.10000000000E+01 0.  0.
    9000005    1    3    3    0    0  0.90474699819E+01  0.11710313727E+02 -0.66764785899E+02  0.68392432307E+02  0.10000000000E+01 0.  0.
<mgrwt>
<rscale>  0 0.12500305E+03</rscale>
<asrwt>0</asrwt>
<pdfrwt beam="1">  1        4 0.87661940E-02 0.12500305E+03</pdfrwt>
<pdfrwt beam="2">  1       -4 0.10547352E-01 0.12500305E+03</pdfrwt>
<totfact> 0.10440395E+04</totfact>
</mgrwt>
</event>
<event>
 5    1  0.3312706E-002  0.1250010E+03  0.7818608E-02  0.1235068E+00
          4   -1    0    0  501    0  0.00000000000E+00  0.00000000000E+00  0.56976185651E+01  0.58374444163E+01  0.12700000000E+01 0.  1.
         -4   -1    0    0    0  501 -0.00000000000E+00 -0.00000000000E+00 -0.67715363571E+03  0.67715482665E+03  0.12700000000E+01 0.  1.
         25    2    1    2    0    0  0.00000000000E+00  0.00000000000E+00 -0.67145601715E+03  0.68299227107E+03  0.12500103750E+03 0.  0.
    9000005    1    3    3    0    0 -0.17639958543E+01 -0.62402208002E+02 -0.32011274286E+03  0.32614462343E+03  0.10000000000E+01 0.  0.
    9000005    1    3    3    0    0  0.17639958543E+01  0.62402208002E+02 -0.35134327428E+03  0.35684764764E+03  0.10000000000E+01 0.  0.
<mgrwt>
<rscale>  0 0.12500104E+03</rscale>
<asrwt>0</asrwt>
<pdfrwt beam="1">  1        4 0.88740469E-03 0.12500104E+03</pdfrwt>
<pdfrwt beam="2">  1       -4 0.10418827E+00 0.12500104E+03</pdfrwt>
<totfact> 0.43998870E+03</totfact>
</mgrwt>
</event>
<event>
 5    1  0.3312706E-002  0.1249991E+03  0.7818608E-02  0.1235071E+00
          4   -1    0    0  501    0  0.00000000000E+00  0.00000000000E+00  0.11287744321E+03  0.11288458746E+03  0.12700000000E+01 0. -1.
         -4   -1    0    0    0  501 -0.00000000000E+00 -0.00000000000E+00 -0.34585741730E+02  0.34609051287E+02  0.12700000000E+01 0. -1.
         25    2    1    2    0    0  0.00000000000E+00  0.00000000000E+00  0.78291701483E+02  0.14749363875E+03  0.12499913180E+03 0.  0.
    9000005    1    3    3    0    0 -0.27267770456E+02 -0.49178519352E+02  0.69795638872E+01  0.56672501121E+02  0.10000000000E+01 0.  0.
    9000005    1    3    3    0    0  0.27267770456E+02  0.49178519352E+02  0.71312137596E+02  0.90821137627E+02  0.10000000000E+01 0.  0.
<mgrwt>
<rscale>  0 0.12499913E+03</rscale>
<asrwt>0</asrwt>
<pdfrwt beam="1">  1        4 0.17368103E-01 0.12499913E+03</pdfrwt>
<pdfrwt beam="2">  1       -4 0.53232259E-02 0.12499913E+03</pdfrwt>
<totfact> 0.99807621E+03</totfact>
</mgrwt>
</event>
<event>
 5    1  0.3312706E-002  0.1250013E+03  0.7818608E-02  0.1235067E+00
         -4   -1    0    0    0  501 -0.00000000000E+00  0.00000000000E+00  0.10263924632E+03  0.10264710315E+03  0.12700000000E+01 0. -1.
          4   -1    0    0  501    0  0.00000000000E+00 -0.00000000000E+00 -0.38038928807E+02  0.38060123552E+02  0.12700000000E+01 0. -1.
         25    2    1    2    0    0  0.00000000000E+00  0.00000000000E+00  0.64600317510E+02  0.14070722670E+03  0.12500129049E+03 0.  0.
    9000005    1    3    3    0    0 -0.20165308110E+02 -0.12118585305E+02  0.97469443807E+02  0.10027358694E+03  0.10000000000E+01 0.  0.
    9000005    1    3    3    0    0  0.20165308110E+02  0.12118585305E+02 -0.32869126297E+02  0.40433639763E+02  0.10000000000E+01 0.  0.
<mgrwt>
<rscale>  0 0.12500129E+03</rscale>
<asrwt>0</asrwt>
<pdfrwt beam="2">  1        4 0.58543777E-02 0.12500129E+03</pdfrwt>
<pdfrwt beam="1">  1       -4 0.15792888E-01 0.12500129E+03</pdfrwt>
<totfact> 0.10118655E+04</totfact>
</mgrwt>
</event>
<event>
 5    1  0.3312706E-002  0.1250009E+03  0.7818608E-02  0.1235068E+00
         -4   -1    0    0    0  501 -0.00000000000E+00  0.00000000000E+00  0.18583016257E+03  0.18583450223E+03  0.12700000000E+01 0. -1.
          4   -1    0    0  501    0  0.00000000000E+00 -0.00000000000E+00 -0.20997061182E+02  0.21035433875E+02  0.12700000000E+01 0. -1.
         25    2    1    2    0    0  0.00000000000E+00  0.00000000000E+00  0.16483310138E+03  0.20686993610E+03  0.12500087661E+03 0.  0.
    9000005    1    3    3    0    0 -0.23562877578E+02 -0.21287437093E+02 -0.66580978859E+01  0.32460659963E+02  0.10000000000E+01 0.  0.
    9000005    1    3    3    0    0  0.23562877578E+02  0.21287437093E+02  0.17149119927E+03  0.17440927614E+03  0.10000000000E+01 0.  0.
<mgrwt>
<rscale>  0 0.12500088E+03</rscale>
<asrwt>0</asrwt>
<pdfrwt beam="2">  1        4 0.32336028E-02 0.12500088E+03</pdfrwt>
<pdfrwt beam="1">  1       -4 0.28592540E-01 0.12500088E+03</pdfrwt>
<totfact> 0.88987882E+03</totfact>
</mgrwt>
</event>
<event>
 5    1  0.3312706E-002  0.1250007E+03  0.7818608E-02  0.1235068E+00
          4   -1    0    0  501    0  0.00000000000E+00  0.00000000000E+00  0.44641548846E+03  0.44641729496E+03  0.12700000000E+01 0. -1.
         -4   -1    0    0    0  501 -0.00000000000E+00 -0.00000000000E+00 -0.87024439634E+01  0.87946251163E+01  0.12700000000E+01 0. -1.
         25    2    1    2    0    0  0.00000000000E+00  0.00000000000E+00  0.43771304450E+03  0.45521192008E+03  0.12500073142E+03 0.  0.
    9000005    1    3    3    0    0  0.57101250263E+02 -0.24976113809E+02  0.20219345728E+03  0.21158344267E+03  0.10000000000E+01 0.  0.
    9000005    1    3    3    0    0 -0.57101250263E+02  0.24976113809E+02  0.23551958722E+03  0.24362847741E+03  0.10000000000E+01 0.  0.
<mgrwt>
<rscale>  0 0.12500073E+03</rscale>
<asrwt>0</asrwt>
<pdfrwt beam="1">  1        4 0.68686544E-01 0.12500073E+03</pdfrwt>
<pdfrwt beam="2">  1       -4 0.13460672E-02 0.12500073E+03</pdfrwt>
<totfact> 0.59513966E+03</totfact>
</mgrwt>
</event>
<event>
 5    1  0.3312706E-002  0.1249965E+03  0.7818608E-02  0.1235075E+00
          4   -1    0    0  501    0  0.00000000000E+00  0.00000000000E+00  0.86332217940E+01  0.87261342268E+01  0.12700000000E+01 0. -1.
         -4   -1    0    0    0  501 -0.00000000000E+00 -0.00000000000E+00 -0.44992650727E+03  0.44992829967E+03  0.12700000000E+01 0. -1.
         25    2    1    2    0    0  0.00000000000E+00  0.00000000000E+00 -0.44129328548E+03  0.45865443390E+03  0.12499650366E+03 0.  0.
    9000005    1    3    3    0    0 -0.54121451538E+02  0.31236296416E+02 -0.21903150254E+03  0.22777321360E+03  0.10000000000E+01 0.  0.
    9000005    1    3    3    0    0  0.54121451538E+02 -0.31236296416E+02 -0.22226178294E+03  0.23088122030E+03  0.10000000000E+01 0.  0.
<mgrwt>
<rscale>  0 0.12499650E+03</rscale>
<asrwt>0</asrwt>
<pdfrwt beam="1">  1        4 0.13354733E-02 0.12499650E+03</pdfrwt>
<pdfrwt beam="2">  1       -4 0.69226730E-01 0.12499650E+03</pdfrwt>
<totfact> 0.59225894E+03</totfact>
</mgrwt>
</event>
<event>
 5    1  0.3312706E-002  0.1250039E+03  0.7818608E-02  0.1235063E+00
         -4   -1    0    0    0  501 -0.00000000000E+00  0.00000000000E+00  0.81741883295E+01  0.82722581467E+01  0.12700000000E+01 0. -1.
          4   -1    0    0  501    0  0.00000000000E+00 -0.00000000000E+00 -0.47495722299E+03  0.47495892093E+03  0.12700000000E+01 0. -1.
         25    2    1    2    0    0  0.00000000000E+00  0.00000000000E+00 -0.46678303466E+03  0.48323117907E+03  0.12500388388E+03 0.  0.
    9000005    1    3    3    0    0 -0.53117267956E+02 -0.29479461493E+02 -0.29007554631E+03  0.29637021674E+03  0.10000000000E+01 0.  0.
    9000005    1    3    3    0    0  0.53117267956E+02  0.29479461493E+02 -0.17670748835E+03  0.18686096233E+03  0.10000000000E+01 0.  0.
<mgrwt>
<rscale>  0 0.12500388E+03</rscale>
<asrwt>0</asrwt>
<pdfrwt beam="2">  1        4 0.73077995E-01 0.12500388E+03</pdfrwt>
<pdfrwt beam="1">  1       -4 0.12652423E-02 0.12500388E+03</pdfrwt>
<totfact> 0.57184428E+03</totfact>
</mgrwt>
</event>
<event>
 5    1  0.3312706E-002  0.1250000E+03  0.7818608E-02  0.1235069E+00
         -4   -1    0    0    0  501 -0.00000000000E+00  0.00000000000E+00  0.12542899977E+02  0.12607031365E+02  0.12700000000E+01 0. -1.
          4   -1    0    0  501    0  0.00000000000E+00 -0.00000000000E+00 -0.31057140632E+03  0.31057400298E+03  0.12700000000E+01 0. -1.
         25    2    1    2    0    0  0.00000000000E+00  0.00000000000E+00 -0.29802850635E+03  0.32318103434E+03  0.12499996146E+03 0.  0.
    9000005    1    3    3    0    0 -0.30949766352E+02 -0.34268319179E+01 -0.89311872376E+01  0.32409833689E+02  0.10000000000E+01 0.  0.
    9000005    1    3    3    0    0  0.30949766352E+02  0.34268319179E+01 -0.28909731911E+03  0.29077120065E+03  0.10000000000E+01 0.  0.
<mgrwt>
<rscale>  0 0.12499996E+03</rscale>
<asrwt>0</asrwt>
<pdfrwt beam="2">  1        4 0.47785344E-01 0.12499996E+03</pdfrwt>
<pdfrwt beam="1">  1       -4 0.19348101E-02 0.12499996E+03</pdfrwt>
<totfact> 0.72779439E+03</totfact>
</mgrwt>
</event>
<event>
 5    1  0.3312706E-002  0.1249993E+03  0.7818608E-02  0.1235070E+00
          4   -1    0    0  501    0  0.00000000000E+00  0.00000000000E+00  0.33787997085E+03  0.33788235763E+03  0.12700000000E+01 0. -1.
         -4   -1    0    0    0  501 -0.00000000000E+00 -0.00000000000E+00 -0.11523619765E+02  0.11593390897E+02  0.12700000000E+01 0. -1.
         25    2    1    2    0    0  0.00000000000E+00  0.00000000000E+00  0.32635635108E+03  0.34947574853E+03  0.12499932367E+03 0.  0.
    9000005    1    3    3    0    0  0.29291125334E+02  0.33554190157E+02  0.40628242502E+02  0.60295172188E+02  0.10000000000E+01 0.  0.
    9000005    1    3    3    0    0 -0.29291125334E+02 -0.33554190157E+02  0.28572810858E+03  0.28918057634E+03  0.10000000000E+01 0.  0.
<mgrwt>
<rscale>  0 0.12499932E+03</rscale>
<asrwt>0</asrwt>
<pdfrwt beam="1">  1        4 0.51987089E-01 0.12499932E+03</pdfrwt>
<pdfrwt beam="2">  1       -4 0.17784150E-02 0.12499932E+03</pdfrwt>
<totfact> 0.69783308E+03</totfact>
</mgrwt>
</event>
<event>
 5    1  0.3312706E-002  0.1250002E+03  0.7818608E-02  0.1235069E+00
          4   -1    0    0  501    0  0.00000000000E+00  0.00000000000E+00  0.58065952447E+01  0.59438580347E+01  0.12700000000E+01 0. -1.
         -4   -1    0    0    0  501 -0.00000000000E+00 -0.00000000000E+00 -0.66473182976E+03  0.66473304296E+03  0.12700000000E+01 0. -1.
         25    2    1    2    0    0  0.00000000000E+00  0.00000000000E+00 -0.65892523452E+03  0.67067690099E+03  0.12500016336E+03 0.  0.
    9000005    1    3    3    0    0 -0.21641261658E+02  0.13428979235E+02 -0.63564735963E+03  0.63615819376E+03  0.10000000000E+01 0.  0.
    9000005    1    3    3    0    0  0.21641261658E+02 -0.13428979235E+02 -0.23277874891E+02  0.34518707231E+02  0.10000000000E+01 0.  0.
<mgrwt>
<rscale>  0 0.12500016E+03</rscale>
<asrwt>0</asrwt>
<pdfrwt beam="1">  1        4 0.90397487E-03 0.12500016E+03</pdfrwt>
<pdfrwt beam="2">  1       -4 0.10227703E+00 0.12500016E+03</pdfrwt>
<totfact> 0.44680326E+03</totfact>
</mgrwt>
</event>
<event>
 5    1  0.3312706E-002  0.1249966E+03  0.7818608E-02  0.1235075E+00
         -4   -1    0    0    0  501 -0.00000000000E+00  0.00000000000E+00  0.37348627859E+02  0.37370214114E+02  0.12700000000E+01 0. -1.
          4   -1    0    0  501    0  0.00000000000E+00 -0.00000000000E+00 -0.10452748135E+03  0.10453519626E+03  0.12700000000E+01 0. -1.
         25    2    1    2    0    0  0.00000000000E+00  0.00000000000E+00 -0.67178853492E+02  0.14190541038E+03  0.12499658850E+03 0.  0.
    9000005    1    3    3    0    0  0.32808017996E+02  0.21388423811E+02 -0.88871642627E+02  0.97123630395E+02  0.10000000000E+01 0.  0.
    9000005    1    3    3    0    0 -0.32808017996E+02 -0.21388423811E+02  0.21692789134E+02  0.44781779982E+02  0.10000000000E+01 0.  0.
<mgrwt>
<rscale>  0 0.12499659E+03</rscale>
<asrwt>0</asrwt>
<pdfrwt beam="2">  1        4 0.16083405E-01 0.12499659E+03</pdfrwt>
<pdfrwt beam="1">  1       -4 0.57481967E-02 0.12499659E+03</pdfrwt>
<totfact> 0.10095023E+04</totfact>
</mgrwt>
</event>
<event>
 5    1  0.3312706E-002  0.1249995E+03  0.7818608E-02  0.1235070E+00
         -4   -1    0    0    0  501 -0.00000000000E+00  0.00000000000E+00  0.54047219926E+02  0.54062139078E+02  0.12700000000E+01 0.  1.
          4   -1    0    0  501    0  0.00000000000E+00 -0.00000000000E+00 -0.72243712017E+02  0.72254874064E+02  0.12700000000E+01 0.  1.
         25    2    1    2    0    0  0.00000000000E+00  0.00000000000E+00 -0.18196492091E+02  0.12631701314E+03  0.12499950194E+03 0.  0.
    9000005    1    3    3    0    0 -0.47820816089E+02  0.36792739001E+02  0.73423063753E+01  0.60790176489E+02  0.10000000000E+01 0.  0.
    9000005    1    3    3    0    0  0.47820816089E+02 -0.36792739001E+02 -0.25538798466E+02  0.65526836653E+02  0.10000000000E+01 0.  0.
<mgrwt>
<rscale>  0 0.12499950E+03</rscale>
<asrwt>0</asrwt>
<pdfrwt beam="2">  1        4 0.11116424E-01 0.12499950E+03</pdfrwt>
<pdfrwt beam="1">  1       -4 0.83169631E-02 0.12499950E+03</pdfrwt>
<totfact> 0.10424139E+04</totfact>
</mgrwt>
</event>
<event>
 5    1  0.3312706E-002  0.1250008E+03  0.7818608E-02  0.1235068E+00
         -4   -1    0    0    0  501 -0.00000000000E+00  0.00000000000E+00  0.35318703399E+03  0.35318931733E+03  0.12700000000E+01 0. -1.
          4   -1    0    0  501    0  0.00000000000E+00 -0.00000000000E+00 -0.11021359316E+02  0.11094289574E+02  0.12700000000E+01 0. -1.
         25    2    1    2    0    0  0.00000000000E+00  0.00000000000E+00  0.34216567468E+03  0.36428360691E+03  0.12500078934E+03 0.  0.
    9000005    1    3    3    0    0  0.39584520725E+01 -0.52935036573E+02  0.26718737204E+03  0.27241123181E+03  0.10000000000E+01 0.  0.
    9000005    1    3    3    0    0 -0.39584520725E+01  0.52935036573E+02  0.74978302635E+02  0.91872375096E+02  0.10000000000E+01 0.  0.
<mgrwt>
<rscale>  0 0.12500079E+03</rscale>
<asrwt>0</asrwt>
<pdfrwt beam="2">  1        4 0.17013793E-02 0.12500079E+03</pdfrwt>
<pdfrwt beam="1">  1       -4 0.54342257E-01 0.12500079E+03</pdfrwt>
<totfact> 0.68180054E+03</totfact>
</mgrwt>
</event>
<event>
 5    1  0.3312706E-002  0.1249975E+03  0.7818608E-02  0.1235073E+00
          4   -1    0    0  501    0  0.00000000000E+00  0.00000000000E+00  0.60860543080E+03  0.60860675587E+03  0.12700000000E+01 0. -1.
         -4   -1    0    0    0  501 -0.00000000000E+00 -0.00000000000E+00 -0.63539320558E+01  0.64796105261E+01  0.12700000000E+01 0. -1.
         25    2    1    2    0    0  0.00000000000E+00  0.00000000000E+00  0.60225149874E+03  0.61508636640E+03  0.12499748156E+03 0.  0.
    9000005    1    3    3    0    0 -0.11532710734E+02 -0.57026173610E+02  0.41334832430E+03  0.41742403512E+03  0.10000000000E+01 0.  0.
    9000005    1    3    3    0    0  0.11532710734E+02  0.57026173610E+02  0.18890317444E+03  0.19766233128E+03  0.10000000000E+01 0.  0.
<mgrwt>
<rscale>  0 0.12499748E+03</rscale>
<asrwt>0</asrwt>
<pdfrwt beam="1">  1        4 0.93641338E-01 0.12499748E+03</pdfrwt>
<pdfrwt beam="2">  1       -4 0.98729789E-03 0.12499748E+03</pdfrwt>
<totfact> 0.47931615E+03</totfact>
</mgrwt>
</event>
<event>
 5    1  0.3312706E-002  0.1249989E+03  0.7818608E-02  0.1235071E+00
          4   -1    0    0  501    0  0.00000000000E+00  0.00000000000E+00  0.16419531647E+02  0.16468573694E+02  0.12700000000E+01 0. -1.
         -4   -1    0    0    0  501 -0.00000000000E+00 -0.00000000000E+00 -0.23749291892E+03  0.23749631458E+03  0.12700000000E+01 0. -1.
         25    2    1    2    0    0  0.00000000000E+00  0.00000000000E+00 -0.22107338728E+03  0.25396488827E+03  0.12499888765E+03 0.  0.
    9000005    1    3    3    0    0 -0.15546387755E+02  0.56369396321E+02 -0.15532631409E+03  0.16597127119E+03  0.10000000000E+01 0.  0.
    9000005    1    3    3    0    0  0.15546387755E+02 -0.56369396321E+02 -0.65747073191E+02  0.87993617081E+02  0.10000000000E+01 0.  0.
<mgrwt>
<rscale>  0 0.12499889E+03</rscale>
<asrwt>0</asrwt>
<pdfrwt beam="1">  1        4 0.25301156E-02 0.12499889E+03</pdfrwt>
<pdfrwt beam="2">  1       -4 0.36541403E-01 0.12499889E+03</pdfrwt>
<totfact> 0.81762561E+03</totfact>
</mgrwt>
</event>
<event>
 5    1  0.3312706E-002  0.1250010E+03  0.7818608E-02  0.1235068E+00
          4   -1    0    0  501    0  0.00000000000E+00  0.00000000000E+00  0.50103556979E+02  0.50119650058E+02  0.12700000000E+01 0. -1.
         -4   -1    0    0    0  501 -0.00000000000E+00 -0.00000000000E+00 -0.77931017958E+02  0.77941365526E+02  0.12700000000E+01 0. -1.
         25    2    1    2    0    0  0.00000000000E+00  0.00000000000E+00 -0.27827460980E+02  0.12806101558E+03  0.12500102451E+03 0.  0.
    9000005    1    3    3    0    0 -0.18039457297E+02  0.87395176495E+01  0.46725715675E+02  0.50853649758E+02  0.10000000000E+01 0.  0.
    9000005    1    3    3    0    0  0.18039457297E+02 -0.87395176495E+01 -0.74553176655E+02  0.77207365825E+02  0.10000000000E+01 0.  0.
<mgrwt>
<rscale>  0 0.12500102E+03</rscale>
<asrwt>0</asrwt>
<pdfrwt beam="1">  1        4 0.77102735E-02 0.12500102E+03</pdfrwt>
<pdfrwt beam="2">  1       -4 0.11991421E-01 0.12500102E+03</pdfrwt>
<totfact> 0.10385930E+04</totfact>
</mgrwt>
</event>
<event>
 5    1  0.3312706E-002  0.1250020E+03  0.7818608E-02  0.1235066E+00
          4   -1    0    0  501    0  0.00000000000E+00  0.00000000000E+00  0.17287054748E+02  0.17333642486E+02  0.12700000000E+01 0. -1.
         -4   -1    0    0    0  501 -0.00000000000E+00 -0.00000000000E+00 -0.22561857425E+03  0.22562214861E+03  0.12700000000E+01 0. -1.
         25    2    1    2    0    0  0.00000000000E+00  0.00000000000E+00 -0.20833151950E+03  0.24295579110E+03  0.12500197763E+03 0.  0.
    9000005    1    3    3    0    0  0.29630407732E+02 -0.32810474212E+02 -0.19001298097E+03  0.19509080250E+03  0.10000000000E+01 0.  0.
    9000005    1    3    3    0    0 -0.29630407732E+02  0.32810474212E+02 -0.18318538526E+02  0.47864988604E+02  0.10000000000E+01 0.  0.
<mgrwt>
<rscale>  0 0.12500198E+03</rscale>
<asrwt>0</asrwt>
<pdfrwt beam="1">  1        4 0.26634057E-02 0.12500198E+03</pdfrwt>
<pdfrwt beam="2">  1       -4 0.34714406E-01 0.12500198E+03</pdfrwt>
<totfact> 0.83355442E+03</totfact>
</mgrwt>
</event>
<event>
 5    1  0.3312706E-002  0.1249831E+03  0.7818608E-02  0.1235096E+00
          4   -1    0    0  501    0  0.00000000000E+00  0.00000000000E+00  0.21241889825E+02  0.21279821036E+02  0.12700000000E+01 0. -1.
         -4   -1    0    0    0  501 -0.00000000000E+00 -0.00000000000E+00 -0.18363983302E+03  0.18364422444E+03  0.12700000000E+01 0. -1.
         25    2    1    2    0    0  0.00000000000E+00  0.00000000000E+00 -0.16239794319E+03  0.20492404548E+03  0.12498308870E+03 0.  0.
    9000005    1    3    3    0    0 -0.44116087062E+02 -0.43798566682E+02 -0.91523273911E+02  0.11064381252E+03  0.10000000000E+01 0.  0.
    9000005    1    3    3    0    0  0.44116087062E+02  0.43798566682E+02 -0.70874669280E+02  0.94280232958E+02  0.10000000000E+01 0.  0.
<mgrwt>
<rscale>  0 0.12498309E+03</rscale>
<asrwt>0</asrwt>
<pdfrwt beam="1">  1        4 0.32712388E-02 0.12498309E+03</pdfrwt>
<pdfrwt beam="2">  1       -4 0.28255537E-01 0.12498309E+03</pdfrwt>
<totfact> 0.89345410E+03</totfact>
</mgrwt>
</event>
<event>
 5    1  0.3312706E-002  0.1250005E+03  0.7818608E-02  0.1235069E+00
          4   -1    0    0  501    0  0.00000000000E+00  0.00000000000E+00  0.17340790243E+03  0.17341255296E+03  0.12700000000E+01 0.  1.
         -4   -1    0    0    0  501 -0.00000000000E+00 -0.00000000000E+00 -0.22503684820E+02  0.22539492685E+02  0.12700000000E+01 0.  1.
         25    2    1    2    0    0  0.00000000000E+00  0.00000000000E+00  0.15090421761E+03  0.19595204565E+03  0.12500048520E+03 0.  0.
    9000005    1    3    3    0    0  0.19769229598E+02  0.32899781169E+02 -0.18560712416E+01  0.38440382937E+02  0.10000000000E+01 0.  0.
    9000005    1    3    3    0    0 -0.19769229598E+02 -0.32899781169E+02  0.15276028885E+03  0.15751166271E+03  0.10000000000E+01 0.  0.
<mgrwt>
<rscale>  0 0.12500049E+03</rscale>
<asrwt>0</asrwt>
<pdfrwt beam="1">  1        4 0.26681251E-01 0.12500049E+03</pdfrwt>
<pdfrwt beam="2">  1       -4 0.34652175E-02 0.12500049E+03</pdfrwt>
<totfact> 0.90820881E+03</totfact>
</mgrwt>
</event>
<event>
 5    1  0.3312706E-002  0.1249998E+03  0.7818608E-02  0.1235070E+00
         -4   -1    0    0    0  501 -0.00000000000E+00  0.00000000000E+00  0.53834518982E+02  0.53849497064E+02  0.12700000000E+01 0. -1.
          4   -1    0    0  501    0  0.00000000000E+00 -0.00000000000E+00 -0.72529422330E+02  0.72540540413E+02  0.12700000000E+01 0. -1.
         25    2    1    2    0    0  0.00000000000E+00  0.00000000000E+00 -0.18694903348E+02  0.12639003748E+03  0.12499976865E+03 0.  0.
    9000005    1    3    3    0    0  0.13683239443E+02  0.13330418718E+02 -0.69509683390E+02  0.72093877617E+02  0.10000000000E+01 0.  0.
    9000005    1    3    3    0    0 -0.13683239443E+02 -0.13330418718E+02  0.50814780042E+02  0.54296159860E+02  0.10000000000E+01 0.  0.
<mgrwt>
<rscale>  0 0.12499977E+03</rscale>
<asrwt>0</asrwt>
<pdfrwt beam="2">  1        4 0.11160380E-01 0.12499977E+03</pdfrwt>
<pdfrwt beam="1">  1       -4 0.82842410E-02 0.12499977E+03</pdfrwt>
<totfact> 0.10422482E+04</totfact>
</mgrwt>
</event>
<event>
 5    1  0.3312706E-002  0.1250015E+03  0.7818608E-02  0.1235067E+00
          4   -1    0    0  501    0  0.00000000000E+00  0.00000000000E+00  0.63928807501E+02  0.63941421071E+02  0.12700000000E+01 0. -1.
         -4   -1    0    0    0  501 -0.00000000000E+00 -0.00000000000E+00 -0.61079389624E+02  0.61092591505E+02  0.12700000000E+01 0. -1.
         25    2    1    2    0    0  0.00000000000E+00  0.00000000000E+00  0.28494178775E+01  0.12503401258E+03  0.12500154046E+03 0.  0.
    9000005    1    3    3    0    0  0.39324141398E+01 -0.61806264377E+02  0.97855932752E+01  0.62707543669E+02  0.10000000000E+01 0.  0.
    9000005    1    3    3    0    0 -0.39324141398E+01  0.61806264377E+02 -0.69361753977E+01  0.62326468907E+02  0.10000000000E+01 0.  0.
<mgrwt>
<rscale>  0 0.12500154E+03</rscale>
<asrwt>0</asrwt>
<pdfrwt beam="1">  1        4 0.98371870E-02 0.12500154E+03</pdfrwt>
<pdfrwt beam="2">  1       -4 0.93988149E-02 0.12500154E+03</pdfrwt>
<totfact> 0.10451760E+04</totfact>
</mgrwt>
</event>
<event>
 5    1  0.3312706E-002  0.1249982E+03  0.7818608E-02  0.1235072E+00
         -4   -1    0    0    0  501 -0.00000000000E+00  0.00000000000E+00  0.20380500013E+03  0.20380895706E+03  0.12700000000E+01 0.  1.
          4   -1    0    0  501    0  0.00000000000E+00 -0.00000000000E+00 -0.19140879614E+02  0.19182965683E+02  0.12700000000E+01 0.  1.
         25    2    1    2    0    0  0.00000000000E+00  0.00000000000E+00  0.18466412051E+03  0.22299192274E+03  0.12499824080E+03 0.  0.
    9000005    1    3    3    0    0  0.74301709313E+01 -0.87911941131E+01  0.20190626984E+03  0.20223658012E+03  0.10000000000E+01 0.  0.
    9000005    1    3    3    0    0 -0.74301709313E+01  0.87911941131E+01 -0.17242149331E+02  0.20755342627E+02  0.10000000000E+01 0.  0.
<mgrwt>
<rscale>  0 0.12499824E+03</rscale>
<asrwt>0</asrwt>
<pdfrwt beam="2">  1        4 0.29482927E-02 0.12499824E+03</pdfrwt>
<pdfrwt beam="1">  1       -4 0.31358155E-01 0.12499824E+03</pdfrwt>
<totfact> 0.86400515E+03</totfact>
</mgrwt>
</event>
<event>
 5    1  0.3312706E-002  0.1250000E+03  0.7818608E-02  0.1235069E+00
          4   -1    0    0  501    0  0.00000000000E+00  0.00000000000E+00  0.23311755987E+02  0.23346324491E+02  0.12700000000E+01 0. -1.
         -4   -1    0    0    0  501 -0.00000000000E+00 -0.00000000000E+00 -0.16740462163E+03  0.16740943893E+03  0.12700000000E+01 0. -1.
         25    2    1    2    0    0  0.00000000000E+00  0.00000000000E+00 -0.14409286564E+03  0.19075576342E+03  0.12500002940E+03 0.  0.
    9000005    1    3    3    0    0  0.28301706071E+02  0.52831614169E+02 -0.45044226642E+02  0.74980986763E+02  0.10000000000E+01 0.  0.
    9000005    1    3    3    0    0 -0.28301706071E+02 -0.52831614169E+02 -0.99048638997E+02  0.11577477665E+03  0.10000000000E+01 0.  0.
<mgrwt>
<rscale>  0 0.12500003E+03</rscale>
<asrwt>0</asrwt>
<pdfrwt beam="1">  1        4 0.35894538E-02 0.12500003E+03</pdfrwt>
<pdfrwt beam="2">  1       -4 0.25757586E-01 0.12500003E+03</pdfrwt>
<totfact> 0.91715920E+03</totfact>
</mgrwt>
</event>
<event>
 5    1  0.3312706E-002  0.1250016E+03  0.7818608E-02  0.1235067E+00
         -4   -1    0    0    0  501 -0.00000000000E+00  0.00000000000E+00  0.48351112421E+03  0.48351279211E+03  0.12700000000E+01 0. -1.
          4   -1    0    0  501    0  0.00000000000E+00 -0.00000000000E+00 -0.80275266831E+01  0.81273664030E+01  0.12700000000E+01 0. -1.
         25    2    1    2    0    0  0.00000000000E+00  0.00000000000E+00  0.47548359752E+03  0.49164015851E+03  0.12500157577E+03 0.  0.
    9000005    1    3    3    0    0 -0.13000130667E+02  0.25896011873E+02  0.45551259541E+03  0.45643436703E+03  0.10000000000E+01 0.  0.
    9000005    1    3    3    0    0  0.13000130667E+02 -0.25896011873E+02  0.19971002111E+02  0.35205791478E+02  0.10000000000E+01 0.  0.
<mgrwt>
<rscale>  0 0.12500158E+03</rscale>
<asrwt>0</asrwt>
<pdfrwt beam="2">  1        4 0.12428124E-02 0.12500158E+03</pdfrwt>
<pdfrwt beam="1">  1       -4 0.74394136E-01 0.12500158E+03</pdfrwt>
<totfact> 0.56516910E+03</totfact>
</mgrwt>
</event>
<event>
 5    1  0.3312706E-002  0.1250393E+03  0.7818608E-02  0.1235008E+00
         -4   -1    0    0    0  501 -0.00000000000E+00  0.00000000000E+00  0.12183867945E+02  0.12249879106E+02  0.12700000000E+01 0. -1.
          4   -1    0    0  501    0  0.00000000000E+00 -0.00000000000E+00 -0.31987611446E+03  0.31987863558E+03  0.12700000000E+01 0. -1.
         25    2    1    2    0    0  0.00000000000E+00  0.00000000000E+00 -0.30769224652E+03  0.33212851469E+03  0.12503932063E+03 0.  0.
    9000005    1    3    3    0    0  0.48386704809E+02 -0.36264287968E+02 -0.11173594984E+03  0.12705232887E+03  0.10000000000E+01 0.  0.
    9000005    1    3    3    0    0 -0.48386704809E+02  0.36264287968E+02 -0.19595629668E+03  0.20507618582E+03  0.10000000000E+01 0.  0.
<mgrwt>
<rscale>  0 0.12503932E+03</rscale>
<asrwt>0</asrwt>
<pdfrwt beam="2">  1        4 0.49216975E-01 0.12503932E+03</pdfrwt>
<pdfrwt beam="1">  1       -4 0.18797132E-02 0.12503932E+03</pdfrwt>
<totfact> 0.71674001E+03</totfact>
</mgrwt>
</event>
<event>
 5    1  0.3312706E-002  0.1249970E+03  0.7818608E-02  0.1235074E+00
         -4   -1    0    0    0  501 -0.00000000000E+00  0.00000000000E+00  0.11057171119E+03  0.11057900441E+03  0.12700000000E+01 0. -1.
          4   -1    0    0  501    0  0.00000000000E+00 -0.00000000000E+00 -0.35306161057E+02  0.35328995295E+02  0.12700000000E+01 0. -1.
         25    2    1    2    0    0  0.00000000000E+00  0.00000000000E+00  0.75265550135E+02  0.14590799970E+03  0.12499696532E+03 0.  0.
    9000005    1    3    3    0    0 -0.49010121954E+02 -0.37791714804E+02  0.47732017641E+02  0.78163618583E+02  0.10000000000E+01 0.  0.
    9000005    1    3    3    0    0  0.49010121954E+02  0.37791714804E+02  0.27533532494E+02  0.67744381121E+02  0.10000000000E+01 0.  0.
<mgrwt>
<rscale>  0 0.12499697E+03</rscale>
<asrwt>0</asrwt>
<pdfrwt beam="2">  1        4 0.54340348E-02 0.12499697E+03</pdfrwt>
<pdfrwt beam="1">  1       -4 0.17013349E-01 0.12499697E+03</pdfrwt>
<totfact> 0.10013257E+04</totfact>
</mgrwt>
</event>
<event>
 5    1  0.3312706E-002  0.1250013E+03  0.7818608E-02  0.1235067E+00
         -4   -1    0    0    0  501 -0.00000000000E+00  0.00000000000E+00  0.11098780664E+03  0.11099507252E+03  0.12700000000E+01 0.  1.
          4   -1    0    0  501    0  0.00000000000E+00 -0.00000000000E+00 -0.35176161687E+02  0.35199080258E+02  0.12700000000E+01 0.  1.
         25    2    1    2    0    0  0.00000000000E+00  0.00000000000E+00  0.75811644958E+02  0.14619415278E+03  0.12500129917E+03 0.  0.
    9000005    1    3    3    0    0  0.45867155087E+02 -0.30979922351E+02  0.39734130417E+01  0.55500806443E+02  0.10000000000E+01 0.  0.
    9000005    1    3    3    0    0 -0.45867155087E+02  0.30979922351E+02  0.71838231916E+02  0.90693346335E+02  0.10000000000E+01 0.  0.
<mgrwt>
<rscale>  0 0.12500130E+03</rscale>
<asrwt>0</asrwt>
<pdfrwt beam="2">  1        4 0.54140390E-02 0.12500130E+03</pdfrwt>
<pdfrwt beam="1">  1       -4 0.17077369E-01 0.12500130E+03</pdfrwt>
<totfact> 0.10006489E+04</totfact>
</mgrwt>
</event>
<event>
 5    1  0.3312706E-002  0.1249990E+03  0.7818608E-02  0.1235071E+00
         -4   -1    0    0    0  501 -0.00000000000E+00  0.00000000000E+00  0.77744407561E+03  0.77744511292E+03  0.12700000000E+01 0.  1.
          4   -1    0    0  501    0  0.00000000000E+00 -0.00000000000E+00 -0.49430873938E+01  0.51036274337E+01  0.12700000000E+01 0.  1.
         25    2    1    2    0    0  0.00000000000E+00  0.00000000000E+00  0.77250098821E+03  0.78254874035E+03  0.12499901692E+03 0.  0.
    9000005    1    3    3    0    0  0.32310502765E+02  0.42113811853E+02  0.59271659040E+03  0.59508948762E+03  0.10000000000E+01 0.  0.
    9000005    1    3    3    0    0 -0.32310502765E+02 -0.42113811853E+02  0.17978439781E+03  0.18745925273E+03  0.10000000000E+01 0.  0.
<mgrwt>
<rscale>  0 0.12499902E+03</rscale>
<asrwt>0</asrwt>
<pdfrwt beam="2">  1        4 0.77290404E-03 0.12499902E+03</pdfrwt>
<pdfrwt beam="1">  1       -4 0.11961921E+00 0.12499902E+03</pdfrwt>
<totfact> 0.39056608E+03</totfact>
</mgrwt>
</event>
<event>
 5    1  0.3312706E-002  0.1250037E+03  0.7818608E-02  0.1235064E+00
         -4   -1    0    0    0  501 -0.00000000000E+00  0.00000000000E+00  0.14411562633E+02  0.14467412952E+02  0.12700000000E+01 0.  1.
          4   -1    0    0  501    0  0.00000000000E+00 -0.00000000000E+00 -0.27048418061E+03  0.27048716210E+03  0.12700000000E+01 0.  1.
         25    2    1    2    0    0  0.00000000000E+00  0.00000000000E+00 -0.25607261797E+03  0.28495457505E+03  0.12500369660E+03 0.  0.
    9000005    1    3    3    0    0  0.20137840348E+02 -0.39370352131E+02 -0.22869739187E+03  0.23293572995E+03  0.10000000000E+01 0.  0.
    9000005    1    3    3    0    0 -0.20137840348E+02  0.39370352131E+02 -0.27375226106E+02  0.52018845096E+02  0.10000000000E+01 0.  0.
<mgrwt>
<rscale>  0 0.12500370E+03</rscale>
<asrwt>0</asrwt>
<pdfrwt beam="2">  1        4 0.41617473E-01 0.12500370E+03</pdfrwt>
<pdfrwt beam="1">  1       -4 0.22216892E-02 0.12500370E+03</pdfrwt>
<totfact> 0.77519352E+03</totfact>
</mgrwt>
</event>
<event>
 5    1  0.3312706E-002  0.1250003E+03  0.7818608E-02  0.1235069E+00
          4   -1    0    0  501    0  0.00000000000E+00  0.00000000000E+00  0.79775620972E+02  0.79785729310E+02  0.12700000000E+01 0. -1.
         -4   -1    0    0    0  501 -0.00000000000E+00 -0.00000000000E+00 -0.48944214963E+02  0.48960689112E+02  0.12700000000E+01 0. -1.
         25    2    1    2    0    0  0.00000000000E+00  0.00000000000E+00  0.30831406009E+02  0.12874641842E+03  0.12500025864E+03 0.  0.
    9000005    1    3    3    0    0 -0.38613110214E+02  0.76695778846E+01  0.65403404519E+02  0.76343958687E+02  0.10000000000E+01 0.  0.
    9000005    1    3    3    0    0  0.38613110214E+02 -0.76695778846E+01 -0.34571998510E+02  0.52402459735E+02  0.10000000000E+01 0.  0.
<mgrwt>
<rscale>  0 0.12500026E+03</rscale>
<asrwt>0</asrwt>
<pdfrwt beam="1">  1        4 0.12275217E-01 0.12500026E+03</pdfrwt>
<pdfrwt beam="2">  1       -4 0.75319241E-02 0.12500026E+03</pdfrwt>
<totfact> 0.10371338E+04</totfact>
</mgrwt>
</event>
<event>
 5    1  0.3312706E-002  0.1249996E+03  0.7818608E-02  0.1235070E+00
          4   -1    0    0  501    0  0.00000000000E+00  0.00000000000E+00  0.17127495834E+03  0.17127966679E+03  0.12700000000E+01 0.  1.
         -4   -1    0    0    0  501 -0.00000000000E+00 -0.00000000000E+00 -0.22784053365E+02  0.22819421284E+02  0.12700000000E+01 0.  1.
         25    2    1    2    0    0  0.00000000000E+00  0.00000000000E+00  0.14849090497E+03  0.19409908807E+03  0.12499962852E+03 0.  0.
    9000005    1    3    3    0    0  0.12321897451E+02 -0.13370242118E+02 -0.18593574216E+02  0.26025247995E+02  0.10000000000E+01 0.  0.
    9000005    1    3    3    0    0 -0.12321897451E+02  0.13370242118E+02  0.16708447919E+03  0.16807384007E+03  0.10000000000E+01 0.  0.
<mgrwt>
<rscale>  0 0.12499963E+03</rscale>
<asrwt>0</asrwt>
<pdfrwt beam="1">  1        4 0.26353076E-01 0.12499963E+03</pdfrwt>
<pdfrwt beam="2">  1       -4 0.35083219E-02 0.12499963E+03</pdfrwt>
<totfact> 0.91139697E+03</totfact>
</mgrwt>
</event>
<event>
 5    1  0.3312706E-002  0.1250046E+03  0.7818608E-02  0.1235062E+00
          4   -1    0    0  501    0  0.00000000000E+00  0.00000000000E+00  0.47849566066E+02  0.47866416961E+02  0.12700000000E+01 0.  1.
         -4   -1    0    0    0  501 -0.00000000000E+00 -0.00000000000E+00 -0.81605944519E+02  0.81615826166E+02  0.12700000000E+01 0.  1.
         25    2    1    2    0    0  0.00000000000E+00  0.00000000000E+00 -0.33756378453E+02  0.12948224313E+03  0.12500463271E+03 0.  0.
    9000005    1    3    3    0    0  0.27610019631E+02 -0.19850748829E+02  0.37432489571E+02  0.50582177578E+02  0.10000000000E+01 0.  0.
    9000005    1    3    3    0    0 -0.27610019631E+02  0.19850748829E+02 -0.71188868024E+02  0.78900065549E+02  0.10000000000E+01 0.  0.
<mgrwt>
<rscale>  0 0.12500463E+03</rscale>
<asrwt>0</asrwt>
<pdfrwt beam="1">  1        4 0.73635281E-02 0.12500463E+03</pdfrwt>
<pdfrwt beam="2">  1       -4 0.12556817E-01 0.12500463E+03</pdfrwt>
<totfact> 0.10354513E+04</totfact>
</mgrwt>
</event>
<event>
 5    1  0.3312706E-002  0.1250081E+03  0.7818608E-02  0.1235057E+00
          4   -1    0    0  501    0  0.00000000000E+00  0.00000000000E+00  0.23745769212E+03  0.23746108828E+03  0.12700000000E+01 0.  1.
         -4   -1    0    0    0  501 -0.00000000000E+00 -0.00000000000E+00 -0.16424407829E+02  0.16473435359E+02  0.12700000000E+01 0.  1.
         25    2    1    2    0    0  0.00000000000E+00  0.00000000000E+00  0.22103328429E+03  0.25393452364E+03  0.12500811786E+03 0.  0.
    9000005    1    3    3    0    0  0.12003143783E+02 -0.26733154906E+02  0.22264648418E+03  0.22456890691E+03  0.10000000000E+01 0.  0.
    9000005    1    3    3    0    0 -0.12003143783E+02  0.26733154906E+02 -0.16131998925E+01  0.29365616728E+02  0.10000000000E+01 0.  0.
<mgrwt>
<rscale>  0 0.12500812E+03</rscale>
<asrwt>0</asrwt>
<pdfrwt beam="1">  1        4 0.36535987E-01 0.12500812E+03</pdfrwt>
<pdfrwt beam="2">  1       -4 0.25308645E-02 0.12500812E+03</pdfrwt>
<totfact> 0.81750090E+03</totfact>
</mgrwt>
</event>
<event>
 5    1  0.3312706E-002  0.1249972E+03  0.7818608E-02  0.1235074E+00
         -4   -1    0    0    0  501 -0.00000000000E+00  0.00000000000E+00  0.30912236708E+02  0.30938314083E+02  0.12700000000E+01 0. -1.
          4   -1    0    0  501    0  0.00000000000E+00 -0.00000000000E+00 -0.12627761270E+03  0.12628399886E+03  0.12700000000E+01 0. -1.
         25    2    1    2    0    0  0.00000000000E+00  0.00000000000E+00 -0.95365375990E+02  0.15722231294E+03  0.12499720297E+03 0.  0.
    9000005    1    3    3    0    0  0.43188340301E+01  0.59906020328E+02 -0.25980817485E+02  0.65447585717E+02  0.10000000000E+01 0.  0.
    9000005    1    3    3    0    0 -0.43188340301E+01 -0.59906020328E+02 -0.69384558505E+02  0.91774727228E+02  0.10000000000E+01 0.  0.
<mgrwt>
<rscale>  0 0.12499720E+03</rscale>
<asrwt>0</asrwt>
<pdfrwt beam="2">  1        4 0.19429822E-01 0.12499720E+03</pdfrwt>
<pdfrwt beam="1">  1       -4 0.47582260E-02 0.12499720E+03</pdfrwt>
<totfact> 0.97887145E+03</totfact>
</mgrwt>
</event>
<event>
 5    1  0.3312706E-002  0.1249997E+03  0.7818608E-02  0.1235070E+00
          4   -1    0    0  501    0  0.00000000000E+00  0.00000000000E+00  0.15586598762E+02  0.15638253130E+02  0.12700000000E+01 0. -1.
         -4   -1    0    0    0  501 -0.00000000000E+00 -0.00000000000E+00 -0.25014692139E+03  0.25015014527E+03  0.12700000000E+01 0. -1.
         25    2    1    2    0    0  0.00000000000E+00  0.00000000000E+00 -0.23456032262E+03  0.26578839840E+03  0.12499971110E+03 0.  0.
    9000005    1    3    3    0    0  0.13904153419E+02 -0.57977919487E+02 -0.77473956741E+02  0.97764914992E+02  0.10000000000E+01 0.  0.
    9000005    1    3    3    0    0 -0.13904153419E+02  0.57977919487E+02 -0.15708636588E+03  0.16802348341E+03  0.10000000000E+01 0.  0.
<mgrwt>
<rscale>  0 0.12499971E+03</rscale>
<asrwt>0</asrwt>
<pdfrwt beam="1">  1        4 0.24021599E-02 0.12499971E+03</pdfrwt>
<pdfrwt beam="2">  1       -4 0.38488360E-01 0.12499971E+03</pdfrwt>
<totfact> 0.80101058E+03</totfact>
</mgrwt>
</event>
<event>
 5    1  0.3312706E-002  0.1250145E+03  0.7818608E-02  0.1235047E+00
          4   -1    0    0  501    0  0.00000000000E+00  0.00000000000E+00  0.92159878332E+01  0.93030818411E+01  0.12700000000E+01 0. -1.
         -4   -1    0    0    0  501 -0.00000000000E+00 -0.00000000000E+00 -0.42187255263E+03  0.42187446422E+03  0.12700000000E+01 0. -1.
         25    2    1    2    0    0  0.00000000000E+00  0.00000000000E+00 -0.41265656479E+03  0.43117754606E+03  0.12501454219E+03 0.  0.
    9000005    1    3    3    0    0 -0.22315830295E+02 -0.26388004077E+02 -0.26719609277E+02  0.43695086232E+02  0.10000000000E+01 0.  0.
    9000005    1    3    3    0    0  0.22315830295E+02  0.26388004077E+02 -0.38593695552E+03  0.38748245983E+03  0.10000000000E+01 0.  0.
<mgrwt>
<rscale>  0 0.12501454E+03</rscale>
<asrwt>0</asrwt>
<pdfrwt beam="1">  1        4 0.14246912E-02 0.12501454E+03</pdfrwt>
<pdfrwt beam="2">  1       -4 0.64910301E-01 0.12501454E+03</pdfrwt>
<totfact> 0.61609651E+03</totfact>
</mgrwt>
</event>
<event>
 5    1  0.3312706E-002  0.1249965E+03  0.7818608E-02  0.1235075E+00
          4   -1    0    0  501    0  0.00000000000E+00  0.00000000000E+00  0.87157937787E+02  0.87167190039E+02  0.12700000000E+01 0. -1.
         -4   -1    0    0    0  501 -0.00000000000E+00 -0.00000000000E+00 -0.44794896093E+02  0.44812895644E+02  0.12700000000E+01 0. -1.
         25    2    1    2    0    0  0.00000000000E+00  0.00000000000E+00  0.42363041693E+02  0.13198008568E+03  0.12499646281E+03 0.  0.
    9000005    1    3    3    0    0 -0.38296605376E+02  0.31999889544E+02 -0.18528281907E+02  0.53243968152E+02  0.10000000000E+01 0.  0.
    9000005    1    3    3    0    0  0.38296605376E+02 -0.31999889544E+02  0.60891323600E+02  0.78736117531E+02  0.10000000000E+01 0.  0.
<mgrwt>
<rscale>  0 0.12499646E+03</rscale>
<asrwt>0</asrwt>
<pdfrwt beam="1">  1        4 0.13411010E-01 0.12499646E+03</pdfrwt>
<pdfrwt beam="2">  1       -4 0.68936188E-02 0.12499646E+03</pdfrwt>
<totfact> 0.10302946E+04</totfact>
</mgrwt>
</event>
<event>
 5    1  0.3312706E-002  0.1249998E+03  0.7818608E-02  0.1235070E+00
          4   -1    0    0  501    0  0.00000000000E+00  0.00000000000E+00  0.10767110099E+03  0.10767859067E+03  0.12700000000E+01 0. -1.
         -4   -1    0    0    0  501 -0.00000000000E+00 -0.00000000000E+00 -0.36259480759E+02  0.36281715021E+02  0.12700000000E+01 0. -1.
         25    2    1    2    0    0  0.00000000000E+00  0.00000000000E+00  0.71411620234E+02  0.14396030569E+03  0.12499980044E+03 0.  0.
    9000005    1    3    3    0    0 -0.15812953558E+02 -0.60130043008E+02  0.28461546119E+02  0.68386630125E+02  0.10000000000E+01 0.  0.
    9000005    1    3    3    0    0  0.15812953558E+02  0.60130043008E+02  0.42950074115E+02  0.75573675568E+02  0.10000000000E+01 0.  0.
<mgrwt>
<rscale>  0 0.12499980E+03</rscale>
<asrwt>0</asrwt>
<pdfrwt beam="1">  1        4 0.16567071E-01 0.12499980E+03</pdfrwt>
<pdfrwt beam="2">  1       -4 0.55806682E-02 0.12499980E+03</pdfrwt>
<totfact> 0.10052201E+04</totfact>
</mgrwt>
</event>
<event>
 5    1  0.3312706E-002  0.1249989E+03  0.7818608E-02  0.1235071E+00
         -4   -1    0    0    0  501 -0.00000000000E+00  0.00000000000E+00  0.10722105765E+03  0.10722857876E+03  0.12700000000E+01 0. -1.
          4   -1    0    0  501    0  0.00000000000E+00 -0.00000000000E+00 -0.36411240375E+02  0.36433382024E+02  0.12700000000E+01 0. -1.
         25    2    1    2    0    0  0.00000000000E+00  0.00000000000E+00  0.70809817275E+02  0.14366196079E+03  0.12499891501E+03 0.  0.
    9000005    1    3    3    0    0  0.12736675395E+02  0.54558827924E+02  0.67219997529E+02  0.87512380109E+02  0.10000000000E+01 0.  0.
    9000005    1    3    3    0    0 -0.12736675395E+02 -0.54558827924E+02  0.35898197460E+01  0.56149580678E+02  0.10000000000E+01 0.  0.
<mgrwt>
<rscale>  0 0.12499892E+03</rscale>
<asrwt>0</asrwt>
<pdfrwt beam="2">  1        4 0.56040111E-02 0.12499892E+03</pdfrwt>
<pdfrwt beam="1">  1       -4 0.16497829E-01 0.12499892E+03</pdfrwt>
<totfact> 0.10058491E+04</totfact>
</mgrwt>
</event>
<event>
 5    1  0.3312706E-002  0.1250064E+03  0.7818608E-02  0.1235059E+00
         -4   -1    0    0    0  501 -0.00000000000E+00  0.00000000000E+00  0.55215205813E+03  0.55215351869E+03  0.12700000000E+01 0.  1.
          4   -1    0    0  501    0  0.00000000000E+00 -0.00000000000E+00 -0.70168483073E+01  0.71308526957E+01  0.12700000000E+01 0.  1.
         25    2    1    2    0    0  0.00000000000E+00  0.00000000000E+00  0.54513520983E+03  0.55928437139E+03  0.12500644417E+03 0.  0.
    9000005    1    3    3    0    0 -0.42083859875E+02 -0.11390016432E+01  0.65921761340E+02  0.78224211117E+02  0.10000000000E+01 0.  0.
    9000005    1    3    3    0    0  0.42083859875E+02  0.11390016432E+01  0.47921344849E+03  0.48106016027E+03  0.10000000000E+01 0.  0.
<mgrwt>
<rscale>  0 0.12500644E+03</rscale>
<asrwt>0</asrwt>
<pdfrwt beam="2">  1        4 0.10883969E-02 0.12500644E+03</pdfrwt>
<pdfrwt beam="1">  1       -4 0.84955365E-01 0.12500644E+03</pdfrwt>
<totfact> 0.51535576E+03</totfact>
</mgrwt>
</event>
<event>
 5    1  0.3312706E-002  0.1249976E+03  0.7818608E-02  0.1235073E+00
         -4   -1    0    0    0  501 -0.00000000000E+00  0.00000000000E+00  0.18908435369E+02  0.18951037653E+02  0.12700000000E+01 0.  1.
          4   -1    0    0  501    0  0.00000000000E+00 -0.00000000000E+00 -0.20630278007E+03  0.20630668909E+03  0.12700000000E+01 0.  1.
         25    2    1    2    0    0  0.00000000000E+00  0.00000000000E+00 -0.18739434470E+03  0.22525772675E+03  0.12499761211E+03 0.  0.
    9000005    1    3    3    0    0  0.15741513916E+02  0.57589929555E+02 -0.12696064295E+03  0.14030110515E+03  0.10000000000E+01 0.  0.
    9000005    1    3    3    0    0 -0.15741513916E+02 -0.57589929555E+02 -0.60433701750E+02  0.84956621600E+02  0.10000000000E+01 0.  0.
<mgrwt>
<rscale>  0 0.12499761E+03</rscale>
<asrwt>0</asrwt>
<pdfrwt beam="2">  1        4 0.31742466E-01 0.12499761E+03</pdfrwt>
<pdfrwt beam="1">  1       -4 0.29125680E-02 0.12499761E+03</pdfrwt>
<totfact> 0.86047724E+03</totfact>
</mgrwt>
</event>
<event>
 5    1  0.3312706E-002  0.1250004E+03  0.7818608E-02  0.1235069E+00
         -4   -1    0    0    0  501 -0.00000000000E+00  0.00000000000E+00  0.12142711224E+03  0.12143375349E+03  0.12700000000E+01 0. -1.
          4   -1    0    0  501    0  0.00000000000E+00 -0.00000000000E+00 -0.32149631400E+02  0.32174705891E+02  0.12700000000E+01 0. -1.
         25    2    1    2    0    0  0.00000000000E+00  0.00000000000E+00  0.89277480836E+02  0.15360845938E+03  0.12500036083E+03 0.  0.
    9000005    1    3    3    0    0  0.51539758574E+02 -0.28482469677E+02  0.18930069951E+02  0.61862309536E+02  0.10000000000E+01 0.  0.
    9000005    1    3    3    0    0 -0.51539758574E+02  0.28482469677E+02  0.70347410885E+02  0.91746149843E+02  0.10000000000E+01 0.  0.
<mgrwt>
<rscale>  0 0.12500036E+03</rscale>
<asrwt>0</asrwt>
<pdfrwt beam="2">  1        4 0.49485369E-02 0.12500036E+03</pdfrwt>
<pdfrwt beam="1">  1       -4 0.18683534E-01 0.12500036E+03</pdfrwt>
<totfact> 0.98588408E+03</totfact>
</mgrwt>
</event>
<event>
 5    1  0.3312706E-002  0.1250087E+03  0.7818608E-02  0.1235056E+00
         -4   -1    0    0    0  501 -0.00000000000E+00  0.00000000000E+00  0.16391581598E+02  0.16440707019E+02  0.12700000000E+01 0. -1.
          4   -1    0    0  501    0  0.00000000000E+00 -0.00000000000E+00 -0.23793396966E+03  0.23793735902E+03  0.12700000000E+01 0. -1.
         25    2    1    2    0    0  0.00000000000E+00  0.00000000000E+00 -0.22154238806E+03  0.25437806604E+03  0.12500868279E+03 0.  0.
    9000005    1    3    3    0    0  0.38511671871E+02  0.46981523925E+02 -0.80907577301E+02  0.10118027735E+03  0.10000000000E+01 0.  0.
    9000005    1    3    3    0    0 -0.38511671871E+02 -0.46981523925E+02 -0.14063481076E+03  0.15319778868E+03  0.10000000000E+01 0.  0.
<mgrwt>
<rscale>  0 0.12500868E+03</rscale>
<asrwt>0</asrwt>
<pdfrwt beam="2">  1        4 0.36609263E-01 0.12500868E+03</pdfrwt>
<pdfrwt beam="1">  1       -4 0.25258216E-02 0.12500868E+03</pdfrwt>
<totfact> 0.81685756E+03</totfact>
</mgrwt>
</event>
<event>
 5    1  0.3312706E-002  0.1249983E+03  0.7818608E-02  0.1235072E+00
         -4   -1    0    0    0  501 -0.00000000000E+00  0.00000000000E+00  0.11660779577E+03  0.11661471149E+03  0.12700000000E+01 0.  1.
          4   -1    0    0  501    0  0.00000000000E+00 -0.00000000000E+00 -0.33478211400E+02  0.33502291542E+02  0.12700000000E+01 0.  1.
         25    2    1    2    0    0  0.00000000000E+00  0.00000000000E+00  0.83129584373E+02  0.15011700303E+03  0.12499834719E+03 0.  0.
    9000005    1    3    3    0    0  0.24037546436E+02 -0.31424809482E+02 -0.16527330874E+02  0.42889100660E+02  0.10000000000E+01 0.  0.
    9000005    1    3    3    0    0 -0.24037546436E+02  0.31424809482E+02  0.99656915248E+02  0.10722790237E+03  0.10000000000E+01 0.  0.
<mgrwt>
<rscale>  0 0.12499835E+03</rscale>
<asrwt>0</asrwt>
<pdfrwt beam="2">  1        4 0.51528784E-02 0.12499835E+03</pdfrwt>
<pdfrwt beam="1">  1       -4 0.17942045E-01 0.12499835E+03</pdfrwt>
<totfact> 0.99284073E+03</totfact>
</mgrwt>
</event>
<event>
 5    1  0.3312706E-002  0.1250016E+03  0.7818608E-02  0.1235067E+00
         -4   -1    0    0    0  501 -0.00000000000E+00  0.00000000000E+00  0.60640295535E+02  0.60653592990E+02  0.12700000000E+01 0.  1.
          4   -1    0    0  501    0  0.00000000000E+00 -0.00000000000E+00 -0.64391745654E+02  0.64404268558E+02  0.12700000000E+01 0.  1.
         25    2    1    2    0    0  0.00000000000E+00  0.00000000000E+00 -0.37514501195E+01  0.12505786155E+03  0.12500158142E+03 0.  0.
    9000005    1    3    3    0    0 -0.35474206888E+01 -0.50820897722E+02 -0.38085956811E+02  0.63615154995E+02  0.10000000000E+01 0.  0.
    9000005    1    3    3    0    0  0.35474206888E+01  0.50820897722E+02  0.34334506691E+02  0.61442706553E+02  0.10000000000E+01 0.  0.
<mgrwt>
<rscale>  0 0.12500158E+03</rscale>
<asrwt>0</asrwt>
<pdfrwt beam="2">  1        4 0.99084086E-02 0.12500158E+03</pdfrwt>
<pdfrwt beam="1">  1       -4 0.93312624E-02 0.12500158E+03</pdfrwt>
<totfact> 0.10451232E+04</totfact>
</mgrwt>
</event>
<event>
 5    1  0.3312706E-002  0.1249994E+03  0.7818608E-02  0.1235070E+00
          4   -1    0    0  501    0  0.00000000000E+00  0.00000000000E+00  0.18361778710E+02  0.18405646346E+02  0.12700000000E+01 0.  1.
         -4   -1    0    0    0  501 -0.00000000000E+00 -0.00000000000E+00 -0.21243653483E+03  0.21244033099E+03  0.12700000000E+01 0.  1.
         25    2    1    2    0    0  0.00000000000E+00  0.00000000000E+00 -0.19407475612E+03  0.23084597733E+03  0.12499941715E+03 0.  0.
    9000005    1    3    3    0    0 -0.41331838376E+02  0.46327944732E+02 -0.11017602694E+03  0.12646879552E+03  0.10000000000E+01 0.  0.
    9000005    1    3    3    0    0  0.41331838376E+02 -0.46327944732E+02 -0.83898729175E+02  0.10437718182E+03  0.10000000000E+01 0.  0.
<mgrwt>
<rscale>  0 0.12499942E+03</rscale>
<asrwt>0</asrwt>
<pdfrwt beam="1">  1        4 0.28285556E-02 0.12499942E+03</pdfrwt>
<pdfrwt beam="2">  1       -4 0.32686208E-01 0.12499942E+03</pdfrwt>
<totfact> 0.85180974E+03</totfact>
</mgrwt>
</event>
<event>
 5    1  0.3312706E-002  0.1250011E+03  0.7818608E-02  0.1235068E+00
          4   -1    0    0  501    0  0.00000000000E+00  0.00000000000E+00  0.53366265880E+02  0.53381375348E+02  0.12700000000E+01 0. -1.
         -4   -1    0    0    0  501 -0.00000000000E+00 -0.00000000000E+00 -0.73167248927E+02  0.73178270105E+02  0.12700000000E+01 0. -1.
         25    2    1    2    0    0  0.00000000000E+00  0.00000000000E+00 -0.19800983047E+02  0.12655964545E+03  0.12500105971E+03 0.  0.
    9000005    1    3    3    0    0  0.13359296860E+02  0.52662310505E+02  0.21363752506E+02  0.58388352276E+02  0.10000000000E+01 0.  0.
    9000005    1    3    3    0    0 -0.13359296860E+02 -0.52662310505E+02 -0.41164735552E+02  0.68171293177E+02  0.10000000000E+01 0.  0.
<mgrwt>
<rscale>  0 0.12500106E+03</rscale>
<asrwt>0</asrwt>
<pdfrwt beam="1">  1        4 0.82122048E-02 0.12500106E+03</pdfrwt>
<pdfrwt beam="2">  1       -4 0.11258510E-01 0.12500106E+03</pdfrwt>
<totfact> 0.10418478E+04</totfact>
</mgrwt>
</event>
<event>
 5    1  0.3312706E-002  0.1250015E+03  0.7818608E-02  0.1235067E+00
         -4   -1    0    0    0  501 -0.00000000000E+00  0.00000000000E+00  0.40268262763E+02  0.40288284723E+02  0.12700000000E+01 0. -1.
          4   -1    0    0  501    0  0.00000000000E+00 -0.00000000000E+00 -0.96959637233E+02  0.96967954254E+02  0.12700000000E+01 0. -1.
         25    2    1    2    0    0  0.00000000000E+00  0.00000000000E+00 -0.56691374469E+02  0.13725623898E+03  0.12500145279E+03 0.  0.
    9000005    1    3    3    0    0 -0.26100889468E+02  0.32734606953E+02  0.22598146926E+02  0.47586628036E+02  0.10000000000E+01 0.  0.
    9000005    1    3    3    0    0  0.26100889468E+02 -0.32734606953E+02 -0.79289521395E+02  0.89669610942E+02  0.10000000000E+01 0.  0.
<mgrwt>
<rscale>  0 0.12500145E+03</rscale>
<asrwt>0</asrwt>
<pdfrwt beam="2">  1        4 0.14919047E-01 0.12500145E+03</pdfrwt>
<pdfrwt beam="1">  1       -4 0.61972973E-02 0.12500145E+03</pdfrwt>
<totfact> 0.10190397E+04</totfact>
</mgrwt>
</event>
<event>
 5    1  0.3312706E-002  0.1250021E+03  0.7818608E-02  0.1235066E+00
          4   -1    0    0  501    0  0.00000000000E+00  0.00000000000E+00  0.10146008601E+04  0.10146016549E+04  0.12700000000E+01 0.  1.
         -4   -1    0    0    0  501 -0.00000000000E+00 -0.00000000000E+00 -0.37446183488E+01  0.39541202028E+01  0.12700000000E+01 0.  1.
         25    2    1    2    0    0  0.00000000000E+00  0.00000000000E+00  0.10108562417E+04  0.10185557751E+04  0.12500210237E+03 0.  0.
    9000005    1    3    3    0    0  0.31542681859E+02 -0.31233693559E+02  0.86385157812E+03  0.86499192679E+03  0.10000000000E+01 0.  0.
    9000005    1    3    3    0    0 -0.31542681859E+02  0.31233693559E+02  0.14700466359E+03  0.15356384831E+03  0.10000000000E+01 0.  0.
<mgrwt>
<rscale>  0 0.12500210E+03</rscale>
<asrwt>0</asrwt>
<pdfrwt beam="1">  1        4 0.15610866E+00 0.12500210E+03</pdfrwt>
<pdfrwt beam="2">  1       -4 0.59227162E-03 0.12500210E+03</pdfrwt>
<totfact> 0.29995840E+03</totfact>
</mgrwt>
</event>
<event>
 5    1  0.3312706E-002  0.1249819E+03  0.7818608E-02  0.1235098E+00
          4   -1    0    0  501    0  0.00000000000E+00  0.00000000000E+00  0.26803165203E+02  0.26833236199E+02  0.12700000000E+01 0.  1.
         -4   -1    0    0    0  501 -0.00000000000E+00 -0.00000000000E+00 -0.14558172727E+03  0.14558726666E+03  0.12700000000E+01 0.  1.
         25    2    1    2    0    0  0.00000000000E+00  0.00000000000E+00 -0.11877856206E+03  0.17242050286E+03  0.12498193070E+03 0.  0.
    9000005    1    3    3    0    0 -0.47941161783E+02  0.47803343085E+01 -0.45021715348E+01  0.48399133647E+02  0.10000000000E+01 0.  0.
    9000005    1    3    3    0    0  0.47941161783E+02 -0.47803343085E+01 -0.11427639053E+03  0.12402136921E+03  0.10000000000E+01 0.  0.
<mgrwt>
<rscale>  0 0.12498193E+03</rscale>
<asrwt>0</asrwt>
<pdfrwt beam="1">  1        4 0.41263032E-02 0.12498193E+03</pdfrwt>
<pdfrwt beam="2">  1       -4 0.22399928E-01 0.12498193E+03</pdfrwt>
<totfact> 0.95037933E+03</totfact>
</mgrwt>
</event>
<event>
 5    1  0.3312706E-002  0.1250039E+03  0.7818608E-02  0.1235063E+00
         -4   -1    0    0    0  501 -0.00000000000E+00  0.00000000000E+00  0.61067798175E+02  0.61081002562E+02  0.12700000000E+01 0.  1.
          4   -1    0    0  501    0  0.00000000000E+00 -0.00000000000E+00 -0.63943356544E+02  0.63955967244E+02  0.12700000000E+01 0.  1.
         25    2    1    2    0    0  0.00000000000E+00  0.00000000000E+00 -0.28755583682E+01  0.12503696981E+03  0.12500389987E+03 0.  0.
    9000005    1    3    3    0    0 -0.54842815958E+01  0.29851957202E+02  0.53205209839E+02  0.61261823736E+02  0.10000000000E+01 0.  0.
    9000005    1    3    3    0    0  0.54842815958E+01 -0.29851957202E+02 -0.56080768208E+02  0.63775146069E+02  0.10000000000E+01 0.  0.
<mgrwt>
<rscale>  0 0.12500390E+03</rscale>
<asrwt>0</asrwt>
<pdfrwt beam="2">  1        4 0.98394252E-02 0.12500390E+03</pdfrwt>
<pdfrwt beam="1">  1       -4 0.93970317E-02 0.12500390E+03</pdfrwt>
<totfact> 0.10451138E+04</totfact>
</mgrwt>
</event>
<event>
 5    1  0.3312706E-002  0.1249954E+03  0.7818608E-02  0.1235076E+00
         -4   -1    0    0    0  501 -0.00000000000E+00  0.00000000000E+00  0.73186427361E+02  0.73197445651E+02  0.12700000000E+01 0. -1.
          4   -1    0    0  501    0  0.00000000000E+00 -0.00000000000E+00 -0.53347482190E+02  0.53362596976E+02  0.12700000000E+01 0. -1.
         25    2    1    2    0    0  0.00000000000E+00  0.00000000000E+00  0.19838945171E+02  0.12656004263E+03  0.12499544249E+03 0.  0.
    9000005    1    3    3    0    0  0.40686153517E+02 -0.33549686128E+02 -0.24026603161E+02  0.57958797320E+02  0.10000000000E+01 0.  0.
    9000005    1    3    3    0    0 -0.40686153517E+02  0.33549686128E+02  0.43865548332E+02  0.68601245307E+02  0.10000000000E+01 0.  0.
<mgrwt>
<rscale>  0 0.12499544E+03</rscale>
<asrwt>0</asrwt>
<pdfrwt beam="2">  1        4 0.82093152E-02 0.12499544E+03</pdfrwt>
<pdfrwt beam="1">  1       -4 0.11261461E-01 0.12499544E+03</pdfrwt>
<totfact> 0.10419791E+04</totfact>
</mgrwt>
</event>
<event>
 5    1  0.3312706E-002  0.1250019E+03  0.7818608E-02  0.1235066E+00
          4   -1    0    0  501    0  0.00000000000E+00  0.00000000000E+00  0.95764414341E+03  0.95764498553E+03  0.12700000000E+01 0.  1.
         -4   -1    0    0    0  501 -0.00000000000E+00 -0.00000000000E+00 -0.39794328821E+01  0.41771744114E+01  0.12700000000E+01 0.  1.
         25    2    1    2    0    0  0.00000000000E+00  0.00000000000E+00  0.95366471053E+03  0.96182215994E+03  0.12500194896E+03 0.  0.
    9000005    1    3    3    0    0  0.22347988308E+02  0.33466181530E+02  0.84471705895E+03  0.84567566335E+03  0.10000000000E+01 0.  0.
    9000005    1    3    3    0    0 -0.22347988308E+02 -0.33466181530E+02  0.10894765158E+03  0.11614649660E+03  0.10000000000E+01 0.  0.
<mgrwt>
<rscale>  0 0.12500195E+03</rscale>
<asrwt>0</asrwt>
<pdfrwt beam="1">  1        4 0.14734521E+00 0.12500195E+03</pdfrwt>
<pdfrwt beam="2">  1       -4 0.62749585E-03 0.12500195E+03</pdfrwt>
<totfact> 0.31898549E+03</totfact>
</mgrwt>
</event>
<event>
 5    1  0.3312706E-002  0.1250005E+03  0.7818608E-02  0.1235068E+00
          4   -1    0    0  501    0  0.00000000000E+00  0.00000000000E+00  0.17470677844E+03  0.17471139440E+03  0.12700000000E+01 0.  1.
         -4   -1    0    0    0  501 -0.00000000000E+00 -0.00000000000E+00 -0.22336133935E+02  0.22372209974E+02  0.12700000000E+01 0.  1.
         25    2    1    2    0    0  0.00000000000E+00  0.00000000000E+00  0.15237064451E+03  0.19708360438E+03  0.12500053522E+03 0.  0.
    9000005    1    3    3    0    0  0.45549901433E+02 -0.41958744858E+02  0.62998387800E+02  0.88346627870E+02  0.10000000000E+01 0.  0.
    9000005    1    3    3    0    0 -0.45549901433E+02  0.41958744858E+02  0.89372256709E+02  0.10873697651E+03  0.10000000000E+01 0.  0.
<mgrwt>
<rscale>  0 0.12500054E+03</rscale>
<asrwt>0</asrwt>
<pdfrwt beam="1">  1        4 0.26881096E-01 0.12500054E+03</pdfrwt>
<pdfrwt beam="2">  1       -4 0.34394585E-02 0.12500054E+03</pdfrwt>
<totfact> 0.90628103E+03</totfact>
</mgrwt>
</event>
<event>
 5    1  0.3312706E-002  0.1249648E+03  0.7818608E-02  0.1235124E+00
          4   -1    0    0  501    0  0.00000000000E+00  0.00000000000E+00  0.10702988880E+03  0.10703742335E+03  0.12700000000E+01 0.  1.
         -4   -1    0    0    0  501 -0.00000000000E+00 -0.00000000000E+00 -0.36456371337E+02  0.36478485592E+02  0.12700000000E+01 0.  1.
         25    2    1    2    0    0  0.00000000000E+00  0.00000000000E+00  0.70573517466E+02  0.14351590894E+03  0.12496477404E+03 0.  0.
    9000005    1    3    3    0    0  0.10348629313E+02 -0.30003850064E+02  0.97087116037E+02  0.10214809468E+03  0.10000000000E+01 0.  0.
    9000005    1    3    3    0    0 -0.10348629313E+02  0.30003850064E+02 -0.26513598570E+02  0.41367814258E+02  0.10000000000E+01 0.  0.
<mgrwt>
<rscale>  0 0.12496477E+03</rscale>
<asrwt>0</asrwt>
<pdfrwt beam="1">  1        4 0.16468417E-01 0.12496477E+03</pdfrwt>
<pdfrwt beam="2">  1       -4 0.56109533E-02 0.12496477E+03</pdfrwt>
<totfact> 0.10069215E+04</totfact>
</mgrwt>
</event>
<event>
 5    1  0.3312706E-002  0.1249989E+03  0.7818608E-02  0.1235071E+00
         -4   -1    0    0    0  501 -0.00000000000E+00  0.00000000000E+00  0.96486885631E+03  0.96486969212E+03  0.12700000000E+01 0.  1.
          4   -1    0    0  501    0  0.00000000000E+00 -0.00000000000E+00 -0.39479502219E+01  0.41471931417E+01  0.12700000000E+01 0.  1.
         25    2    1    2    0    0  0.00000000000E+00  0.00000000000E+00  0.96092090609E+03  0.96901688526E+03  0.12499894468E+03 0.  0.
    9000005    1    3    3    0    0  0.28419431452E+02 -0.47723512178E+02  0.70244784466E+03  0.70464116553E+03  0.10000000000E+01 0.  0.
    9000005    1    3    3    0    0 -0.28419431452E+02  0.47723512178E+02  0.25847306143E+03  0.26437571973E+03  0.10000000000E+01 0.  0.
<mgrwt>
<rscale>  0 0.12499894E+03</rscale>
<asrwt>0</asrwt>
<pdfrwt beam="2">  1        4 0.62276739E-03 0.12499894E+03</pdfrwt>
<pdfrwt beam="1">  1       -4 0.14845681E+00 0.12499894E+03</pdfrwt>
<totfact> 0.31650989E+03</totfact>
</mgrwt>
</event>
<event>
 5    1  0.3312706E-002  0.1249980E+03  0.7818608E-02  0.1235072E+00
         -4   -1    0    0    0  501 -0.00000000000E+00  0.00000000000E+00  0.79465857977E+02  0.79476005712E+02  0.12700000000E+01 0. -1.
          4   -1    0    0  501    0  0.00000000000E+00 -0.00000000000E+00 -0.49133280076E+02  0.49149690854E+02  0.12700000000E+01 0. -1.
         25    2    1    2    0    0  0.00000000000E+00  0.00000000000E+00  0.30332577901E+02  0.12862569657E+03  0.12499801812E+03 0.  0.
    9000005    1    3    3    0    0 -0.87560341124E+00 -0.57825421488E+02 -0.91974223075E+01  0.58567385367E+02  0.10000000000E+01 0.  0.
    9000005    1    3    3    0    0  0.87560341124E+00  0.57825421488E+02  0.39530000208E+02  0.70058311199E+02  0.10000000000E+01 0.  0.
<mgrwt>
<rscale>  0 0.12499802E+03</rscale>
<asrwt>0</asrwt>
<pdfrwt beam="2">  1        4 0.75610093E-02 0.12499802E+03</pdfrwt>
<pdfrwt beam="1">  1       -4 0.12227559E-01 0.12499802E+03</pdfrwt>
<totfact> 0.10374461E+04</totfact>
</mgrwt>
</event>
<event>
 5    1  0.3312706E-002  0.1250034E+03  0.7818608E-02  0.1235064E+00
          4   -1    0    0  501    0  0.00000000000E+00  0.00000000000E+00  0.90416609732E+01  0.91304180164E+01  0.12700000000E+01 0.  1.
         -4   -1    0    0    0  501 -0.00000000000E+00 -0.00000000000E+00 -0.42985137007E+03  0.42985324618E+03  0.12700000000E+01 0.  1.
         25    2    1    2    0    0  0.00000000000E+00  0.00000000000E+00 -0.42080970910E+03  0.43898366420E+03  0.12500338460E+03 0.  0.
    9000005    1    3    3    0    0 -0.60580125590E+02  0.32351020600E+01 -0.15772308632E+03  0.16899109284E+03  0.10000000000E+01 0.  0.
    9000005    1    3    3    0    0  0.60580125590E+02 -0.32351020600E+01 -0.26308662278E+03  0.26999257136E+03  0.10000000000E+01 0.  0.
<mgrwt>
<rscale>  0 0.12500338E+03</rscale>
<asrwt>0</asrwt>
<pdfrwt beam="1">  1        4 0.13979969E-02 0.12500338E+03</pdfrwt>
<pdfrwt beam="2">  1       -4 0.66137936E-01 0.12500338E+03</pdfrwt>
<totfact> 0.60925496E+03</totfact>
</mgrwt>
</event>
<event>
 5    1  0.3312706E-002  0.1250000E+03  0.7818608E-02  0.1235069E+00
         -4   -1    0    0    0  501 -0.00000000000E+00  0.00000000000E+00  0.18324980324E+02  0.18368935840E+02  0.12700000000E+01 0.  1.
          4   -1    0    0  501    0  0.00000000000E+00 -0.00000000000E+00 -0.21286410395E+03  0.21286789248E+03  0.12700000000E+01 0.  1.
         25    2    1    2    0    0  0.00000000000E+00  0.00000000000E+00 -0.19453912362E+03  0.23123682832E+03  0.12500000061E+03 0.  0.
    9000005    1    3    3    0    0 -0.45406613480E+02 -0.16704952703E+02 -0.24100814782E+02  0.54061680196E+02  0.10000000000E+01 0.  0.
    9000005    1    3    3    0    0  0.45406613480E+02  0.16704952703E+02 -0.17043830884E+03  0.17717514812E+03  0.10000000000E+01 0.  0.
<mgrwt>
<rscale>  0 0.12500000E+03</rscale>
<asrwt>0</asrwt>
<pdfrwt beam="2">  1        4 0.32751995E-01 0.12500000E+03</pdfrwt>
<pdfrwt beam="1">  1       -4 0.28229005E-02 0.12500000E+03</pdfrwt>
<totfact> 0.85120042E+03</totfact>
</mgrwt>
</event>
<event>
 5    1  0.3312706E-002  0.1249950E+03  0.7818608E-02  0.1235077E+00
          4   -1    0    0  501    0  0.00000000000E+00  0.00000000000E+00  0.26243068114E+02  0.26273780163E+02  0.12700000000E+01 0. -1.
         -4   -1    0    0    0  501 -0.00000000000E+00 -0.00000000000E+00 -0.14871642217E+03  0.14872184481E+03  0.12700000000E+01 0. -1.
         25    2    1    2    0    0  0.00000000000E+00  0.00000000000E+00 -0.12247335406E+03  0.17499562498E+03  0.12499498512E+03 0.  0.
    9000005    1    3    3    0    0 -0.13281941612E+02 -0.58168884153E+02 -0.35235923559E+02  0.69300789070E+02  0.10000000000E+01 0.  0.
    9000005    1    3    3    0    0  0.13281941612E+02  0.58168884153E+02 -0.87237430501E+02  0.10569483591E+03  0.10000000000E+01 0.  0.
<mgrwt>
<rscale>  0 0.12499499E+03</rscale>
<asrwt>0</asrwt>
<pdfrwt beam="1">  1        4 0.40401748E-02 0.12499499E+03</pdfrwt>
<pdfrwt beam="2">  1       -4 0.22882229E-01 0.12499499E+03</pdfrwt>
<totfact> 0.94536277E+03</totfact>
</mgrwt>
</event>
<event>
 5    1  0.3312706E-002  0.1249993E+03  0.7818608E-02  0.1235070E+00
          4   -1    0    0  501    0  0.00000000000E+00  0.00000000000E+00  0.10044794121E+03  0.10045596943E+03  0.12700000000E+01 0. -1.
         -4   -1    0    0    0  501 -0.00000000000E+00 -0.00000000000E+00 -0.38867921569E+02  0.38888664507E+02  0.12700000000E+01 0. -1.
         25    2    1    2    0    0  0.00000000000E+00  0.00000000000E+00  0.61580019642E+02  0.13934463393E+03  0.12499931275E+03 0.  0.
    9000005    1    3    3    0    0 -0.21241869491E+02 -0.52646697027E+02  0.16710950757E+01  0.56803910834E+02  0.10000000000E+01 0.  0.
    9000005    1    3    3    0    0  0.21241869491E+02  0.52646697027E+02  0.59908924566E+02  0.82540723101E+02  0.10000000000E+01 0.  0.
<mgrwt>
<rscale>  0 0.12499931E+03</rscale>
<asrwt>0</asrwt>
<pdfrwt beam="1">  1        4 0.15455742E-01 0.12499931E+03</pdfrwt>
<pdfrwt beam="2">  1       -4 0.59818935E-02 0.12499931E+03</pdfrwt>
<totfact> 0.10147344E+04</totfact>
</mgrwt>
</event>
<event>
 5    1  0.3312706E-002  0.1249661E+03  0.7818608E-02  0.1235122E+00
          4   -1    0    0  501    0  0.00000000000E+00  0.00000000000E+00  0.36837121439E+02  0.36859007256E+02  0.12700000000E+01 0. -1.
         -4   -1    0    0    0  501 -0.00000000000E+00 -0.00000000000E+00 -0.10592650286E+03  0.10593411588E+03  0.12700000000E+01 0. -1.
         25    2    1    2    0    0  0.00000000000E+00  0.00000000000E+00 -0.69089381416E+02  0.14279312314E+03  0.12496612897E+03 0.  0.
    9000005    1    3    3    0    0 -0.37013558262E+02  0.98890751111E+01  0.21844313311E+02  0.44113164995E+02  0.10000000000E+01 0.  0.
    9000005    1    3    3    0    0  0.37013558262E+02 -0.98890751111E+01 -0.90933694728E+02  0.98679958141E+02  0.10000000000E+01 0.  0.
<mgrwt>
<rscale>  0 0.12496613E+03</rscale>
<asrwt>0</asrwt>
<pdfrwt beam="1">  1        4 0.56695186E-02 0.12496613E+03</pdfrwt>
<pdfrwt beam="2">  1       -4 0.16298654E-01 0.12496613E+03</pdfrwt>
<totfact> 0.10083712E+04</totfact>
</mgrwt>
</event>
<event>
 5    1  0.3312706E-002  0.1250004E+03  0.7818608E-02  0.1235069E+00
         -4   -1    0    0    0  501 -0.00000000000E+00  0.00000000000E+00  0.64445284755E+02  0.64457797257E+02  0.12700000000E+01 0. -1.
          4   -1    0    0  501    0  0.00000000000E+00 -0.00000000000E+00 -0.60588749912E+02  0.60602058677E+02  0.12700000000E+01 0. -1.
         25    2    1    2    0    0  0.00000000000E+00  0.00000000000E+00  0.38565348437E+01  0.12505985593E+03  0.12500037882E+03 0.  0.
    9000005    1    3    3    0    0 -0.41314974314E+02 -0.45398188997E+02 -0.97969936904E+01  0.62168350083E+02  0.10000000000E+01 0.  0.
    9000005    1    3    3    0    0  0.41314974314E+02  0.45398188997E+02  0.13653528534E+02  0.62891505850E+02  0.10000000000E+01 0.  0.
<mgrwt>
<rscale>  0 0.12500038E+03</rscale>
<asrwt>0</asrwt>
<pdfrwt beam="2">  1        4 0.93233324E-02 0.12500038E+03</pdfrwt>
<pdfrwt beam="1">  1       -4 0.99166455E-02 0.12500038E+03</pdfrwt>
<totfact> 0.10451473E+04</totfact>
</mgrwt>
</event>
<event>
 5    1  0.3312706E-002  0.1249981E+03  0.7818608E-02  0.1235072E+00
          4   -1    0    0  501    0  0.00000000000E+00  0.00000000000E+00  0.40496725325E+01  0.42441427427E+01  0.12700000000E+01 0. -1.
         -4   -1    0    0    0  501 -0.00000000000E+00 -0.00000000000E+00 -0.94174409060E+03  0.94174494694E+03  0.12700000000E+01 0. -1.
         25    2    1    2    0    0  0.00000000000E+00  0.00000000000E+00 -0.93769441807E+03  0.94598908968E+03  0.12499814445E+03 0.  0.
    9000005    1    3    3    0    0 -0.41243407348E+02 -0.46420809933E+02 -0.52194421864E+03  0.52562598644E+03  0.10000000000E+01 0.  0.
    9000005    1    3    3    0    0  0.41243407348E+02  0.46420809933E+02 -0.41575019942E+03  0.42036310324E+03  0.10000000000E+01 0.  0.
<mgrwt>
<rscale>  0 0.12499814E+03</rscale>
<asrwt>0</asrwt>
<pdfrwt beam="1">  1        4 0.63805241E-03 0.12499814E+03</pdfrwt>
<pdfrwt beam="2">  1       -4 0.14489856E+00 0.12499814E+03</pdfrwt>
<totfact> 0.32460156E+03</totfact>
</mgrwt>
</event>
<event>
 5    1  0.3312706E-002  0.1249950E+03  0.7818608E-02  0.1235077E+00
         -4   -1    0    0    0  501 -0.00000000000E+00  0.00000000000E+00  0.25234955640E+02  0.25266893085E+02  0.12700000000E+01 0. -1.
          4   -1    0    0  501    0  0.00000000000E+00 -0.00000000000E+00 -0.15465032249E+03  0.15465553707E+03  0.12700000000E+01 0. -1.
         25    2    1    2    0    0  0.00000000000E+00  0.00000000000E+00 -0.12941536685E+03  0.17992243015E+03  0.12499497468E+03 0.  0.
    9000005    1    3    3    0    0 -0.32364220494E+02  0.49249145420E+02 -0.34789027194E+02  0.68441197432E+02  0.10000000000E+01 0.  0.
    9000005    1    3    3    0    0  0.32364220494E+02 -0.49249145420E+02 -0.94626339653E+02  0.11148123272E+03  0.10000000000E+01 0.  0.
<mgrwt>
<rscale>  0 0.12499497E+03</rscale>
<asrwt>0</asrwt>
<pdfrwt beam="2">  1        4 0.23795215E-01 0.12499497E+03</pdfrwt>
<pdfrwt beam="1">  1       -4 0.38851588E-02 0.12499497E+03</pdfrwt>
<totfact> 0.93641519E+03</totfact>
</mgrwt>
</event>
<event>
 5    1  0.3312706E-002  0.1250032E+03  0.7818608E-02  0.1235064E+00
          4   -1    0    0  501    0  0.00000000000E+00  0.00000000000E+00  0.44111564757E+02  0.44129843024E+02  0.12700000000E+01 0.  1.
         -4   -1    0    0    0  501 -0.00000000000E+00 -0.00000000000E+00 -0.88517239957E+02  0.88526350143E+02  0.12700000000E+01 0.  1.
         25    2    1    2    0    0  0.00000000000E+00  0.00000000000E+00 -0.44405675200E+02  0.13265619317E+03  0.12500320634E+03 0.  0.
    9000005    1    3    3    0    0 -0.28899073374E+02  0.33998077560E+02  0.24230031479E+02  0.50785038595E+02  0.10000000000E+01 0.  0.
    9000005    1    3    3    0    0  0.28899073374E+02 -0.33998077560E+02 -0.68635706678E+02  0.81871154572E+02  0.10000000000E+01 0.  0.
<mgrwt>
<rscale>  0 0.12500321E+03</rscale>
<asrwt>0</asrwt>
<pdfrwt beam="1">  1        4 0.67885014E-02 0.12500321E+03</pdfrwt>
<pdfrwt beam="2">  1       -4 0.13620144E-01 0.12500321E+03</pdfrwt>
<totfact> 0.10286968E+04</totfact>
</mgrwt>
</event>
<event>
 5    1  0.3312706E-002  0.1250003E+03  0.7818608E-02  0.1235069E+00
         -4   -1    0    0    0  501 -0.00000000000E+00  0.00000000000E+00  0.52185071816E+02  0.52200523181E+02  0.12700000000E+01 0. -1.
          4   -1    0    0  501    0  0.00000000000E+00 -0.00000000000E+00 -0.74822190665E+02  0.74832968108E+02  0.12700000000E+01 0. -1.
         25    2    1    2    0    0  0.00000000000E+00  0.00000000000E+00 -0.22637118849E+02  0.12703349129E+03  0.12500027504E+03 0.  0.
    9000005    1    3    3    0    0  0.32840490896E+02  0.51967566712E+02  0.95391892540E-01  0.61482801920E+02  0.10000000000E+01 0.  0.
    9000005    1    3    3    0    0 -0.32840490896E+02 -0.51967566712E+02 -0.22732510742E+02  0.65550689370E+02  0.10000000000E+01 0.  0.
<mgrwt>
<rscale>  0 0.12500028E+03</rscale>
<asrwt>0</asrwt>
<pdfrwt beam="2">  1        4 0.11513124E-01 0.12500028E+03</pdfrwt>
<pdfrwt beam="1">  1       -4 0.80304902E-02 0.12500028E+03</pdfrwt>
<totfact> 0.10408353E+04</totfact>
</mgrwt>
</event>
<event>
 5    1  0.3312706E-002  0.1250189E+03  0.7818608E-02  0.1235040E+00
          4   -1    0    0  501    0  0.00000000000E+00  0.00000000000E+00  0.48608864032E+02  0.48625451797E+02  0.12700000000E+01 0. -1.
         -4   -1    0    0    0  501 -0.00000000000E+00 -0.00000000000E+00 -0.80349781927E+02  0.80359818042E+02  0.12700000000E+01 0. -1.
         25    2    1    2    0    0  0.00000000000E+00  0.00000000000E+00 -0.31740917895E+02  0.12898526984E+03  0.12501885444E+03 0.  0.
    9000005    1    3    3    0    0 -0.39733323156E+02  0.45571257729E+02  0.47360018139E+00  0.60470660631E+02  0.10000000000E+01 0.  0.
    9000005    1    3    3    0    0  0.39733323156E+02 -0.45571257729E+02 -0.32214518077E+02  0.68514609208E+02  0.10000000000E+01 0.  0.
<mgrwt>
<rscale>  0 0.12501885E+03</rscale>
<asrwt>0</asrwt>
<pdfrwt beam="1">  1        4 0.74803348E-02 0.12501885E+03</pdfrwt>
<pdfrwt beam="2">  1       -4 0.12363553E-01 0.12501885E+03</pdfrwt>
<totfact> 0.10361852E+04</totfact>
</mgrwt>
</event>
<event>
 5    1  0.3312706E-002  0.1249923E+03  0.7818608E-02  0.1235081E+00
         -4   -1    0    0    0  501 -0.00000000000E+00  0.00000000000E+00  0.82180851264E+02  0.82190663791E+02  0.12700000000E+01 0.  1.
          4   -1    0    0  501    0  0.00000000000E+00 -0.00000000000E+00 -0.47505340232E+02  0.47522313186E+02  0.12700000000E+01 0.  1.
         25    2    1    2    0    0  0.00000000000E+00  0.00000000000E+00  0.34675511032E+02  0.12971297698E+03  0.12499226108E+03 0.  0.
    9000005    1    3    3    0    0 -0.23911316132E+02  0.31512220743E+02 -0.32862715156E+02  0.51436651745E+02  0.10000000000E+01 0.  0.
    9000005    1    3    3    0    0  0.23911316132E+02 -0.31512220743E+02  0.67538226188E+02  0.78276325233E+02  0.10000000000E+01 0.  0.
<mgrwt>
<rscale>  0 0.12499226E+03</rscale>
<asrwt>0</asrwt>
<pdfrwt beam="2">  1        4 0.73105743E-02 0.12499226E+03</pdfrwt>
<pdfrwt beam="1">  1       -4 0.12645268E-01 0.12499226E+03</pdfrwt>
<totfact> 0.10352460E+04</totfact>
</mgrwt>
</event>
<event>
 5    1  0.3312706E-002  0.1249924E+03  0.7818608E-02  0.1235081E+00
          4   -1    0    0  501    0  0.00000000000E+00  0.00000000000E+00  0.27225966178E+02  0.27255570703E+02  0.12700000000E+01 0. -1.
         -4   -1    0    0    0  501 -0.00000000000E+00 -0.00000000000E+00 -0.14334738682E+03  0.14335301256E+03  0.12700000000E+01 0. -1.
         25    2    1    2    0    0  0.00000000000E+00  0.00000000000E+00 -0.11612142065E+03  0.17060858326E+03  0.12499241717E+03 0.  0.
    9000005    1    3    3    0    0 -0.17143896869E+02  0.57836091833E+02 -0.80316090970E+02  0.10045198449E+03  0.10000000000E+01 0.  0.
    9000005    1    3    3    0    0  0.17143896869E+02 -0.57836091833E+02 -0.35805329676E+02  0.70156598774E+02  0.10000000000E+01 0.  0.
<mgrwt>
<rscale>  0 0.12499242E+03</rscale>
<asrwt>0</asrwt>
<pdfrwt beam="1">  1        4 0.41913203E-02 0.12499242E+03</pdfrwt>
<pdfrwt beam="2">  1       -4 0.22056154E-01 0.12499242E+03</pdfrwt>
<totfact> 0.95351553E+03</totfact>
</mgrwt>
</event>
<event>
 5    1  0.3312706E-002  0.1249993E+03  0.7818608E-02  0.1235070E+00
          4   -1    0    0  501    0  0.00000000000E+00  0.00000000000E+00  0.50257206643E+02  0.50273250537E+02  0.12700000000E+01 0.  1.
         -4   -1    0    0    0  501 -0.00000000000E+00 -0.00000000000E+00 -0.77690715213E+02  0.77701094782E+02  0.12700000000E+01 0.  1.
         25    2    1    2    0    0  0.00000000000E+00  0.00000000000E+00 -0.27433508570E+02  0.12797434532E+03  0.12499934267E+03 0.  0.
    9000005    1    3    3    0    0  0.56884493677E+01  0.27226064826E+02  0.43575744565E+02  0.51705537194E+02  0.10000000000E+01 0.  0.
    9000005    1    3    3    0    0 -0.56884493677E+01 -0.27226064826E+02 -0.71009253135E+02  0.76268808126E+02  0.10000000000E+01 0.  0.
<mgrwt>
<rscale>  0 0.12499934E+03</rscale>
<asrwt>0</asrwt>
<pdfrwt beam="1">  1        4 0.77339105E-02 0.12499934E+03</pdfrwt>
<pdfrwt beam="2">  1       -4 0.11954450E-01 0.12499934E+03</pdfrwt>
<totfact> 0.10388196E+04</totfact>
</mgrwt>
</event>
<event>
 5    1  0.3312706E-002  0.1249979E+03  0.7818608E-02  0.1235073E+00
          4   -1    0    0  501    0  0.00000000000E+00  0.00000000000E+00  0.21222578766E+02  0.21260544431E+02  0.12700000000E+01 0. -1.
         -4   -1    0    0    0  501 -0.00000000000E+00 -0.00000000000E+00 -0.18385024464E+03  0.18385463104E+03  0.12700000000E+01 0. -1.
         25    2    1    2    0    0  0.00000000000E+00  0.00000000000E+00 -0.16262766587E+03  0.20511517547E+03  0.12499790998E+03 0.  0.
    9000005    1    3    3    0    0 -0.44659919331E+02 -0.93690487063E+01 -0.11254120193E+02  0.47010027544E+02  0.10000000000E+01 0.  0.
    9000005    1    3    3    0    0  0.44659919331E+02  0.93690487063E+01 -0.15137354568E+03  0.15810514792E+03  0.10000000000E+01 0.  0.
<mgrwt>
<rscale>  0 0.12499791E+03</rscale>
<asrwt>0</asrwt>
<pdfrwt beam="1">  1        4 0.32682701E-02 0.12499791E+03</pdfrwt>
<pdfrwt beam="2">  1       -4 0.28287910E-01 0.12499791E+03</pdfrwt>
<totfact> 0.89284077E+03</totfact>
</mgrwt>
</event>
<event>
 5    1  0.3312706E-002  0.1249997E+03  0.7818608E-02  0.1235070E+00
         -4   -1    0    0    0  501 -0.00000000000E+00  0.00000000000E+00  0.50352090465E+03  0.50352250627E+03  0.12700000000E+01 0. -1.
          4   -1    0    0  501    0  0.00000000000E+00 -0.00000000000E+00 -0.77042327697E+01  0.78082073852E+01  0.12700000000E+01 0. -1.
         25    2    1    2    0    0  0.00000000000E+00  0.00000000000E+00  0.49581667188E+03  0.51133071366E+03  0.12499970645E+03 0.  0.
    9000005    1    3    3    0    0 -0.56257298121E+02 -0.24636673466E+02  0.20066482983E+03  0.20985524344E+03  0.10000000000E+01 0.  0.
    9000005    1    3    3    0    0  0.56257298121E+02  0.24636673466E+02  0.29515184206E+03  0.30147547022E+03  0.10000000000E+01 0.  0.
<mgrwt>
<rscale>  0 0.12499971E+03</rscale>
<asrwt>0</asrwt>
<pdfrwt beam="2">  1        4 0.11933877E-02 0.12499971E+03</pdfrwt>
<pdfrwt beam="1">  1       -4 0.77472884E-01 0.12499971E+03</pdfrwt>
<totfact> 0.54996186E+03</totfact>
</mgrwt>
</event>
<event>
 5    1  0.3312706E-002  0.1249966E+03  0.7818608E-02  0.1235075E+00
          4   -1    0    0  501    0  0.00000000000E+00  0.00000000000E+00  0.87079066179E+02  0.87088326810E+02  0.12700000000E+01 0.  1.
         -4   -1    0    0    0  501 -0.00000000000E+00 -0.00000000000E+00 -0.44835592600E+02  0.44853575819E+02  0.12700000000E+01 0.  1.
         25    2    1    2    0    0  0.00000000000E+00  0.00000000000E+00  0.42243473579E+02  0.13194190263E+03  0.12499661839E+03 0.  0.
    9000005    1    3    3    0    0  0.31673922146E+01  0.68401824897E+01  0.86602588868E+02  0.86935774389E+02  0.10000000000E+01 0.  0.
    9000005    1    3    3    0    0 -0.31673922146E+01 -0.68401824897E+01 -0.44359115289E+02  0.45006128240E+02  0.10000000000E+01 0.  0.
<mgrwt>
<rscale>  0 0.12499662E+03</rscale>
<asrwt>0</asrwt>
<pdfrwt beam="1">  1        4 0.13398875E-01 0.12499662E+03</pdfrwt>
<pdfrwt beam="2">  1       -4 0.68998792E-02 0.12499662E+03</pdfrwt>
<totfact> 0.10303725E+04</totfact>
</mgrwt>
</event>
<event>
 5    1  0.3312706E-002  0.1249996E+03  0.7818608E-02  0.1235070E+00
          4   -1    0    0  501    0  0.00000000000E+00  0.00000000000E+00  0.11313740321E+03  0.11314453105E+03  0.12700000000E+01 0. -1.
         -4   -1    0    0    0  501 -0.00000000000E+00 -0.00000000000E+00 -0.34506464830E+02  0.34529827904E+02  0.12700000000E+01 0. -1.
         25    2    1    2    0    0  0.00000000000E+00  0.00000000000E+00  0.78630938384E+02  0.14767435895E+03  0.12499956728E+03 0.  0.
    9000005    1    3    3    0    0  0.46226955049E+02  0.38401605773E+02  0.59558741466E+02  0.84615946393E+02  0.10000000000E+01 0.  0.
    9000005    1    3    3    0    0 -0.46226955049E+02 -0.38401605773E+02  0.19072196919E+02  0.63058412558E+02  0.10000000000E+01 0.  0.
<mgrwt>
<rscale>  0 0.12499957E+03</rscale>
<asrwt>0</asrwt>
<pdfrwt beam="1">  1        4 0.17408100E-01 0.12499957E+03</pdfrwt>
<pdfrwt beam="2">  1       -4 0.53110324E-02 0.12499957E+03</pdfrwt>
<totfact> 0.99770288E+03</totfact>
</mgrwt>
</event>
<event>
 5    1  0.3312706E-002  0.1250005E+03  0.7818608E-02  0.1235068E+00
          4   -1    0    0  501    0  0.00000000000E+00  0.00000000000E+00  0.18726120658E+01  0.22626479949E+01  0.12700000000E+01 0.  1.
         -4   -1    0    0    0  501 -0.00000000000E+00 -0.00000000000E+00 -0.18888665790E+04  0.18888670060E+04  0.12700000000E+01 0.  1.
         25    2    1    2    0    0  0.00000000000E+00  0.00000000000E+00 -0.18869939670E+04  0.18911296540E+04  0.12500054712E+03 0.  0.
    9000005    1    3    3    0    0  0.24867188437E+02  0.42746543838E+02 -0.15215029046E+04  0.15223067145E+04  0.10000000000E+01 0.  0.
    9000005    1    3    3    0    0 -0.24867188437E+02 -0.42746543838E+02 -0.36549106233E+03  0.36882293952E+03  0.10000000000E+01 0.  0.
<mgrwt>
<rscale>  0 0.12500055E+03</rscale>
<asrwt>0</asrwt>
<pdfrwt beam="1">  1        4 0.31813128E-03 0.12500055E+03</pdfrwt>
<pdfrwt beam="2">  1       -4 0.29062351E+00 0.12500055E+03</pdfrwt>
<totfact> 0.11349933E+03</totfact>
</mgrwt>
</event>
<event>
 5    1  0.3312706E-002  0.1249980E+03  0.7818608E-02  0.1235072E+00
          4   -1    0    0  501    0  0.00000000000E+00  0.00000000000E+00  0.79059600252E+03  0.79059702257E+03  0.12700000000E+01 0.  1.
         -4   -1    0    0    0  501 -0.00000000000E+00 -0.00000000000E+00 -0.48580789738E+01  0.50213376023E+01  0.12700000000E+01 0.  1.
         25    2    1    2    0    0  0.00000000000E+00  0.00000000000E+00  0.78573792355E+03  0.79561836017E+03  0.12499796218E+03 0.  0.
    9000005    1    3    3    0    0 -0.30885079954E+02 -0.20502404573E+02  0.72656562097E+02  0.81573358229E+02  0.10000000000E+01 0.  0.
    9000005    1    3    3    0    0  0.30885079954E+02  0.20502404573E+02  0.71308136145E+03  0.71404500195E+03  0.10000000000E+01 0.  0.
<mgrwt>
<rscale>  0 0.12499796E+03</rscale>
<asrwt>0</asrwt>
<pdfrwt beam="1">  1        4 0.12164286E+00 0.12499796E+03</pdfrwt>
<pdfrwt beam="2">  1       -4 0.76003315E-03 0.12499796E+03</pdfrwt>
<totfact> 0.38462775E+03</totfact>
</mgrwt>
</event>
<event>
 5    1  0.3312706E-002  0.1250015E+03  0.7818608E-02  0.1235067E+00
          4   -1    0    0  501    0  0.00000000000E+00  0.00000000000E+00  0.57361880443E+02  0.57375937709E+02  0.12700000000E+01 0.  1.
         -4   -1    0    0    0  501 -0.00000000000E+00 -0.00000000000E+00 -0.68071723122E+02  0.68083569154E+02  0.12700000000E+01 0.  1.
         25    2    1    2    0    0  0.00000000000E+00  0.00000000000E+00 -0.10709842679E+02  0.12545950686E+03  0.12500154852E+03 0.  0.
    9000005    1    3    3    0    0 -0.22250619704E+02 -0.58369450759E+02 -0.71681734614E+01  0.62884541581E+02  0.10000000000E+01 0.  0.
    9000005    1    3    3    0    0  0.22250619704E+02  0.58369450759E+02 -0.35416692175E+01  0.62574965281E+02  0.10000000000E+01 0.  0.
<mgrwt>
<rscale>  0 0.12500155E+03</rscale>
<asrwt>0</asrwt>
<pdfrwt beam="1">  1        4 0.88268972E-02 0.12500155E+03</pdfrwt>
<pdfrwt beam="2">  1       -4 0.10474565E-01 0.12500155E+03</pdfrwt>
<totfact> 0.10442485E+04</totfact>
</mgrwt>
</event>
<event>
 5    1  0.3312706E-002  0.1249979E+03  0.7818608E-02  0.1235073E+00
          4   -1    0    0  501    0  0.00000000000E+00  0.00000000000E+00  0.69087713717E+02  0.69099385573E+02  0.12700000000E+01 0.  1.
         -4   -1    0    0    0  501 -0.00000000000E+00 -0.00000000000E+00 -0.56514952717E+02  0.56529220591E+02  0.12700000000E+01 0.  1.
         25    2    1    2    0    0  0.00000000000E+00  0.00000000000E+00  0.12572760999E+02  0.12562860616E+03  0.12499788945E+03 0.  0.
    9000005    1    3    3    0    0  0.16043283353E+02 -0.57609110324E+02 -0.11941326171E+02  0.60990095949E+02  0.10000000000E+01 0.  0.
    9000005    1    3    3    0    0 -0.16043283353E+02  0.57609110324E+02  0.24514087170E+02  0.64638510216E+02  0.10000000000E+01 0.  0.
<mgrwt>
<rscale>  0 0.12499789E+03</rscale>
<asrwt>0</asrwt>
<pdfrwt beam="1">  1        4 0.10630874E-01 0.12499789E+03</pdfrwt>
<pdfrwt beam="2">  1       -4 0.86966036E-02 0.12499789E+03</pdfrwt>
<totfact> 0.10439613E+04</totfact>
</mgrwt>
</event>
<event>
 5    1  0.3312706E-002  0.1250024E+03  0.7818608E-02  0.1235066E+00
         -4   -1    0    0    0  501 -0.00000000000E+00  0.00000000000E+00  0.28641342000E+02  0.28669485024E+02  0.12700000000E+01 0.  1.
          4   -1    0    0  501    0  0.00000000000E+00 -0.00000000000E+00 -0.13629211024E+03  0.13629802719E+03  0.12700000000E+01 0.  1.
         25    2    1    2    0    0  0.00000000000E+00  0.00000000000E+00 -0.10765076825E+03  0.16496751221E+03  0.12500236870E+03 0.  0.
    9000005    1    3    3    0    0 -0.46623552692E+01 -0.56655945856E+02 -0.19569579230E+02  0.60129877671E+02  0.10000000000E+01 0.  0.
    9000005    1    3    3    0    0  0.46623552692E+01  0.56655945856E+02 -0.88081189015E+02  0.10483763454E+03  0.10000000000E+01 0.  0.
<mgrwt>
<rscale>  0 0.12500237E+03</rscale>
<asrwt>0</asrwt>
<pdfrwt beam="2">  1        4 0.20970637E-01 0.12500237E+03</pdfrwt>
<pdfrwt beam="1">  1       -4 0.44089804E-02 0.12500237E+03</pdfrwt>
<totfact> 0.96388416E+03</totfact>
</mgrwt>
</event>
<event>
 5    1  0.3312706E-002  0.1250022E+03  0.7818608E-02  0.1235066E+00
          4   -1    0    0  501    0  0.00000000000E+00  0.00000000000E+00  0.16804329625E+03  0.16804809524E+03  0.12700000000E+01 0. -1.
         -4   -1    0    0    0  501 -0.00000000000E+00 -0.00000000000E+00 -0.23223833548E+02  0.23258532728E+02  0.12700000000E+01 0. -1.
         25    2    1    2    0    0  0.00000000000E+00  0.00000000000E+00  0.14481946270E+03  0.19130662797E+03  0.12500219649E+03 0.  0.
    9000005    1    3    3    0    0 -0.13495329859E+02 -0.45535656371E+02  0.13457155186E+03  0.14270992432E+03  0.10000000000E+01 0.  0.
    9000005    1    3    3    0    0  0.13495329859E+02  0.45535656371E+02  0.10247910841E+02  0.48596703651E+02  0.10000000000E+01 0.  0.
<mgrwt>
<rscale>  0 0.12500220E+03</rscale>
<asrwt>0</asrwt>
<pdfrwt beam="1">  1        4 0.25855853E-01 0.12500220E+03</pdfrwt>
<pdfrwt beam="2">  1       -4 0.35759358E-02 0.12500220E+03</pdfrwt>
<totfact> 0.91615954E+03</totfact>
</mgrwt>
</event>
<event>
 5    1  0.3312706E-002  0.1249997E+03  0.7818608E-02  0.1235070E+00
         -4   -1    0    0    0  501 -0.00000000000E+00  0.00000000000E+00  0.58385549856E+02  0.58399360715E+02  0.12700000000E+01 0. -1.
          4   -1    0    0  501    0  0.00000000000E+00 -0.00000000000E+00 -0.66876355193E+02  0.66888412927E+02  0.12700000000E+01 0. -1.
         25    2    1    2    0    0  0.00000000000E+00  0.00000000000E+00 -0.84908053374E+01  0.12528777364E+03  0.12499972980E+03 0.  0.
    9000005    1    3    3    0    0 -0.29895926131E+02  0.38617632894E+02 -0.43324286035E+02  0.65292279253E+02  0.10000000000E+01 0.  0.
    9000005    1    3    3    0    0  0.29895926131E+02 -0.38617632894E+02  0.34833480698E+02  0.59995494390E+02  0.10000000000E+01 0.  0.
<mgrwt>
<rscale>  0 0.12499973E+03</rscale>
<asrwt>0</asrwt>
<pdfrwt beam="2">  1        4 0.10290660E-01 0.12499973E+03</pdfrwt>
<pdfrwt beam="1">  1       -4 0.89843822E-02 0.12499973E+03</pdfrwt>
<totfact> 0.10446679E+04</totfact>
</mgrwt>
</event>
<event>
 5    1  0.3312706E-002  0.1250018E+03  0.7818608E-02  0.1235067E+00
         -4   -1    0    0    0  501 -0.00000000000E+00  0.00000000000E+00  0.20824002776E+02  0.20862693776E+02  0.12700000000E+01 0. -1.
          4   -1    0    0  501    0  0.00000000000E+00 -0.00000000000E+00 -0.18737432784E+03  0.18737863174E+03  0.12700000000E+01 0. -1.
         25    2    1    2    0    0  0.00000000000E+00  0.00000000000E+00 -0.16655032506E+03  0.20824132552E+03  0.12500175549E+03 0.  0.
    9000005    1    3    3    0    0  0.11633563998E+01  0.40985043414E+02 -0.16184229491E+03  0.16695824509E+03  0.10000000000E+01 0.  0.
    9000005    1    3    3    0    0 -0.11633563998E+01 -0.40985043414E+02 -0.47080301555E+01  0.41283080429E+02  0.10000000000E+01 0.  0.
<mgrwt>
<rscale>  0 0.12500176E+03</rscale>
<asrwt>0</asrwt>
<pdfrwt beam="2">  1        4 0.28830126E-01 0.12500176E+03</pdfrwt>
<pdfrwt beam="1">  1       -4 0.32070002E-02 0.12500176E+03</pdfrwt>
<totfact> 0.88760419E+03</totfact>
</mgrwt>
</event>
<event>
 5    1  0.3312706E-002  0.1249954E+03  0.7818608E-02  0.1235076E+00
          4   -1    0    0  501    0  0.00000000000E+00  0.00000000000E+00  0.28192906664E+02  0.28221496880E+02  0.12700000000E+01 0. -1.
         -4   -1    0    0    0  501 -0.00000000000E+00 -0.00000000000E+00 -0.13844242049E+03  0.13844824553E+03  0.12700000000E+01 0. -1.
         25    2    1    2    0    0  0.00000000000E+00  0.00000000000E+00 -0.11024951382E+03  0.16666974241E+03  0.12499539086E+03 0.  0.
    9000005    1    3    3    0    0  0.15316582383E+02  0.60212678527E+02 -0.46200130277E+02  0.77431365666E+02  0.10000000000E+01 0.  0.
    9000005    1    3    3    0    0 -0.15316582383E+02 -0.60212678527E+02 -0.64049383546E+02  0.89238376744E+02  0.10000000000E+01 0.  0.
<mgrwt>
<rscale>  0 0.12499539E+03</rscale>
<asrwt>0</asrwt>
<pdfrwt beam="1">  1        4 0.43400177E-02 0.12499539E+03</pdfrwt>
<pdfrwt beam="2">  1       -4 0.21301481E-01 0.12499539E+03</pdfrwt>
<totfact> 0.96082048E+03</totfact>
</mgrwt>
</event>
<event>
 5    1  0.3312706E-002  0.1249993E+03  0.7818608E-02  0.1235070E+00
         -4   -1    0    0    0  501 -0.00000000000E+00  0.00000000000E+00  0.31295709975E+02  0.31321468082E+02  0.12700000000E+01 0. -1.
          4   -1    0    0  501    0  0.00000000000E+00 -0.00000000000E+00 -0.12473562062E+03  0.12474208573E+03  0.12700000000E+01 0. -1.
         25    2    1    2    0    0  0.00000000000E+00  0.00000000000E+00 -0.93439910649E+02  0.15606355381E+03  0.12499926370E+03 0.  0.
    9000005    1    3    3    0    0  0.25650227839E+01  0.94501062471E+01 -0.12377796250E+03  0.12416870721E+03  0.10000000000E+01 0.  0.
    9000005    1    3    3    0    0 -0.25650227839E+01 -0.94501062471E+01  0.30338051848E+02  0.31894846604E+02  0.10000000000E+01 0.  0.
<mgrwt>
<rscale>  0 0.12499926E+03</rscale>
<asrwt>0</asrwt>
<pdfrwt beam="2">  1        4 0.19192574E-01 0.12499926E+03</pdfrwt>
<pdfrwt beam="1">  1       -4 0.48172034E-02 0.12499926E+03</pdfrwt>
<totfact> 0.98108738E+03</totfact>
</mgrwt>
</event>
<event>
 5    1  0.3312706E-002  0.1250020E+03  0.7818608E-02  0.1235066E+00
         -4   -1    0    0    0  501 -0.00000000000E+00  0.00000000000E+00  0.26044050702E+02  0.26074997161E+02  0.12700000000E+01 0.  1.
          4   -1    0    0  501    0  0.00000000000E+00 -0.00000000000E+00 -0.14986833809E+03  0.14987371905E+03  0.12700000000E+01 0.  1.
         25    2    1    2    0    0  0.00000000000E+00  0.00000000000E+00 -0.12382428739E+03  0.17594871621E+03  0.12500198634E+03 0.  0.
    9000005    1    3    3    0    0 -0.30731215788E+02  0.53168213409E+02 -0.78212454819E+02  0.99445737111E+02  0.10000000000E+01 0.  0.
    9000005    1    3    3    0    0  0.30731215788E+02 -0.53168213409E+02 -0.45611832573E+02  0.76502979103E+02  0.10000000000E+01 0.  0.
<mgrwt>
<rscale>  0 0.12500199E+03</rscale>
<asrwt>0</asrwt>
<pdfrwt beam="2">  1        4 0.23059461E-01 0.12500199E+03</pdfrwt>
<pdfrwt beam="1">  1       -4 0.40095715E-02 0.12500199E+03</pdfrwt>
<totfact> 0.94347169E+03</totfact>
</mgrwt>
</event>
<event>
 5    1  0.3312706E-002  0.1250000E+03  0.7818608E-02  0.1235069E+00
          4   -1    0    0  501    0  0.00000000000E+00  0.00000000000E+00  0.40635866307E+01  0.42574213210E+01  0.12700000000E+01 0.  1.
         -4   -1    0    0    0  501 -0.00000000000E+00 -0.00000000000E+00 -0.93869434445E+03  0.93869520356E+03  0.12700000000E+01 0.  1.
         25    2    1    2    0    0  0.00000000000E+00  0.00000000000E+00 -0.93463075781E+03  0.94295262488E+03  0.12499999730E+03 0.  0.
    9000005    1    3    3    0    0  0.16265210788E+02  0.54037863977E+02 -0.26481417780E+03  0.27076225104E+03  0.10000000000E+01 0.  0.
    9000005    1    3    3    0    0 -0.16265210788E+02 -0.54037863977E+02 -0.66981658002E+03  0.67219037384E+03  0.10000000000E+01 0.  0.
<mgrwt>
<rscale>  0 0.12500000E+03</rscale>
<asrwt>0</asrwt>
<pdfrwt beam="1">  1        4 0.64014437E-03 0.12500000E+03</pdfrwt>
<pdfrwt beam="2">  1       -4 0.14442932E+00 0.12500000E+03</pdfrwt>
<totfact> 0.32567550E+03</totfact>
</mgrwt>
</event>
<event>
 5    1  0.3312706E-002  0.1250026E+03  0.7818608E-02  0.1235065E+00
         -4   -1    0    0    0  501 -0.00000000000E+00  0.00000000000E+00  0.10291421008E+02  0.10369486312E+02  0.12700000000E+01 0. -1.
          4   -1    0    0  501    0  0.00000000000E+00 -0.00000000000E+00 -0.37806593120E+03  0.37806806429E+03  0.12700000000E+01 0. -1.
         25    2    1    2    0    0  0.00000000000E+00  0.00000000000E+00 -0.36777451019E+03  0.38843755060E+03  0.12500256145E+03 0.  0.
    9000005    1    3    3    0    0 -0.46217434757E+02 -0.24252415678E+02 -0.29068453237E+03  0.29533494257E+03  0.10000000000E+01 0.  0.
    9000005    1    3    3    0    0  0.46217434757E+02  0.24252415678E+02 -0.77089977817E+02  0.93102608028E+02  0.10000000000E+01 0.  0.
<mgrwt>
<rscale>  0 0.12500256E+03</rscale>
<asrwt>0</asrwt>
<pdfrwt beam="2">  1        4 0.58170148E-01 0.12500256E+03</pdfrwt>
<pdfrwt beam="1">  1       -4 0.15894649E-02 0.12500256E+03</pdfrwt>
<totfact> 0.65689379E+03</totfact>
</mgrwt>
</event>
<event>
 5    1  0.3312706E-002  0.1249985E+03  0.7818608E-02  0.1235072E+00
          4   -1    0    0  501    0  0.00000000000E+00  0.00000000000E+00  0.23134575191E+03  0.23134923779E+03  0.12700000000E+01 0. -1.
         -4   -1    0    0    0  501 -0.00000000000E+00 -0.00000000000E+00 -0.16856984237E+02  0.16904757247E+02  0.12700000000E+01 0. -1.
         25    2    1    2    0    0  0.00000000000E+00  0.00000000000E+00  0.21448876767E+03  0.24825399504E+03  0.12499845837E+03 0.  0.
    9000005    1    3    3    0    0 -0.15989737472E+02  0.22818428964E+02 -0.38470512688E+01  0.28145198672E+02  0.10000000000E+01 0.  0.
    9000005    1    3    3    0    0  0.15989737472E+02 -0.22818428964E+02  0.21833581894E+03  0.22010879636E+03  0.10000000000E+01 0.  0.
<mgrwt>
<rscale>  0 0.12499846E+03</rscale>
<asrwt>0</asrwt>
<pdfrwt beam="1">  1        4 0.35595595E-01 0.12499846E+03</pdfrwt>
<pdfrwt beam="2">  1       -4 0.25973253E-02 0.12499846E+03</pdfrwt>
<totfact> 0.82586074E+03</totfact>
</mgrwt>
</event>
<event>
 5    1  0.3312706E-002  0.1250025E+03  0.7818608E-02  0.1235065E+00
          4   -1    0    0  501    0  0.00000000000E+00  0.00000000000E+00  0.40068632776E+01  0.42033145642E+01  0.12700000000E+01 0. -1.
         -4   -1    0    0    0  501 -0.00000000000E+00 -0.00000000000E+00 -0.95140471366E+03  0.95140556130E+03  0.12700000000E+01 0. -1.
         25    2    1    2    0    0  0.00000000000E+00  0.00000000000E+00 -0.94739785039E+03  0.95560887587E+03  0.12500254687E+03 0.  0.
    9000005    1    3    3    0    0  0.26884594184E+02  0.16955285814E+02 -0.62363084219E+02  0.70002981328E+02  0.10000000000E+01 0.  0.
    9000005    1    3    3    0    0 -0.26884594184E+02 -0.16955285814E+02 -0.88503476617E+03  0.88560589454E+03  0.10000000000E+01 0.  0.
<mgrwt>
<rscale>  0 0.12500255E+03</rscale>
<asrwt>0</asrwt>
<pdfrwt beam="1">  1        4 0.63161810E-03 0.12500255E+03</pdfrwt>
<pdfrwt beam="2">  1       -4 0.14638496E+00 0.12500255E+03</pdfrwt>
<totfact> 0.32115920E+03</totfact>
</mgrwt>
</event>
<event>
 5    1  0.3312706E-002  0.1249967E+03  0.7818608E-02  0.1235074E+00
          4   -1    0    0  501    0  0.00000000000E+00  0.00000000000E+00  0.91169703611E+01  0.92050012800E+01  0.12700000000E+01 0.  1.
         -4   -1    0    0    0  501 -0.00000000000E+00 -0.00000000000E+00 -0.42628895409E+03  0.42629084588E+03  0.12700000000E+01 0.  1.
         25    2    1    2    0    0  0.00000000000E+00  0.00000000000E+00 -0.41717198373E+03  0.43549584716E+03  0.12499667549E+03 0.  0.
    9000005    1    3    3    0    0  0.18354601443E+02  0.54852202375E+02 -0.12618325579E+03  0.13881235371E+03  0.10000000000E+01 0.  0.
    9000005    1    3    3    0    0 -0.18354601443E+02 -0.54852202375E+02 -0.29098872794E+03  0.29668349345E+03  0.10000000000E+01 0.  0.
<mgrwt>
<rscale>  0 0.12499668E+03</rscale>
<asrwt>0</asrwt>
<pdfrwt beam="1">  1        4 0.14095283E-02 0.12499668E+03</pdfrwt>
<pdfrwt beam="2">  1       -4 0.65589818E-01 0.12499668E+03</pdfrwt>
<totfact> 0.61245462E+03</totfact>
</mgrwt>
</event>
<event>
 5    1  0.3312706E-002  0.1250039E+03  0.7818608E-02  0.1235063E+00
         -4   -1    0    0    0  501 -0.00000000000E+00  0.00000000000E+00  0.95649868080E+02  0.95658298980E+02  0.12700000000E+01 0.  1.
          4   -1    0    0  501    0  0.00000000000E+00 -0.00000000000E+00 -0.40821516534E+02  0.40841267269E+02  0.12700000000E+01 0.  1.
         25    2    1    2    0    0  0.00000000000E+00  0.00000000000E+00  0.54828351546E+02  0.13649956625E+03  0.12500393375E+03 0.  0.
    9000005    1    3    3    0    0 -0.48032067551E+02 -0.25385579399E+02  0.61141291942E+02  0.81797094905E+02  0.10000000000E+01 0.  0.
    9000005    1    3    3    0    0  0.48032067551E+02  0.25385579399E+02 -0.63129403955E+01  0.54702471343E+02  0.10000000000E+01 0.  0.
<mgrwt>
<rscale>  0 0.12500393E+03</rscale>
<asrwt>0</asrwt>
<pdfrwt beam="2">  1        4 0.62824012E-02 0.12500393E+03</pdfrwt>
<pdfrwt beam="1">  1       -4 0.14717532E-01 0.12500393E+03</pdfrwt>
<totfact> 0.10205654E+04</totfact>
</mgrwt>
</event>
<event>
 5    1  0.3312706E-002  0.1249944E+03  0.7818608E-02  0.1235078E+00
         -4   -1    0    0    0  501 -0.00000000000E+00  0.00000000000E+00  0.66749558946E+03  0.66749679763E+03  0.12700000000E+01 0.  1.
          4   -1    0    0  501    0  0.00000000000E+00 -0.00000000000E+00 -0.57814349493E+01  0.59192812125E+01  0.12700000000E+01 0.  1.
         25    2    1    2    0    0  0.00000000000E+00  0.00000000000E+00  0.66171415451E+03  0.67341607884E+03  0.12499437174E+03 0.  0.
    9000005    1    3    3    0    0 -0.19073940677E+02  0.81841963406E+01  0.13305478434E+02  0.24674522064E+02  0.10000000000E+01 0.  0.
    9000005    1    3    3    0    0  0.19073940677E+02 -0.81841963406E+01  0.64840867607E+03  0.64874155678E+03  0.10000000000E+01 0.  0.
<mgrwt>
<rscale>  0 0.12499437E+03</rscale>
<asrwt>0</asrwt>
<pdfrwt beam="2">  1        4 0.90014818E-03 0.12499437E+03</pdfrwt>
<pdfrwt beam="1">  1       -4 0.10270231E+00 0.12499437E+03</pdfrwt>
<totfact> 0.44533154E+03</totfact>
</mgrwt>
</event>
<event>
 5    1  0.3312706E-002  0.1249939E+03  0.7818608E-02  0.1235079E+00
          4   -1    0    0  501    0  0.00000000000E+00  0.00000000000E+00  0.64698671903E+03  0.64698796550E+03  0.12700000000E+01 0.  1.
         -4   -1    0    0    0  501 -0.00000000000E+00 -0.00000000000E+00 -0.59689559684E+01  0.61025679310E+01  0.12700000000E+01 0.  1.
         25    2    1    2    0    0  0.00000000000E+00  0.00000000000E+00  0.64101776307E+03  0.65309053344E+03  0.12499388903E+03 0.  0.
    9000005    1    3    3    0    0  0.17196699196E+02 -0.55281265258E+02  0.19762480978E+03  0.20593278076E+03  0.10000000000E+01 0.  0.
    9000005    1    3    3    0    0 -0.17196699196E+02  0.55281265258E+02  0.44339295328E+03  0.44715775267E+03  0.10000000000E+01 0.  0.
<mgrwt>
<rscale>  0 0.12499389E+03</rscale>
<asrwt>0</asrwt>
<pdfrwt beam="1">  1        4 0.99546710E-01 0.12499389E+03</pdfrwt>
<pdfrwt beam="2">  1       -4 0.92867541E-03 0.12499389E+03</pdfrwt>
<totfact> 0.45685096E+03</totfact>
</mgrwt>
</event>
<event>
 5    1  0.3312706E-002  0.1249990E+03  0.7818608E-02  0.1235071E+00
          4   -1    0    0  501    0  0.00000000000E+00  0.00000000000E+00  0.15428832568E+02  0.15481013352E+02  0.12700000000E+01 0. -1.
         -4   -1    0    0    0  501 -0.00000000000E+00 -0.00000000000E+00 -0.25269339825E+03  0.25269658964E+03  0.12700000000E+01 0. -1.
         25    2    1    2    0    0  0.00000000000E+00  0.00000000000E+00 -0.23726456568E+03  0.26817760300E+03  0.12499901048E+03 0.  0.
    9000005    1    3    3    0    0 -0.10244431284E+02 -0.61637031748E+02 -0.12089884462E+03  0.13609409497E+03  0.10000000000E+01 0.  0.
    9000005    1    3    3    0    0  0.10244431284E+02  0.61637031748E+02 -0.11636572106E+03  0.13208350802E+03  0.10000000000E+01 0.  0.
<mgrwt>
<rscale>  0 0.12499901E+03</rscale>
<asrwt>0</asrwt>
<pdfrwt beam="1">  1        4 0.23779261E-02 0.12499901E+03</pdfrwt>
<pdfrwt beam="2">  1       -4 0.38880164E-01 0.12499901E+03</pdfrwt>
<totfact> 0.79773731E+03</totfact>
</mgrwt>
</event>
<event>
 5    1  0.3312706E-002  0.1249985E+03  0.7818608E-02  0.1235072E+00
          4   -1    0    0  501    0  0.00000000000E+00  0.00000000000E+00  0.64379950620E+02  0.64392475817E+02  0.12700000000E+01 0.  1.
         -4   -1    0    0    0  501 -0.00000000000E+00 -0.00000000000E+00 -0.60648426682E+02  0.60661722354E+02  0.12700000000E+01 0.  1.
         25    2    1    2    0    0  0.00000000000E+00  0.00000000000E+00  0.37315239386E+01  0.12505419817E+03  0.12499851283E+03 0.  0.
    9000005    1    3    3    0    0  0.52172502377E+02  0.38117648518E+01 -0.32335100221E+02  0.61506570884E+02  0.10000000000E+01 0.  0.
    9000005    1    3    3    0    0 -0.52172502377E+02 -0.38117648518E+01  0.36066624160E+02  0.63547627287E+02  0.10000000000E+01 0.  0.
<mgrwt>
<rscale>  0 0.12499851E+03</rscale>
<asrwt>0</asrwt>
<pdfrwt beam="1">  1        4 0.99065940E-02 0.12499851E+03</pdfrwt>
<pdfrwt beam="2">  1       -4 0.93325134E-02 0.12499851E+03</pdfrwt>
<totfact> 0.10452037E+04</totfact>
</mgrwt>
</event>
<event>
 5    1  0.3312706E-002  0.1249949E+03  0.7818608E-02  0.1235077E+00
          4   -1    0    0  501    0  0.00000000000E+00  0.00000000000E+00  0.48881653170E+02  0.48898148396E+02  0.12700000000E+01 0. -1.
         -4   -1    0    0    0  501 -0.00000000000E+00 -0.00000000000E+00 -0.79870788241E+02  0.79880884536E+02  0.12700000000E+01 0. -1.
         25    2    1    2    0    0  0.00000000000E+00  0.00000000000E+00 -0.30989135071E+02  0.12877903293E+03  0.12499485122E+03 0.  0.
    9000005    1    3    3    0    0  0.30847423937E+02  0.28385878776E+02  0.32250706839E+02  0.52900186853E+02  0.10000000000E+01 0.  0.
    9000005    1    3    3    0    0 -0.30847423937E+02 -0.28385878776E+02 -0.63239841911E+02  0.75878846080E+02  0.10000000000E+01 0.  0.
<mgrwt>
<rscale>  0 0.12499485E+03</rscale>
<asrwt>0</asrwt>
<pdfrwt beam="1">  1        4 0.75222998E-02 0.12499485E+03</pdfrwt>
<pdfrwt beam="2">  1       -4 0.12289859E-01 0.12499485E+03</pdfrwt>
<totfact> 0.10371903E+04</totfact>
</mgrwt>
</event>
<event>
 5    1  0.3312706E-002  0.1249941E+03  0.7818608E-02  0.1235078E+00
         -4   -1    0    0    0  501 -0.00000000000E+00  0.00000000000E+00  0.31179557671E+02  0.31205411656E+02  0.12700000000E+01 0.  1.
          4   -1    0    0  501    0  0.00000000000E+00 -0.00000000000E+00 -0.12518967916E+03  0.12519612082E+03  0.12700000000E+01 0.  1.
         25    2    1    2    0    0  0.00000000000E+00  0.00000000000E+00 -0.94010121485E+02  0.15640153247E+03  0.12499414553E+03 0.  0.
    9000005    1    3    3    0    0 -0.15553437854E+02  0.30573435116E+02  0.18352012745E+02  0.38915816009E+02  0.10000000000E+01 0.  0.
    9000005    1    3    3    0    0  0.15553437854E+02 -0.30573435116E+02 -0.11236213423E+03  0.11748571646E+03  0.10000000000E+01 0.  0.
<mgrwt>
<rscale>  0 0.12499415E+03</rscale>
<asrwt>0</asrwt>
<pdfrwt beam="2">  1        4 0.19262435E-01 0.12499415E+03</pdfrwt>
<pdfrwt beam="1">  1       -4 0.47993394E-02 0.12499415E+03</pdfrwt>
<totfact> 0.98053969E+03</totfact>
</mgrwt>
</event>
<event>
 5    1  0.3312706E-002  0.1249854E+03  0.7818608E-02  0.1235092E+00
         -4   -1    0    0    0  501 -0.00000000000E+00  0.00000000000E+00  0.27336892387E+01  0.30142920983E+01  0.12700000000E+01 0.  1.
          4   -1    0    0  501    0  0.00000000000E+00 -0.00000000000E+00 -0.13585740848E+04  0.13585746784E+04  0.12700000000E+01 0.  1.
         25    2    1    2    0    0  0.00000000000E+00  0.00000000000E+00 -0.13558403955E+04  0.13615889705E+04  0.12498538453E+03 0.  0.
    9000005    1    3    3    0    0  0.53340685204E+02 -0.15556913308E+02 -0.36651788671E+03  0.37070690245E+03  0.10000000000E+01 0.  0.
    9000005    1    3    3    0    0 -0.53340685204E+02  0.15556913308E+02 -0.98932250881E+03  0.99088206801E+03  0.10000000000E+01 0.  0.
<mgrwt>
<rscale>  0 0.12498538E+03</rscale>
<asrwt>0</asrwt>
<pdfrwt beam="2">  1        4 0.20903251E+00 0.12498538E+03</pdfrwt>
<pdfrwt beam="1">  1       -4 0.44219916E-03 0.12498538E+03</pdfrwt>
<totfact> 0.20826519E+03</totfact>
</mgrwt>
</event>
<event>
 5    1  0.3312706E-002  0.1249919E+03  0.7818608E-02  0.1235082E+00
         -4   -1    0    0    0  501 -0.00000000000E+00  0.00000000000E+00  0.65061956266E+02  0.65074350194E+02  0.12700000000E+01 0.  1.
          4   -1    0    0  501    0  0.00000000000E+00 -0.00000000000E+00 -0.60006326907E+02  0.60019764818E+02  0.12700000000E+01 0.  1.
         25    2    1    2    0    0  0.00000000000E+00  0.00000000000E+00  0.50556293591E+01  0.12509411501E+03  0.12499191263E+03 0.  0.
    9000005    1    3    3    0    0  0.25764313839E+02  0.23831671037E+02 -0.49215486324E+02  0.60455872388E+02  0.10000000000E+01 0.  0.
    9000005    1    3    3    0    0 -0.25764313839E+02 -0.23831671037E+02  0.54271115684E+02  0.64638242624E+02  0.10000000000E+01 0.  0.
<mgrwt>
<rscale>  0 0.12499191E+03</rscale>
<asrwt>0</asrwt>
<pdfrwt beam="2">  1        4 0.92337297E-02 0.12499191E+03</pdfrwt>
<pdfrwt beam="1">  1       -4 0.10011519E-01 0.12499191E+03</pdfrwt>
<totfact> 0.10452729E+04</totfact>
</mgrwt>
</event>
<event>
 5    1  0.3312706E-002  0.1250036E+03  0.7818608E-02  0.1235064E+00
          4   -1    0    0  501    0  0.00000000000E+00  0.00000000000E+00  0.11417105327E+03  0.11417811657E+03  0.12700000000E+01 0. -1.
         -4   -1    0    0    0  501 -0.00000000000E+00 -0.00000000000E+00 -0.34196100998E+02  0.34219675969E+02  0.12700000000E+01 0. -1.
         25    2    1    2    0    0  0.00000000000E+00  0.00000000000E+00  0.79974952271E+02  0.14839779254E+03  0.12500364731E+03 0.  0.
    9000005    1    3    3    0    0 -0.26208495268E+02  0.34319984021E+01  0.10721415390E+03  0.11042888496E+03  0.10000000000E+01 0.  0.
    9000005    1    3    3    0    0  0.26208495268E+02 -0.34319984021E+01 -0.27239201632E+02  0.37968907580E+02  0.10000000000E+01 0.  0.
<mgrwt>
<rscale>  0 0.12500365E+03</rscale>
<asrwt>0</asrwt>
<pdfrwt beam="1">  1        4 0.17567134E-01 0.12500365E+03</pdfrwt>
<pdfrwt beam="2">  1       -4 0.52632955E-02 0.12500365E+03</pdfrwt>
<totfact> 0.99615859E+03</totfact>
</mgrwt>
</event>
<event>
 5    1  0.3312706E-002  0.1249990E+03  0.7818608E-02  0.1235071E+00
         -4   -1    0    0    0  501 -0.00000000000E+00  0.00000000000E+00  0.30446230367E+03  0.30446495243E+03  0.12700000000E+01 0.  1.
          4   -1    0    0  501    0  0.00000000000E+00 -0.00000000000E+00 -0.12795657340E+02  0.12858528173E+02  0.12700000000E+01 0.  1.
         25    2    1    2    0    0  0.00000000000E+00  0.00000000000E+00  0.29166664633E+03  0.31732348060E+03  0.12499903503E+03 0.  0.
    9000005    1    3    3    0    0 -0.30384953953E+02 -0.52380611001E+02  0.10665183926E+03  0.12264823135E+03  0.10000000000E+01 0.  0.
    9000005    1    3    3    0    0  0.30384953953E+02  0.52380611001E+02  0.18501480707E+03  0.19467524925E+03  0.10000000000E+01 0.  0.
<mgrwt>
<rscale>  0 0.12499904E+03</rscale>
<asrwt>0</asrwt>
<pdfrwt beam="2">  1        4 0.19736026E-02 0.12499904E+03</pdfrwt>
<pdfrwt beam="1">  1       -4 0.46845395E-01 0.12499904E+03</pdfrwt>
<totfact> 0.73477166E+03</totfact>
</mgrwt>
</event>
<event>
 5    1  0.3312706E-002  0.1249951E+03  0.7818608E-02  0.1235077E+00
          4   -1    0    0  501    0  0.00000000000E+00  0.00000000000E+00  0.39650256486E+02  0.39670590359E+02  0.12700000000E+01 0.  1.
         -4   -1    0    0    0  501 -0.00000000000E+00 -0.00000000000E+00 -0.98460260213E+02  0.98468450486E+02  0.12700000000E+01 0.  1.
         25    2    1    2    0    0  0.00000000000E+00  0.00000000000E+00 -0.58810003727E+02  0.13813904084E+03  0.12499511217E+03 0.  0.
    9000005    1    3    3    0    0  0.30832404388E+01 -0.48687908006E+01 -0.98171372999E+02  0.98345462387E+02  0.10000000000E+01 0.  0.
    9000005    1    3    3    0    0 -0.30832404388E+01  0.48687908006E+01  0.39361369273E+02  0.39793578458E+02  0.10000000000E+01 0.  0.
<mgrwt>
<rscale>  0 0.12499511E+03</rscale>
<asrwt>0</asrwt>
<pdfrwt beam="1">  1        4 0.61022337E-02 0.12499511E+03</pdfrwt>
<pdfrwt beam="2">  1       -4 0.15149926E-01 0.12499511E+03</pdfrwt>
<totfact> 0.10173422E+04</totfact>
</mgrwt>
</event>
<event>
 5    1  0.3312706E-002  0.1249985E+03  0.7818608E-02  0.1235072E+00
         -4   -1    0    0    0  501 -0.00000000000E+00  0.00000000000E+00  0.30426129851E+02  0.30452623495E+02  0.12700000000E+01 0.  1.
          4   -1    0    0  501    0  0.00000000000E+00 -0.00000000000E+00 -0.12829604565E+03  0.12830233135E+03  0.12700000000E+01 0.  1.
         25    2    1    2    0    0  0.00000000000E+00  0.00000000000E+00 -0.97869915799E+02  0.15875495484E+03  0.12499846107E+03 0.  0.
    9000005    1    3    3    0    0 -0.13266606698E+02  0.45836360547E+02 -0.10018257768E+03  0.11097082352E+03  0.10000000000E+01 0.  0.
    9000005    1    3    3    0    0  0.13266606698E+02 -0.45836360547E+02  0.23126618836E+01  0.47784131324E+02  0.10000000000E+01 0.  0.
<mgrwt>
<rscale>  0 0.12499846E+03</rscale>
<asrwt>0</asrwt>
<pdfrwt beam="2">  1        4 0.19740374E-01 0.12499846E+03</pdfrwt>
<pdfrwt beam="1">  1       -4 0.46834646E-02 0.12499846E+03</pdfrwt>
<totfact> 0.97586734E+03</totfact>
</mgrwt>
</event>
<event>
 5    1  0.3312706E-002  0.1249988E+03  0.7818608E-02  0.1235071E+00
          4   -1    0    0  501    0  0.00000000000E+00  0.00000000000E+00  0.23696797854E+03  0.23697138171E+03  0.12700000000E+01 0.  1.
         -4   -1    0    0    0  501 -0.00000000000E+00 -0.00000000000E+00 -0.16455977612E+02  0.16504911365E+02  0.12700000000E+01 0.  1.
         25    2    1    2    0    0  0.00000000000E+00  0.00000000000E+00  0.22051200092E+03  0.25347629308E+03  0.12499875440E+03 0.  0.
    9000005    1    3    3    0    0  0.25644036293E+02 -0.56731238835E+02  0.99312835224E+02  0.11721812700E+03  0.10000000000E+01 0.  0.
    9000005    1    3    3    0    0 -0.25644036293E+02  0.56731238835E+02  0.12119916570E+03  0.13625816608E+03  0.10000000000E+01 0.  0.
<mgrwt>
<rscale>  0 0.12499875E+03</rscale>
<asrwt>0</asrwt>
<pdfrwt beam="1">  1        4 0.36460639E-01 0.12499875E+03</pdfrwt>
<pdfrwt beam="2">  1       -4 0.25357147E-02 0.12499875E+03</pdfrwt>
<totfact> 0.81832646E+03</totfact>
</mgrwt>
</event>
<event>
 5    1  0.3312706E-002  0.1249999E+03  0.7818608E-02  0.1235069E+00
          4   -1    0    0  501    0  0.00000000000E+00  0.00000000000E+00  0.10662626785E+04  0.10662634348E+04  0.12700000000E+01 0.  1.
         -4   -1    0    0    0  501 -0.00000000000E+00 -0.00000000000E+00 -0.35526474052E+01  0.37728243513E+01  0.12700000000E+01 0.  1.
         25    2    1    2    0    0  0.00000000000E+00  0.00000000000E+00  0.10627100311E+04  0.10700362592E+04  0.12499994312E+03 0.  0.
    9000005    1    3    3    0    0 -0.44932653996E+02 -0.26272803911E+02  0.82740295587E+03  0.82903911548E+03  0.10000000000E+01 0.  0.
    9000005    1    3    3    0    0  0.44932653996E+02  0.26272803911E+02  0.23530707521E+03  0.24099714368E+03  0.10000000000E+01 0.  0.
<mgrwt>
<rscale>  0 0.12499994E+03</rscale>
<asrwt>0</asrwt>
<pdfrwt beam="1">  1        4 0.16405750E+00 0.12499994E+03</pdfrwt>
<pdfrwt beam="2">  1       -4 0.56355570E-03 0.12499994E+03</pdfrwt>
<totfact> 0.28377334E+03</totfact>
</mgrwt>
</event>
<event>
 5    1  0.3312706E-002  0.1250053E+03  0.7818608E-02  0.1235061E+00
         -4   -1    0    0    0  501 -0.00000000000E+00  0.00000000000E+00  0.49849825763E+02  0.49866000728E+02  0.12700000000E+01 0.  1.
          4   -1    0    0  501    0  0.00000000000E+00 -0.00000000000E+00 -0.78332929687E+02  0.78343224170E+02  0.12700000000E+01 0.  1.
         25    2    1    2    0    0  0.00000000000E+00  0.00000000000E+00 -0.28483103924E+02  0.12820922490E+03  0.12500527245E+03 0.  0.
    9000005    1    3    3    0    0  0.56996574409E+02 -0.20138143763E+02  0.20212491658E+01  0.60491650472E+02  0.10000000000E+01 0.  0.
    9000005    1    3    3    0    0 -0.56996574409E+02  0.20138143763E+02 -0.30504353090E+02  0.67717574426E+02  0.10000000000E+01 0.  0.
<mgrwt>
<rscale>  0 0.12500527E+03</rscale>
<asrwt>0</asrwt>
<pdfrwt beam="2">  1        4 0.12053256E-01 0.12500527E+03</pdfrwt>
<pdfrwt beam="1">  1       -4 0.76712400E-02 0.12500527E+03</pdfrwt>
<totfact> 0.10381736E+04</totfact>
</mgrwt>
</event>
<event>
 5    1  0.3312706E-002  0.1250026E+03  0.7818608E-02  0.1235065E+00
         -4   -1    0    0    0  501 -0.00000000000E+00  0.00000000000E+00  0.21340024613E+02  0.21377781702E+02  0.12700000000E+01 0. -1.
          4   -1    0    0  501    0  0.00000000000E+00 -0.00000000000E+00 -0.18285394284E+03  0.18285835314E+03  0.12700000000E+01 0. -1.
         25    2    1    2    0    0  0.00000000000E+00  0.00000000000E+00 -0.16151391823E+03  0.20423613484E+03  0.12500261195E+03 0.  0.
    9000005    1    3    3    0    0  0.62132409475E+02  0.95522743278E+00 -0.91602665128E+02  0.11069506324E+03  0.10000000000E+01 0.  0.
    9000005    1    3    3    0    0 -0.62132409475E+02 -0.95522743278E+00 -0.69911253101E+02  0.93541071604E+02  0.10000000000E+01 0.  0.
<mgrwt>
<rscale>  0 0.12500261E+03</rscale>
<asrwt>0</asrwt>
<pdfrwt beam="2">  1        4 0.28134618E-01 0.12500261E+03</pdfrwt>
<pdfrwt beam="1">  1       -4 0.32863245E-02 0.12500261E+03</pdfrwt>
<totfact> 0.89420709E+03</totfact>
</mgrwt>
</event>
<event>
 5    1  0.3312706E-002  0.1249989E+03  0.7818608E-02  0.1235071E+00
         -4   -1    0    0    0  501 -0.00000000000E+00  0.00000000000E+00  0.14697058784E+03  0.14697607488E+03  0.12700000000E+01 0. -1.
          4   -1    0    0  501    0  0.00000000000E+00 -0.00000000000E+00 -0.26556818837E+02  0.26587168460E+02  0.12700000000E+01 0. -1.
         25    2    1    2    0    0  0.00000000000E+00  0.00000000000E+00  0.12041376900E+03  0.17356324334E+03  0.12499889470E+03 0.  0.
    9000005    1    3    3    0    0 -0.16092400965E+02  0.28705174030E+02  0.13397143046E+03  0.13795758973E+03  0.10000000000E+01 0.  0.
    9000005    1    3    3    0    0  0.16092400965E+02 -0.28705174030E+02 -0.13557661462E+02  0.35605653613E+02  0.10000000000E+01 0.  0.
<mgrwt>
<rscale>  0 0.12499889E+03</rscale>
<asrwt>0</asrwt>
<pdfrwt beam="2">  1        4 0.40884211E-02 0.12499889E+03</pdfrwt>
<pdfrwt beam="1">  1       -4 0.22613616E-01 0.12499889E+03</pdfrwt>
<totfact> 0.94790990E+03</totfact>
</mgrwt>
</event>
<event>
 5    1  0.3312706E-002  0.1250000E+03  0.7818608E-02  0.1235069E+00
         -4   -1    0    0    0  501 -0.00000000000E+00  0.00000000000E+00  0.29084512269E+03  0.29084789546E+03  0.12700000000E+01 0. -1.
          4   -1    0    0  501    0  0.00000000000E+00 -0.00000000000E+00 -0.13397815752E+02  0.13457873789E+02  0.12700000000E+01 0. -1.
         25    2    1    2    0    0  0.00000000000E+00  0.00000000000E+00  0.27744730693E+03  0.30430576924E+03  0.12499997228E+03 0.  0.
    9000005    1    3    3    0    0  0.17630420859E+02  0.25374030431E+02  0.64864651557E+01  0.31587139632E+02  0.10000000000E+01 0.  0.
    9000005    1    3    3    0    0 -0.17630420859E+02 -0.25374030431E+02  0.27096084178E+03  0.27271862961E+03  0.10000000000E+01 0.  0.
<mgrwt>
<rscale>  0 0.12499997E+03</rscale>
<asrwt>0</asrwt>
<pdfrwt beam="2">  1        4 0.20660355E-02 0.12499997E+03</pdfrwt>
<pdfrwt beam="1">  1       -4 0.44750239E-01 0.12499997E+03</pdfrwt>
<totfact> 0.75061929E+03</totfact>
</mgrwt>
</event>
<event>
 5    1  0.3312706E-002  0.1250000E+03  0.7818608E-02  0.1235069E+00
          4   -1    0    0  501    0  0.00000000000E+00  0.00000000000E+00  0.67658641433E+02  0.67670559777E+02  0.12700000000E+01 0. -1.
         -4   -1    0    0    0  501 -0.00000000000E+00 -0.00000000000E+00 -0.57710668085E+02  0.57724640413E+02  0.12700000000E+01 0. -1.
         25    2    1    2    0    0  0.00000000000E+00  0.00000000000E+00  0.99479733478E+01  0.12539520019E+03  0.12499997623E+03 0.  0.
    9000005    1    3    3    0    0 -0.76327496453E+01 -0.21544916017E+02 -0.53371805977E+02  0.58068855220E+02  0.10000000000E+01 0.  0.
    9000005    1    3    3    0    0  0.76327496453E+01  0.21544916017E+02  0.63319779325E+02  0.67326344970E+02  0.10000000000E+01 0.  0.
<mgrwt>
<rscale>  0 0.12499998E+03</rscale>
<asrwt>0</asrwt>
<pdfrwt beam="1">  1        4 0.10411013E-01 0.12499998E+03</pdfrwt>
<pdfrwt beam="2">  1       -4 0.88805559E-02 0.12499998E+03</pdfrwt>
<totfact> 0.10444279E+04</totfact>
</mgrwt>
</event>
<event>
 5    1  0.3312706E-002  0.1249985E+03  0.7818608E-02  0.1235072E+00
          4   -1    0    0  501    0  0.00000000000E+00  0.00000000000E+00  0.88777130035E+02  0.88786213554E+02  0.12700000000E+01 0. -1.
         -4   -1    0    0    0  501 -0.00000000000E+00 -0.00000000000E+00 -0.43979084546E+02  0.43997417850E+02  0.12700000000E+01 0. -1.
         25    2    1    2    0    0  0.00000000000E+00  0.00000000000E+00  0.44798045489E+02  0.13278363140E+03  0.12499851155E+03 0.  0.
    9000005    1    3    3    0    0  0.87811648497E+01  0.57618528148E+02 -0.15472038712E+01  0.58312927228E+02  0.10000000000E+01 0.  0.
    9000005    1    3    3    0    0 -0.87811648497E+01 -0.57618528148E+02  0.46345249360E+02  0.74470704175E+02  0.10000000000E+01 0.  0.
<mgrwt>
<rscale>  0 0.12499851E+03</rscale>
<asrwt>0</asrwt>
<pdfrwt beam="1">  1        4 0.13660129E-01 0.12499851E+03</pdfrwt>
<pdfrwt beam="2">  1       -4 0.67681221E-02 0.12499851E+03</pdfrwt>
<totfact> 0.10285346E+04</totfact>
</mgrwt>
</event>
<event>
 5    1  0.3312706E-002  0.1249976E+03  0.7818608E-02  0.1235073E+00
          4   -1    0    0  501    0  0.00000000000E+00  0.00000000000E+00  0.13801034402E+02  0.13859345243E+02  0.12700000000E+01 0.  1.
         -4   -1    0    0    0  501 -0.00000000000E+00 -0.00000000000E+00 -0.28237297393E+03  0.28237582989E+03  0.12700000000E+01 0.  1.
         25    2    1    2    0    0  0.00000000000E+00  0.00000000000E+00 -0.26857193952E+03  0.29623517513E+03  0.12499756911E+03 0.  0.
    9000005    1    3    3    0    0  0.83315607453E+01 -0.58012201329E+02 -0.18567940135E+03  0.19471176260E+03  0.10000000000E+01 0.  0.
    9000005    1    3    3    0    0 -0.83315607453E+01  0.58012201329E+02 -0.82892538171E+02  0.10152341253E+03  0.10000000000E+01 0.  0.
<mgrwt>
<rscale>  0 0.12499757E+03</rscale>
<asrwt>0</asrwt>
<pdfrwt beam="1">  1        4 0.21279414E-02 0.12499757E+03</pdfrwt>
<pdfrwt beam="2">  1       -4 0.43446697E-01 0.12499757E+03</pdfrwt>
<totfact> 0.76077640E+03</totfact>
</mgrwt>
</event>
<event>
 5    1  0.3312706E-002  0.1250178E+03  0.7818608E-02  0.1235042E+00
          4   -1    0    0  501    0  0.00000000000E+00  0.00000000000E+00  0.32178101226E+03  0.32178351846E+03  0.12700000000E+01 0. -1.
         -4   -1    0    0    0  501 -0.00000000000E+00 -0.00000000000E+00 -0.12107148525E+02  0.12173575704E+02  0.12700000000E+01 0. -1.
         25    2    1    2    0    0  0.00000000000E+00  0.00000000000E+00  0.30967386373E+03  0.33395709416E+03  0.12501775418E+03 0.  0.
    9000005    1    3    3    0    0 -0.31932878145E+02 -0.53269811091E+02  0.17353171988E+03  0.18431396932E+03  0.10000000000E+01 0.  0.
    9000005    1    3    3    0    0  0.31932878145E+02  0.53269811091E+02  0.13614214385E+03  0.14964312485E+03  0.10000000000E+01 0.  0.
<mgrwt>
<rscale>  0 0.12501775E+03</rscale>
<asrwt>0</asrwt>
<pdfrwt beam="1">  1        4 0.49510073E-01 0.12501775E+03</pdfrwt>
<pdfrwt beam="2">  1       -4 0.18679408E-02 0.12501775E+03</pdfrwt>
<totfact> 0.71498175E+03</totfact>
</mgrwt>
</event>
<event>
 5    1  0.3312706E-002  0.1249956E+03  0.7818608E-02  0.1235076E+00
          4   -1    0    0  501    0  0.00000000000E+00  0.00000000000E+00  0.71669765916E+02  0.71681017337E+02  0.12700000000E+01 0.  1.
         -4   -1    0    0    0  501 -0.00000000000E+00 -0.00000000000E+00 -0.54476724329E+02  0.54491525888E+02  0.12700000000E+01 0.  1.
         25    2    1    2    0    0  0.00000000000E+00  0.00000000000E+00  0.17193041587E+02  0.12617254323E+03  0.12499563986E+03 0.  0.
    9000005    1    3    3    0    0  0.51305555337E+02 -0.35665742419E+02  0.94241833943E+01  0.63199053975E+02  0.10000000000E+01 0.  0.
    9000005    1    3    3    0    0 -0.51305555337E+02  0.35665742419E+02  0.77688581930E+01  0.62973489250E+02  0.10000000000E+01 0.  0.
<mgrwt>
<rscale>  0 0.12499564E+03</rscale>
<asrwt>0</asrwt>
<pdfrwt beam="1">  1        4 0.11028122E-01 0.12499564E+03</pdfrwt>
<pdfrwt beam="2">  1       -4 0.83830386E-02 0.12499564E+03</pdfrwt>
<totfact> 0.10428205E+04</totfact>
</mgrwt>
</event>
<event>
 5    1  0.3312706E-002  0.1250020E+03  0.7818608E-02  0.1235066E+00
         -4   -1    0    0    0  501 -0.00000000000E+00  0.00000000000E+00  0.67185251463E+02  0.67197253770E+02  0.12700000000E+01 0.  1.
          4   -1    0    0  501    0  0.00000000000E+00 -0.00000000000E+00 -0.58119214525E+02  0.58133088659E+02  0.12700000000E+01 0.  1.
         25    2    1    2    0    0  0.00000000000E+00  0.00000000000E+00  0.90660369378E+01  0.12533034243E+03  0.12500200681E+03 0.  0.
    9000005    1    3    3    0    0 -0.60335953895E+02  0.16058439843E+02  0.18662192590E+01  0.62472262620E+02  0.10000000000E+01 0.  0.
    9000005    1    3    3    0    0  0.60335953895E+02 -0.16058439843E+02  0.71998176788E+01  0.62858079808E+02  0.10000000000E+01 0.  0.
<mgrwt>
<rscale>  0 0.12500201E+03</rscale>
<asrwt>0</asrwt>
<pdfrwt beam="2">  1        4 0.89434081E-02 0.12500201E+03</pdfrwt>
<pdfrwt beam="1">  1       -4 0.10338183E-01 0.12500201E+03</pdfrwt>
<totfact> 0.10445218E+04</totfact>
</mgrwt>
</event>
<event>
 5    1  0.3312706E-002  0.1250071E+03  0.7818608E-02  0.1235058E+00
         -4   -1    0    0    0  501 -0.00000000000E+00  0.00000000000E+00  0.16409478095E+03  0.16409969541E+03  0.12700000000E+01 0. -1.
          4   -1    0    0  501    0  0.00000000000E+00 -0.00000000000E+00 -0.23785349398E+02  0.23819230592E+02  0.12700000000E+01 0. -1.
         25    2    1    2    0    0  0.00000000000E+00  0.00000000000E+00  0.14030943155E+03  0.18791892600E+03  0.12500714447E+03 0.  0.
    9000005    1    3    3    0    0 -0.20564937194E+02  0.41377703557E+00  0.15886787114E+03  0.16019702973E+03  0.10000000000E+01 0.  0.
    9000005    1    3    3    0    0  0.20564937194E+02 -0.41377703557E+00 -0.18558439589E+02  0.27721896277E+02  0.10000000000E+01 0.  0.
<mgrwt>
<rscale>  0 0.12500714E+03</rscale>
<asrwt>0</asrwt>
<pdfrwt beam="2">  1        4 0.36622688E-02 0.12500714E+03</pdfrwt>
<pdfrwt beam="1">  1       -4 0.25248335E-01 0.12500714E+03</pdfrwt>
<totfact> 0.92195921E+03</totfact>
</mgrwt>
</event>
<event>
 5    1  0.3312706E-002  0.1250196E+03  0.7818608E-02  0.1235039E+00
          4   -1    0    0  501    0  0.00000000000E+00  0.00000000000E+00  0.39773820615E+02  0.39794091349E+02  0.12700000000E+01 0.  1.
         -4   -1    0    0    0  501 -0.00000000000E+00 -0.00000000000E+00 -0.98193036715E+02  0.98201249275E+02  0.12700000000E+01 0.  1.
         25    2    1    2    0    0  0.00000000000E+00  0.00000000000E+00 -0.58419216100E+02  0.13799534062E+03  0.12501963535E+03 0.  0.
    9000005    1    3    3    0    0 -0.38830755694E+02 -0.38818126394E+02 -0.62172143225E+02  0.82952094113E+02  0.10000000000E+01 0.  0.
    9000005    1    3    3    0    0  0.38830755694E+02  0.38818126394E+02  0.37529271250E+01  0.55043246511E+02  0.10000000000E+01 0.  0.
<mgrwt>
<rscale>  0 0.12501964E+03</rscale>
<asrwt>0</asrwt>
<pdfrwt beam="1">  1        4 0.61212404E-02 0.12501964E+03</pdfrwt>
<pdfrwt beam="2">  1       -4 0.15108812E-01 0.12501964E+03</pdfrwt>
<totfact> 0.10170803E+04</totfact>
</mgrwt>
</event>
<event>
 5    1  0.3312706E-002  0.1249979E+03  0.7818608E-02  0.1235073E+00
          4   -1    0    0  501    0  0.00000000000E+00  0.00000000000E+00  0.12310195730E+04  0.12310202281E+04  0.12700000000E+01 0. -1.
         -4   -1    0    0    0  501 -0.00000000000E+00 -0.00000000000E+00 -0.30453156425E+01  0.32995222931E+01  0.12700000000E+01 0. -1.
         25    2    1    2    0    0  0.00000000000E+00  0.00000000000E+00  0.12279742573E+04  0.12343197504E+04  0.12499787796E+03 0.  0.
    9000005    1    3    3    0    0  0.45658512227E+02 -0.35711225775E+02  0.38343269322E+03  0.38779069305E+03  0.10000000000E+01 0.  0.
    9000005    1    3    3    0    0 -0.45658512227E+02  0.35711225775E+02  0.84454156413E+03  0.84652905734E+03  0.10000000000E+01 0.  0.
<mgrwt>
<rscale>  0 0.12499788E+03</rscale>
<asrwt>0</asrwt>
<pdfrwt beam="1">  1        4 0.18940768E+00 0.12499788E+03</pdfrwt>
<pdfrwt beam="2">  1       -4 0.48811368E-03 0.12499788E+03</pdfrwt>
<totfact> 0.23832725E+03</totfact>
</mgrwt>
</event>
<event>
 5    1  0.3312706E-002  0.1249532E+03  0.7818608E-02  0.1235142E+00
          4   -1    0    0  501    0  0.00000000000E+00  0.00000000000E+00  0.12592407898E+03  0.12593048307E+03  0.12700000000E+01 0.  1.
         -4   -1    0    0    0  501 -0.00000000000E+00 -0.00000000000E+00 -0.30977261608E+02  0.31003284290E+02  0.12700000000E+01 0.  1.
         25    2    1    2    0    0  0.00000000000E+00  0.00000000000E+00  0.94946817372E+02  0.15693376736E+03  0.12495322809E+03 0.  0.
    9000005    1    3    3    0    0 -0.46858441803E+02  0.54382516533E+01  0.98906250528E+02  0.10958437180E+03  0.10000000000E+01 0.  0.
    9000005    1    3    3    0    0  0.46858441803E+02 -0.54382516533E+01 -0.39594331562E+01  0.47349395563E+02  0.10000000000E+01 0.  0.
<mgrwt>
<rscale>  0 0.12495323E+03</rscale>
<asrwt>0</asrwt>
<pdfrwt beam="1">  1        4 0.19375429E-01 0.12495323E+03</pdfrwt>
<pdfrwt beam="2">  1       -4 0.47682270E-02 0.12495323E+03</pdfrwt>
<totfact> 0.98040277E+03</totfact>
</mgrwt>
</event>
<event>
 5    1  0.3312706E-002  0.1249971E+03  0.7818608E-02  0.1235074E+00
         -4   -1    0    0    0  501 -0.00000000000E+00  0.00000000000E+00  0.98692501279E+02  0.98700672281E+02  0.12700000000E+01 0. -1.
          4   -1    0    0  501    0  0.00000000000E+00 -0.00000000000E+00 -0.39558183746E+02  0.39578564922E+02  0.12700000000E+01 0. -1.
         25    2    1    2    0    0  0.00000000000E+00  0.00000000000E+00  0.59134317533E+02  0.13827923720E+03  0.12499711969E+03 0.  0.
    9000005    1    3    3    0    0 -0.33357626905E+02  0.19907432373E+01  0.87983265667E+02  0.94120929494E+02  0.10000000000E+01 0.  0.
    9000005    1    3    3    0    0  0.33357626905E+02 -0.19907432373E+01 -0.28848948134E+02  0.44158307710E+02  0.10000000000E+01 0.  0.
<mgrwt>
<rscale>  0 0.12499712E+03</rscale>
<asrwt>0</asrwt>
<pdfrwt beam="2">  1        4 0.60880707E-02 0.12499712E+03</pdfrwt>
<pdfrwt beam="1">  1       -4 0.15185658E-01 0.12499712E+03</pdfrwt>
<totfact> 0.10170035E+04</totfact>
</mgrwt>
</event>
<event>
 5    1  0.3312706E-002  0.1250000E+03  0.7818608E-02  0.1235069E+00
          4   -1    0    0  501    0  0.00000000000E+00  0.00000000000E+00  0.46068813237E+02  0.46086315247E+02  0.12700000000E+01 0.  1.
         -4   -1    0    0    0  501 -0.00000000000E+00 -0.00000000000E+00 -0.84753296265E+02  0.84762810995E+02  0.12700000000E+01 0.  1.
         25    2    1    2    0    0  0.00000000000E+00  0.00000000000E+00 -0.38684483028E+02  0.13084912624E+03  0.12500001844E+03 0.  0.
    9000005    1    3    3    0    0 -0.59890750868E+01 -0.46907554240E+02 -0.62108098389E+02  0.78067941888E+02  0.10000000000E+01 0.  0.
    9000005    1    3    3    0    0  0.59890750868E+01  0.46907554240E+02  0.23423615360E+02  0.52781184353E+02  0.10000000000E+01 0.  0.
<mgrwt>
<rscale>  0 0.12500002E+03</rscale>
<asrwt>0</asrwt>
<pdfrwt beam="1">  1        4 0.70895879E-02 0.12500002E+03</pdfrwt>
<pdfrwt beam="2">  1       -4 0.13041047E-01 0.12500002E+03</pdfrwt>
<totfact> 0.10326321E+04</totfact>
</mgrwt>
</event>
<event>
 5    1  0.3312706E-002  0.1250107E+03  0.7818608E-02  0.1235052E+00
          4   -1    0    0  501    0  0.00000000000E+00  0.00000000000E+00  0.10098964596E+02  0.10178506075E+02  0.12700000000E+01 0.  1.
         -4   -1    0    0    0  501 -0.00000000000E+00 -0.00000000000E+00 -0.38526544670E+03  0.38526753993E+03  0.12700000000E+01 0.  1.
         25    2    1    2    0    0  0.00000000000E+00  0.00000000000E+00 -0.37516648210E+03  0.39544604600E+03  0.12501074355E+03 0.  0.
    9000005    1    3    3    0    0 -0.44964539187E+02 -0.22593031417E+02 -0.70341954350E+02  0.86494192837E+02  0.10000000000E+01 0.  0.
    9000005    1    3    3    0    0  0.44964539187E+02  0.22593031417E+02 -0.30482452776E+03  0.30895185317E+03  0.10000000000E+01 0.  0.
<mgrwt>
<rscale>  0 0.12501074E+03</rscale>
<asrwt>0</asrwt>
<pdfrwt beam="1">  1        4 0.15599668E-02 0.12501074E+03</pdfrwt>
<pdfrwt beam="2">  1       -4 0.59277875E-01 0.12501074E+03</pdfrwt>
<totfact> 0.64982712E+03</totfact>
</mgrwt>
</event>
<event>
 5    1  0.3312706E-002  0.1250080E+03  0.7818608E-02  0.1235057E+00
          4   -1    0    0  501    0  0.00000000000E+00  0.00000000000E+00  0.92922228088E+03  0.92922314876E+03  0.12700000000E+01 0. -1.
         -4   -1    0    0    0  501 -0.00000000000E+00 -0.00000000000E+00 -0.41075220641E+01  0.42993764091E+01  0.12700000000E+01 0. -1.
         25    2    1    2    0    0  0.00000000000E+00  0.00000000000E+00  0.92511475882E+03  0.93352252517E+03  0.12500795179E+03 0.  0.
    9000005    1    3    3    0    0 -0.44669176783E+02 -0.33222088193E+02  0.25045555551E+03  0.25656973279E+03  0.10000000000E+01 0.  0.
    9000005    1    3    3    0    0  0.44669176783E+02  0.33222088193E+02  0.67465920331E+03  0.67695279238E+03  0.10000000000E+01 0.  0.
<mgrwt>
<rscale>  0 0.12500795E+03</rscale>
<asrwt>0</asrwt>
<pdfrwt beam="1">  1        4 0.14297216E+00 0.12500795E+03</pdfrwt>
<pdfrwt beam="2">  1       -4 0.64675097E-03 0.12500795E+03</pdfrwt>
<totfact> 0.32902582E+03</totfact>
</mgrwt>
</event>
<event>
 5    1  0.3312706E-002  0.1249810E+03  0.7818608E-02  0.1235099E+00
          4   -1    0    0  501    0  0.00000000000E+00  0.00000000000E+00  0.18363905423E+02  0.18407767991E+02  0.12700000000E+01 0.  1.
         -4   -1    0    0    0  501 -0.00000000000E+00 -0.00000000000E+00 -0.21234946682E+03  0.21235326453E+03  0.12700000000E+01 0.  1.
         25    2    1    2    0    0  0.00000000000E+00  0.00000000000E+00 -0.19398556140E+03  0.23076103253E+03  0.12498102297E+03 0.  0.
    9000005    1    3    3    0    0 -0.48518002525E+02 -0.31751091318E+02 -0.13997533907E+03  0.15151311467E+03  0.10000000000E+01 0.  0.
    9000005    1    3    3    0    0  0.48518002525E+02  0.31751091318E+02 -0.54010222325E+02  0.79247917855E+02  0.10000000000E+01 0.  0.
<mgrwt>
<rscale>  0 0.12498102E+03</rscale>
<asrwt>0</asrwt>
<pdfrwt beam="1">  1        4 0.28288825E-02 0.12498102E+03</pdfrwt>
<pdfrwt beam="2">  1       -4 0.32672813E-01 0.12498102E+03</pdfrwt>
<totfact> 0.85228956E+03</totfact>
</mgrwt>
</event>
<event>
 4    1  0.3312706E-002  0.1249049E+03  0.7818608E-02  0.1235218E+00
          4   -1    0    0  501    0  0.00000000000E+00  0.00000000000E+00  0.97470027079E+01  0.98293927477E+01  0.12700000000E+01 0. -1.
         -4   -1    0    0    0  501 -0.00000000000E+00 -0.00000000000E+00 -0.39838732040E+03  0.39838934468E+03  0.12700000000E+01 0. -1.
    9000005    1    1    2    0    0 -0.58647969978E+02  0.20034793764E+02 -0.16935868541E+03  0.18034506277E+03  0.10000000000E+01 0.  0.
    9000005    1    1    2    0    0  0.58647969978E+02 -0.20034793764E+02 -0.21928163228E+03  0.22787367465E+03  0.10000000000E+01 0.  0.
<mgrwt>
<rscale>  0 0.12490493E+03</rscale>
<asrwt>0</asrwt>
<pdfrwt beam="1">  1        4 0.15060326E-02 0.12490493E+03</pdfrwt>
<pdfrwt beam="2">  1       -4 0.61296838E-01 0.12490493E+03</pdfrwt>
<totfact> 0.63895188E+03</totfact>
</mgrwt>
</event>
<event>
 5    1  0.3312706E-002  0.1250010E+03  0.7818608E-02  0.1235068E+00
          4   -1    0    0  501    0  0.00000000000E+00  0.00000000000E+00  0.98343129100E+03  0.98343211104E+03  0.12700000000E+01 0.  1.
         -4   -1    0    0    0  501 -0.00000000000E+00 -0.00000000000E+00 -0.38697663026E+01  0.40728357733E+01  0.12700000000E+01 0.  1.
         25    2    1    2    0    0  0.00000000000E+00  0.00000000000E+00  0.97956152470E+03  0.98750494681E+03  0.12500095722E+03 0.  0.
    9000005    1    3    3    0    0  0.32818307777E+02  0.12904898172E+02  0.89735630230E+03  0.89804950365E+03  0.10000000000E+01 0.  0.
    9000005    1    3    3    0    0 -0.32818307777E+02 -0.12904898172E+02  0.82205222397E+02  0.89455443163E+02  0.10000000000E+01 0.  0.
<mgrwt>
<rscale>  0 0.12500096E+03</rscale>
<asrwt>0</asrwt>
<pdfrwt beam="1">  1        4 0.15131300E+00 0.12500096E+03</pdfrwt>
<pdfrwt beam="2">  1       -4 0.61103169E-03 0.12500096E+03</pdfrwt>
<totfact> 0.31019981E+03</totfact>
</mgrwt>
</event>
<event>
 5    1  0.3312706E-002  0.1249988E+03  0.7818608E-02  0.1235071E+00
          4   -1    0    0  501    0  0.00000000000E+00  0.00000000000E+00  0.87993814102E+02  0.88002978474E+02  0.12700000000E+01 0.  1.
         -4   -1    0    0    0  501 -0.00000000000E+00 -0.00000000000E+00 -0.44370912158E+02  0.44389083632E+02  0.12700000000E+01 0.  1.
         25    2    1    2    0    0  0.00000000000E+00  0.00000000000E+00  0.43622901945E+02  0.13239206211E+03  0.12499880213E+03 0.  0.
    9000005    1    3    3    0    0 -0.81804455797E+01 -0.57703742417E+02 -0.20730352001E+01  0.58326143828E+02  0.10000000000E+01 0.  0.
    9000005    1    3    3    0    0  0.81804455797E+01  0.57703742417E+02  0.45695937145E+02  0.74065918278E+02  0.10000000000E+01 0.  0.
<mgrwt>
<rscale>  0 0.12499880E+03</rscale>
<asrwt>0</asrwt>
<pdfrwt beam="1">  1        4 0.13539612E-01 0.12499880E+03</pdfrwt>
<pdfrwt beam="2">  1       -4 0.68283970E-02 0.12499880E+03</pdfrwt>
<totfact> 0.10293615E+04</totfact>
</mgrwt>
</event>
<event>
 5    1  0.3312706E-002  0.1250063E+03  0.7818608E-02  0.1235059E+00
          4   -1    0    0  501    0  0.00000000000E+00  0.00000000000E+00  0.65791856074E+01  0.67006405109E+01  0.12700000000E+01 0.  1.
         -4   -1    0    0    0  501 -0.00000000000E+00 -0.00000000000E+00 -0.58823559418E+03  0.58823696515E+03  0.12700000000E+01 0.  1.
         25    2    1    2    0    0  0.00000000000E+00  0.00000000000E+00 -0.58165640858E+03  0.59493760566E+03  0.12500630779E+03 0.  0.
    9000005    1    3    3    0    0 -0.44985467646E+02  0.23294807705E+02 -0.11665591624E+03  0.12718468131E+03  0.10000000000E+01 0.  0.
    9000005    1    3    3    0    0  0.44985467646E+02 -0.23294807705E+02 -0.46500049233E+03  0.46775292435E+03  0.10000000000E+01 0.  0.
<mgrwt>
<rscale>  0 0.12500631E+03</rscale>
<asrwt>0</asrwt>
<pdfrwt beam="1">  1        4 0.10216310E-02 0.12500631E+03</pdfrwt>
<pdfrwt beam="2">  1       -4 0.90507190E-01 0.12500631E+03</pdfrwt>
<totfact> 0.49181943E+03</totfact>
</mgrwt>
</event>
<event>
 5    1  0.3312706E-002  0.1250067E+03  0.7818608E-02  0.1235059E+00
          4   -1    0    0  501    0  0.00000000000E+00  0.00000000000E+00  0.20627726563E+03  0.20628117513E+03  0.12700000000E+01 0.  1.
         -4   -1    0    0    0  501 -0.00000000000E+00 -0.00000000000E+00 -0.18913532838E+02  0.18956123665E+02  0.12700000000E+01 0.  1.
         25    2    1    2    0    0  0.00000000000E+00  0.00000000000E+00  0.18736373279E+03  0.22523729880E+03  0.12500668944E+03 0.  0.
    9000005    1    3    3    0    0 -0.22909638428E+02 -0.21585239711E+02  0.19096071894E+03  0.19354009994E+03  0.10000000000E+01 0.  0.
    9000005    1    3    3    0    0  0.22909638428E+02  0.21585239711E+02 -0.35969861504E+01  0.31697198861E+02  0.10000000000E+01 0.  0.
<mgrwt>
<rscale>  0 0.12500669E+03</rscale>
<asrwt>0</asrwt>
<pdfrwt beam="1">  1        4 0.31738539E-01 0.12500669E+03</pdfrwt>
<pdfrwt beam="2">  1       -4 0.29133514E-02 0.12500669E+03</pdfrwt>
<totfact> 0.86033475E+03</totfact>
</mgrwt>
</event>
<event>
 5    1  0.3312706E-002  0.1249962E+03  0.7818608E-02  0.1235075E+00
         -4   -1    0    0    0  501 -0.00000000000E+00  0.00000000000E+00  0.19385399992E+02  0.19426956346E+02  0.12700000000E+01 0. -1.
          4   -1    0    0  501    0  0.00000000000E+00 -0.00000000000E+00 -0.20123327092E+03  0.20123727842E+03  0.12700000000E+01 0. -1.
         25    2    1    2    0    0  0.00000000000E+00  0.00000000000E+00 -0.18184787093E+03  0.22066423477E+03  0.12499622532E+03 0.  0.
    9000005    1    3    3    0    0  0.53978728994E+02  0.70987266242E+01 -0.36772351397E+02  0.65706171177E+02  0.10000000000E+01 0.  0.
    9000005    1    3    3    0    0 -0.53978728994E+02 -0.70987266242E+01 -0.14507551953E+03  0.15495806359E+03  0.10000000000E+01 0.  0.
<mgrwt>
<rscale>  0 0.12499623E+03</rscale>
<asrwt>0</asrwt>
<pdfrwt beam="2">  1        4 0.30962468E-01 0.12499623E+03</pdfrwt>
<pdfrwt beam="1">  1       -4 0.29858743E-02 0.12499623E+03</pdfrwt>
<totfact> 0.86770668E+03</totfact>
</mgrwt>
</event>
<event>
 4    1  0.3312706E-002  0.1246880E+03  0.7818608E-02  0.1235558E+00
          4   -1    0    0  501    0  0.00000000000E+00  0.00000000000E+00  0.82681678770E+01  0.83651359847E+01  0.12700000000E+01 0.  1.
         -4   -1    0    0    0  501 -0.00000000000E+00 -0.00000000000E+00 -0.46725063938E+03  0.46725236533E+03  0.12700000000E+01 0.  1.
    9000005    1    1    2    0    0  0.19336092834E+02  0.25108097143E+02 -0.24733426777E+02  0.40212478515E+02  0.10000000000E+01 0.  0.
    9000005    1    1    2    0    0 -0.19336092834E+02 -0.25108097143E+02 -0.43424904473E+03  0.43540502280E+03  0.10000000000E+01 0.  0.
<mgrwt>
<rscale>  0 0.12468800E+03</rscale>
<asrwt>0</asrwt>
<pdfrwt beam="1">  1        4 0.12796180E-02 0.12468800E+03</pdfrwt>
<pdfrwt beam="2">  1       -4 0.71892285E-01 0.12468800E+03</pdfrwt>
<totfact> 0.58205768E+03</totfact>
</mgrwt>
</event>
<event>
 5    1  0.3312706E-002  0.1249995E+03  0.7818608E-02  0.1235070E+00
          4   -1    0    0  501    0  0.00000000000E+00  0.00000000000E+00  0.52400879206E+02  0.52416266955E+02  0.12700000000E+01 0.  1.
         -4   -1    0    0    0  501 -0.00000000000E+00 -0.00000000000E+00 -0.74513207869E+02  0.74524029996E+02  0.12700000000E+01 0.  1.
         25    2    1    2    0    0  0.00000000000E+00  0.00000000000E+00 -0.22112328663E+02  0.12694029695E+03  0.12499953564E+03 0.  0.
    9000005    1    3    3    0    0 -0.51201084605E+02  0.34501778416E+02 -0.12471489985E+01  0.61761469860E+02  0.10000000000E+01 0.  0.
    9000005    1    3    3    0    0  0.51201084605E+02 -0.34501778416E+02 -0.20865179665E+02  0.65178827092E+02  0.10000000000E+01 0.  0.
<mgrwt>
<rscale>  0 0.12499954E+03</rscale>
<asrwt>0</asrwt>
<pdfrwt beam="1">  1        4 0.80636898E-02 0.12499954E+03</pdfrwt>
<pdfrwt beam="2">  1       -4 0.11465587E-01 0.12499954E+03</pdfrwt>
<totfact> 0.10410552E+04</totfact>
</mgrwt>
</event>
<event>
 5    1  0.3312706E-002  0.1250002E+03  0.7818608E-02  0.1235069E+00
         -4   -1    0    0    0  501 -0.00000000000E+00  0.00000000000E+00  0.12012243141E+03  0.12012914479E+03  0.12700000000E+01 0.  1.
          4   -1    0    0  501    0  0.00000000000E+00 -0.00000000000E+00 -0.32498997632E+02  0.32523802777E+02  0.12700000000E+01 0.  1.
         25    2    1    2    0    0  0.00000000000E+00  0.00000000000E+00  0.87623433782E+02  0.15265294757E+03  0.12500022502E+03 0.  0.
    9000005    1    3    3    0    0 -0.16094664248E+02 -0.54239411977E+02  0.76221561915E+02  0.94929861106E+02  0.10000000000E+01 0.  0.
    9000005    1    3    3    0    0  0.16094664248E+02  0.54239411977E+02  0.11401871867E+02  0.57723086464E+02  0.10000000000E+01 0.  0.
<mgrwt>
<rscale>  0 0.12500023E+03</rscale>
<asrwt>0</asrwt>
<pdfrwt beam="2">  1        4 0.50022702E-02 0.12500023E+03</pdfrwt>
<pdfrwt beam="1">  1       -4 0.18482799E-01 0.12500023E+03</pdfrwt>
<totfact> 0.98776977E+03</totfact>
</mgrwt>
</event>
<event>
 5    1  0.3312706E-002  0.1250007E+03  0.7818608E-02  0.1235068E+00
          4   -1    0    0  501    0  0.00000000000E+00  0.00000000000E+00  0.11327985150E+04  0.11327992269E+04  0.12700000000E+01 0.  1.
         -4   -1    0    0    0  501 -0.00000000000E+00 -0.00000000000E+00 -0.33306875508E+01  0.35646008978E+01  0.12700000000E+01 0.  1.
         25    2    1    2    0    0  0.00000000000E+00  0.00000000000E+00  0.11294678275E+04  0.11363638278E+04  0.12500070362E+03 0.  0.
    9000005    1    3    3    0    0 -0.97658077878E+01 -0.61060407888E+02  0.48263909221E+03  0.48658528311E+03  0.10000000000E+01 0.  0.
    9000005    1    3    3    0    0  0.97658077878E+01  0.61060407888E+02  0.64682873525E+03  0.64977854470E+03  0.10000000000E+01 0.  0.
<mgrwt>
<rscale>  0 0.12500070E+03</rscale>
<asrwt>0</asrwt>
<pdfrwt beam="1">  1        4 0.17429460E+00 0.12500070E+03</pdfrwt>
<pdfrwt beam="2">  1       -4 0.53046201E-03 0.12500070E+03</pdfrwt>
<totfact> 0.26441255E+03</totfact>
</mgrwt>
</event>
<event>
 5    1  0.3312706E-002  0.1249952E+03  0.7818608E-02  0.1235077E+00
          4   -1    0    0  501    0  0.00000000000E+00  0.00000000000E+00  0.17482115932E+03  0.17482577225E+03  0.12700000000E+01 0.  1.
         -4   -1    0    0    0  501 -0.00000000000E+00 -0.00000000000E+00 -0.22319579796E+02  0.22355682550E+02  0.12700000000E+01 0.  1.
         25    2    1    2    0    0  0.00000000000E+00  0.00000000000E+00  0.15250157952E+03  0.19718145480E+03  0.12499517736E+03 0.  0.
    9000005    1    3    3    0    0  0.29616397914E+02 -0.47023501410E+02  0.12133034190E+03  0.13345558278E+03  0.10000000000E+01 0.  0.
    9000005    1    3    3    0    0 -0.29616397914E+02  0.47023501410E+02  0.31171237621E+02  0.63725872023E+02  0.10000000000E+01 0.  0.
<mgrwt>
<rscale>  0 0.12499518E+03</rscale>
<asrwt>0</asrwt>
<pdfrwt beam="1">  1        4 0.26898695E-01 0.12499518E+03</pdfrwt>
<pdfrwt beam="2">  1       -4 0.34369134E-02 0.12499518E+03</pdfrwt>
<totfact> 0.90622343E+03</totfact>
</mgrwt>
</event>
<event>
 5    1  0.3312706E-002  0.1250038E+03  0.7818608E-02  0.1235063E+00
         -4   -1    0    0    0  501 -0.00000000000E+00  0.00000000000E+00  0.12826460590E+03  0.12827089314E+03  0.12700000000E+01 0.  1.
          4   -1    0    0  501    0  0.00000000000E+00 -0.00000000000E+00 -0.30436216104E+02  0.30462700975E+02  0.12700000000E+01 0.  1.
         25    2    1    2    0    0  0.00000000000E+00  0.00000000000E+00  0.97828389801E+02  0.15873359412E+03  0.12500384014E+03 0.  0.
    9000005    1    3    3    0    0 -0.12145623681E+02 -0.16213739061E+02  0.12398560678E+03  0.12563372238E+03  0.10000000000E+01 0.  0.
    9000005    1    3    3    0    0  0.12145623681E+02  0.16213739061E+02 -0.26157216983E+02  0.33099871741E+02  0.10000000000E+01 0.  0.
<mgrwt>
<rscale>  0 0.12500384E+03</rscale>
<asrwt>0</asrwt>
<pdfrwt beam="2">  1        4 0.46850158E-02 0.12500384E+03</pdfrwt>
<pdfrwt beam="1">  1       -4 0.19735537E-01 0.12500384E+03</pdfrwt>
<totfact> 0.97579071E+03</totfact>
</mgrwt>
</event>
<event>
 5    1  0.3312706E-002  0.1250024E+03  0.7818608E-02  0.1235066E+00
         -4   -1    0    0    0  501 -0.00000000000E+00  0.00000000000E+00  0.78443267508E+03  0.78443370315E+03  0.12700000000E+01 0.  1.
          4   -1    0    0  501    0  0.00000000000E+00 -0.00000000000E+00 -0.48978871930E+01  0.50598615550E+01  0.12700000000E+01 0.  1.
         25    2    1    2    0    0  0.00000000000E+00  0.00000000000E+00  0.77953478789E+03  0.78949356470E+03  0.12500241270E+03 0.  0.
    9000005    1    3    3    0    0 -0.48989537810E+02 -0.18090420815E+01  0.63455382123E+03  0.63644544109E+03  0.10000000000E+01 0.  0.
    9000005    1    3    3    0    0  0.48989537810E+02  0.18090420815E+01  0.14498096666E+03  0.15304812361E+03  0.10000000000E+01 0.  0.
<mgrwt>
<rscale>  0 0.12500241E+03</rscale>
<asrwt>0</asrwt>
<pdfrwt beam="2">  1        4 0.76606032E-03 0.12500241E+03</pdfrwt>
<pdfrwt beam="1">  1       -4 0.12069440E+00 0.12500241E+03</pdfrwt>
<totfact> 0.38736071E+03</totfact>
</mgrwt>
</event>
<event>
 5    1  0.3312706E-002  0.1249907E+03  0.7818608E-02  0.1235084E+00
         -4   -1    0    0    0  501 -0.00000000000E+00  0.00000000000E+00  0.24762009944E+01  0.27828890320E+01  0.12700000000E+01 0.  1.
          4   -1    0    0  501    0  0.00000000000E+00 -0.00000000000E+00 -0.14849949091E+04  0.14849954521E+04  0.12700000000E+01 0.  1.
         25    2    1    2    0    0  0.00000000000E+00  0.00000000000E+00 -0.14825187081E+04  0.14877783412E+04  0.12499069027E+03 0.  0.
    9000005    1    3    3    0    0 -0.55044749227E+02  0.29532977208E+02 -0.76025592918E+03  0.76281858854E+03  0.10000000000E+01 0.  0.
    9000005    1    3    3    0    0  0.55044749227E+02 -0.29532977208E+02 -0.72226277887E+03  0.72495975261E+03  0.10000000000E+01 0.  0.
<mgrwt>
<rscale>  0 0.12499069E+03</rscale>
<asrwt>0</asrwt>
<pdfrwt beam="2">  1        4 0.22848372E+00 0.12499069E+03</pdfrwt>
<pdfrwt beam="1">  1       -4 0.40458835E-03 0.12499069E+03</pdfrwt>
<totfact> 0.18175757E+03</totfact>
</mgrwt>
</event>
<event>
 5    1  0.3312706E-002  0.1250239E+03  0.7818608E-02  0.1235032E+00
         -4   -1    0    0    0  501 -0.00000000000E+00  0.00000000000E+00  0.62597460846E+01  0.63872780622E+01  0.12700000000E+01 0.  1.
          4   -1    0    0  501    0  0.00000000000E+00 -0.00000000000E+00 -0.61784256358E+03  0.61784386884E+03  0.12700000000E+01 0.  1.
         25    2    1    2    0    0  0.00000000000E+00  0.00000000000E+00 -0.61158281749E+03  0.62423114691E+03  0.12502392617E+03 0.  0.
    9000005    1    3    3    0    0 -0.22491515105E+02 -0.47194504882E+02 -0.13474884086E+03  0.14453871335E+03  0.10000000000E+01 0.  0.
    9000005    1    3    3    0    0  0.22491515105E+02  0.47194504882E+02 -0.47683397663E+03  0.47969243356E+03  0.10000000000E+01 0.  0.
<mgrwt>
<rscale>  0 0.12502393E+03</rscale>
<asrwt>0</asrwt>
<pdfrwt beam="2">  1        4 0.95062565E-01 0.12502393E+03</pdfrwt>
<pdfrwt beam="1">  1       -4 0.97294890E-03 0.12502393E+03</pdfrwt>
<totfact> 0.47348129E+03</totfact>
</mgrwt>
</event>
<event>
 5    1  0.3312706E-002  0.1250007E+03  0.7818608E-02  0.1235068E+00
          4   -1    0    0  501    0  0.00000000000E+00  0.00000000000E+00  0.11868737369E+03  0.11869416824E+03  0.12700000000E+01 0.  1.
         -4   -1    0    0    0  501 -0.00000000000E+00 -0.00000000000E+00 -0.32892449134E+02  0.32916957789E+02  0.12700000000E+01 0.  1.
         25    2    1    2    0    0  0.00000000000E+00  0.00000000000E+00  0.85794924559E+02  0.15161112603E+03  0.12500065782E+03 0.  0.
    9000005    1    3    3    0    0 -0.23554553624E+02  0.38150645390E+02 -0.99012893180E+01  0.45927380398E+02  0.10000000000E+01 0.  0.
    9000005    1    3    3    0    0  0.23554553624E+02 -0.38150645390E+02  0.95696213877E+02  0.10568374563E+03  0.10000000000E+01 0.  0.
<mgrwt>
<rscale>  0 0.12500066E+03</rscale>
<asrwt>0</asrwt>
<pdfrwt beam="1">  1        4 0.18262004E-01 0.12500066E+03</pdfrwt>
<pdfrwt beam="2">  1       -4 0.50627847E-02 0.12500066E+03</pdfrwt>
<totfact> 0.98982044E+03</totfact>
</mgrwt>
</event>
<event>
 5    1  0.3312706E-002  0.1250006E+03  0.7818608E-02  0.1235068E+00
          4   -1    0    0  501    0  0.00000000000E+00  0.00000000000E+00  0.37472382424E+02  0.37493897431E+02  0.12700000000E+01 0.  1.
         -4   -1    0    0    0  501 -0.00000000000E+00 -0.00000000000E+00 -0.10418913336E+03  0.10419687332E+03  0.12700000000E+01 0.  1.
         25    2    1    2    0    0  0.00000000000E+00  0.00000000000E+00 -0.66716750937E+02  0.14169077075E+03  0.12500059864E+03 0.  0.
    9000005    1    3    3    0    0 -0.18621528067E+02 -0.59390411085E+02 -0.27016210049E+02  0.67859102866E+02  0.10000000000E+01 0.  0.
    9000005    1    3    3    0    0  0.18621528067E+02  0.59390411085E+02 -0.39700540887E+02  0.73831667888E+02  0.10000000000E+01 0.  0.
<mgrwt>
<rscale>  0 0.12500060E+03</rscale>
<asrwt>0</asrwt>
<pdfrwt beam="1">  1        4 0.57672323E-02 0.12500060E+03</pdfrwt>
<pdfrwt beam="2">  1       -4 0.16031348E-01 0.12500060E+03</pdfrwt>
<totfact> 0.10098527E+04</totfact>
</mgrwt>
</event>
<event>
 5    1  0.3312706E-002  0.1249944E+03  0.7818608E-02  0.1235078E+00
         -4   -1    0    0    0  501 -0.00000000000E+00  0.00000000000E+00  0.94617212545E+01  0.95465736836E+01  0.12700000000E+01 0. -1.
          4   -1    0    0  501    0  0.00000000000E+00 -0.00000000000E+00 -0.41088206893E+03  0.41088403166E+03  0.12700000000E+01 0. -1.
         25    2    1    2    0    0  0.00000000000E+00  0.00000000000E+00 -0.40142034768E+03  0.42043060534E+03  0.12499439338E+03 0.  0.
    9000005    1    3    3    0    0  0.52345830672E+01 -0.39969029168E+02 -0.36131880269E+03  0.36356182600E+03  0.10000000000E+01 0.  0.
    9000005    1    3    3    0    0 -0.52345830672E+01  0.39969029168E+02 -0.40101544994E+02  0.56868779338E+02  0.10000000000E+01 0.  0.
<mgrwt>
<rscale>  0 0.12499439E+03</rscale>
<asrwt>0</asrwt>
<pdfrwt beam="2">  1        4 0.63219290E-01 0.12499439E+03</pdfrwt>
<pdfrwt beam="1">  1       -4 0.14623278E-02 0.12499439E+03</pdfrwt>
<totfact> 0.62620831E+03</totfact>
</mgrwt>
</event>
<event>
 5    1  0.3312706E-002  0.1249899E+03  0.7818608E-02  0.1235085E+00
          4   -1    0    0  501    0  0.00000000000E+00  0.00000000000E+00  0.13601318920E+03  0.13601911827E+03  0.12700000000E+01 0. -1.
         -4   -1    0    0    0  501 -0.00000000000E+00 -0.00000000000E+00 -0.28694377988E+02  0.28722469047E+02  0.12700000000E+01 0. -1.
         25    2    1    2    0    0  0.00000000000E+00  0.00000000000E+00  0.10731881121E+03  0.16474158732E+03  0.12498985300E+03 0.  0.
    9000005    1    3    3    0    0  0.41127495232E+02 -0.27259086172E+02  0.10419530930E+03  0.11529176520E+03  0.10000000000E+01 0.  0.
    9000005    1    3    3    0    0 -0.41127495232E+02  0.27259086172E+02  0.31235019049E+01  0.49449822115E+02  0.10000000000E+01 0.  0.
<mgrwt>
<rscale>  0 0.12498985E+03</rscale>
<asrwt>0</asrwt>
<pdfrwt beam="1">  1        4 0.20927723E-01 0.12498985E+03</pdfrwt>
<pdfrwt beam="2">  1       -4 0.44171366E-02 0.12498985E+03</pdfrwt>
<totfact> 0.96458340E+03</totfact>
</mgrwt>
</event>
<event>
 5    1  0.3312706E-002  0.1250016E+03  0.7818608E-02  0.1235067E+00
          4   -1    0    0  501    0  0.00000000000E+00  0.00000000000E+00  0.18240740741E+03  0.18241182851E+03  0.12700000000E+01 0.  1.
         -4   -1    0    0    0  501 -0.00000000000E+00 -0.00000000000E+00 -0.21392002106E+02  0.21429667615E+02  0.12700000000E+01 0.  1.
         25    2    1    2    0    0  0.00000000000E+00  0.00000000000E+00  0.16101540531E+03  0.20384149612E+03  0.12500157917E+03 0.  0.
    9000005    1    3    3    0    0  0.28687167323E+02  0.36362345152E+02  0.12092121414E+02  0.47878942284E+02  0.10000000000E+01 0.  0.
    9000005    1    3    3    0    0 -0.28687167323E+02 -0.36362345152E+02  0.14892328389E+03  0.15596255384E+03  0.10000000000E+01 0.  0.
<mgrwt>
<rscale>  0 0.12500158E+03</rscale>
<asrwt>0</asrwt>
<pdfrwt beam="1">  1        4 0.28065915E-01 0.12500158E+03</pdfrwt>
<pdfrwt beam="2">  1       -4 0.32943148E-02 0.12500158E+03</pdfrwt>
<totfact> 0.89488466E+03</totfact>
</mgrwt>
</event>
<event>
 5    1  0.3312706E-002  0.1250009E+03  0.7818608E-02  0.1235068E+00
          4   -1    0    0  501    0  0.00000000000E+00  0.00000000000E+00  0.53868189889E+02  0.53883158611E+02  0.12700000000E+01 0. -1.
         -4   -1    0    0    0  501 -0.00000000000E+00 -0.00000000000E+00 -0.72485393293E+02  0.72496518129E+02  0.12700000000E+01 0. -1.
         25    2    1    2    0    0  0.00000000000E+00  0.00000000000E+00 -0.18617203404E+02  0.12637967674E+03  0.12500088972E+03 0.  0.
    9000005    1    3    3    0    0  0.24443239786E+01  0.23476745562E+02  0.49193046346E+02  0.54571861895E+02  0.10000000000E+01 0.  0.
    9000005    1    3    3    0    0 -0.24443239786E+01 -0.23476745562E+02 -0.67810249750E+02  0.71807814846E+02  0.10000000000E+01 0.  0.
<mgrwt>
<rscale>  0 0.12500089E+03</rscale>
<asrwt>0</asrwt>
<pdfrwt beam="1">  1        4 0.82894210E-02 0.12500089E+03</pdfrwt>
<pdfrwt beam="2">  1       -4 0.11153606E-01 0.12500089E+03</pdfrwt>
<totfact> 0.10422444E+04</totfact>
</mgrwt>
</event>
<event>
 5    1  0.3312706E-002  0.1250095E+03  0.7818608E-02  0.1235054E+00
         -4   -1    0    0    0  501 -0.00000000000E+00  0.00000000000E+00  0.47835900529E+02  0.47852756236E+02  0.12700000000E+01 0. -1.
          4   -1    0    0  501    0  0.00000000000E+00 -0.00000000000E+00 -0.81635652735E+02  0.81645530786E+02  0.12700000000E+01 0. -1.
         25    2    1    2    0    0  0.00000000000E+00  0.00000000000E+00 -0.33799752206E+02  0.12949828702E+03  0.12500953201E+03 0.  0.
    9000005    1    3    3    0    0  0.33413715537E+02 -0.48605847169E+02 -0.38301856545E+02  0.70335175978E+02  0.10000000000E+01 0.  0.
    9000005    1    3    3    0    0 -0.33413715537E+02  0.48605847169E+02  0.45021043390E+01  0.59163111045E+02  0.10000000000E+01 0.  0.
<mgrwt>
<rscale>  0 0.12500953E+03</rscale>
<asrwt>0</asrwt>
<pdfrwt beam="2">  1        4 0.12561388E-01 0.12500953E+03</pdfrwt>
<pdfrwt beam="1">  1       -4 0.73614257E-02 0.12500953E+03</pdfrwt>
<totfact> 0.10353024E+04</totfact>
</mgrwt>
</event>
<event>
 5    1  0.3312706E-002  0.1249996E+03  0.7818608E-02  0.1235070E+00
         -4   -1    0    0    0  501 -0.00000000000E+00  0.00000000000E+00  0.10356736887E+02  0.10434313535E+02  0.12700000000E+01 0.  1.
          4   -1    0    0  501    0  0.00000000000E+00 -0.00000000000E+00 -0.37568134055E+03  0.37568348718E+03  0.12700000000E+01 0.  1.
         25    2    1    2    0    0  0.00000000000E+00  0.00000000000E+00 -0.36532460367E+03  0.38611780071E+03  0.12499955994E+03 0.  0.
    9000005    1    3    3    0    0 -0.38487914702E+02 -0.49227677467E+02 -0.18492945331E+03  0.19520396130E+03  0.10000000000E+01 0.  0.
    9000005    1    3    3    0    0  0.38487914702E+02  0.49227677467E+02 -0.18039515036E+03  0.19091383942E+03  0.10000000000E+01 0.  0.
<mgrwt>
<rscale>  0 0.12499956E+03</rscale>
<asrwt>0</asrwt>
<pdfrwt beam="2">  1        4 0.57803251E-01 0.12499956E+03</pdfrwt>
<pdfrwt beam="1">  1       -4 0.15994770E-02 0.12499956E+03</pdfrwt>
<totfact> 0.65926372E+03</totfact>
</mgrwt>
</event>
<event>
 5    1  0.3312706E-002  0.1249991E+03  0.7818608E-02  0.1235071E+00
          4   -1    0    0  501    0  0.00000000000E+00  0.00000000000E+00  0.80138707670E+01  0.81138785220E+01  0.12700000000E+01 0.  1.
         -4   -1    0    0    0  501 -0.00000000000E+00 -0.00000000000E+00 -0.48430563725E+03  0.48430730242E+03  0.12700000000E+01 0.  1.
         25    2    1    2    0    0  0.00000000000E+00  0.00000000000E+00 -0.47629176648E+03  0.49242118094E+03  0.12499909046E+03 0.  0.
    9000005    1    3    3    0    0  0.21417998082E+02 -0.52914514027E+02 -0.13798001681E+03  0.14932568927E+03  0.10000000000E+01 0.  0.
    9000005    1    3    3    0    0 -0.21417998082E+02  0.52914514027E+02 -0.33831174967E+03  0.34309549167E+03  0.10000000000E+01 0.  0.
<mgrwt>
<rscale>  0 0.12499909E+03</rscale>
<asrwt>0</asrwt>
<pdfrwt beam="1">  1        4 0.12407246E-02 0.12499909E+03</pdfrwt>
<pdfrwt beam="2">  1       -4 0.74516358E-01 0.12499909E+03</pdfrwt>
<totfact> 0.56458361E+03</totfact>
</mgrwt>
</event>
<event>
 5    1  0.3312706E-002  0.1249995E+03  0.7818608E-02  0.1235070E+00
          4   -1    0    0  501    0  0.00000000000E+00  0.00000000000E+00  0.42974427031E+02  0.42993188747E+02  0.12700000000E+01 0.  1.
         -4   -1    0    0    0  501 -0.00000000000E+00 -0.00000000000E+00 -0.90853295838E+02  0.90862171802E+02  0.12700000000E+01 0.  1.
         25    2    1    2    0    0  0.00000000000E+00  0.00000000000E+00 -0.47878868807E+02  0.13385536055E+03  0.12499948588E+03 0.  0.
    9000005    1    3    3    0    0 -0.15799899529E+02  0.12176211517E+02 -0.87357836315E+02  0.89611877101E+02  0.10000000000E+01 0.  0.
    9000005    1    3    3    0    0  0.15799899529E+02 -0.12176211517E+02  0.39478967508E+02  0.44243483447E+02  0.10000000000E+01 0.  0.
<mgrwt>
<rscale>  0 0.12499949E+03</rscale>
<asrwt>0</asrwt>
<pdfrwt beam="1">  1        4 0.66135763E-02 0.12499949E+03</pdfrwt>
<pdfrwt beam="2">  1       -4 0.13979556E-01 0.12499949E+03</pdfrwt>
<totfact> 0.10262373E+04</totfact>
</mgrwt>
</event>
<event>
 5    1  0.3312706E-002  0.1249985E+03  0.7818608E-02  0.1235072E+00
         -4   -1    0    0    0  501 -0.00000000000E+00  0.00000000000E+00  0.13788485671E+02  0.13846849357E+02  0.12700000000E+01 0. -1.
          4   -1    0    0  501    0  0.00000000000E+00 -0.00000000000E+00 -0.28263328337E+03  0.28263613670E+03  0.12700000000E+01 0. -1.
         25    2    1    2    0    0  0.00000000000E+00  0.00000000000E+00 -0.26884479770E+03  0.29648298605E+03  0.12499854308E+03 0.  0.
    9000005    1    3    3    0    0  0.55693125223E+02  0.91462262430E+01 -0.70787537529E+02  0.90538683009E+02  0.10000000000E+01 0.  0.
    9000005    1    3    3    0    0 -0.55693125223E+02 -0.91462262430E+01 -0.19805726017E+03  0.20594430304E+03  0.10000000000E+01 0.  0.
<mgrwt>
<rscale>  0 0.12499854E+03</rscale>
<asrwt>0</asrwt>
<pdfrwt beam="2">  1        4 0.43486748E-01 0.12499854E+03</pdfrwt>
<pdfrwt beam="1">  1       -4 0.21260147E-02 0.12499854E+03</pdfrwt>
<totfact> 0.76044597E+03</totfact>
</mgrwt>
</event>
<event>
 5    1  0.3312706E-002  0.1249947E+03  0.7818608E-02  0.1235078E+00
          4   -1    0    0  501    0  0.00000000000E+00  0.00000000000E+00  0.19510828156E+03  0.19511241486E+03  0.12700000000E+01 0.  1.
         -4   -1    0    0    0  501 -0.00000000000E+00 -0.00000000000E+00 -0.19994730393E+02  0.20035022922E+02  0.12700000000E+01 0.  1.
         25    2    1    2    0    0  0.00000000000E+00  0.00000000000E+00  0.17511355117E+03  0.21514743778E+03  0.12499465662E+03 0.  0.
    9000005    1    3    3    0    0  0.39358446220E+02 -0.48041062402E+02  0.75645868408E+02  0.97879151880E+02  0.10000000000E+01 0.  0.
    9000005    1    3    3    0    0 -0.39358446220E+02  0.48041062402E+02  0.99467682758E+02  0.11726828590E+03  0.10000000000E+01 0.  0.
<mgrwt>
<rscale>  0 0.12499466E+03</rscale>
<asrwt>0</asrwt>
<pdfrwt beam="1">  1        4 0.30020074E-01 0.12499466E+03</pdfrwt>
<pdfrwt beam="2">  1       -4 0.30795300E-02 0.12499466E+03</pdfrwt>
<totfact> 0.87652544E+03</totfact>
</mgrwt>
</event>
<event>
 5    1  0.3312706E-002  0.1249969E+03  0.7818608E-02  0.1235074E+00
         -4   -1    0    0    0  501 -0.00000000000E+00  0.00000000000E+00  0.69380132192E+02  0.69391754863E+02  0.12700000000E+01 0. -1.
          4   -1    0    0  501    0  0.00000000000E+00 -0.00000000000E+00 -0.56275804058E+02  0.56290132549E+02  0.12700000000E+01 0. -1.
         25    2    1    2    0    0  0.00000000000E+00  0.00000000000E+00  0.13104328134E+02  0.12568188741E+03  0.12499685359E+03 0.  0.
    9000005    1    3    3    0    0 -0.44602337806E+02  0.22959615179E+02 -0.30915183481E+02  0.58934379071E+02  0.10000000000E+01 0.  0.
    9000005    1    3    3    0    0  0.44602337806E+02 -0.22959615179E+02  0.44019511615E+02  0.66747508341E+02  0.10000000000E+01 0.  0.
<mgrwt>
<rscale>  0 0.12499685E+03</rscale>
<asrwt>0</asrwt>
<pdfrwt beam="2">  1        4 0.86598123E-02 0.12499685E+03</pdfrwt>
<pdfrwt beam="1">  1       -4 0.10675863E-01 0.12499685E+03</pdfrwt>
<totfact> 0.10438684E+04</totfact>
</mgrwt>
</event>
<event>
 5    1  0.3312706E-002  0.1249995E+03  0.7818608E-02  0.1235070E+00
         -4   -1    0    0    0  501 -0.00000000000E+00  0.00000000000E+00  0.81479913129E+02  0.81489810059E+02  0.12700000000E+01 0.  1.
          4   -1    0    0  501    0  0.00000000000E+00 -0.00000000000E+00 -0.47919682285E+02  0.47936508532E+02  0.12700000000E+01 0.  1.
         25    2    1    2    0    0  0.00000000000E+00  0.00000000000E+00  0.33560230844E+02  0.12942631859E+03  0.12499953140E+03 0.  0.
    9000005    1    3    3    0    0  0.41325567509E+02 -0.42076923439E+02 -0.46144306516E+01  0.59165555742E+02  0.10000000000E+01 0.  0.
    9000005    1    3    3    0    0 -0.41325567509E+02  0.42076923439E+02  0.38174661496E+02  0.70260762850E+02  0.10000000000E+01 0.  0.
<mgrwt>
<rscale>  0 0.12499953E+03</rscale>
<asrwt>0</asrwt>
<pdfrwt beam="2">  1        4 0.73743145E-02 0.12499953E+03</pdfrwt>
<pdfrwt beam="1">  1       -4 0.12537427E-01 0.12499953E+03</pdfrwt>
<totfact> 0.10356905E+04</totfact>
</mgrwt>
</event>
<event>
 5    1  0.3312706E-002  0.1249960E+03  0.7818608E-02  0.1235075E+00
          4   -1    0    0  501    0  0.00000000000E+00  0.00000000000E+00  0.28616389729E+02  0.28644557269E+02  0.12700000000E+01 0. -1.
         -4   -1    0    0    0  501 -0.00000000000E+00 -0.00000000000E+00 -0.13639699708E+03  0.13640290947E+03  0.12700000000E+01 0. -1.
         25    2    1    2    0    0  0.00000000000E+00  0.00000000000E+00 -0.10778060735E+03  0.16504746674E+03  0.12499602776E+03 0.  0.
    9000005    1    3    3    0    0  0.29219965801E+02 -0.45571849622E+02 -0.12672798311E+02  0.55607550714E+02  0.10000000000E+01 0.  0.
    9000005    1    3    3    0    0 -0.29219965801E+02  0.45571849622E+02 -0.95107809039E+02  0.10943991603E+03  0.10000000000E+01 0.  0.
<mgrwt>
<rscale>  0 0.12499603E+03</rscale>
<asrwt>0</asrwt>
<pdfrwt beam="1">  1        4 0.44051431E-02 0.12499603E+03</pdfrwt>
<pdfrwt beam="2">  1       -4 0.20986775E-01 0.12499603E+03</pdfrwt>
<totfact> 0.96387005E+03</totfact>
</mgrwt>
</event>
<event>
 5    1  0.3312706E-002  0.1250309E+03  0.7818608E-02  0.1235021E+00
         -4   -1    0    0    0  501 -0.00000000000E+00  0.00000000000E+00  0.26256286232E+03  0.26256593376E+03  0.12700000000E+01 0.  1.
          4   -1    0    0  501    0  0.00000000000E+00 -0.00000000000E+00 -0.14854489413E+02  0.14908680550E+02  0.12700000000E+01 0.  1.
         25    2    1    2    0    0  0.00000000000E+00  0.00000000000E+00  0.24770837291E+03  0.27747461431E+03  0.12503089049E+03 0.  0.
    9000005    1    3    3    0    0 -0.46726178467E+02 -0.22545646955E+02  0.20122735296E+03  0.20781022480E+03  0.10000000000E+01 0.  0.
    9000005    1    3    3    0    0  0.46726178467E+02  0.22545646955E+02  0.46481019951E+02  0.69664389514E+02  0.10000000000E+01 0.  0.
<mgrwt>
<rscale>  0 0.12503089E+03</rscale>
<asrwt>0</asrwt>
<pdfrwt beam="2">  1        4 0.22897110E-02 0.12503089E+03</pdfrwt>
<pdfrwt beam="1">  1       -4 0.40398688E-01 0.12503089E+03</pdfrwt>
<totfact> 0.78460254E+03</totfact>
</mgrwt>
</event>
<event>
 5    1  0.3312706E-002  0.1250037E+03  0.7818608E-02  0.1235064E+00
          4   -1    0    0  501    0  0.00000000000E+00  0.00000000000E+00  0.51966751649E+03  0.51966906834E+03  0.12700000000E+01 0. -1.
         -4   -1    0    0    0  501 -0.00000000000E+00 -0.00000000000E+00 -0.74620516898E+01  0.75693536990E+01  0.12700000000E+01 0. -1.
         25    2    1    2    0    0  0.00000000000E+00  0.00000000000E+00  0.51220546480E+03  0.52723842204E+03  0.12500366198E+03 0.  0.
    9000005    1    3    3    0    0 -0.32669937598E+02  0.53256145879E+02  0.25023261275E+03  0.25791646396E+03  0.10000000000E+01 0.  0.
    9000005    1    3    3    0    0  0.32669937598E+02 -0.53256145879E+02  0.26197285204E+03  0.26932195808E+03  0.10000000000E+01 0.  0.
<mgrwt>
<rscale>  0 0.12500366E+03</rscale>
<asrwt>0</asrwt>
<pdfrwt beam="1">  1        4 0.79957226E-01 0.12500366E+03</pdfrwt>
<pdfrwt beam="2">  1       -4 0.11563813E-02 0.12500366E+03</pdfrwt>
<totfact> 0.53806915E+03</totfact>
</mgrwt>
</event>
<event>
 5    1  0.3312706E-002  0.1249994E+03  0.7818608E-02  0.1235070E+00
         -4   -1    0    0    0  501 -0.00000000000E+00  0.00000000000E+00  0.14175756727E+03  0.14176325609E+03  0.12700000000E+01 0. -1.
          4   -1    0    0  501    0  0.00000000000E+00 -0.00000000000E+00 -0.27534725828E+02  0.27563998738E+02  0.12700000000E+01 0. -1.
         25    2    1    2    0    0  0.00000000000E+00  0.00000000000E+00  0.11422284144E+03  0.16932725483E+03  0.12499944689E+03 0.  0.
    9000005    1    3    3    0    0  0.41722696740E+02 -0.41822581466E+02  0.84717305403E+02  0.10328568913E+03  0.10000000000E+01 0.  0.
    9000005    1    3    3    0    0 -0.41722696740E+02  0.41822581466E+02  0.29505536039E+02  0.66041565704E+02  0.10000000000E+01 0.  0.
<mgrwt>
<rscale>  0 0.12499945E+03</rscale>
<asrwt>0</asrwt>
<pdfrwt beam="2">  1        4 0.42388011E-02 0.12499945E+03</pdfrwt>
<pdfrwt beam="1">  1       -4 0.21811546E-01 0.12499945E+03</pdfrwt>
<totfact> 0.95575284E+03</totfact>
</mgrwt>
</event>
<event>
 5    1  0.3312706E-002  0.1250031E+03  0.7818608E-02  0.1235064E+00
         -4   -1    0    0    0  501 -0.00000000000E+00  0.00000000000E+00  0.13135071371E+02  0.13196325243E+02  0.12700000000E+01 0. -1.
          4   -1    0    0  501    0  0.00000000000E+00 -0.00000000000E+00 -0.29665121727E+03  0.29665393577E+03  0.12700000000E+01 0. -1.
         25    2    1    2    0    0  0.00000000000E+00  0.00000000000E+00 -0.28351614590E+03  0.30985026101E+03  0.12500311702E+03 0.  0.
    9000005    1    3    3    0    0  0.43779652272E+02 -0.31270404247E+02 -0.62945486756E+02  0.82810811116E+02  0.10000000000E+01 0.  0.
    9000005    1    3    3    0    0 -0.43779652272E+02  0.31270404247E+02 -0.22057065914E+03  0.22703944990E+03  0.10000000000E+01 0.  0.
<mgrwt>
<rscale>  0 0.12500312E+03</rscale>
<asrwt>0</asrwt>
<pdfrwt beam="2">  1        4 0.45643565E-01 0.12500312E+03</pdfrwt>
<pdfrwt beam="1">  1       -4 0.20257014E-02 0.12500312E+03</pdfrwt>
<totfact> 0.74374481E+03</totfact>
</mgrwt>
</event>
<event>
 5    1  0.3312706E-002  0.1250001E+03  0.7818608E-02  0.1235069E+00
          4   -1    0    0  501    0  0.00000000000E+00  0.00000000000E+00  0.21666311554E+02  0.21703501016E+02  0.12700000000E+01 0.  1.
         -4   -1    0    0    0  501 -0.00000000000E+00 -0.00000000000E+00 -0.18009776182E+03  0.18010223961E+03  0.12700000000E+01 0.  1.
         25    2    1    2    0    0  0.00000000000E+00  0.00000000000E+00 -0.15843145027E+03  0.20180574063E+03  0.12500013007E+03 0.  0.
    9000005    1    3    3    0    0 -0.56812605814E+02 -0.13017395915E+02 -0.11560822612E+03  0.12947349815E+03  0.10000000000E+01 0.  0.
    9000005    1    3    3    0    0  0.56812605814E+02  0.13017395915E+02 -0.42823224146E+02  0.72332242479E+02  0.10000000000E+01 0.  0.
<mgrwt>
<rscale>  0 0.12500013E+03</rscale>
<asrwt>0</asrwt>
<pdfrwt beam="1">  1        4 0.33364840E-02 0.12500013E+03</pdfrwt>
<pdfrwt beam="2">  1       -4 0.27710552E-01 0.12500013E+03</pdfrwt>
<totfact> 0.89831584E+03</totfact>
</mgrwt>
</event>
<event>
 5    1  0.3312706E-002  0.1250029E+03  0.7818608E-02  0.1235065E+00
         -4   -1    0    0    0  501 -0.00000000000E+00  0.00000000000E+00  0.70776407927E+02  0.70787801344E+02  0.12700000000E+01 0. -1.
          4   -1    0    0  501    0  0.00000000000E+00 -0.00000000000E+00 -0.55170818427E+02  0.55185433820E+02  0.12700000000E+01 0. -1.
         25    2    1    2    0    0  0.00000000000E+00  0.00000000000E+00  0.15605589500E+02  0.12597323516E+03  0.12500288618E+03 0.  0.
    9000005    1    3    3    0    0 -0.46062915760E+02 -0.28158330304E+02  0.39523259432E+02  0.66916155074E+02  0.10000000000E+01 0.  0.
    9000005    1    3    3    0    0  0.46062915760E+02  0.28158330304E+02 -0.23917669931E+02  0.59057080090E+02  0.10000000000E+01 0.  0.
<mgrwt>
<rscale>  0 0.12500289E+03</rscale>
<asrwt>0</asrwt>
<pdfrwt beam="2">  1        4 0.84898189E-02 0.12500289E+03</pdfrwt>
<pdfrwt beam="1">  1       -4 0.10890679E-01 0.12500289E+03</pdfrwt>
<totfact> 0.10430864E+04</totfact>
</mgrwt>
</event>
<event>
 5    1  0.3312706E-002  0.1249697E+03  0.7818608E-02  0.1235117E+00
          4   -1    0    0  501    0  0.00000000000E+00  0.00000000000E+00  0.45481013929E+02  0.45498742049E+02  0.12700000000E+01 0.  1.
         -4   -1    0    0    0  501 -0.00000000000E+00 -0.00000000000E+00 -0.85806746171E+02  0.85816144102E+02  0.12700000000E+01 0.  1.
         25    2    1    2    0    0  0.00000000000E+00  0.00000000000E+00 -0.40325732243E+02  0.13131488615E+03  0.12496973491E+03 0.  0.
    9000005    1    3    3    0    0  0.12972033188E+02  0.15764789185E+02  0.41882230143E+02  0.46603899244E+02  0.10000000000E+01 0.  0.
    9000005    1    3    3    0    0 -0.12972033188E+02 -0.15764789185E+02 -0.82207962385E+02  0.84710986906E+02  0.10000000000E+01 0.  0.
<mgrwt>
<rscale>  0 0.12496973E+03</rscale>
<asrwt>0</asrwt>
<pdfrwt beam="1">  1        4 0.69991657E-02 0.12496973E+03</pdfrwt>
<pdfrwt beam="2">  1       -4 0.13203124E-01 0.12496973E+03</pdfrwt>
<totfact> 0.10323390E+04</totfact>
</mgrwt>
</event>
<event>
 5    1  0.3312706E-002  0.1250011E+03  0.7818608E-02  0.1235068E+00
          4   -1    0    0  501    0  0.00000000000E+00  0.00000000000E+00  0.69817225570E+02  0.69828775489E+02  0.12700000000E+01 0.  1.
         -4   -1    0    0    0  501 -0.00000000000E+00 -0.00000000000E+00 -0.55927287453E+02  0.55941705210E+02  0.12700000000E+01 0.  1.
         25    2    1    2    0    0  0.00000000000E+00  0.00000000000E+00  0.13889938117E+02  0.12577048070E+03  0.12500113373E+03 0.  0.
    9000005    1    3    3    0    0 -0.14462433070E+02  0.35646848726E+02 -0.42607114743E+02  0.57412768799E+02  0.10000000000E+01 0.  0.
    9000005    1    3    3    0    0  0.14462433070E+02 -0.35646848726E+02  0.56497052861E+02  0.68357711901E+02  0.10000000000E+01 0.  0.
<mgrwt>
<rscale>  0 0.12500113E+03</rscale>
<asrwt>0</asrwt>
<pdfrwt beam="1">  1        4 0.10743109E-01 0.12500113E+03</pdfrwt>
<pdfrwt beam="2">  1       -4 0.86061956E-02 0.12500113E+03</pdfrwt>
<totfact> 0.10435727E+04</totfact>
</mgrwt>
</event>
<event>
 5    1  0.3312706E-002  0.1249995E+03  0.7818608E-02  0.1235070E+00
          4   -1    0    0  501    0  0.00000000000E+00  0.00000000000E+00  0.32250935648E+02  0.32275931437E+02  0.12700000000E+01 0. -1.
         -4   -1    0    0    0  501 -0.00000000000E+00 -0.00000000000E+00 -0.12104422966E+03  0.12105089192E+03  0.12700000000E+01 0. -1.
         25    2    1    2    0    0  0.00000000000E+00  0.00000000000E+00 -0.88793294014E+02  0.15332682336E+03  0.12499946279E+03 0.  0.
    9000005    1    3    3    0    0 -0.32684237233E+02  0.34267604751E+02  0.56200968392E+01  0.47698150775E+02  0.10000000000E+01 0.  0.
    9000005    1    3    3    0    0  0.32684237233E+02 -0.34267604751E+02 -0.94413390854E+02  0.10562867258E+03  0.10000000000E+01 0.  0.
<mgrwt>
<rscale>  0 0.12499946E+03</rscale>
<asrwt>0</asrwt>
<pdfrwt beam="1">  1        4 0.49641177E-02 0.12499946E+03</pdfrwt>
<pdfrwt beam="2">  1       -4 0.18624624E-01 0.12499946E+03</pdfrwt>
<totfact> 0.98645824E+03</totfact>
</mgrwt>
</event>
<event>
 5    1  0.3312706E-002  0.1249972E+03  0.7818608E-02  0.1235074E+00
         -4   -1    0    0    0  501 -0.00000000000E+00  0.00000000000E+00  0.76005619306E+03  0.76005725410E+03  0.12700000000E+01 0.  1.
          4   -1    0    0  501    0  0.00000000000E+00 -0.00000000000E+00 -0.50596489559E+01  0.52166030669E+01  0.12700000000E+01 0.  1.
         25    2    1    2    0    0  0.00000000000E+00  0.00000000000E+00  0.75499654411E+03  0.76527385717E+03  0.12499717938E+03 0.  0.
    9000005    1    3    3    0    0  0.73746383407E+01 -0.60602394660E+02  0.45918908959E+03  0.46323067205E+03  0.10000000000E+01 0.  0.
    9000005    1    3    3    0    0 -0.73746383407E+01  0.60602394660E+02  0.29580745451E+03  0.30204318512E+03  0.10000000000E+01 0.  0.
<mgrwt>
<rscale>  0 0.12499718E+03</rscale>
<asrwt>0</asrwt>
<pdfrwt beam="2">  1        4 0.79056262E-03 0.12499718E+03</pdfrwt>
<pdfrwt beam="1">  1       -4 0.11694387E+00 0.12499718E+03</pdfrwt>
<totfact> 0.39856486E+03</totfact>
</mgrwt>
</event>
<event>
 5    1  0.3312706E-002  0.1249995E+03  0.7818608E-02  0.1235070E+00
          4   -1    0    0  501    0  0.00000000000E+00  0.00000000000E+00  0.33216756186E+02  0.33241025729E+02  0.12700000000E+01 0. -1.
         -4   -1    0    0    0  501 -0.00000000000E+00 -0.00000000000E+00 -0.11752713822E+03  0.11753399984E+03  0.12700000000E+01 0. -1.
         25    2    1    2    0    0  0.00000000000E+00  0.00000000000E+00 -0.84310382036E+02  0.15077502557E+03  0.12499947127E+03 0.  0.
    9000005    1    3    3    0    0 -0.58906615697E+02  0.19688882520E+02 -0.50474990386E+02  0.80039778374E+02  0.10000000000E+01 0.  0.
    9000005    1    3    3    0    0  0.58906615697E+02 -0.19688882520E+02 -0.33835391651E+02  0.70735247196E+02  0.10000000000E+01 0.  0.
<mgrwt>
<rscale>  0 0.12499947E+03</rscale>
<asrwt>0</asrwt>
<pdfrwt beam="1">  1        4 0.51126650E-02 0.12499947E+03</pdfrwt>
<pdfrwt beam="2">  1       -4 0.18083493E-01 0.12499947E+03</pdfrwt>
<totfact> 0.99150612E+03</totfact>
</mgrwt>
</event>
<event>
 5    1  0.3312706E-002  0.1250010E+03  0.7818608E-02  0.1235068E+00
         -4   -1    0    0    0  501 -0.00000000000E+00  0.00000000000E+00  0.22744962330E+02  0.22780390940E+02  0.12700000000E+01 0. -1.
          4   -1    0    0  501    0  0.00000000000E+00 -0.00000000000E+00 -0.17157264718E+03  0.17157734746E+03  0.12700000000E+01 0. -1.
         25    2    1    2    0    0  0.00000000000E+00  0.00000000000E+00 -0.14882768485E+03  0.19435773840E+03  0.12500100278E+03 0.  0.
    9000005    1    3    3    0    0 -0.47773649422E+02  0.31658144247E+02 -0.11315278417E+03  0.12684286437E+03  0.10000000000E+01 0.  0.
    9000005    1    3    3    0    0  0.47773649422E+02 -0.31658144247E+02 -0.35674900679E+02  0.67514874026E+02  0.10000000000E+01 0.  0.
<mgrwt>
<rscale>  0 0.12500100E+03</rscale>
<asrwt>0</asrwt>
<pdfrwt beam="2">  1        4 0.26398878E-01 0.12500100E+03</pdfrwt>
<pdfrwt beam="1">  1       -4 0.35023119E-02 0.12500100E+03</pdfrwt>
<totfact> 0.91092518E+03</totfact>
</mgrwt>
</event>
<event>
 5    1  0.3312706E-002  0.1249973E+03  0.7818608E-02  0.1235074E+00
          4   -1    0    0  501    0  0.00000000000E+00  0.00000000000E+00  0.73333575552E+01  0.74425152356E+01  0.12700000000E+01 0. -1.
         -4   -1    0    0    0  501 -0.00000000000E+00 -0.00000000000E+00 -0.52860067465E+03  0.52860220028E+03  0.12700000000E+01 0. -1.
         25    2    1    2    0    0  0.00000000000E+00  0.00000000000E+00 -0.52126731709E+03  0.53604471551E+03  0.12499728461E+03 0.  0.
    9000005    1    3    3    0    0 -0.15742362694E+02 -0.60458048613E+02 -0.26682251104E+03  0.27404059922E+03  0.10000000000E+01 0.  0.
    9000005    1    3    3    0    0  0.15742362694E+02  0.60458048613E+02 -0.25444480605E+03  0.26200411629E+03  0.10000000000E+01 0.  0.
<mgrwt>
<rscale>  0 0.12499728E+03</rscale>
<asrwt>0</asrwt>
<pdfrwt beam="1">  1        4 0.11367234E-02 0.12499728E+03</pdfrwt>
<pdfrwt beam="2">  1       -4 0.81331665E-01 0.12499728E+03</pdfrwt>
<totfact> 0.53175505E+03</totfact>
</mgrwt>
</event>
<event>
 5    1  0.3312706E-002  0.1250021E+03  0.7818608E-02  0.1235066E+00
         -4   -1    0    0    0  501 -0.00000000000E+00  0.00000000000E+00  0.59763563166E+02  0.59777055651E+02  0.12700000000E+01 0. -1.
          4   -1    0    0  501    0  0.00000000000E+00 -0.00000000000E+00 -0.65336836592E+02  0.65349178387E+02  0.12700000000E+01 0. -1.
         25    2    1    2    0    0  0.00000000000E+00  0.00000000000E+00 -0.55732734261E+01  0.12512623404E+03  0.12500205225E+03 0.  0.
    9000005    1    3    3    0    0  0.54702980687E+02 -0.12404904449E+02  0.24792149780E+02  0.61334724595E+02  0.10000000000E+01 0.  0.
    9000005    1    3    3    0    0 -0.54702980687E+02  0.12404904449E+02 -0.30365423206E+02  0.63791509443E+02  0.10000000000E+01 0.  0.
<mgrwt>
<rscale>  0 0.12500205E+03</rscale>
<asrwt>0</asrwt>
<pdfrwt beam="2">  1        4 0.10053808E-01 0.12500205E+03</pdfrwt>
<pdfrwt beam="1">  1       -4 0.91963816E-02 0.12500205E+03</pdfrwt>
<totfact> 0.10449637E+04</totfact>
</mgrwt>
</event>
<event>
 5    1  0.3312706E-002  0.1249989E+03  0.7818608E-02  0.1235071E+00
         -4   -1    0    0    0  501 -0.00000000000E+00  0.00000000000E+00  0.32814095126E+03  0.32814340888E+03  0.12700000000E+01 0.  1.
          4   -1    0    0  501    0  0.00000000000E+00 -0.00000000000E+00 -0.11867588682E+02  0.11935349225E+02  0.12700000000E+01 0.  1.
         25    2    1    2    0    0  0.00000000000E+00  0.00000000000E+00  0.31627336257E+03  0.34007875810E+03  0.12499888736E+03 0.  0.
    9000005    1    3    3    0    0  0.28743958287E+02 -0.52783484937E+02  0.11157699016E+03  0.12673885021E+03  0.10000000000E+01 0.  0.
    9000005    1    3    3    0    0 -0.28743958287E+02  0.52783484937E+02  0.20469637241E+03  0.21333990789E+03  0.10000000000E+01 0.  0.
<mgrwt>
<rscale>  0 0.12499889E+03</rscale>
<asrwt>0</asrwt>
<pdfrwt beam="2">  1        4 0.18311843E-02 0.12499889E+03</pdfrwt>
<pdfrwt beam="1">  1       -4 0.50488625E-01 0.12499889E+03</pdfrwt>
<totfact> 0.70831726E+03</totfact>
</mgrwt>
</event>
<event>
 5    1  0.3312706E-002  0.1249985E+03  0.7818608E-02  0.1235072E+00
         -4   -1    0    0    0  501 -0.00000000000E+00  0.00000000000E+00  0.10532599569E+03  0.10533365212E+03  0.12700000000E+01 0. -1.
          4   -1    0    0  501    0  0.00000000000E+00 -0.00000000000E+00 -0.37066447873E+02  0.37088198364E+02  0.12700000000E+01 0. -1.
         25    2    1    2    0    0  0.00000000000E+00  0.00000000000E+00  0.68259547820E+02  0.14242185048E+03  0.12499847050E+03 0.  0.
    9000005    1    3    3    0    0  0.34395178849E+02 -0.36099094523E+02  0.77049830392E+02  0.91781530370E+02  0.10000000000E+01 0.  0.
    9000005    1    3    3    0    0 -0.34395178849E+02  0.36099094523E+02 -0.87902825722E+01  0.50640320113E+02  0.10000000000E+01 0.  0.
<mgrwt>
<rscale>  0 0.12499847E+03</rscale>
<asrwt>0</asrwt>
<pdfrwt beam="2">  1        4 0.57047926E-02 0.12499847E+03</pdfrwt>
<pdfrwt beam="1">  1       -4 0.16206261E-01 0.12499847E+03</pdfrwt>
<totfact> 0.10083983E+04</totfact>
</mgrwt>
</event>
<event>
 5    1  0.3312706E-002  0.1249996E+03  0.7818608E-02  0.1235070E+00
         -4   -1    0    0    0  501 -0.00000000000E+00  0.00000000000E+00  0.23835773902E+03  0.23836112236E+03  0.12700000000E+01 0. -1.
          4   -1    0    0  501    0  0.00000000000E+00 -0.00000000000E+00 -0.16359962754E+02  0.16409182835E+02  0.12700000000E+01 0. -1.
         25    2    1    2    0    0  0.00000000000E+00  0.00000000000E+00  0.22199777627E+03  0.25477030519E+03  0.12499958296E+03 0.  0.
    9000005    1    3    3    0    0  0.48054609899E+02 -0.37380282129E+02  0.13972861049E+03  0.15241921012E+03  0.10000000000E+01 0.  0.
    9000005    1    3    3    0    0 -0.48054609899E+02  0.37380282129E+02  0.82269165775E+02  0.10235109507E+03  0.10000000000E+01 0.  0.
<mgrwt>
<rscale>  0 0.12499958E+03</rscale>
<asrwt>0</asrwt>
<pdfrwt beam="2">  1        4 0.25209638E-02 0.12499958E+03</pdfrwt>
<pdfrwt beam="1">  1       -4 0.36674467E-01 0.12499958E+03</pdfrwt>
<totfact> 0.81646380E+03</totfact>
</mgrwt>
</event>
<event>
 5    1  0.3312706E-002  0.1249978E+03  0.7818608E-02  0.1235073E+00
         -4   -1    0    0    0  501 -0.00000000000E+00  0.00000000000E+00  0.46583986701E+02  0.46601295228E+02  0.12700000000E+01 0.  1.
          4   -1    0    0  501    0  0.00000000000E+00 -0.00000000000E+00 -0.83813268510E+02  0.83822889943E+02  0.12700000000E+01 0.  1.
         25    2    1    2    0    0  0.00000000000E+00  0.00000000000E+00 -0.37229281809E+02  0.13042418517E+03  0.12499779459E+03 0.  0.
    9000005    1    3    3    0    0 -0.51892318739E+02  0.58974807395E+01  0.17190036830E+02  0.54991730191E+02  0.10000000000E+01 0.  0.
    9000005    1    3    3    0    0  0.51892318739E+02 -0.58974807395E+01 -0.54419318639E+02  0.75432454980E+02  0.10000000000E+01 0.  0.
<mgrwt>
<rscale>  0 0.12499779E+03</rscale>
<asrwt>0</asrwt>
<pdfrwt beam="2">  1        4 0.12896421E-01 0.12499779E+03</pdfrwt>
<pdfrwt beam="1">  1       -4 0.71688387E-02 0.12499779E+03</pdfrwt>
<totfact> 0.10335956E+04</totfact>
</mgrwt>
</event>
<event>
 5    1  0.3312706E-002  0.1249999E+03  0.7818608E-02  0.1235069E+00
         -4   -1    0    0    0  501 -0.00000000000E+00  0.00000000000E+00  0.14685874400E+01  0.19415584124E+01  0.12700000000E+01 0. -1.
          4   -1    0    0  501    0  0.00000000000E+00 -0.00000000000E+00 -0.22904819747E+04  0.22904823268E+04  0.12700000000E+01 0. -1.
         25    2    1    2    0    0  0.00000000000E+00  0.00000000000E+00 -0.22890133873E+04  0.22924238852E+04  0.12499992952E+03 0.  0.
    9000005    1    3    3    0    0  0.11622674846E+02  0.53622705121E+02 -0.59592724457E+03  0.59844862929E+03  0.10000000000E+01 0.  0.
    9000005    1    3    3    0    0 -0.11622674846E+02 -0.53622705121E+02 -0.16930861427E+04  0.16939752559E+04  0.10000000000E+01 0.  0.
<mgrwt>
<rscale>  0 0.12499993E+03</rscale>
<asrwt>0</asrwt>
<pdfrwt beam="2">  1        4 0.35241579E+00 0.12499993E+03</pdfrwt>
<pdfrwt beam="1">  1       -4 0.26234783E-03 0.12499993E+03</pdfrwt>
<totfact> 0.65112293E+02</totfact>
</mgrwt>
</event>
<event>
 5    1  0.3312706E-002  0.1250002E+03  0.7818608E-02  0.1235069E+00
         -4   -1    0    0    0  501 -0.00000000000E+00  0.00000000000E+00  0.65054906836E+03  0.65055030801E+03  0.12700000000E+01 0. -1.
          4   -1    0    0  501    0  0.00000000000E+00 -0.00000000000E+00 -0.59361539508E+01  0.60704879316E+01  0.12700000000E+01 0. -1.
         25    2    1    2    0    0  0.00000000000E+00  0.00000000000E+00  0.64461291441E+03  0.65662079594E+03  0.12500024093E+03 0.  0.
    9000005    1    3    3    0    0 -0.35063001364E+02  0.33683093316E+02  0.52853434944E+03  0.53076692001E+03  0.10000000000E+01 0.  0.
    9000005    1    3    3    0    0  0.35063001364E+02 -0.33683093316E+02  0.11607856497E+03  0.12585387593E+03  0.10000000000E+01 0.  0.
<mgrwt>
<rscale>  0 0.12500024E+03</rscale>
<asrwt>0</asrwt>
<pdfrwt beam="2">  1        4 0.92368318E-03 0.12500024E+03</pdfrwt>
<pdfrwt beam="1">  1       -4 0.10009490E+00 0.12500024E+03</pdfrwt>
<totfact> 0.45477168E+03</totfact>
</mgrwt>
</event>
<event>
 5    1  0.3312706E-002  0.1249974E+03  0.7818608E-02  0.1235073E+00
         -4   -1    0    0    0  501 -0.00000000000E+00  0.00000000000E+00  0.97072045590E+03  0.97072128668E+03  0.12700000000E+01 0. -1.
          4   -1    0    0  501    0  0.00000000000E+00 -0.00000000000E+00 -0.39228434862E+01  0.41232997729E+01  0.12700000000E+01 0. -1.
         25    2    1    2    0    0  0.00000000000E+00  0.00000000000E+00  0.96679761242E+03  0.97484458645E+03  0.12499737740E+03 0.  0.
    9000005    1    3    3    0    0  0.10108301346E+02  0.46344812344E+02  0.80067846794E+03  0.80208293113E+03  0.10000000000E+01 0.  0.
    9000005    1    3    3    0    0 -0.10108301346E+02 -0.46344812344E+02  0.16611914447E+03  0.17276165532E+03  0.10000000000E+01 0.  0.
<mgrwt>
<rscale>  0 0.12499738E+03</rscale>
<asrwt>0</asrwt>
<pdfrwt beam="2">  1        4 0.61899829E-03 0.12499738E+03</pdfrwt>
<pdfrwt beam="1">  1       -4 0.14935702E+00 0.12499738E+03</pdfrwt>
<totfact> 0.31451802E+03</totfact>
</mgrwt>
</event>
<event>
 5    1  0.3312706E-002  0.1250021E+03  0.7818608E-02  0.1235066E+00
         -4   -1    0    0    0  501 -0.00000000000E+00  0.00000000000E+00  0.60063899849E+02  0.60077324883E+02  0.12700000000E+01 0. -1.
          4   -1    0    0  501    0  0.00000000000E+00 -0.00000000000E+00 -0.65010184366E+02  0.65022588162E+02  0.12700000000E+01 0. -1.
         25    2    1    2    0    0  0.00000000000E+00  0.00000000000E+00 -0.49462845165E+01  0.12509991305E+03  0.12500209004E+03 0.  0.
    9000005    1    3    3    0    0  0.14222261651E+02  0.44356760694E+01  0.58265642967E+02  0.60148425574E+02  0.10000000000E+01 0.  0.
    9000005    1    3    3    0    0 -0.14222261651E+02 -0.44356760694E+01 -0.63211927483E+02  0.64951487472E+02  0.10000000000E+01 0.  0.
<mgrwt>
<rscale>  0 0.12500209E+03</rscale>
<asrwt>0</asrwt>
<pdfrwt beam="2">  1        4 0.10003554E-01 0.12500209E+03</pdfrwt>
<pdfrwt beam="1">  1       -4 0.92425868E-02 0.12500209E+03</pdfrwt>
<totfact> 0.10450199E+04</totfact>
</mgrwt>
</event>
<event>
 5    1  0.3312706E-002  0.1249998E+03  0.7818608E-02  0.1235070E+00
         -4   -1    0    0    0  501 -0.00000000000E+00  0.00000000000E+00  0.14635628302E+02  0.14690626801E+02  0.12700000000E+01 0.  1.
          4   -1    0    0  501    0  0.00000000000E+00 -0.00000000000E+00 -0.26634225577E+03  0.26634528362E+03  0.12700000000E+01 0.  1.
         25    2    1    2    0    0  0.00000000000E+00  0.00000000000E+00 -0.25170662747E+03  0.28103591042E+03  0.12499982655E+03 0.  0.
    9000005    1    3    3    0    0 -0.99649551593E+01 -0.16446140939E+02  0.78294981489E+01  0.20786460121E+02  0.10000000000E+01 0.  0.
    9000005    1    3    3    0    0  0.99649551593E+01  0.16446140939E+02 -0.25953612562E+03  0.26024945030E+03  0.10000000000E+01 0.  0.
<mgrwt>
<rscale>  0 0.12499983E+03</rscale>
<asrwt>0</asrwt>
<pdfrwt beam="2">  1        4 0.40980192E-01 0.12499983E+03</pdfrwt>
<pdfrwt beam="1">  1       -4 0.22560989E-02 0.12499983E+03</pdfrwt>
<totfact> 0.78041254E+03</totfact>
</mgrwt>
</event>
<event>
 5    1  0.3312706E-002  0.1249998E+03  0.7818608E-02  0.1235070E+00
         -4   -1    0    0    0  501 -0.00000000000E+00  0.00000000000E+00  0.15490888205E+03  0.15491408793E+03  0.12700000000E+01 0.  1.
          4   -1    0    0  501    0  0.00000000000E+00 -0.00000000000E+00 -0.25194731869E+02  0.25226720237E+02  0.12700000000E+01 0.  1.
         25    2    1    2    0    0  0.00000000000E+00  0.00000000000E+00  0.12971415019E+03  0.18014080817E+03  0.12499980004E+03 0.  0.
    9000005    1    3    3    0    0  0.17355000540E+02 -0.44859383152E+02  0.12235210264E+03  0.13147089914E+03  0.10000000000E+01 0.  0.
    9000005    1    3    3    0    0 -0.17355000540E+02  0.44859383152E+02  0.73620475455E+01  0.48669909026E+02  0.10000000000E+01 0.  0.
<mgrwt>
<rscale>  0 0.12499980E+03</rscale>
<asrwt>0</asrwt>
<pdfrwt beam="2">  1        4 0.38789737E-02 0.12499980E+03</pdfrwt>
<pdfrwt beam="1">  1       -4 0.23834997E-01 0.12499980E+03</pdfrwt>
<totfact> 0.93592083E+03</totfact>
</mgrwt>
</event>
<event>
 5    1  0.3312706E-002  0.1250009E+03  0.7818608E-02  0.1235068E+00
          4   -1    0    0  501    0  0.00000000000E+00  0.00000000000E+00  0.63398758028E+02  0.63411477033E+02  0.12700000000E+01 0. -1.
         -4   -1    0    0    0  501 -0.00000000000E+00 -0.00000000000E+00 -0.61589433741E+02  0.61602526316E+02  0.12700000000E+01 0. -1.
         25    2    1    2    0    0  0.00000000000E+00  0.00000000000E+00  0.18093242868E+01  0.12501400335E+03  0.12500090951E+03 0.  0.
    9000005    1    3    3    0    0 -0.48432281185E+01  0.22233664289E+02 -0.57303789815E+02  0.61664552325E+02  0.10000000000E+01 0.  0.
    9000005    1    3    3    0    0  0.48432281185E+01 -0.22233664289E+02  0.59113114101E+02  0.63349451024E+02  0.10000000000E+01 0.  0.
<mgrwt>
<rscale>  0 0.12500091E+03</rscale>
<asrwt>0</asrwt>
<pdfrwt beam="1">  1        4 0.97556405E-02 0.12500091E+03</pdfrwt>
<pdfrwt beam="2">  1       -4 0.94772830E-02 0.12500091E+03</pdfrwt>
<totfact> 0.10452344E+04</totfact>
</mgrwt>
</event>
<event>
 5    1  0.3312706E-002  0.1249910E+03  0.7818608E-02  0.1235083E+00
          4   -1    0    0  501    0  0.00000000000E+00  0.00000000000E+00  0.18402349725E+02  0.18446120877E+02  0.12700000000E+01 0.  1.
         -4   -1    0    0    0  501 -0.00000000000E+00 -0.00000000000E+00 -0.21194068938E+03  0.21194449442E+03  0.12700000000E+01 0.  1.
         25    2    1    2    0    0  0.00000000000E+00  0.00000000000E+00 -0.19353833966E+03  0.23039061530E+03  0.12499098648E+03 0.  0.
    9000005    1    3    3    0    0  0.51588785790E+02 -0.31366192753E+02 -0.67079223125E+02  0.90254435028E+02  0.10000000000E+01 0.  0.
    9000005    1    3    3    0    0 -0.51588785790E+02  0.31366192753E+02 -0.12645911653E+03  0.14013618027E+03  0.10000000000E+01 0.  0.
<mgrwt>
<rscale>  0 0.12499099E+03</rscale>
<asrwt>0</asrwt>
<pdfrwt beam="1">  1        4 0.28347906E-02 0.12499099E+03</pdfrwt>
<pdfrwt beam="2">  1       -4 0.32609918E-01 0.12499099E+03</pdfrwt>
<totfact> 0.85266800E+03</totfact>
</mgrwt>
</event>
<event>
 5    1  0.3312706E-002  0.1250036E+03  0.7818608E-02  0.1235064E+00
          4   -1    0    0  501    0  0.00000000000E+00  0.00000000000E+00  0.19954656736E+02  0.19995030019E+02  0.12700000000E+01 0. -1.
         -4   -1    0    0    0  501 -0.00000000000E+00 -0.00000000000E+00 -0.19552729637E+03  0.19553142082E+03  0.12700000000E+01 0. -1.
         25    2    1    2    0    0  0.00000000000E+00  0.00000000000E+00 -0.17557263964E+03  0.21552645084E+03  0.12500359683E+03 0.  0.
    9000005    1    3    3    0    0 -0.19674547134E+02  0.29897496577E+02  0.54273136207E+00  0.35808416103E+02  0.10000000000E+01 0.  0.
    9000005    1    3    3    0    0  0.19674547134E+02 -0.29897496577E+02 -0.17611537100E+03  0.17971803474E+03  0.10000000000E+01 0.  0.
<mgrwt>
<rscale>  0 0.12500360E+03</rscale>
<asrwt>0</asrwt>
<pdfrwt beam="1">  1        4 0.30733702E-02 0.12500360E+03</pdfrwt>
<pdfrwt beam="2">  1       -4 0.30084544E-01 0.12500360E+03</pdfrwt>
<totfact> 0.87574180E+03</totfact>
</mgrwt>
</event>
<event>
 5    1  0.3312706E-002  0.1250045E+03  0.7818608E-02  0.1235062E+00
         -4   -1    0    0    0  501 -0.00000000000E+00  0.00000000000E+00  0.17850232168E+02  0.17895353823E+02  0.12700000000E+01 0.  1.
          4   -1    0    0  501    0  0.00000000000E+00 -0.00000000000E+00 -0.21852723804E+03  0.21853092839E+03  0.12700000000E+01 0.  1.
         25    2    1    2    0    0  0.00000000000E+00  0.00000000000E+00 -0.20067700587E+03  0.23642628221E+03  0.12500450487E+03 0.  0.
    9000005    1    3    3    0    0 -0.53778399353E+02  0.12175422136E+02 -0.15597015070E+03  0.16543290196E+03  0.10000000000E+01 0.  0.
    9000005    1    3    3    0    0  0.53778399353E+02 -0.12175422136E+02 -0.44706855171E+02  0.70993380258E+02  0.10000000000E+01 0.  0.
<mgrwt>
<rscale>  0 0.12500450E+03</rscale>
<asrwt>0</asrwt>
<pdfrwt beam="2">  1        4 0.33623328E-01 0.12500450E+03</pdfrwt>
<pdfrwt beam="1">  1       -4 0.27499445E-02 0.12500450E+03</pdfrwt>
<totfact> 0.84324034E+03</totfact>
</mgrwt>
</event>
<event>
 5    1  0.3312706E-002  0.1249958E+03  0.7818608E-02  0.1235076E+00
          4   -1    0    0  501    0  0.00000000000E+00  0.00000000000E+00  0.68850464680E+02  0.68862176750E+02  0.12700000000E+01 0.  1.
         -4   -1    0    0    0  501 -0.00000000000E+00 -0.00000000000E+00 -0.56707845518E+02  0.56722064871E+02  0.12700000000E+01 0.  1.
         25    2    1    2    0    0  0.00000000000E+00  0.00000000000E+00  0.12142619163E+02  0.12558424162E+03  0.12499583410E+03 0.  0.
    9000005    1    3    3    0    0 -0.33159547250E+02 -0.13346046272E+02 -0.45427341724E+02  0.57812765900E+02  0.10000000000E+01 0.  0.
    9000005    1    3    3    0    0  0.33159547250E+02  0.13346046272E+02  0.57569960887E+02  0.67771475721E+02  0.10000000000E+01 0.  0.
<mgrwt>
<rscale>  0 0.12499583E+03</rscale>
<asrwt>0</asrwt>
<pdfrwt beam="1">  1        4 0.10594374E-01 0.12499583E+03</pdfrwt>
<pdfrwt beam="2">  1       -4 0.87262786E-02 0.12499583E+03</pdfrwt>
<totfact> 0.10441076E+04</totfact>
</mgrwt>
</event>
<event>
 5    1  0.3312706E-002  0.1250152E+03  0.7818608E-02  0.1235045E+00
          4   -1    0    0  501    0  0.00000000000E+00  0.00000000000E+00  0.30884506626E+03  0.30884767743E+03  0.12700000000E+01 0. -1.
         -4   -1    0    0    0  501 -0.00000000000E+00 -0.00000000000E+00 -0.12616466471E+02  0.12680225795E+02  0.12700000000E+01 0. -1.
         25    2    1    2    0    0  0.00000000000E+00  0.00000000000E+00  0.29622859979E+03  0.32152790323E+03  0.12501523594E+03 0.  0.
    9000005    1    3    3    0    0 -0.60955378793E+02  0.20592831791E+01  0.11300010618E+03  0.12841270517E+03  0.10000000000E+01 0.  0.
    9000005    1    3    3    0    0  0.60955378793E+02 -0.20592831791E+01  0.18322849361E+03  0.19311519806E+03  0.10000000000E+01 0.  0.
<mgrwt>
<rscale>  0 0.12501524E+03</rscale>
<asrwt>0</asrwt>
<pdfrwt beam="1">  1        4 0.47519732E-01 0.12501524E+03</pdfrwt>
<pdfrwt beam="2">  1       -4 0.19461002E-02 0.12501524E+03</pdfrwt>
<totfact> 0.72950128E+03</totfact>
</mgrwt>
</event>
<event>
 5    1  0.3312706E-002  0.1250041E+03  0.7818608E-02  0.1235063E+00
         -4   -1    0    0    0  501 -0.00000000000E+00  0.00000000000E+00  0.23767686229E+02  0.23801592566E+02  0.12700000000E+01 0. -1.
          4   -1    0    0  501    0  0.00000000000E+00 -0.00000000000E+00 -0.16420866358E+03  0.16421357464E+03  0.12700000000E+01 0. -1.
         25    2    1    2    0    0  0.00000000000E+00  0.00000000000E+00 -0.14044097735E+03  0.18801516720E+03  0.12500413985E+03 0.  0.
    9000005    1    3    3    0    0 -0.26545838695E+02  0.35801983549E+02 -0.43317661470E+01  0.44790934083E+02  0.10000000000E+01 0.  0.
    9000005    1    3    3    0    0  0.26545838695E+02 -0.35801983549E+02 -0.13610921121E+03  0.14322423312E+03  0.10000000000E+01 0.  0.
<mgrwt>
<rscale>  0 0.12500414E+03</rscale>
<asrwt>0</asrwt>
<pdfrwt beam="2">  1        4 0.25265857E-01 0.12500414E+03</pdfrwt>
<pdfrwt beam="1">  1       -4 0.36595532E-02 0.12500414E+03</pdfrwt>
<totfact> 0.92185270E+03</totfact>
</mgrwt>
</event>
<event>
 5    1  0.3312706E-002  0.1249913E+03  0.7818608E-02  0.1235083E+00
          4   -1    0    0  501    0  0.00000000000E+00  0.00000000000E+00  0.29977615537E+02  0.30004505217E+02  0.12700000000E+01 0. -1.
         -4   -1    0    0    0  501 -0.00000000000E+00 -0.00000000000E+00 -0.13019899272E+03  0.13020518655E+03  0.12700000000E+01 0. -1.
         25    2    1    2    0    0  0.00000000000E+00  0.00000000000E+00 -0.10022137718E+03  0.16020969177E+03  0.12499128326E+03 0.  0.
    9000005    1    3    3    0    0  0.13239934278E+02 -0.58746272529E+02 -0.71492959223E+02  0.93480819499E+02  0.10000000000E+01 0.  0.
    9000005    1    3    3    0    0 -0.13239934278E+02  0.58746272529E+02 -0.28728417956E+02  0.66728872266E+02  0.10000000000E+01 0.  0.
<mgrwt>
<rscale>  0 0.12499128E+03</rscale>
<asrwt>0</asrwt>
<pdfrwt beam="1">  1        4 0.46144858E-02 0.12499128E+03</pdfrwt>
<pdfrwt beam="2">  1       -4 0.20033159E-01 0.12499128E+03</pdfrwt>
<totfact> 0.97321440E+03</totfact>
</mgrwt>
</event>
<event>
 5    1  0.3312706E-002  0.1249950E+03  0.7818608E-02  0.1235077E+00
         -4   -1    0    0    0  501 -0.00000000000E+00  0.00000000000E+00  0.36037711921E+02  0.36060082924E+02  0.12700000000E+01 0. -1.
          4   -1    0    0  501    0  0.00000000000E+00 -0.00000000000E+00 -0.10832494656E+03  0.10833239103E+03  0.12700000000E+01 0. -1.
         25    2    1    2    0    0  0.00000000000E+00  0.00000000000E+00 -0.72287234635E+02  0.14439247395E+03  0.12499496887E+03 0.  0.
    9000005    1    3    3    0    0  0.50205144937E+02  0.30757611799E+02 -0.11957748798E+02  0.60088060528E+02  0.10000000000E+01 0.  0.
    9000005    1    3    3    0    0 -0.50205144937E+02 -0.30757611799E+02 -0.60329485837E+02  0.84304413426E+02  0.10000000000E+01 0.  0.
<mgrwt>
<rscale>  0 0.12499497E+03</rscale>
<asrwt>0</asrwt>
<pdfrwt beam="2">  1        4 0.16667670E-01 0.12499497E+03</pdfrwt>
<pdfrwt beam="1">  1       -4 0.55465569E-02 0.12499497E+03</pdfrwt>
<totfact> 0.10044485E+04</totfact>
</mgrwt>
</event>
<event>
 5    1  0.3312706E-002  0.1250013E+03  0.7818608E-02  0.1235067E+00
          4   -1    0    0  501    0  0.00000000000E+00  0.00000000000E+00  0.16654421475E+02  0.16702773861E+02  0.12700000000E+01 0. -1.
         -4   -1    0    0    0  501 -0.00000000000E+00 -0.00000000000E+00 -0.23416203523E+03  0.23416547918E+03  0.12700000000E+01 0. -1.
         25    2    1    2    0    0  0.00000000000E+00  0.00000000000E+00 -0.21750761375E+03  0.25086825305E+03  0.12500127338E+03 0.  0.
    9000005    1    3    3    0    0  0.13422764475E+02 -0.61029051863E+02 -0.10718146164E+03  0.12407087288E+03  0.10000000000E+01 0.  0.
    9000005    1    3    3    0    0 -0.13422764475E+02  0.61029051863E+02 -0.11032615211E+03  0.12679738016E+03  0.10000000000E+01 0.  0.
<mgrwt>
<rscale>  0 0.12500127E+03</rscale>
<asrwt>0</asrwt>
<pdfrwt beam="1">  1        4 0.25662032E-02 0.12500127E+03</pdfrwt>
<pdfrwt beam="2">  1       -4 0.36028910E-01 0.12500127E+03</pdfrwt>
<totfact> 0.82202569E+03</totfact>
</mgrwt>
</event>
<event>
 5    1  0.3312706E-002  0.1249991E+03  0.7818608E-02  0.1235071E+00
          4   -1    0    0  501    0  0.00000000000E+00  0.00000000000E+00  0.28922202539E+02  0.28950072534E+02  0.12700000000E+01 0.  1.
         -4   -1    0    0    0  501 -0.00000000000E+00 -0.00000000000E+00 -0.13496270809E+03  0.13496868331E+03  0.12700000000E+01 0.  1.
         25    2    1    2    0    0  0.00000000000E+00  0.00000000000E+00 -0.10604050555E+03  0.16391875585E+03  0.12499907880E+03 0.  0.
    9000005    1    3    3    0    0 -0.23723477876E+02  0.47527954241E+02 -0.96185358099E+02  0.10988326965E+03  0.10000000000E+01 0.  0.
    9000005    1    3    3    0    0  0.23723477876E+02 -0.47527954241E+02 -0.98551474523E+01  0.54035486194E+02  0.10000000000E+01 0.  0.
<mgrwt>
<rscale>  0 0.12499908E+03</rscale>
<asrwt>0</asrwt>
<pdfrwt beam="1">  1        4 0.44521732E-02 0.12499908E+03</pdfrwt>
<pdfrwt beam="2">  1       -4 0.20766097E-01 0.12499908E+03</pdfrwt>
<totfact> 0.96594555E+03</totfact>
</mgrwt>
</event>
<event>
 5    1  0.3312706E-002  0.1250006E+03  0.7818608E-02  0.1235068E+00
          4   -1    0    0  501    0  0.00000000000E+00  0.00000000000E+00  0.12587692830E+03  0.12588333479E+03  0.12700000000E+01 0.  1.
         -4   -1    0    0    0  501 -0.00000000000E+00 -0.00000000000E+00 -0.31012401302E+02  0.31038394522E+02  0.12700000000E+01 0.  1.
         25    2    1    2    0    0  0.00000000000E+00  0.00000000000E+00  0.94864526995E+02  0.15692172931E+03  0.12500060259E+03 0.  0.
    9000005    1    3    3    0    0 -0.47662217817E+01 -0.29238189946E+02  0.11650828730E+03  0.12021967240E+03  0.10000000000E+01 0.  0.
    9000005    1    3    3    0    0  0.47662217817E+01  0.29238189946E+02 -0.21643760307E+02  0.36702056912E+02  0.10000000000E+01 0.  0.
<mgrwt>
<rscale>  0 0.12500060E+03</rscale>
<asrwt>0</asrwt>
<pdfrwt beam="1">  1        4 0.19368173E-01 0.12500060E+03</pdfrwt>
<pdfrwt beam="2">  1       -4 0.47736311E-02 0.12500060E+03</pdfrwt>
<totfact> 0.97938228E+03</totfact>
</mgrwt>
</event>
<event>
 5    1  0.3312706E-002  0.1250002E+03  0.7818608E-02  0.1235069E+00
         -4   -1    0    0    0  501 -0.00000000000E+00  0.00000000000E+00  0.37690959748E+03  0.37691173711E+03  0.12700000000E+01 0.  1.
          4   -1    0    0  501    0  0.00000000000E+00 -0.00000000000E+00 -0.10322833243E+02  0.10400662775E+02  0.12700000000E+01 0.  1.
         25    2    1    2    0    0  0.00000000000E+00  0.00000000000E+00  0.36658676424E+03  0.38731239989E+03  0.12500015757E+03 0.  0.
    9000005    1    3    3    0    0 -0.57266512986E+01  0.28438971065E+02  0.35479699257E+03  0.35598240905E+03  0.10000000000E+01 0.  0.
    9000005    1    3    3    0    0  0.57266512986E+01 -0.28438971065E+02  0.11789771665E+02  0.31329990844E+02  0.10000000000E+01 0.  0.
<mgrwt>
<rscale>  0 0.12500016E+03</rscale>
<asrwt>0</asrwt>
<pdfrwt beam="2">  1        4 0.15942796E-02 0.12500016E+03</pdfrwt>
<pdfrwt beam="1">  1       -4 0.57992244E-01 0.12500016E+03</pdfrwt>
<totfact> 0.65805532E+03</totfact>
</mgrwt>
</event>
<event>
 5    1  0.3312706E-002  0.1250006E+03  0.7818608E-02  0.1235068E+00
         -4   -1    0    0    0  501 -0.00000000000E+00  0.00000000000E+00  0.27270838511E+02  0.27300394376E+02  0.12700000000E+01 0. -1.
          4   -1    0    0  501    0  0.00000000000E+00 -0.00000000000E+00 -0.14313052940E+03  0.14313616366E+03  0.12700000000E+01 0. -1.
         25    2    1    2    0    0  0.00000000000E+00  0.00000000000E+00 -0.11585969089E+03  0.17043655804E+03  0.12500060936E+03 0.  0.
    9000005    1    3    3    0    0 -0.58722301117E+02  0.21067428329E+02 -0.52986781434E+02  0.81858073466E+02  0.10000000000E+01 0.  0.
    9000005    1    3    3    0    0  0.58722301117E+02 -0.21067428329E+02 -0.62872909457E+02  0.88578484569E+02  0.10000000000E+01 0.  0.
<mgrwt>
<rscale>  0 0.12500061E+03</rscale>
<asrwt>0</asrwt>
<pdfrwt beam="2">  1        4 0.22022788E-01 0.12500061E+03</pdfrwt>
<pdfrwt beam="1">  1       -4 0.41982206E-02 0.12500061E+03</pdfrwt>
<totfact> 0.95366026E+03</totfact>
</mgrwt>
</event>
<event>
 5    1  0.3312706E-002  0.1250022E+03  0.7818608E-02  0.1235066E+00
          4   -1    0    0  501    0  0.00000000000E+00  0.00000000000E+00  0.59834976099E+01  0.61167919409E+01  0.12700000000E+01 0. -1.
         -4   -1    0    0    0  501 -0.00000000000E+00 -0.00000000000E+00 -0.64553430334E+03  0.64553555261E+03  0.12700000000E+01 0. -1.
         25    2    1    2    0    0  0.00000000000E+00  0.00000000000E+00 -0.63955080573E+03  0.65165234455E+03  0.12500218020E+03 0.  0.
    9000005    1    3    3    0    0  0.48885845131E+02 -0.53917771934E+00 -0.11684676351E+03  0.12666602823E+03  0.10000000000E+01 0.  0.
    9000005    1    3    3    0    0 -0.48885845131E+02  0.53917771934E+00 -0.52270404222E+03  0.52498631632E+03  0.10000000000E+01 0.  0.
<mgrwt>
<rscale>  0 0.12500218E+03</rscale>
<asrwt>0</asrwt>
<pdfrwt beam="1">  1        4 0.93088811E-03 0.12500218E+03</pdfrwt>
<pdfrwt beam="2">  1       -4 0.99323265E-01 0.12500218E+03</pdfrwt>
<totfact> 0.45759099E+03</totfact>
</mgrwt>
</event>
<event>
 5    1  0.3312706E-002  0.1249946E+03  0.7818608E-02  0.1235078E+00
         -4   -1    0    0    0  501 -0.00000000000E+00  0.00000000000E+00  0.23384250121E+03  0.23384594988E+03  0.12700000000E+01 0.  1.
          4   -1    0    0  501    0  0.00000000000E+00 -0.00000000000E+00 -0.16675445609E+02  0.16723737210E+02  0.12700000000E+01 0.  1.
         25    2    1    2    0    0  0.00000000000E+00  0.00000000000E+00  0.21716705560E+03  0.25056968709E+03  0.12499455207E+03 0.  0.
    9000005    1    3    3    0    0  0.57909676648E+02 -0.16087110404E+02  0.74293918211E+02  0.95566270482E+02  0.10000000000E+01 0.  0.
    9000005    1    3    3    0    0 -0.57909676648E+02  0.16087110404E+02  0.14287313739E+03  0.15500341660E+03  0.10000000000E+01 0.  0.
<mgrwt>
<rscale>  0 0.12499455E+03</rscale>
<asrwt>0</asrwt>
<pdfrwt beam="2">  1        4 0.25694331E-02 0.12499455E+03</pdfrwt>
<pdfrwt beam="1">  1       -4 0.35979751E-01 0.12499455E+03</pdfrwt>
<totfact> 0.82257940E+03</totfact>
</mgrwt>
</event>
<event>
 5    1  0.3312706E-002  0.1249859E+03  0.7818608E-02  0.1235091E+00
         -4   -1    0    0    0  501 -0.00000000000E+00  0.00000000000E+00  0.35116245750E+03  0.35116475401E+03  0.12700000000E+01 0. -1.
          4   -1    0    0  501    0  0.00000000000E+00 -0.00000000000E+00 -0.11082665496E+02  0.11155194956E+02  0.12700000000E+01 0. -1.
         25    2    1    2    0    0  0.00000000000E+00  0.00000000000E+00  0.34007979200E+03  0.36231994896E+03  0.12498592116E+03 0.  0.
    9000005    1    3    3    0    0 -0.36464257935E+02  0.17502207383E+02  0.31972529102E+02  0.51567547810E+02  0.10000000000E+01 0.  0.
    9000005    1    3    3    0    0  0.36464257935E+02 -0.17502207383E+02  0.30810726290E+03  0.31075240115E+03  0.10000000000E+01 0.  0.
<mgrwt>
<rscale>  0 0.12498592E+03</rscale>
<asrwt>0</asrwt>
<pdfrwt beam="2">  1        4 0.17107815E-02 0.12498592E+03</pdfrwt>
<pdfrwt beam="1">  1       -4 0.54030744E-01 0.12498592E+03</pdfrwt>
<totfact> 0.68411442E+03</totfact>
</mgrwt>
</event>
<event>
 5    1  0.3312706E-002  0.1250034E+03  0.7818608E-02  0.1235064E+00
          4   -1    0    0  501    0  0.00000000000E+00  0.00000000000E+00  0.18006415923E+03  0.18006863785E+03  0.12700000000E+01 0. -1.
         -4   -1    0    0    0  501 -0.00000000000E+00 -0.00000000000E+00 -0.21671503460E+02  0.21708684028E+02  0.12700000000E+01 0. -1.
         25    2    1    2    0    0  0.00000000000E+00  0.00000000000E+00  0.15839265577E+03  0.20177732188E+03  0.12500341685E+03 0.  0.
    9000005    1    3    3    0    0 -0.48174447930E+02 -0.21761965887E+02  0.13300194567E+03  0.14312539308E+03  0.10000000000E+01 0.  0.
    9000005    1    3    3    0    0  0.48174447930E+02  0.21761965887E+02  0.25390710096E+02  0.58651928798E+02  0.10000000000E+01 0.  0.
<mgrwt>
<rscale>  0 0.12500342E+03</rscale>
<asrwt>0</asrwt>
<pdfrwt beam="1">  1        4 0.27705382E-01 0.12500342E+03</pdfrwt>
<pdfrwt beam="2">  1       -4 0.33372822E-02 0.12500342E+03</pdfrwt>
<totfact> 0.89829743E+03</totfact>
</mgrwt>
</event>
<event>
 5    1  0.3312706E-002  0.1250020E+03  0.7818608E-02  0.1235066E+00
         -4   -1    0    0    0  501 -0.00000000000E+00  0.00000000000E+00  0.51842361396E+03  0.51842516954E+03  0.12700000000E+01 0.  1.
          4   -1    0    0  501    0  0.00000000000E+00 -0.00000000000E+00 -0.74800057756E+01  0.75870538685E+01  0.12700000000E+01 0.  1.
         25    2    1    2    0    0  0.00000000000E+00  0.00000000000E+00  0.51094360819E+03  0.52601222341E+03  0.12500195370E+03 0.  0.
    9000005    1    3    3    0    0 -0.50799001965E+02 -0.23637270593E+02  0.13899875735E+03  0.14986965572E+03  0.10000000000E+01 0.  0.
    9000005    1    3    3    0    0  0.50799001965E+02  0.23637270593E+02  0.37194485084E+03  0.37614256769E+03  0.10000000000E+01 0.  0.
<mgrwt>
<rscale>  0 0.12500195E+03</rscale>
<asrwt>0</asrwt>
<pdfrwt beam="2">  1        4 0.11591236E-02 0.12500195E+03</pdfrwt>
<pdfrwt beam="1">  1       -4 0.79765880E-01 0.12500195E+03</pdfrwt>
<totfact> 0.53898813E+03</totfact>
</mgrwt>
</event>
<event>
 5    1  0.3312706E-002  0.1249969E+03  0.7818608E-02  0.1235074E+00
          4   -1    0    0  501    0  0.00000000000E+00  0.00000000000E+00  0.10246354105E+03  0.10247141135E+03  0.12700000000E+01 0.  1.
         -4   -1    0    0    0  501 -0.00000000000E+00 -0.00000000000E+00 -0.38101512327E+02  0.38122672278E+02  0.12700000000E+01 0.  1.
         25    2    1    2    0    0  0.00000000000E+00  0.00000000000E+00  0.64362028721E+02  0.14059408363E+03  0.12499690240E+03 0.  0.
    9000005    1    3    3    0    0  0.29374956848E+02  0.40025285875E+02 -0.10503552177E+02  0.50756637079E+02  0.10000000000E+01 0.  0.
    9000005    1    3    3    0    0 -0.29374956848E+02 -0.40025285875E+02  0.74865580898E+02  0.89837446549E+02  0.10000000000E+01 0.  0.
<mgrwt>
<rscale>  0 0.12499690E+03</rscale>
<asrwt>0</asrwt>
<pdfrwt beam="1">  1        4 0.15765855E-01 0.12499690E+03</pdfrwt>
<pdfrwt beam="2">  1       -4 0.58640043E-02 0.12499690E+03</pdfrwt>
<totfact> 0.10121994E+04</totfact>
</mgrwt>
</event>
<event>
 5    1  0.3312706E-002  0.1249829E+03  0.7818608E-02  0.1235096E+00
          4   -1    0    0  501    0  0.00000000000E+00  0.00000000000E+00  0.48460246450E+02  0.48476885069E+02  0.12700000000E+01 0.  1.
         -4   -1    0    0    0  501 -0.00000000000E+00 -0.00000000000E+00 -0.80549737395E+02  0.80559748599E+02  0.12700000000E+01 0.  1.
         25    2    1    2    0    0  0.00000000000E+00  0.00000000000E+00 -0.32089490945E+02  0.12903663367E+03  0.12498286842E+03 0.  0.
    9000005    1    3    3    0    0 -0.55608280765E+02  0.28012666393E+02 -0.21428174707E+02  0.65857095588E+02  0.10000000000E+01 0.  0.
    9000005    1    3    3    0    0  0.55608280765E+02 -0.28012666393E+02 -0.10661316238E+02  0.63179538080E+02  0.10000000000E+01 0.  0.
<mgrwt>
<rscale>  0 0.12498287E+03</rscale>
<asrwt>0</asrwt>
<pdfrwt beam="1">  1        4 0.74574725E-02 0.12498287E+03</pdfrwt>
<pdfrwt beam="2">  1       -4 0.12394317E-01 0.12498287E+03</pdfrwt>
<totfact> 0.10369169E+04</totfact>
</mgrwt>
</event>
<event>
 5    1  0.3312706E-002  0.1249988E+03  0.7818608E-02  0.1235071E+00
          4   -1    0    0  501    0  0.00000000000E+00  0.00000000000E+00  0.10575852683E+02  0.10651833644E+02  0.12700000000E+01 0.  1.
         -4   -1    0    0    0  501 -0.00000000000E+00 -0.00000000000E+00 -0.36794919775E+03  0.36795138949E+03  0.12700000000E+01 0.  1.
         25    2    1    2    0    0  0.00000000000E+00  0.00000000000E+00 -0.35737334507E+03  0.37860322313E+03  0.12499877119E+03 0.  0.
    9000005    1    3    3    0    0  0.46584808297E+02  0.49150637730E+01 -0.53405100686E+02  0.71045105357E+02  0.10000000000E+01 0.  0.
    9000005    1    3    3    0    0 -0.46584808297E+02 -0.49150637730E+01 -0.30396824438E+03  0.30755811777E+03  0.10000000000E+01 0.  0.
<mgrwt>
<rscale>  0 0.12499877E+03</rscale>
<asrwt>0</asrwt>
<pdfrwt beam="1">  1        4 0.16330678E-02 0.12499877E+03</pdfrwt>
<pdfrwt beam="2">  1       -4 0.56613572E-01 0.12499877E+03</pdfrwt>
<totfact> 0.66690197E+03</totfact>
</mgrwt>
</event>
<event>
 5    1  0.3312706E-002  0.1249625E+03  0.7818608E-02  0.1235128E+00
          4   -1    0    0  501    0  0.00000000000E+00  0.00000000000E+00  0.11767436046E+02  0.11835769983E+02  0.12700000000E+01 0. -1.
         -4   -1    0    0    0  501 -0.00000000000E+00 -0.00000000000E+00 -0.33072481842E+03  0.33072725684E+03  0.12700000000E+01 0. -1.
         25    2    1    2    0    0  0.00000000000E+00  0.00000000000E+00 -0.31895738237E+03  0.34256302682E+03  0.12496245667E+03 0.  0.
    9000005    1    3    3    0    0  0.16306778782E+01  0.62402944861E+02 -0.15269854154E+03  0.16496857648E+03  0.10000000000E+01 0.  0.
    9000005    1    3    3    0    0 -0.16306778782E+01 -0.62402944861E+02 -0.16625884083E+03  0.17759445034E+03  0.10000000000E+01 0.  0.
<mgrwt>
<rscale>  0 0.12496246E+03</rscale>
<asrwt>0</asrwt>
<pdfrwt beam="1">  1        4 0.18158191E-02 0.12496246E+03</pdfrwt>
<pdfrwt beam="2">  1       -4 0.50886178E-01 0.12496246E+03</pdfrwt>
<totfact> 0.70609213E+03</totfact>
</mgrwt>
</event>
<event>
 5    1  0.3312706E-002  0.1250080E+03  0.7818608E-02  0.1235057E+00
         -4   -1    0    0    0  501 -0.00000000000E+00  0.00000000000E+00  0.29167832332E+01  0.31812771696E+01  0.12700000000E+01 0.  1.
          4   -1    0    0  501    0  0.00000000000E+00 -0.00000000000E+00 -0.12810446154E+04  0.12810452449E+04  0.12700000000E+01 0.  1.
         25    2    1    2    0    0  0.00000000000E+00  0.00000000000E+00 -0.12781278322E+04  0.12842265221E+04  0.12500801851E+03 0.  0.
    9000005    1    3    3    0    0  0.45293256800E+02  0.20665283943E+02 -0.10271686464E+04  0.10283749128E+04  0.10000000000E+01 0.  0.
    9000005    1    3    3    0    0 -0.45293256800E+02 -0.20665283943E+02 -0.25095918574E+03  0.25585160930E+03  0.10000000000E+01 0.  0.
<mgrwt>
<rscale>  0 0.12500802E+03</rscale>
<asrwt>0</asrwt>
<pdfrwt beam="2">  1        4 0.19710375E+00 0.12500802E+03</pdfrwt>
<pdfrwt beam="1">  1       -4 0.46913102E-03 0.12500802E+03</pdfrwt>
<totfact> 0.22599997E+03</totfact>
</mgrwt>
</event>
<event>
 5    1  0.3312706E-002  0.1250019E+03  0.7818608E-02  0.1235066E+00
         -4   -1    0    0    0  501 -0.00000000000E+00  0.00000000000E+00  0.18568877914E+03  0.18569312211E+03  0.12700000000E+01 0.  1.
          4   -1    0    0  501    0  0.00000000000E+00 -0.00000000000E+00 -0.21013415707E+02  0.21051758589E+02  0.12700000000E+01 0.  1.
         25    2    1    2    0    0  0.00000000000E+00  0.00000000000E+00  0.16467536344E+03  0.20674488070E+03  0.12500188148E+03 0.  0.
    9000005    1    3    3    0    0 -0.47078883092E+02 -0.15438824990E+01  0.15026109025E+03  0.15747444253E+03  0.10000000000E+01 0.  0.
    9000005    1    3    3    0    0  0.47078883092E+02  0.15438824990E+01  0.14414273187E+02  0.49270438174E+02  0.10000000000E+01 0.  0.
<mgrwt>
<rscale>  0 0.12500188E+03</rscale>
<asrwt>0</asrwt>
<pdfrwt beam="2">  1        4 0.32361167E-02 0.12500188E+03</pdfrwt>
<pdfrwt beam="1">  1       -4 0.28570788E-01 0.12500188E+03</pdfrwt>
<totfact> 0.89006513E+03</totfact>
</mgrwt>
</event>
<event>
 5    1  0.3312706E-002  0.1249924E+03  0.7818608E-02  0.1235081E+00
         -4   -1    0    0    0  501 -0.00000000000E+00  0.00000000000E+00  0.11289521601E+02  0.11360730521E+02  0.12700000000E+01 0.  1.
          4   -1    0    0  501    0  0.00000000000E+00 -0.00000000000E+00 -0.34480444716E+03  0.34480678601E+03  0.12700000000E+01 0.  1.
         25    2    1    2    0    0  0.00000000000E+00  0.00000000000E+00 -0.33351492556E+03  0.35616751653E+03  0.12499237682E+03 0.  0.
    9000005    1    3    3    0    0  0.25893765420E+02  0.20870012308E+02 -0.16009583755E+02  0.36923586952E+02  0.10000000000E+01 0.  0.
    9000005    1    3    3    0    0 -0.25893765420E+02 -0.20870012308E+02 -0.31750534180E+03  0.31924392958E+03  0.10000000000E+01 0.  0.
<mgrwt>
<rscale>  0 0.12499238E+03</rscale>
<asrwt>0</asrwt>
<pdfrwt beam="2">  1        4 0.53052488E-01 0.12499238E+03</pdfrwt>
<pdfrwt beam="1">  1       -4 0.17425073E-02 0.12499238E+03</pdfrwt>
<totfact> 0.69062991E+03</totfact>
</mgrwt>
</event>
<event>
 5    1  0.3312706E-002  0.1250058E+03  0.7818608E-02  0.1235060E+00
         -4   -1    0    0    0  501 -0.00000000000E+00  0.00000000000E+00  0.55450557345E+02  0.55465099026E+02  0.12700000000E+01 0. -1.
          4   -1    0    0  501    0  0.00000000000E+00 -0.00000000000E+00 -0.70422683361E+02  0.70434133996E+02  0.12700000000E+01 0. -1.
         25    2    1    2    0    0  0.00000000000E+00  0.00000000000E+00 -0.14972126016E+02  0.12589923302E+03  0.12500580914E+03 0.  0.
    9000005    1    3    3    0    0 -0.11139388553E+02  0.58368647875E+02 -0.26979707127E+02  0.65267829968E+02  0.10000000000E+01 0.  0.
    9000005    1    3    3    0    0  0.11139388553E+02 -0.58368647875E+02  0.12007581111E+02  0.60631403054E+02  0.10000000000E+01 0.  0.
<mgrwt>
<rscale>  0 0.12500581E+03</rscale>
<asrwt>0</asrwt>
<pdfrwt beam="2">  1        4 0.10836258E-01 0.12500581E+03</pdfrwt>
<pdfrwt beam="1">  1       -4 0.85328544E-02 0.12500581E+03</pdfrwt>
<totfact> 0.10431799E+04</totfact>
</mgrwt>
</event>
<event>
 5    1  0.3312706E-002  0.1249994E+03  0.7818608E-02  0.1235070E+00
          4   -1    0    0  501    0  0.00000000000E+00  0.00000000000E+00  0.27855596663E+03  0.27855886172E+03  0.12700000000E+01 0.  1.
         -4   -1    0    0    0  501 -0.00000000000E+00 -0.00000000000E+00 -0.13991358883E+02  0.14048879792E+02  0.12700000000E+01 0.  1.
         25    2    1    2    0    0  0.00000000000E+00  0.00000000000E+00  0.26456460774E+03  0.29260774151E+03  0.12499943489E+03 0.  0.
    9000005    1    3    3    0    0  0.24094049881E+02  0.15015311663E+02  0.26260042089E+03  0.26413247410E+03  0.10000000000E+01 0.  0.
    9000005    1    3    3    0    0 -0.24094049881E+02 -0.15015311663E+02  0.19641868515E+01  0.28475267408E+02  0.10000000000E+01 0.  0.
<mgrwt>
<rscale>  0 0.12499943E+03</rscale>
<asrwt>0</asrwt>
<pdfrwt beam="1">  1        4 0.42859408E-01 0.12499943E+03</pdfrwt>
<pdfrwt beam="2">  1       -4 0.21571643E-02 0.12499943E+03</pdfrwt>
<totfact> 0.76536527E+03</totfact>
</mgrwt>
</event>
<event>
 5    1  0.3312706E-002  0.1250047E+03  0.7818608E-02  0.1235062E+00
         -4   -1    0    0    0  501 -0.00000000000E+00  0.00000000000E+00  0.77918158837E+01  0.78946370889E+01  0.12700000000E+01 0. -1.
          4   -1    0    0  501    0  0.00000000000E+00 -0.00000000000E+00 -0.49797485718E+03  0.49797647664E+03  0.12700000000E+01 0. -1.
         25    2    1    2    0    0  0.00000000000E+00  0.00000000000E+00 -0.49018304130E+03  0.50587111373E+03  0.12500467882E+03 0.  0.
    9000005    1    3    3    0    0 -0.51044139468E+02 -0.29167243295E+02 -0.15931138278E+03  0.16981563220E+03  0.10000000000E+01 0.  0.
    9000005    1    3    3    0    0  0.51044139468E+02  0.29167243295E+02 -0.33087165852E+03  0.33605548153E+03  0.10000000000E+01 0.  0.
<mgrwt>
<rscale>  0 0.12500468E+03</rscale>
<asrwt>0</asrwt>
<pdfrwt beam="2">  1        4 0.76619526E-01 0.12500468E+03</pdfrwt>
<pdfrwt beam="1">  1       -4 0.12067752E-02 0.12500468E+03</pdfrwt>
<totfact> 0.55406012E+03</totfact>
</mgrwt>
</event>
<event>
 4    1  0.3312706E-002  0.1251664E+03  0.7818608E-02  0.1234810E+00
          4   -1    0    0  501    0  0.00000000000E+00  0.00000000000E+00  0.20706797522E+03  0.20707186979E+03  0.12700000000E+01 0.  1.
         -4   -1    0    0    0  501 -0.00000000000E+00 -0.00000000000E+00 -0.18889426469E+02  0.18932071528E+02  0.12700000000E+01 0.  1.
    9000005    1    1    2    0    0  0.45761202616E+02  0.37825794970E+02  0.58395536764E+02  0.83282153814E+02  0.10000000000E+01 0.  0.
    9000005    1    1    2    0    0 -0.45761202616E+02 -0.37825794970E+02  0.12978301198E+03  0.14272178751E+03  0.10000000000E+01 0.  0.
<mgrwt>
<rscale>  0 0.12516635E+03</rscale>
<asrwt>0</asrwt>
<pdfrwt beam="1">  1        4 0.31860191E-01 0.12516635E+03</pdfrwt>
<pdfrwt beam="2">  1       -4 0.29096457E-02 0.12516635E+03</pdfrwt>
<totfact> 0.85608745E+03</totfact>
</mgrwt>
</event>
<event>
 5    1  0.3312706E-002  0.1250003E+03  0.7818608E-02  0.1235069E+00
          4   -1    0    0  501    0  0.00000000000E+00  0.00000000000E+00  0.31742567643E+02  0.31767963432E+02  0.12700000000E+01 0. -1.
         -4   -1    0    0    0  501 -0.00000000000E+00 -0.00000000000E+00 -0.12298301630E+03  0.12298957354E+03  0.12700000000E+01 0. -1.
         25    2    1    2    0    0  0.00000000000E+00  0.00000000000E+00 -0.91240448659E+02  0.15475753697E+03  0.12500030311E+03 0.  0.
    9000005    1    3    3    0    0  0.33989543885E+01 -0.41729192682E+02 -0.10305848489E+03  0.11124266143E+03  0.10000000000E+01 0.  0.
    9000005    1    3    3    0    0 -0.33989543885E+01  0.41729192682E+02  0.11818036235E+02  0.43514875541E+02  0.10000000000E+01 0.  0.
<mgrwt>
<rscale>  0 0.12500030E+03</rscale>
<asrwt>0</asrwt>
<pdfrwt beam="1">  1        4 0.48859299E-02 0.12500030E+03</pdfrwt>
<pdfrwt beam="2">  1       -4 0.18922922E-01 0.12500030E+03</pdfrwt>
<totfact> 0.98362448E+03</totfact>
</mgrwt>
</event>
<event>
 5    1  0.3312706E-002  0.1250062E+03  0.7818608E-02  0.1235060E+00
          4   -1    0    0  501    0  0.00000000000E+00  0.00000000000E+00  0.83352071161E+01  0.84314042524E+01  0.12700000000E+01 0.  1.
         -4   -1    0    0    0  501 -0.00000000000E+00 -0.00000000000E+00 -0.46590470842E+03  0.46590643935E+03  0.12700000000E+01 0.  1.
         25    2    1    2    0    0  0.00000000000E+00  0.00000000000E+00 -0.45756950130E+03  0.47433784360E+03  0.12500616525E+03 0.  0.
    9000005    1    3    3    0    0 -0.28163069758E+02 -0.11739254816E+02 -0.21829952087E+02  0.37530193311E+02  0.10000000000E+01 0.  0.
    9000005    1    3    3    0    0  0.28163069758E+02  0.11739254816E+02 -0.43573954921E+03  0.43680765029E+03  0.10000000000E+01 0.  0.
<mgrwt>
<rscale>  0 0.12500617E+03</rscale>
<asrwt>0</asrwt>
<pdfrwt beam="1">  1        4 0.12898728E-02 0.12500617E+03</pdfrwt>
<pdfrwt beam="2">  1       -4 0.71685160E-01 0.12500617E+03</pdfrwt>
<totfact> 0.57904050E+03</totfact>
</mgrwt>
</event>
<event>
 5    1  0.3312706E-002  0.1249961E+03  0.7818608E-02  0.1235075E+00
         -4   -1    0    0    0  501 -0.00000000000E+00  0.00000000000E+00  0.63614125403E+03  0.63614252175E+03  0.12700000000E+01 0.  1.
          4   -1    0    0  501    0  0.00000000000E+00 -0.00000000000E+00 -0.60731950506E+01  0.62045626859E+01  0.12700000000E+01 0.  1.
         25    2    1    2    0    0  0.00000000000E+00  0.00000000000E+00  0.63006805898E+03  0.64234708444E+03  0.12499607169E+03 0.  0.
    9000005    1    3    3    0    0 -0.11932598137E+02 -0.17093667761E+02  0.61777044791E+03  0.61812288964E+03  0.10000000000E+01 0.  0.
    9000005    1    3    3    0    0  0.11932598137E+02  0.17093667761E+02  0.12297611066E+02  0.24224194801E+02  0.10000000000E+01 0.  0.
<mgrwt>
<rscale>  0 0.12499607E+03</rscale>
<asrwt>0</asrwt>
<pdfrwt beam="2">  1        4 0.94454031E-03 0.12499607E+03</pdfrwt>
<pdfrwt beam="1">  1       -4 0.97878099E-01 0.12499607E+03</pdfrwt>
<totfact> 0.46303078E+03</totfact>
</mgrwt>
</event>
<event>
 5    1  0.3312706E-002  0.1250032E+03  0.7818608E-02  0.1235064E+00
          4   -1    0    0  501    0  0.00000000000E+00  0.00000000000E+00  0.75122493478E+02  0.75133227845E+02  0.12700000000E+01 0.  1.
         -4   -1    0    0    0  501 -0.00000000000E+00 -0.00000000000E+00 -0.51978878237E+02  0.51994390878E+02  0.12700000000E+01 0.  1.
         25    2    1    2    0    0  0.00000000000E+00  0.00000000000E+00  0.23143615241E+02  0.12712761872E+03  0.12500321802E+03 0.  0.
    9000005    1    3    3    0    0 -0.10061740139E+02 -0.28481046528E+01 -0.51087787959E+02  0.52156614090E+02  0.10000000000E+01 0.  0.
    9000005    1    3    3    0    0  0.10061740139E+02  0.28481046528E+01  0.74231403200E+02  0.74971004633E+02  0.10000000000E+01 0.  0.
<mgrwt>
<rscale>  0 0.12500322E+03</rscale>
<asrwt>0</asrwt>
<pdfrwt beam="1">  1        4 0.11559326E-01 0.12500322E+03</pdfrwt>
<pdfrwt beam="2">  1       -4 0.79987695E-02 0.12500322E+03</pdfrwt>
<totfact> 0.10405618E+04</totfact>
</mgrwt>
</event>
<event>
 5    1  0.3312706E-002  0.1249988E+03  0.7818608E-02  0.1235071E+00
          4   -1    0    0  501    0  0.00000000000E+00  0.00000000000E+00  0.26514107647E+03  0.26514411804E+03  0.12700000000E+01 0. -1.
         -4   -1    0    0    0  501 -0.00000000000E+00 -0.00000000000E+00 -0.14701941662E+02  0.14756693012E+02  0.12700000000E+01 0. -1.
         25    2    1    2    0    0  0.00000000000E+00  0.00000000000E+00  0.25043913480E+03  0.27990081105E+03  0.12499881513E+03 0.  0.
    9000005    1    3    3    0    0 -0.33838245696E+02  0.47166828945E+02  0.73404819271E+02  0.93589551322E+02  0.10000000000E+01 0.  0.
    9000005    1    3    3    0    0  0.33838245696E+02 -0.47166828945E+02  0.17703431553E+03  0.18631125973E+03  0.10000000000E+01 0.  0.
<mgrwt>
<rscale>  0 0.12499882E+03</rscale>
<asrwt>0</asrwt>
<pdfrwt beam="1">  1        4 0.40795382E-01 0.12499882E+03</pdfrwt>
<pdfrwt beam="2">  1       -4 0.22662827E-02 0.12499882E+03</pdfrwt>
<totfact> 0.78193316E+03</totfact>
</mgrwt>
</event>
<event>
 5    1  0.3312706E-002  0.1250005E+03  0.7818608E-02  0.1235069E+00
         -4   -1    0    0    0  501 -0.00000000000E+00  0.00000000000E+00  0.24211558033E+03  0.24211891115E+03  0.12700000000E+01 0. -1.
          4   -1    0    0  501    0  0.00000000000E+00 -0.00000000000E+00 -0.16105506766E+02  0.16155502102E+02  0.12700000000E+01 0. -1.
         25    2    1    2    0    0  0.00000000000E+00  0.00000000000E+00  0.22601007356E+03  0.25827441326E+03  0.12500047676E+03 0.  0.
    9000005    1    3    3    0    0  0.30066442222E+02 -0.50712227893E+02  0.70181649126E+02  0.91663432620E+02  0.10000000000E+01 0.  0.
    9000005    1    3    3    0    0 -0.30066442222E+02  0.50712227893E+02  0.15582842444E+03  0.16661098064E+03  0.10000000000E+01 0.  0.
<mgrwt>
<rscale>  0 0.12500048E+03</rscale>
<asrwt>0</asrwt>
<pdfrwt beam="2">  1        4 0.24818725E-02 0.12500048E+03</pdfrwt>
<pdfrwt beam="1">  1       -4 0.37252650E-01 0.12500048E+03</pdfrwt>
<totfact> 0.81147974E+03</totfact>
</mgrwt>
</event>
<event>
 5    1  0.3312706E-002  0.1249983E+03  0.7818608E-02  0.1235072E+00
          4   -1    0    0  501    0  0.00000000000E+00  0.00000000000E+00  0.44338618205E+02  0.44356802909E+02  0.12700000000E+01 0.  1.
         -4   -1    0    0    0  501 -0.00000000000E+00 -0.00000000000E+00 -0.88057230289E+02  0.88066388061E+02  0.12700000000E+01 0.  1.
         25    2    1    2    0    0  0.00000000000E+00  0.00000000000E+00 -0.43718612083E+02  0.13242319097E+03  0.12499833785E+03 0.  0.
    9000005    1    3    3    0    0  0.11645805919E+02 -0.54311208624E+02  0.84738402497E+01  0.56197314404E+02  0.10000000000E+01 0.  0.
    9000005    1    3    3    0    0 -0.11645805919E+02  0.54311208624E+02 -0.52192452333E+02  0.76225876566E+02  0.10000000000E+01 0.  0.
<mgrwt>
<rscale>  0 0.12499834E+03</rscale>
<asrwt>0</asrwt>
<pdfrwt beam="1">  1        4 0.68234291E-02 0.12499834E+03</pdfrwt>
<pdfrwt beam="2">  1       -4 0.13549369E-01 0.12499834E+03</pdfrwt>
<totfact> 0.10293060E+04</totfact>
</mgrwt>
</event>
<event>
 5    1  0.3312706E-002  0.1250019E+03  0.7818608E-02  0.1235066E+00
          4   -1    0    0  501    0  0.00000000000E+00  0.00000000000E+00  0.12816251413E+03  0.12816880638E+03  0.12700000000E+01 0. -1.
         -4   -1    0    0    0  501 -0.00000000000E+00 -0.00000000000E+00 -0.30459528506E+02  0.30485993124E+02  0.12700000000E+01 0. -1.
         25    2    1    2    0    0  0.00000000000E+00  0.00000000000E+00  0.97702985627E+02  0.15865479950E+03  0.12500188801E+03 0.  0.
    9000005    1    3    3    0    0  0.15156847857E+02  0.25110519496E+02  0.11889008462E+03  0.12245864791E+03  0.10000000000E+01 0.  0.
    9000005    1    3    3    0    0 -0.15156847857E+02 -0.25110519496E+02 -0.21187098996E+02  0.36196151594E+02  0.10000000000E+01 0.  0.
<mgrwt>
<rscale>  0 0.12500189E+03</rscale>
<asrwt>0</asrwt>
<pdfrwt beam="1">  1        4 0.19719830E-01 0.12500189E+03</pdfrwt>
<pdfrwt beam="2">  1       -4 0.46886010E-02 0.12500189E+03</pdfrwt>
<totfact> 0.97598615E+03</totfact>
</mgrwt>
</event>
<event>
 5    1  0.3312706E-002  0.1249979E+03  0.7818608E-02  0.1235073E+00
          4   -1    0    0  501    0  0.00000000000E+00  0.00000000000E+00  0.14390785550E+03  0.14391345932E+03  0.12700000000E+01 0. -1.
         -4   -1    0    0    0  501 -0.00000000000E+00 -0.00000000000E+00 -0.27122207372E+02  0.27151925028E+02  0.12700000000E+01 0. -1.
         25    2    1    2    0    0  0.00000000000E+00  0.00000000000E+00  0.11678564813E+03  0.17106538435E+03  0.12499791244E+03 0.  0.
    9000005    1    3    3    0    0  0.47201425911E+02 -0.40407084254E+02  0.49272467748E+02  0.79306261694E+02  0.10000000000E+01 0.  0.
    9000005    1    3    3    0    0 -0.47201425911E+02  0.40407084254E+02  0.67513180380E+02  0.91759122658E+02  0.10000000000E+01 0.  0.
<mgrwt>
<rscale>  0 0.12499791E+03</rscale>
<asrwt>0</asrwt>
<pdfrwt beam="1">  1        4 0.22142387E-01 0.12499791E+03</pdfrwt>
<pdfrwt beam="2">  1       -4 0.41753644E-02 0.12499791E+03</pdfrwt>
<totfact> 0.95254898E+03</totfact>
</mgrwt>
</event>
<event>
 5    1  0.3312706E-002  0.1250102E+03  0.7818608E-02  0.1235053E+00
         -4   -1    0    0    0  501 -0.00000000000E+00  0.00000000000E+00  0.71564931436E+03  0.71565044124E+03  0.12700000000E+01 0. -1.
          4   -1    0    0  501    0  0.00000000000E+00 -0.00000000000E+00 -0.53842089718E+01  0.55319622424E+01  0.12700000000E+01 0. -1.
         25    2    1    2    0    0  0.00000000000E+00  0.00000000000E+00  0.71026510539E+03  0.72118240348E+03  0.12501015622E+03 0.  0.
    9000005    1    3    3    0    0 -0.49204572551E+02  0.29708002093E+02  0.21355942878E+03  0.22116121941E+03  0.10000000000E+01 0.  0.
    9000005    1    3    3    0    0  0.49204572551E+02 -0.29708002093E+02  0.49670567661E+03  0.50002118407E+03  0.10000000000E+01 0.  0.
<mgrwt>
<rscale>  0 0.12501016E+03</rscale>
<asrwt>0</asrwt>
<pdfrwt beam="2">  1        4 0.83979232E-03 0.12501016E+03</pdfrwt>
<pdfrwt beam="1">  1       -4 0.11011133E+00 0.12501016E+03</pdfrwt>
<totfact> 0.41982497E+03</totfact>
</mgrwt>
</event>
<event>
 5    1  0.3312706E-002  0.1249999E+03  0.7818608E-02  0.1235069E+00
          4   -1    0    0  501    0  0.00000000000E+00  0.00000000000E+00  0.18418305514E+02  0.18462038837E+02  0.12700000000E+01 0.  1.
         -4   -1    0    0    0  501 -0.00000000000E+00 -0.00000000000E+00 -0.21178774750E+03  0.21179155528E+03  0.12700000000E+01 0.  1.
         25    2    1    2    0    0  0.00000000000E+00  0.00000000000E+00 -0.19336944198E+03  0.23025359412E+03  0.12499990605E+03 0.  0.
    9000005    1    3    3    0    0  0.53555010340E+02  0.23920288611E+02 -0.56966655969E+02  0.81771139359E+02  0.10000000000E+01 0.  0.
    9000005    1    3    3    0    0 -0.53555010340E+02 -0.23920288611E+02 -0.13640278601E+03  0.14848245476E+03  0.10000000000E+01 0.  0.
<mgrwt>
<rscale>  0 0.12499991E+03</rscale>
<asrwt>0</asrwt>
<pdfrwt beam="1">  1        4 0.28372426E-02 0.12499991E+03</pdfrwt>
<pdfrwt beam="2">  1       -4 0.32586386E-01 0.12499991E+03</pdfrwt>
<totfact> 0.85270852E+03</totfact>
</mgrwt>
</event>
<event>
 5    1  0.3312706E-002  0.1250009E+03  0.7818608E-02  0.1235068E+00
         -4   -1    0    0    0  501 -0.00000000000E+00  0.00000000000E+00  0.26133828251E+02  0.26164668525E+02  0.12700000000E+01 0. -1.
          4   -1    0    0  501    0  0.00000000000E+00 -0.00000000000E+00 -0.14935144992E+03  0.14935684950E+03  0.12700000000E+01 0. -1.
         25    2    1    2    0    0  0.00000000000E+00  0.00000000000E+00 -0.12321762167E+03  0.17552151802E+03  0.12500088400E+03 0.  0.
    9000005    1    3    3    0    0 -0.24357254721E+00 -0.27256381214E+02 -0.14057137830E+03  0.14319316339E+03  0.10000000000E+01 0.  0.
    9000005    1    3    3    0    0  0.24357254721E+00  0.27256381214E+02  0.17353756630E+02  0.32328354638E+02  0.10000000000E+01 0.  0.
<mgrwt>
<rscale>  0 0.12500088E+03</rscale>
<asrwt>0</asrwt>
<pdfrwt beam="2">  1        4 0.22979933E-01 0.12500088E+03</pdfrwt>
<pdfrwt beam="1">  1       -4 0.40233767E-02 0.12500088E+03</pdfrwt>
<totfact> 0.94427540E+03</totfact>
</mgrwt>
</event>
<event>
 5    1  0.3312706E-002  0.1250001E+03  0.7818608E-02  0.1235069E+00
          4   -1    0    0  501    0  0.00000000000E+00  0.00000000000E+00  0.20092863085E+03  0.20093264442E+03  0.12700000000E+01 0.  1.
         -4   -1    0    0    0  501 -0.00000000000E+00 -0.00000000000E+00 -0.19416061428E+02  0.19457552297E+02  0.12700000000E+01 0.  1.
         25    2    1    2    0    0  0.00000000000E+00  0.00000000000E+00  0.18151256942E+03  0.22039019672E+03  0.12500010381E+03 0.  0.
    9000005    1    3    3    0    0 -0.36637049054E+02  0.35329786811E+02  0.26825508485E+02  0.57541942138E+02  0.10000000000E+01 0.  0.
    9000005    1    3    3    0    0  0.36637049054E+02 -0.35329786811E+02  0.15468706093E+03  0.16284825458E+03  0.10000000000E+01 0.  0.
<mgrwt>
<rscale>  0 0.12500010E+03</rscale>
<asrwt>0</asrwt>
<pdfrwt beam="1">  1        4 0.30915598E-01 0.12500010E+03</pdfrwt>
<pdfrwt beam="2">  1       -4 0.29905867E-02 0.12500010E+03</pdfrwt>
<totfact> 0.86806441E+03</totfact>
</mgrwt>
</event>
<event>
 5    1  0.3312706E-002  0.1250027E+03  0.7818608E-02  0.1235065E+00
         -4   -1    0    0    0  501 -0.00000000000E+00  0.00000000000E+00  0.13813536083E+02  0.13871794373E+02  0.12700000000E+01 0.  1.
          4   -1    0    0  501    0  0.00000000000E+00 -0.00000000000E+00 -0.28214180632E+03  0.28214466462E+03  0.12700000000E+01 0.  1.
         25    2    1    2    0    0  0.00000000000E+00  0.00000000000E+00 -0.26832827024E+03  0.29601645900E+03  0.12500273352E+03 0.  0.
    9000005    1    3    3    0    0 -0.59611192298E+00 -0.54262564946E+02 -0.20756084270E+03  0.21453970431E+03  0.10000000000E+01 0.  0.
    9000005    1    3    3    0    0  0.59611192298E+00  0.54262564946E+02 -0.60767427539E+02  0.81476754682E+02  0.10000000000E+01 0.  0.
<mgrwt>
<rscale>  0 0.12500273E+03</rscale>
<asrwt>0</asrwt>
<pdfrwt beam="2">  1        4 0.43411129E-01 0.12500273E+03</pdfrwt>
<pdfrwt beam="1">  1       -4 0.21298609E-02 0.12500273E+03</pdfrwt>
<totfact> 0.76096642E+03</totfact>
</mgrwt>
</event>
<event>
 5    1  0.3312706E-002  0.1250035E+03  0.7818608E-02  0.1235064E+00
         -4   -1    0    0    0  501 -0.00000000000E+00  0.00000000000E+00  0.43210821094E+01  0.45038484206E+01  0.12700000000E+01 0.  1.
          4   -1    0    0  501    0  0.00000000000E+00 -0.00000000000E+00 -0.88514306868E+03  0.88514397978E+03  0.12700000000E+01 0.  1.
         25    2    1    2    0    0  0.00000000000E+00  0.00000000000E+00 -0.88082198657E+03  0.88964782820E+03  0.12500354470E+03 0.  0.
    9000005    1    3    3    0    0  0.45877646026E+02 -0.66149958744E+01 -0.73872669313E+03  0.74018014275E+03  0.10000000000E+01 0.  0.
    9000005    1    3    3    0    0 -0.45877646026E+02  0.66149958744E+01 -0.14209529345E+03  0.14946768545E+03  0.10000000000E+01 0.  0.
<mgrwt>
<rscale>  0 0.12500354E+03</rscale>
<asrwt>0</asrwt>
<pdfrwt beam="2">  1        4 0.13618985E+00 0.12500354E+03</pdfrwt>
<pdfrwt beam="1">  1       -4 0.67891160E-03 0.12500354E+03</pdfrwt>
<totfact> 0.34554812E+03</totfact>
</mgrwt>
</event>
<event>
 5    1  0.3312706E-002  0.1250065E+03  0.7818608E-02  0.1235059E+00
         -4   -1    0    0    0  501 -0.00000000000E+00  0.00000000000E+00  0.33341650646E+02  0.33365829344E+02  0.12700000000E+01 0. -1.
          4   -1    0    0  501    0  0.00000000000E+00 -0.00000000000E+00 -0.11710045135E+03  0.11710733797E+03  0.12700000000E+01 0. -1.
         25    2    1    2    0    0  0.00000000000E+00  0.00000000000E+00 -0.83758800700E+02  0.15047316731E+03  0.12500654937E+03 0.  0.
    9000005    1    3    3    0    0  0.15464092638E+02 -0.60546006176E+02 -0.42888175150E+02  0.75798104150E+02  0.10000000000E+01 0.  0.
    9000005    1    3    3    0    0 -0.15464092638E+02  0.60546006176E+02 -0.40870625550E+02  0.74675063159E+02  0.10000000000E+01 0.  0.
<mgrwt>
<rscale>  0 0.12500655E+03</rscale>
<asrwt>0</asrwt>
<pdfrwt beam="2">  1        4 0.18017843E-01 0.12500655E+03</pdfrwt>
<pdfrwt beam="1">  1       -4 0.51318744E-02 0.12500655E+03</pdfrwt>
<totfact> 0.99194842E+03</totfact>
</mgrwt>
</event>
<event>
 5    1  0.3312706E-002  0.1249994E+03  0.7818608E-02  0.1235070E+00
          4   -1    0    0  501    0  0.00000000000E+00  0.00000000000E+00  0.10763767481E+02  0.10838431177E+02  0.12700000000E+01 0. -1.
         -4   -1    0    0    0  501 -0.00000000000E+00 -0.00000000000E+00 -0.36157390483E+03  0.36157613521E+03  0.12700000000E+01 0. -1.
         25    2    1    2    0    0  0.00000000000E+00  0.00000000000E+00 -0.35081013735E+03  0.37241456639E+03  0.12499942716E+03 0.  0.
    9000005    1    3    3    0    0  0.30798441517E+02 -0.12053206086E+02 -0.17433395890E+02  0.37399827127E+02  0.10000000000E+01 0.  0.
    9000005    1    3    3    0    0 -0.30798441517E+02  0.12053206086E+02 -0.33337674146E+03  0.33501473926E+03  0.10000000000E+01 0.  0.
<mgrwt>
<rscale>  0 0.12499943E+03</rscale>
<asrwt>0</asrwt>
<pdfrwt beam="1">  1        4 0.16618794E-02 0.12499943E+03</pdfrwt>
<pdfrwt beam="2">  1       -4 0.55632660E-01 0.12499943E+03</pdfrwt>
<totfact> 0.67327939E+03</totfact>
</mgrwt>
</event>
<event>
 5    1  0.3312706E-002  0.1249869E+03  0.7818608E-02  0.1235090E+00
          4   -1    0    0  501    0  0.00000000000E+00  0.00000000000E+00  0.55821049197E+03  0.55821193667E+03  0.12700000000E+01 0.  1.
         -4   -1    0    0    0  501 -0.00000000000E+00 -0.00000000000E+00 -0.69372443133E+01  0.70525356193E+01  0.12700000000E+01 0.  1.
         25    2    1    2    0    0  0.00000000000E+00  0.00000000000E+00  0.55127324766E+03  0.56526447229E+03  0.12498691954E+03 0.  0.
    9000005    1    3    3    0    0 -0.12253259036E+02  0.59334631306E+02  0.34477334121E+03  0.35005770616E+03  0.10000000000E+01 0.  0.
    9000005    1    3    3    0    0  0.12253259036E+02 -0.59334631306E+02  0.20649990644E+03  0.21520676613E+03  0.10000000000E+01 0.  0.
<mgrwt>
<rscale>  0 0.12498692E+03</rscale>
<asrwt>0</asrwt>
<pdfrwt beam="1">  1        4 0.85887521E-01 0.12498692E+03</pdfrwt>
<pdfrwt beam="2">  1       -4 0.10762480E-02 0.12498692E+03</pdfrwt>
<totfact> 0.51150966E+03</totfact>
</mgrwt>
</event>
<event>
 5    1  0.3312706E-002  0.1249939E+03  0.7818608E-02  0.1235079E+00
          4   -1    0    0  501    0  0.00000000000E+00  0.00000000000E+00  0.16758976451E+02  0.16807028045E+02  0.12700000000E+01 0.  1.
         -4   -1    0    0    0  501 -0.00000000000E+00 -0.00000000000E+00 -0.23267800952E+03  0.23268147544E+03  0.12700000000E+01 0.  1.
         25    2    1    2    0    0  0.00000000000E+00  0.00000000000E+00 -0.21591903307E+03  0.24948850349E+03  0.12499393798E+03 0.  0.
    9000005    1    3    3    0    0  0.53932744737E+01  0.22190702270E+02 -0.22406038407E+03  0.22522337887E+03  0.10000000000E+01 0.  0.
    9000005    1    3    3    0    0 -0.53932744737E+01 -0.22190702270E+02  0.81413510029E+01  0.24265124623E+02  0.10000000000E+01 0.  0.
<mgrwt>
<rscale>  0 0.12499394E+03</rscale>
<asrwt>0</asrwt>
<pdfrwt beam="1">  1        4 0.25822671E-02 0.12499394E+03</pdfrwt>
<pdfrwt beam="2">  1       -4 0.35800577E-01 0.12499394E+03</pdfrwt>
<totfact> 0.82415341E+03</totfact>
</mgrwt>
</event>
<event>
 5    1  0.3312706E-002  0.1249993E+03  0.7818608E-02  0.1235070E+00
         -4   -1    0    0    0  501 -0.00000000000E+00  0.00000000000E+00  0.64917692774E+02  0.64930114239E+02  0.12700000000E+01 0.  1.
          4   -1    0    0  501    0  0.00000000000E+00 -0.00000000000E+00 -0.60146825549E+02  0.60160232077E+02  0.12700000000E+01 0.  1.
         25    2    1    2    0    0  0.00000000000E+00  0.00000000000E+00  0.47708672249E+01  0.12509034632E+03  0.12499933427E+03 0.  0.
    9000005    1    3    3    0    0 -0.11054221907E+02 -0.41033978193E+02  0.48236095650E+02  0.64293888604E+02  0.10000000000E+01 0.  0.
    9000005    1    3    3    0    0  0.11054221907E+02  0.41033978193E+02 -0.43465228425E+02  0.60796457712E+02  0.10000000000E+01 0.  0.
<mgrwt>
<rscale>  0 0.12499933E+03</rscale>
<asrwt>0</asrwt>
<pdfrwt beam="2">  1        4 0.92553446E-02 0.12499933E+03</pdfrwt>
<pdfrwt beam="1">  1       -4 0.99893241E-02 0.12499933E+03</pdfrwt>
<totfact> 0.10451058E+04</totfact>
</mgrwt>
</event>
<event>
 5    1  0.3312706E-002  0.1250077E+03  0.7818608E-02  0.1235057E+00
         -4   -1    0    0    0  501 -0.00000000000E+00  0.00000000000E+00  0.11950889204E+02  0.12018180093E+02  0.12700000000E+01 0.  1.
          4   -1    0    0  501    0  0.00000000000E+00 -0.00000000000E+00 -0.32591240215E+03  0.32591487658E+03  0.12700000000E+01 0.  1.
         25    2    1    2    0    0  0.00000000000E+00  0.00000000000E+00 -0.31396151295E+03  0.33793305668E+03  0.12500767649E+03 0.  0.
    9000005    1    3    3    0    0 -0.37805657010E+02 -0.32315855573E+02 -0.54677871986E+02  0.73920578381E+02  0.10000000000E+01 0.  0.
    9000005    1    3    3    0    0  0.37805657010E+02  0.32315855573E+02 -0.25928364096E+03  0.26401247829E+03  0.10000000000E+01 0.  0.
<mgrwt>
<rscale>  0 0.12500768E+03</rscale>
<asrwt>0</asrwt>
<pdfrwt beam="2">  1        4 0.50145729E-01 0.12500768E+03</pdfrwt>
<pdfrwt beam="1">  1       -4 0.18439651E-02 0.12500768E+03</pdfrwt>
<totfact> 0.71060714E+03</totfact>
</mgrwt>
</event>
<event>
 5    1  0.3312706E-002  0.1249877E+03  0.7818608E-02  0.1235088E+00
          4   -1    0    0  501    0  0.00000000000E+00  0.00000000000E+00  0.63759583284E+01  0.65012110107E+01  0.12700000000E+01 0. -1.
         -4   -1    0    0    0  501 -0.00000000000E+00 -0.00000000000E+00 -0.60644867701E+03  0.60645000680E+03  0.12700000000E+01 0. -1.
         25    2    1    2    0    0  0.00000000000E+00  0.00000000000E+00 -0.60007271868E+03  0.61295121781E+03  0.12498771023E+03 0.  0.
    9000005    1    3    3    0    0  0.22439503646E+02  0.26617228913E+02 -0.55450503966E+03  0.55559773866E+03  0.10000000000E+01 0.  0.
    9000005    1    3    3    0    0 -0.22439503646E+02 -0.26617228913E+02 -0.45567679020E+02  0.57353479146E+02  0.10000000000E+01 0.  0.
<mgrwt>
<rscale>  0 0.12498771E+03</rscale>
<asrwt>0</asrwt>
<pdfrwt beam="1">  1        4 0.99065425E-03 0.12498771E+03</pdfrwt>
<pdfrwt beam="2">  1       -4 0.93309489E-01 0.12498771E+03</pdfrwt>
<totfact> 0.48073133E+03</totfact>
</mgrwt>
</event>
<event>
 5    1  0.3312706E-002  0.1249984E+03  0.7818608E-02  0.1235072E+00
          4   -1    0    0  501    0  0.00000000000E+00  0.00000000000E+00  0.66754350350E+02  0.66766430117E+02  0.12700000000E+01 0. -1.
         -4   -1    0    0    0  501 -0.00000000000E+00 -0.00000000000E+00 -0.58491023216E+02  0.58504809177E+02  0.12700000000E+01 0. -1.
         25    2    1    2    0    0  0.00000000000E+00  0.00000000000E+00  0.82633271337E+01  0.12527123929E+03  0.12499840327E+03 0.  0.
    9000005    1    3    3    0    0  0.11649065462E+02 -0.51680704788E+02 -0.29085126300E+02  0.60444524528E+02  0.10000000000E+01 0.  0.
    9000005    1    3    3    0    0 -0.11649065462E+02  0.51680704788E+02  0.37348453434E+02  0.64826714766E+02  0.10000000000E+01 0.  0.
<mgrwt>
<rscale>  0 0.12499840E+03</rscale>
<asrwt>0</asrwt>
<pdfrwt beam="1">  1        4 0.10271890E-01 0.12499840E+03</pdfrwt>
<pdfrwt beam="2">  1       -4 0.90006086E-02 0.12499840E+03</pdfrwt>
<totfact> 0.10447351E+04</totfact>
</mgrwt>
</event>
<event>
 5    1  0.3312706E-002  0.1250125E+03  0.7818608E-02  0.1235050E+00
          4   -1    0    0  501    0  0.00000000000E+00  0.00000000000E+00  0.90916703601E+02  0.90925573375E+02  0.12700000000E+01 0. -1.
         -4   -1    0    0    0  501 -0.00000000000E+00 -0.00000000000E+00 -0.42953401804E+02  0.42972172700E+02  0.12700000000E+01 0. -1.
         25    2    1    2    0    0  0.00000000000E+00  0.00000000000E+00  0.47963301797E+02  0.13389774607E+03  0.12501251171E+03 0.  0.
    9000005    1    3    3    0    0 -0.55503498192E+02 -0.82436281853E+01  0.53459299952E+02  0.77508015512E+02  0.10000000000E+01 0.  0.
    9000005    1    3    3    0    0  0.55503498192E+02  0.82436281853E+01 -0.54959981553E+01  0.56389730563E+02  0.10000000000E+01 0.  0.
<mgrwt>
<rscale>  0 0.12501251E+03</rscale>
<asrwt>0</asrwt>
<pdfrwt beam="1">  1        4 0.13989311E-01 0.12501251E+03</pdfrwt>
<pdfrwt beam="2">  1       -4 0.66103419E-02 0.12501251E+03</pdfrwt>
<totfact> 0.10258461E+04</totfact>
</mgrwt>
</event>
<event>
 5    1  0.3312706E-002  0.1250013E+03  0.7818608E-02  0.1235067E+00
         -4   -1    0    0    0  501 -0.00000000000E+00  0.00000000000E+00  0.18899416069E+03  0.18899842771E+03  0.12700000000E+01 0.  1.
          4   -1    0    0  501    0  0.00000000000E+00 -0.00000000000E+00 -0.20645031609E+02  0.20684057391E+02  0.12700000000E+01 0.  1.
         25    2    1    2    0    0  0.00000000000E+00  0.00000000000E+00  0.16834912908E+03  0.20968248510E+03  0.12500126117E+03 0.  0.
    9000005    1    3    3    0    0  0.16624940610E+02 -0.16202294909E+02 -0.13152199601E+02  0.26699875748E+02  0.10000000000E+01 0.  0.
    9000005    1    3    3    0    0 -0.16624940610E+02  0.16202294909E+02  0.18150132868E+03  0.18298260935E+03  0.10000000000E+01 0.  0.
<mgrwt>
<rscale>  0 0.12500126E+03</rscale>
<asrwt>0</asrwt>
<pdfrwt beam="2">  1        4 0.31794890E-02 0.12500126E+03</pdfrwt>
<pdfrwt beam="1">  1       -4 0.29079354E-01 0.12500126E+03</pdfrwt>
<totfact> 0.88525266E+03</totfact>
</mgrwt>
</event>
<event>
 5    1  0.3312706E-002  0.1250008E+03  0.7818608E-02  0.1235068E+00
          4   -1    0    0  501    0  0.00000000000E+00  0.00000000000E+00  0.58325666982E+02  0.58339492018E+02  0.12700000000E+01 0.  1.
         -4   -1    0    0    0  501 -0.00000000000E+00 -0.00000000000E+00 -0.66946135375E+02  0.66958180543E+02  0.12700000000E+01 0.  1.
         25    2    1    2    0    0  0.00000000000E+00  0.00000000000E+00 -0.86204683928E+01  0.12529767256E+03  0.12500077709E+03 0.  0.
    9000005    1    3    3    0    0 -0.17915401637E+02  0.38166309631E+02  0.41925994347E+02  0.59467787992E+02  0.10000000000E+01 0.  0.
    9000005    1    3    3    0    0  0.17915401637E+02 -0.38166309631E+02 -0.50546462740E+02  0.65829884568E+02  0.10000000000E+01 0.  0.
<mgrwt>
<rscale>  0 0.12500078E+03</rscale>
<asrwt>0</asrwt>
<pdfrwt beam="1">  1        4 0.89751695E-02 0.12500078E+03</pdfrwt>
<pdfrwt beam="2">  1       -4 0.10301395E-01 0.12500078E+03</pdfrwt>
<totfact> 0.10446217E+04</totfact>
</mgrwt>
</event>
<event>
 5    1  0.3312706E-002  0.1250000E+03  0.7818608E-02  0.1235069E+00
         -4   -1    0    0    0  501 -0.00000000000E+00  0.00000000000E+00  0.36131996630E+02  0.36154309294E+02  0.12700000000E+01 0. -1.
          4   -1    0    0  501    0  0.00000000000E+00 -0.00000000000E+00 -0.10805118813E+03  0.10805865146E+03  0.12700000000E+01 0. -1.
         25    2    1    2    0    0  0.00000000000E+00  0.00000000000E+00 -0.71919191498E+02  0.14421296076E+03  0.12500003178E+03 0.  0.
    9000005    1    3    3    0    0  0.50443664728E+02 -0.22860197962E+02 -0.69359259633E+02  0.88762936290E+02  0.10000000000E+01 0.  0.
    9000005    1    3    3    0    0 -0.50443664728E+02  0.22860197962E+02 -0.25599318648E+01  0.55450024466E+02  0.10000000000E+01 0.  0.
<mgrwt>
<rscale>  0 0.12500003E+03</rscale>
<asrwt>0</asrwt>
<pdfrwt beam="2">  1        4 0.16625550E-01 0.12500003E+03</pdfrwt>
<pdfrwt beam="1">  1       -4 0.55610592E-02 0.12500003E+03</pdfrwt>
<totfact> 0.10046997E+04</totfact>
</mgrwt>
</event>
<event>
 5    1  0.3312706E-002  0.1249988E+03  0.7818608E-02  0.1235071E+00
          4   -1    0    0  501    0  0.00000000000E+00  0.00000000000E+00  0.25181181611E+02  0.25213187171E+02  0.12700000000E+01 0. -1.
         -4   -1    0    0    0  501 -0.00000000000E+00 -0.00000000000E+00 -0.15498960091E+03  0.15499480407E+03  0.12700000000E+01 0. -1.
         25    2    1    2    0    0  0.00000000000E+00  0.00000000000E+00 -0.12980841930E+03  0.18020799125E+03  0.12499877755E+03 0.  0.
    9000005    1    3    3    0    0  0.46603124240E+02 -0.40477578242E+02 -0.78947668347E+02  0.10021985765E+03  0.10000000000E+01 0.  0.
    9000005    1    3    3    0    0 -0.46603124240E+02  0.40477578242E+02 -0.50860750951E+02  0.79988133599E+02  0.10000000000E+01 0.  0.
<mgrwt>
<rscale>  0 0.12499878E+03</rscale>
<asrwt>0</asrwt>
<pdfrwt beam="1">  1        4 0.38768902E-02 0.12499878E+03</pdfrwt>
<pdfrwt beam="2">  1       -4 0.23847416E-01 0.12499878E+03</pdfrwt>
<totfact> 0.93582143E+03</totfact>
</mgrwt>
</event>
<event>
 5    1  0.3312706E-002  0.1249998E+03  0.7818608E-02  0.1235070E+00
         -4   -1    0    0    0  501 -0.00000000000E+00  0.00000000000E+00  0.64167882150E+01  0.65412591292E+01  0.12700000000E+01 0.  1.
          4   -1    0    0  501    0  0.00000000000E+00 -0.00000000000E+00 -0.60278032873E+03  0.60278166661E+03  0.12700000000E+01 0.  1.
         25    2    1    2    0    0  0.00000000000E+00  0.00000000000E+00 -0.59636354052E+03  0.60932292574E+03  0.12499982151E+03 0.  0.
    9000005    1    3    3    0    0 -0.15410135275E+02  0.58926450331E+02 -0.23003506200E+03  0.23796413294E+03  0.10000000000E+01 0.  0.
    9000005    1    3    3    0    0  0.15410135275E+02 -0.58926450331E+02 -0.36632847851E+03  0.37135879280E+03  0.10000000000E+01 0.  0.
<mgrwt>
<rscale>  0 0.12499982E+03</rscale>
<asrwt>0</asrwt>
<pdfrwt beam="2">  1        4 0.92745069E-01 0.12499982E+03</pdfrwt>
<pdfrwt beam="1">  1       -4 0.99687626E-03 0.12499982E+03</pdfrwt>
<totfact> 0.48284565E+03</totfact>
</mgrwt>
</event>
<event>
 5    1  0.3312706E-002  0.1250046E+03  0.7818608E-02  0.1235062E+00
         -4   -1    0    0    0  501 -0.00000000000E+00  0.00000000000E+00  0.10119556605E+02  0.10198937488E+02  0.12700000000E+01 0.  1.
          4   -1    0    0  501    0  0.00000000000E+00 -0.00000000000E+00 -0.38444983090E+03  0.38445192857E+03  0.12700000000E+01 0.  1.
         25    2    1    2    0    0  0.00000000000E+00  0.00000000000E+00 -0.37433027430E+03  0.39465086606E+03  0.12500460722E+03 0.  0.
    9000005    1    3    3    0    0 -0.54804798728E+02 -0.19403048083E+02 -0.25953717549E+03  0.26597103169E+03  0.10000000000E+01 0.  0.
    9000005    1    3    3    0    0  0.54804798728E+02  0.19403048083E+02 -0.11479309881E+03  0.12867983436E+03  0.10000000000E+01 0.  0.
<mgrwt>
<rscale>  0 0.12500461E+03</rscale>
<asrwt>0</asrwt>
<pdfrwt beam="2">  1        4 0.59152384E-01 0.12500461E+03</pdfrwt>
<pdfrwt beam="1">  1       -4 0.15631227E-02 0.12500461E+03</pdfrwt>
<totfact> 0.65069770E+03</totfact>
</mgrwt>
</event>
<event>
 5    1  0.3312706E-002  0.1250004E+03  0.7818608E-02  0.1235069E+00
         -4   -1    0    0    0  501 -0.00000000000E+00  0.00000000000E+00  0.25108725006E+02  0.25140822807E+02  0.12700000000E+01 0. -1.
          4   -1    0    0  501    0  0.00000000000E+00 -0.00000000000E+00 -0.15544035826E+03  0.15544554634E+03  0.12700000000E+01 0. -1.
         25    2    1    2    0    0  0.00000000000E+00  0.00000000000E+00 -0.13033163325E+03  0.18058636914E+03  0.12500040837E+03 0.  0.
    9000005    1    3    3    0    0 -0.53893579145E+01 -0.47123036926E+02 -0.63820018239E+01  0.47868107704E+02  0.10000000000E+01 0.  0.
    9000005    1    3    3    0    0  0.53893579145E+01  0.47123036926E+02 -0.12394963143E+03  0.13271826144E+03  0.10000000000E+01 0.  0.
<mgrwt>
<rscale>  0 0.12500041E+03</rscale>
<asrwt>0</asrwt>
<pdfrwt beam="2">  1        4 0.23916769E-01 0.12500041E+03</pdfrwt>
<pdfrwt beam="1">  1       -4 0.38657490E-02 0.12500041E+03</pdfrwt>
<totfact> 0.93510705E+03</totfact>
</mgrwt>
</event>
<event>
 5    1  0.3312706E-002  0.1250019E+03  0.7818608E-02  0.1235066E+00
          4   -1    0    0  501    0  0.00000000000E+00  0.00000000000E+00  0.40578961643E+03  0.40579160379E+03  0.12700000000E+01 0. -1.
         -4   -1    0    0    0  501 -0.00000000000E+00 -0.00000000000E+00 -0.95826776849E+01  0.96664684147E+01  0.12700000000E+01 0. -1.
         25    2    1    2    0    0  0.00000000000E+00  0.00000000000E+00  0.39620693875E+03  0.41545807220E+03  0.12500188577E+03 0.  0.
    9000005    1    3    3    0    0  0.13364253105E+01  0.62066293596E+02  0.22192175939E+03  0.23044365499E+03  0.10000000000E+01 0.  0.
    9000005    1    3    3    0    0 -0.13364253105E+01 -0.62066293596E+02  0.17428517935E+03  0.18501441721E+03  0.10000000000E+01 0.  0.
<mgrwt>
<rscale>  0 0.12500189E+03</rscale>
<asrwt>0</asrwt>
<pdfrwt beam="1">  1        4 0.62435775E-01 0.12500189E+03</pdfrwt>
<pdfrwt beam="2">  1       -4 0.14808563E-02 0.12500189E+03</pdfrwt>
<totfact> 0.63073990E+03</totfact>
</mgrwt>
</event>
<event>
 5    1  0.3312706E-002  0.1250010E+03  0.7818608E-02  0.1235068E+00
         -4   -1    0    0    0  501 -0.00000000000E+00  0.00000000000E+00  0.41791611171E+03  0.41791804140E+03  0.12700000000E+01 0.  1.
          4   -1    0    0  501    0  0.00000000000E+00 -0.00000000000E+00 -0.93020165070E+01  0.93883124733E+01  0.12700000000E+01 0.  1.
         25    2    1    2    0    0  0.00000000000E+00  0.00000000000E+00  0.40861409520E+03  0.42730635387E+03  0.12500096504E+03 0.  0.
    9000005    1    3    3    0    0 -0.31078892762E+02 -0.53270019396E+02  0.16983044940E+03  0.18068473673E+03  0.10000000000E+01 0.  0.
    9000005    1    3    3    0    0  0.31078892762E+02  0.53270019396E+02  0.23878364580E+03  0.24662161714E+03  0.10000000000E+01 0.  0.
<mgrwt>
<rscale>  0 0.12500097E+03</rscale>
<asrwt>0</asrwt>
<pdfrwt beam="2">  1        4 0.14378662E-02 0.12500097E+03</pdfrwt>
<pdfrwt beam="1">  1       -4 0.64301567E-01 0.12500097E+03</pdfrwt>
<totfact> 0.61979597E+03</totfact>
</mgrwt>
</event>
<event>
 5    1  0.3312706E-002  0.1250008E+03  0.7818608E-02  0.1235068E+00
          4   -1    0    0  501    0  0.00000000000E+00  0.00000000000E+00  0.43548299424E+03  0.43548484609E+03  0.12700000000E+01 0. -1.
         -4   -1    0    0    0  501 -0.00000000000E+00 -0.00000000000E+00 -0.89232097079E+01  0.90131332782E+01  0.12700000000E+01 0. -1.
         25    2    1    2    0    0  0.00000000000E+00  0.00000000000E+00  0.42655978454E+03  0.44449797937E+03  0.12500081552E+03 0.  0.
    9000005    1    3    3    0    0  0.14224013466E+02 -0.60751005228E+02  0.22574797203E+03  0.23421390665E+03  0.10000000000E+01 0.  0.
    9000005    1    3    3    0    0 -0.14224013466E+02  0.60751005228E+02  0.20081181251E+03  0.21028407272E+03  0.10000000000E+01 0.  0.
<mgrwt>
<rscale>  0 0.12500082E+03</rscale>
<asrwt>0</asrwt>
<pdfrwt beam="1">  1        4 0.67004458E-01 0.12500082E+03</pdfrwt>
<pdfrwt beam="2">  1       -4 0.13798608E-02 0.12500082E+03</pdfrwt>
<totfact> 0.60442320E+03</totfact>
</mgrwt>
</event>
<event>
 5    1  0.3312706E-002  0.1250023E+03  0.7818608E-02  0.1235066E+00
         -4   -1    0    0    0  501 -0.00000000000E+00  0.00000000000E+00  0.17232642969E+02  0.17279377410E+02  0.12700000000E+01 0.  1.
          4   -1    0    0  501    0  0.00000000000E+00 -0.00000000000E+00 -0.22633015388E+03  0.22633371701E+03  0.12700000000E+01 0.  1.
         25    2    1    2    0    0  0.00000000000E+00  0.00000000000E+00 -0.20909751091E+03  0.24361309442E+03  0.12500228279E+03 0.  0.
    9000005    1    3    3    0    0  0.50784236102E+02 -0.36414560364E+02 -0.10342273257E+03  0.12084006147E+03  0.10000000000E+01 0.  0.
    9000005    1    3    3    0    0 -0.50784236102E+02  0.36414560364E+02 -0.10567477834E+03  0.12277303295E+03  0.10000000000E+01 0.  0.
<mgrwt>
<rscale>  0 0.12500228E+03</rscale>
<asrwt>0</asrwt>
<pdfrwt beam="2">  1        4 0.34823891E-01 0.12500228E+03</pdfrwt>
<pdfrwt beam="1">  1       -4 0.26550450E-02 0.12500228E+03</pdfrwt>
<totfact> 0.83257952E+03</totfact>
</mgrwt>
</event>
<event>
 5    1  0.3312706E-002  0.1250000E+03  0.7818608E-02  0.1235069E+00
          4   -1    0    0  501    0  0.00000000000E+00  0.00000000000E+00  0.35316156412E+02  0.35338984192E+02  0.12700000000E+01 0.  1.
         -4   -1    0    0    0  501 -0.00000000000E+00 -0.00000000000E+00 -0.11054586097E+03  0.11055315589E+03  0.12700000000E+01 0.  1.
         25    2    1    2    0    0  0.00000000000E+00  0.00000000000E+00 -0.75229704556E+02  0.14589214008E+03  0.12500003236E+03 0.  0.
    9000005    1    3    3    0    0 -0.39426073159E+02 -0.10064813429E+02  0.17741603081E+02  0.44401353515E+02  0.10000000000E+01 0.  0.
    9000005    1    3    3    0    0  0.39426073159E+02  0.10064813429E+02 -0.92971307637E+02  0.10149078657E+03  0.10000000000E+01 0.  0.
<mgrwt>
<rscale>  0 0.12500003E+03</rscale>
<asrwt>0</asrwt>
<pdfrwt beam="1">  1        4 0.54355720E-02 0.12500003E+03</pdfrwt>
<pdfrwt beam="2">  1       -4 0.17009373E-01 0.12500003E+03</pdfrwt>
<totfact> 0.10012886E+04</totfact>
</mgrwt>
</event>
<event>
 5    1  0.3312706E-002  0.1249978E+03  0.7818608E-02  0.1235073E+00
          4   -1    0    0  501    0  0.00000000000E+00  0.00000000000E+00  0.13675379017E+02  0.13734223358E+02  0.12700000000E+01 0. -1.
         -4   -1    0    0    0  501 -0.00000000000E+00 -0.00000000000E+00 -0.28495753123E+03  0.28496036129E+03  0.12700000000E+01 0. -1.
         25    2    1    2    0    0  0.00000000000E+00  0.00000000000E+00 -0.27128215221E+03  0.29869458465E+03  0.12499779513E+03 0.  0.
    9000005    1    3    3    0    0  0.40507000664E+01  0.18186148201E+02  0.68954000303E+01  0.19891975744E+02  0.10000000000E+01 0.  0.
    9000005    1    3    3    0    0 -0.40507000664E+01 -0.18186148201E+02 -0.27817755224E+03  0.27880260890E+03  0.10000000000E+01 0.  0.
<mgrwt>
<rscale>  0 0.12499780E+03</rscale>
<asrwt>0</asrwt>
<pdfrwt beam="1">  1        4 0.21086489E-02 0.12499780E+03</pdfrwt>
<pdfrwt beam="2">  1       -4 0.43844360E-01 0.12499780E+03</pdfrwt>
<totfact> 0.75766591E+03</totfact>
</mgrwt>
</event>
<event>
 5    1  0.3312706E-002  0.1250049E+03  0.7818608E-02  0.1235062E+00
         -4   -1    0    0    0  501 -0.00000000000E+00  0.00000000000E+00  0.12463752592E+02  0.12528289136E+02  0.12700000000E+01 0. -1.
          4   -1    0    0  501    0  0.00000000000E+00 -0.00000000000E+00 -0.31255805717E+03  0.31256063732E+03  0.12700000000E+01 0. -1.
         25    2    1    2    0    0  0.00000000000E+00  0.00000000000E+00 -0.30009430457E+03  0.32508892645E+03  0.12500487376E+03 0.  0.
    9000005    1    3    3    0    0  0.39798756999E+01 -0.53911083570E+02 -0.23159650511E+03  0.23782385397E+03  0.10000000000E+01 0.  0.
    9000005    1    3    3    0    0 -0.39798756999E+01  0.53911083570E+02 -0.68497799469E+02  0.87265072477E+02  0.10000000000E+01 0.  0.
<mgrwt>
<rscale>  0 0.12500487E+03</rscale>
<asrwt>0</asrwt>
<pdfrwt beam="2">  1        4 0.48091012E-01 0.12500487E+03</pdfrwt>
<pdfrwt beam="1">  1       -4 0.19226635E-02 0.12500487E+03</pdfrwt>
<totfact> 0.72547092E+03</totfact>
</mgrwt>
</event>
<event>
 5    1  0.3312706E-002  0.1249986E+03  0.7818608E-02  0.1235071E+00
         -4   -1    0    0    0  501 -0.00000000000E+00  0.00000000000E+00  0.10260793623E+03  0.10261579546E+03  0.12700000000E+01 0. -1.
          4   -1    0    0  501    0  0.00000000000E+00 -0.00000000000E+00 -0.38048916575E+02  0.38070105759E+02  0.12700000000E+01 0. -1.
         25    2    1    2    0    0  0.00000000000E+00  0.00000000000E+00  0.64559019658E+02  0.14068590122E+03  0.12499862312E+03 0.  0.
    9000005    1    3    3    0    0  0.24604918367E+02 -0.30679768215E+02  0.86938871420E+02  0.95425455458E+02  0.10000000000E+01 0.  0.
    9000005    1    3    3    0    0 -0.24604918367E+02  0.30679768215E+02 -0.22379851762E+02  0.45260445761E+02  0.10000000000E+01 0.  0.
<mgrwt>
<rscale>  0 0.12499862E+03</rscale>
<asrwt>0</asrwt>
<pdfrwt beam="2">  1        4 0.58559141E-02 0.12499862E+03</pdfrwt>
<pdfrwt beam="1">  1       -4 0.15788071E-01 0.12499862E+03</pdfrwt>
<totfact> 0.10119704E+04</totfact>
</mgrwt>
</event>
<event>
 5    1  0.3312706E-002  0.1250025E+03  0.7818608E-02  0.1235065E+00
          4   -1    0    0  501    0  0.00000000000E+00  0.00000000000E+00  0.76356218837E+01  0.77405181707E+01  0.12700000000E+01 0.  1.
         -4   -1    0    0    0  501 -0.00000000000E+00 -0.00000000000E+00 -0.50800727859E+03  0.50800886606E+03  0.12700000000E+01 0.  1.
         25    2    1    2    0    0  0.00000000000E+00  0.00000000000E+00 -0.50037165671E+03  0.51574938424E+03  0.12500252999E+03 0.  0.
    9000005    1    3    3    0    0  0.16211189448E+02 -0.35524508503E+02 -0.48876232973E+02  0.62567399797E+02  0.10000000000E+01 0.  0.
    9000005    1    3    3    0    0 -0.16211189448E+02  0.35524508503E+02 -0.45149542373E+03  0.45318198444E+03  0.10000000000E+01 0.  0.
<mgrwt>
<rscale>  0 0.12500253E+03</rscale>
<asrwt>0</asrwt>
<pdfrwt beam="1">  1        4 0.11829025E-02 0.12500253E+03</pdfrwt>
<pdfrwt beam="2">  1       -4 0.78163131E-01 0.12500253E+03</pdfrwt>
<totfact> 0.54659756E+03</totfact>
</mgrwt>
</event>
<event>
 5    1  0.3312706E-002  0.1249970E+03  0.7818608E-02  0.1235074E+00
          4   -1    0    0  501    0  0.00000000000E+00  0.00000000000E+00  0.72511822071E+02  0.72522942853E+02  0.12700000000E+01 0. -1.
         -4   -1    0    0    0  501 -0.00000000000E+00 -0.00000000000E+00 -0.53845231215E+02  0.53860206317E+02  0.12700000000E+01 0. -1.
         25    2    1    2    0    0  0.00000000000E+00  0.00000000000E+00  0.18666590856E+02  0.12638314917E+03  0.12499703508E+03 0.  0.
    9000005    1    3    3    0    0  0.42363637459E+02 -0.17418093239E+02 -0.33646878646E+02  0.56843470984E+02  0.10000000000E+01 0.  0.
    9000005    1    3    3    0    0 -0.42363637459E+02  0.17418093239E+02  0.52313469502E+02  0.69539678186E+02  0.10000000000E+01 0.  0.
<mgrwt>
<rscale>  0 0.12499704E+03</rscale>
<asrwt>0</asrwt>
<pdfrwt beam="1">  1        4 0.11157672E-01 0.12499704E+03</pdfrwt>
<pdfrwt beam="2">  1       -4 0.82858891E-02 0.12499704E+03</pdfrwt>
<totfact> 0.10423275E+04</totfact>
</mgrwt>
</event>
<event>
 5    1  0.3312706E-002  0.1250045E+03  0.7818608E-02  0.1235062E+00
         -4   -1    0    0    0  501 -0.00000000000E+00  0.00000000000E+00  0.11519050819E+02  0.11588849458E+02  0.12700000000E+01 0. -1.
          4   -1    0    0  501    0  0.00000000000E+00 -0.00000000000E+00 -0.33804124051E+03  0.33804362616E+03  0.12700000000E+01 0. -1.
         25    2    1    2    0    0  0.00000000000E+00  0.00000000000E+00 -0.32652218970E+03  0.34963247562E+03  0.12500451050E+03 0.  0.
    9000005    1    3    3    0    0  0.39226171890E+02  0.46431242176E+02 -0.12263493256E+03  0.13687541596E+03  0.10000000000E+01 0.  0.
    9000005    1    3    3    0    0 -0.39226171890E+02 -0.46431242176E+02 -0.20388725714E+03  0.21275705966E+03  0.10000000000E+01 0.  0.
<mgrwt>
<rscale>  0 0.12500451E+03</rscale>
<asrwt>0</asrwt>
<pdfrwt beam="2">  1        4 0.52011890E-01 0.12500451E+03</pdfrwt>
<pdfrwt beam="1">  1       -4 0.17777146E-02 0.12500451E+03</pdfrwt>
<totfact> 0.69758047E+03</totfact>
</mgrwt>
</event>
<event>
 5    1  0.3312706E-002  0.1250006E+03  0.7818608E-02  0.1235068E+00
          4   -1    0    0  501    0  0.00000000000E+00  0.00000000000E+00  0.19286093755E+01  0.23092063838E+01  0.12700000000E+01 0.  1.
         -4   -1    0    0    0  501 -0.00000000000E+00 -0.00000000000E+00 -0.18431579191E+04  0.18431583566E+04  0.12700000000E+01 0.  1.
         25    2    1    2    0    0  0.00000000000E+00  0.00000000000E+00 -0.18412293097E+04  0.18454675630E+04  0.12500062069E+03 0.  0.
    9000005    1    3    3    0    0  0.22656130542E+02 -0.57954028641E+02 -0.10058345354E+04  0.10077579482E+04  0.10000000000E+01 0.  0.
    9000005    1    3    3    0    0 -0.22656130542E+02  0.57954028641E+02 -0.83539477436E+03  0.83770961479E+03  0.10000000000E+01 0.  0.
<mgrwt>
<rscale>  0 0.12500062E+03</rscale>
<asrwt>0</asrwt>
<pdfrwt beam="1">  1        4 0.32602096E-03 0.12500062E+03</pdfrwt>
<pdfrwt beam="2">  1       -4 0.28359078E+00 0.12500062E+03</pdfrwt>
<totfact> 0.12015883E+03</totfact>
</mgrwt>
</event>
<event>
 5    1  0.3312706E-002  0.1249980E+03  0.7818608E-02  0.1235072E+00
          4   -1    0    0  501    0  0.00000000000E+00  0.00000000000E+00  0.14020872024E+02  0.14078272348E+02  0.12700000000E+01 0.  1.
         -4   -1    0    0    0  501 -0.00000000000E+00 -0.00000000000E+00 -0.27796546335E+03  0.27796836460E+03  0.12700000000E+01 0.  1.
         25    2    1    2    0    0  0.00000000000E+00  0.00000000000E+00 -0.26394459133E+03  0.29204663695E+03  0.12499796342E+03 0.  0.
    9000005    1    3    3    0    0  0.55056873940E+02 -0.27650451360E+02 -0.10754412684E+03  0.12394573832E+03  0.10000000000E+01 0.  0.
    9000005    1    3    3    0    0 -0.55056873940E+02  0.27650451360E+02 -0.15640046449E+03  0.16810089863E+03  0.10000000000E+01 0.  0.
<mgrwt>
<rscale>  0 0.12499796E+03</rscale>
<asrwt>0</asrwt>
<pdfrwt beam="1">  1        4 0.21616960E-02 0.12499796E+03</pdfrwt>
<pdfrwt beam="2">  1       -4 0.42768552E-01 0.12499796E+03</pdfrwt>
<totfact> 0.76610915E+03</totfact>
</mgrwt>
</event>
<event>
 5    1  0.3312706E-002  0.1250043E+03  0.7818608E-02  0.1235063E+00
          4   -1    0    0  501    0  0.00000000000E+00  0.00000000000E+00  0.83249831549E+02  0.83259518092E+02  0.12700000000E+01 0. -1.
         -4   -1    0    0    0  501 -0.00000000000E+00 -0.00000000000E+00 -0.46904230937E+02  0.46921421332E+02  0.12700000000E+01 0. -1.
         25    2    1    2    0    0  0.00000000000E+00  0.00000000000E+00  0.36345600612E+02  0.13018093942E+03  0.12500429715E+03 0.  0.
    9000005    1    3    3    0    0 -0.39888256313E+02  0.27735072118E+01  0.68190420969E+02  0.79055036816E+02  0.10000000000E+01 0.  0.
    9000005    1    3    3    0    0  0.39888256313E+02 -0.27735072118E+01 -0.31844820357E+02  0.51125902608E+02  0.10000000000E+01 0.  0.
<mgrwt>
<rscale>  0 0.12500430E+03</rscale>
<asrwt>0</asrwt>
<pdfrwt beam="1">  1        4 0.12809734E-01 0.12500430E+03</pdfrwt>
<pdfrwt beam="2">  1       -4 0.72181030E-02 0.12500430E+03</pdfrwt>
<totfact> 0.10339635E+04</totfact>
</mgrwt>
</event>
<event>
 5    1  0.3312706E-002  0.1250025E+03  0.7818608E-02  0.1235065E+00
         -4   -1    0    0    0  501 -0.00000000000E+00  0.00000000000E+00  0.63277932120E+03  0.63278059566E+03  0.12700000000E+01 0.  1.
          4   -1    0    0  501    0  0.00000000000E+00 -0.00000000000E+00 -0.61067996006E+01  0.62374595278E+01  0.12700000000E+01 0.  1.
         25    2    1    2    0    0  0.00000000000E+00  0.00000000000E+00  0.62667252160E+03  0.63901805519E+03  0.12500250207E+03 0.  0.
    9000005    1    3    3    0    0 -0.55260401451E+01 -0.58368759057E+02  0.20275093478E+03  0.21106015898E+03  0.10000000000E+01 0.  0.
    9000005    1    3    3    0    0  0.55260401451E+01  0.58368759057E+02  0.42392158682E+03  0.42795789620E+03  0.10000000000E+01 0.  0.
<mgrwt>
<rscale>  0 0.12500250E+03</rscale>
<asrwt>0</asrwt>
<pdfrwt beam="2">  1        4 0.94965648E-03 0.12500250E+03</pdfrwt>
<pdfrwt beam="1">  1       -4 0.97360809E-01 0.12500250E+03</pdfrwt>
<totfact> 0.46491214E+03</totfact>
</mgrwt>
</event>
<event>
 5    1  0.3312706E-002  0.1250103E+03  0.7818608E-02  0.1235053E+00
          4   -1    0    0  501    0  0.00000000000E+00  0.00000000000E+00  0.82804536678E+02  0.82814275306E+02  0.12700000000E+01 0.  1.
         -4   -1    0    0    0  501 -0.00000000000E+00 -0.00000000000E+00 -0.47161052402E+02  0.47178149218E+02  0.12700000000E+01 0.  1.
         25    2    1    2    0    0  0.00000000000E+00  0.00000000000E+00  0.35643484276E+02  0.12999242452E+03  0.12501028943E+03 0.  0.
    9000005    1    3    3    0    0  0.57213680022E+02 -0.25023278136E+02  0.15206869520E+02  0.64279223012E+02  0.10000000000E+01 0.  0.
    9000005    1    3    3    0    0 -0.57213680022E+02  0.25023278136E+02  0.20436614756E+02  0.65713201513E+02  0.10000000000E+01 0.  0.
<mgrwt>
<rscale>  0 0.12501029E+03</rscale>
<asrwt>0</asrwt>
<pdfrwt beam="1">  1        4 0.12741224E-01 0.12501029E+03</pdfrwt>
<pdfrwt beam="2">  1       -4 0.72576108E-02 0.12501029E+03</pdfrwt>
<totfact> 0.10342267E+04</totfact>
</mgrwt>
</event>
<event>
 5    1  0.3312706E-002  0.1250018E+03  0.7818608E-02  0.1235066E+00
         -4   -1    0    0    0  501 -0.00000000000E+00  0.00000000000E+00  0.10058347594E+02  0.10138207748E+02  0.12700000000E+01 0.  1.
          4   -1    0    0  501    0  0.00000000000E+00 -0.00000000000E+00 -0.38675387504E+03  0.38675596021E+03  0.12700000000E+01 0.  1.
         25    2    1    2    0    0  0.00000000000E+00  0.00000000000E+00 -0.37669552745E+03  0.39689416796E+03  0.12500184063E+03 0.  0.
    9000005    1    3    3    0    0  0.55726031321E+02  0.23392533490E+02 -0.13786817700E+03  0.15053649198E+03  0.10000000000E+01 0.  0.
    9000005    1    3    3    0    0 -0.55726031321E+02 -0.23392533490E+02 -0.23882735045E+03  0.24635767598E+03  0.10000000000E+01 0.  0.
<mgrwt>
<rscale>  0 0.12500184E+03</rscale>
<asrwt>0</asrwt>
<pdfrwt beam="2">  1        4 0.59506888E-01 0.12500184E+03</pdfrwt>
<pdfrwt beam="1">  1       -4 0.15537419E-02 0.12500184E+03</pdfrwt>
<totfact> 0.64853353E+03</totfact>
</mgrwt>
</event>
<event>
 5    1  0.3312706E-002  0.1250035E+03  0.7818608E-02  0.1235064E+00
         -4   -1    0    0    0  501 -0.00000000000E+00  0.00000000000E+00  0.33326725424E+03  0.33326967406E+03  0.12700000000E+01 0.  1.
          4   -1    0    0  501    0  0.00000000000E+00 -0.00000000000E+00 -0.11684860619E+02  0.11753674646E+02  0.12700000000E+01 0.  1.
         25    2    1    2    0    0  0.00000000000E+00  0.00000000000E+00  0.32158239362E+03  0.34502334870E+03  0.12500350101E+03 0.  0.
    9000005    1    3    3    0    0 -0.52171895723E+02 -0.11153163343E+02  0.25061862224E+03  0.25623620659E+03  0.10000000000E+01 0.  0.
    9000005    1    3    3    0    0  0.52171895723E+02  0.11153163343E+02  0.70963771381E+02  0.88787142112E+02  0.10000000000E+01 0.  0.
<mgrwt>
<rscale>  0 0.12500350E+03</rscale>
<asrwt>0</asrwt>
<pdfrwt beam="2">  1        4 0.18031507E-02 0.12500350E+03</pdfrwt>
<pdfrwt beam="1">  1       -4 0.51277357E-01 0.12500350E+03</pdfrwt>
<totfact> 0.70270098E+03</totfact>
</mgrwt>
</event>
<event>
 5    1  0.3312706E-002  0.1250000E+03  0.7818608E-02  0.1235069E+00
          4   -1    0    0  501    0  0.00000000000E+00  0.00000000000E+00  0.14157589242E+02  0.14214437490E+02  0.12700000000E+01 0. -1.
         -4   -1    0    0    0  501 -0.00000000000E+00 -0.00000000000E+00 -0.27530096269E+03  0.27530389202E+03  0.12700000000E+01 0. -1.
         25    2    1    2    0    0  0.00000000000E+00  0.00000000000E+00 -0.26114337345E+03  0.28951832951E+03  0.12500000649E+03 0.  0.
    9000005    1    3    3    0    0 -0.96727894876E+01  0.50875877400E+02 -0.21158162698E+03  0.21782952654E+03  0.10000000000E+01 0.  0.
    9000005    1    3    3    0    0  0.96727894876E+01 -0.50875877400E+02 -0.49561746477E+02  0.71688802972E+02  0.10000000000E+01 0.  0.
<mgrwt>
<rscale>  0 0.12500001E+03</rscale>
<asrwt>0</asrwt>
<pdfrwt beam="1">  1        4 0.21826891E-02 0.12500001E+03</pdfrwt>
<pdfrwt beam="2">  1       -4 0.42358589E-01 0.12500001E+03</pdfrwt>
<totfact> 0.76932727E+03</totfact>
</mgrwt>
</event>
<event>
 5    1  0.3312706E-002  0.1249882E+03  0.7818608E-02  0.1235088E+00
         -4   -1    0    0    0  501 -0.00000000000E+00  0.00000000000E+00  0.12434641809E+04  0.12434648294E+04  0.12700000000E+01 0. -1.
          4   -1    0    0  501    0  0.00000000000E+00 -0.00000000000E+00 -0.30117747433E+01  0.32685909968E+01  0.12700000000E+01 0. -1.
         25    2    1    2    0    0  0.00000000000E+00  0.00000000000E+00  0.12404524061E+04  0.12467334204E+04  0.12498819833E+03 0.  0.
    9000005    1    3    3    0    0 -0.67056015780E+01  0.60627548094E+02  0.48497729951E+03  0.48879918752E+03  0.10000000000E+01 0.  0.
    9000005    1    3    3    0    0  0.67056015780E+01 -0.60627548094E+02  0.75547510661E+03  0.75793423289E+03  0.10000000000E+01 0.  0.
<mgrwt>
<rscale>  0 0.12498820E+03</rscale>
<asrwt>0</asrwt>
<pdfrwt beam="2">  1        4 0.48315572E-03 0.12498820E+03</pdfrwt>
<pdfrwt beam="1">  1       -4 0.19132168E+00 0.12498820E+03</pdfrwt>
<totfact> 0.23527307E+03</totfact>
</mgrwt>
</event>
<event>
 5    1  0.3312706E-002  0.1250004E+03  0.7818608E-02  0.1235069E+00
          4   -1    0    0  501    0  0.00000000000E+00  0.00000000000E+00  0.20362725888E+02  0.20402291674E+02  0.12700000000E+01 0. -1.
         -4   -1    0    0    0  501 -0.00000000000E+00 -0.00000000000E+00 -0.19160668625E+03  0.19161089509E+03  0.12700000000E+01 0. -1.
         25    2    1    2    0    0  0.00000000000E+00  0.00000000000E+00 -0.17124396036E+03  0.21201318676E+03  0.12500038960E+03 0.  0.
    9000005    1    3    3    0    0  0.12754904387E+00 -0.46609501330E+02 -0.15018308087E+02  0.48979704580E+02  0.10000000000E+01 0.  0.
    9000005    1    3    3    0    0 -0.12754904387E+00  0.46609501330E+02 -0.15622565227E+03  0.16303348218E+03  0.10000000000E+01 0.  0.
<mgrwt>
<rscale>  0 0.12500039E+03</rscale>
<asrwt>0</asrwt>
<pdfrwt beam="1">  1        4 0.31360945E-02 0.12500039E+03</pdfrwt>
<pdfrwt beam="2">  1       -4 0.29481318E-01 0.12500039E+03</pdfrwt>
<totfact> 0.88147386E+03</totfact>
</mgrwt>
</event>
<event>
 5    1  0.3312706E-002  0.1249967E+03  0.7818608E-02  0.1235074E+00
         -4   -1    0    0    0  501 -0.00000000000E+00  0.00000000000E+00  0.10096931528E+03  0.10097730205E+03  0.12700000000E+01 0.  1.
          4   -1    0    0  501    0  0.00000000000E+00 -0.00000000000E+00 -0.38665523533E+02  0.38686374992E+02  0.12700000000E+01 0.  1.
         25    2    1    2    0    0  0.00000000000E+00  0.00000000000E+00  0.62303791751E+02  0.13966367704E+03  0.12499672083E+03 0.  0.
    9000005    1    3    3    0    0  0.48294988045E+02  0.34290472579E+02  0.53409178851E+02  0.79760784634E+02  0.10000000000E+01 0.  0.
    9000005    1    3    3    0    0 -0.48294988045E+02 -0.34290472579E+02  0.88946128992E+01  0.59902892405E+02  0.10000000000E+01 0.  0.
<mgrwt>
<rscale>  0 0.12499672E+03</rscale>
<asrwt>0</asrwt>
<pdfrwt beam="2">  1        4 0.59507603E-02 0.12499672E+03</pdfrwt>
<pdfrwt beam="1">  1       -4 0.15535959E-01 0.12499672E+03</pdfrwt>
<totfact> 0.10141310E+04</totfact>
</mgrwt>
</event>
<event>
 5    1  0.3312706E-002  0.1250528E+03  0.7818608E-02  0.1234987E+00
         -4   -1    0    0    0  501 -0.00000000000E+00  0.00000000000E+00  0.40996074888E+02  0.41015741566E+02  0.12700000000E+01 0.  1.
          4   -1    0    0  501    0  0.00000000000E+00 -0.00000000000E+00 -0.95317267698E+02  0.95325728014E+02  0.12700000000E+01 0.  1.
         25    2    1    2    0    0  0.00000000000E+00  0.00000000000E+00 -0.54321192810E+02  0.13634146958E+03  0.12505280620E+03 0.  0.
    9000005    1    3    3    0    0  0.25161128434E+02 -0.51832046143E+02 -0.70252751424E+00  0.57629306228E+02  0.10000000000E+01 0.  0.
    9000005    1    3    3    0    0 -0.25161128434E+02  0.51832046143E+02 -0.53618665296E+02  0.78712163352E+02  0.10000000000E+01 0.  0.
<mgrwt>
<rscale>  0 0.12505281E+03</rscale>
<asrwt>0</asrwt>
<pdfrwt beam="2">  1        4 0.14666359E-01 0.12505281E+03</pdfrwt>
<pdfrwt beam="1">  1       -4 0.63092521E-02 0.12505281E+03</pdfrwt>
<totfact> 0.10197725E+04</totfact>
</mgrwt>
</event>
<event>
 5    1  0.3312706E-002  0.1250015E+03  0.7818608E-02  0.1235067E+00
          4   -1    0    0  501    0  0.00000000000E+00  0.00000000000E+00  0.36888255577E+02  0.36910111074E+02  0.12700000000E+01 0.  1.
         -4   -1    0    0    0  501 -0.00000000000E+00 -0.00000000000E+00 -0.10583963491E+03  0.10584725418E+03  0.12700000000E+01 0.  1.
         25    2    1    2    0    0  0.00000000000E+00  0.00000000000E+00 -0.68951379328E+02  0.14275736525E+03  0.12500149048E+03 0.  0.
    9000005    1    3    3    0    0  0.78082373384E+01  0.70469557877E+01 -0.10482711722E+03  0.10535821117E+03  0.10000000000E+01 0.  0.
    9000005    1    3    3    0    0 -0.78082373384E+01 -0.70469557877E+01  0.35875737896E+02  0.37399154078E+02  0.10000000000E+01 0.  0.
<mgrwt>
<rscale>  0 0.12500149E+03</rscale>
<asrwt>0</asrwt>
<pdfrwt beam="1">  1        4 0.56773836E-02 0.12500149E+03</pdfrwt>
<pdfrwt beam="2">  1       -4 0.16285288E-01 0.12500149E+03</pdfrwt>
<totfact> 0.10076416E+04</totfact>
</mgrwt>
</event>
<event>
 5    1  0.3312706E-002  0.1250007E+03  0.7818608E-02  0.1235068E+00
          4   -1    0    0  501    0  0.00000000000E+00  0.00000000000E+00  0.15652445903E+03  0.15652961118E+03  0.12700000000E+01 0. -1.
         -4   -1    0    0    0  501 -0.00000000000E+00 -0.00000000000E+00 -0.24934734065E+02  0.24967055551E+02  0.12700000000E+01 0. -1.
         25    2    1    2    0    0  0.00000000000E+00  0.00000000000E+00  0.13158972497E+03  0.18149666673E+03  0.12500073726E+03 0.  0.
    9000005    1    3    3    0    0 -0.13843696787E+02  0.58708012167E+02  0.42068787558E+02  0.73546322274E+02  0.10000000000E+01 0.  0.
    9000005    1    3    3    0    0  0.13843696787E+02 -0.58708012167E+02  0.89520937407E+02  0.10795034445E+03  0.10000000000E+01 0.  0.
<mgrwt>
<rscale>  0 0.12500074E+03</rscale>
<asrwt>0</asrwt>
<pdfrwt beam="1">  1        4 0.24083568E-01 0.12500074E+03</pdfrwt>
<pdfrwt beam="2">  1       -4 0.38389956E-02 0.12500074E+03</pdfrwt>
<totfact> 0.93346747E+03</totfact>
</mgrwt>
</event>
<event>
 5    1  0.3312706E-002  0.1250031E+03  0.7818608E-02  0.1235064E+00
          4   -1    0    0  501    0  0.00000000000E+00  0.00000000000E+00  0.41237670746E+02  0.41257222259E+02  0.12700000000E+01 0.  1.
         -4   -1    0    0    0  501 -0.00000000000E+00 -0.00000000000E+00 -0.94683789200E+02  0.94692306115E+02  0.12700000000E+01 0.  1.
         25    2    1    2    0    0  0.00000000000E+00  0.00000000000E+00 -0.53446118454E+02  0.13594952837E+03  0.12500314671E+03 0.  0.
    9000005    1    3    3    0    0  0.27515090729E+01  0.57508846943E+02 -0.29248694004E+00  0.57584058797E+02  0.10000000000E+01 0.  0.
    9000005    1    3    3    0    0 -0.27515090729E+01 -0.57508846943E+02 -0.53153631514E+02  0.78365469577E+02  0.10000000000E+01 0.  0.
<mgrwt>
<rscale>  0 0.12500315E+03</rscale>
<asrwt>0</asrwt>
<pdfrwt beam="1">  1        4 0.63464162E-02 0.12500315E+03</pdfrwt>
<pdfrwt beam="2">  1       -4 0.14568896E-01 0.12500315E+03</pdfrwt>
<totfact> 0.10217371E+04</totfact>
</mgrwt>
</event>
<event>
 5    1  0.3312706E-002  0.1249990E+03  0.7818608E-02  0.1235071E+00
          4   -1    0    0  501    0  0.00000000000E+00  0.00000000000E+00  0.49893279260E+02  0.49909440142E+02  0.12700000000E+01 0. -1.
         -4   -1    0    0    0  501 -0.00000000000E+00 -0.00000000000E+00 -0.78256828701E+02  0.78267133193E+02  0.12700000000E+01 0. -1.
         25    2    1    2    0    0  0.00000000000E+00  0.00000000000E+00 -0.28363549441E+02  0.12817657334E+03  0.12499897206E+03 0.  0.
    9000005    1    3    3    0    0 -0.42126051791E+02 -0.35359492219E+02 -0.44605652163E+02  0.70820633536E+02  0.10000000000E+01 0.  0.
    9000005    1    3    3    0    0  0.42126051791E+02  0.35359492219E+02  0.16242102722E+02  0.57355939800E+02  0.10000000000E+01 0.  0.
<mgrwt>
<rscale>  0 0.12499897E+03</rscale>
<asrwt>0</asrwt>
<pdfrwt beam="1">  1        4 0.76779249E-02 0.12499897E+03</pdfrwt>
<pdfrwt beam="2">  1       -4 0.12041548E-01 0.12499897E+03</pdfrwt>
<totfact> 0.10383917E+04</totfact>
</mgrwt>
</event>
<event>
 5    1  0.3312706E-002  0.1250007E+03  0.7818608E-02  0.1235068E+00
         -4   -1    0    0    0  501 -0.00000000000E+00  0.00000000000E+00  0.53653292918E+03  0.53653443226E+03  0.12700000000E+01 0. -1.
          4   -1    0    0  501    0  0.00000000000E+00 -0.00000000000E+00 -0.72237124081E+01  0.73345020932E+01  0.12700000000E+01 0. -1.
         25    2    1    2    0    0  0.00000000000E+00  0.00000000000E+00  0.52930921678E+03  0.54386893435E+03  0.12500068315E+03 0.  0.
    9000005    1    3    3    0    0  0.62119784597E+02  0.44274525447E+01  0.28718834928E+03  0.29386496548E+03  0.10000000000E+01 0.  0.
    9000005    1    3    3    0    0 -0.62119784597E+02 -0.44274525447E+01  0.24212086750E+03  0.25000396887E+03  0.10000000000E+01 0.  0.
<mgrwt>
<rscale>  0 0.12500068E+03</rscale>
<asrwt>0</asrwt>
<pdfrwt beam="2">  1        4 0.11199778E-02 0.12500068E+03</pdfrwt>
<pdfrwt beam="1">  1       -4 0.82552198E-01 0.12500068E+03</pdfrwt>
<totfact> 0.52613595E+03</totfact>
</mgrwt>
</event>
<event>
 5    1  0.3312706E-002  0.1249709E+03  0.7818608E-02  0.1235115E+00
          4   -1    0    0  501    0  0.00000000000E+00  0.00000000000E+00  0.16501505337E+02  0.16550304481E+02  0.12700000000E+01 0.  1.
         -4   -1    0    0    0  501 -0.00000000000E+00 -0.00000000000E+00 -0.23621079989E+03  0.23621421398E+03  0.12700000000E+01 0.  1.
         25    2    1    2    0    0  0.00000000000E+00  0.00000000000E+00 -0.21970929455E+03  0.25276451846E+03  0.12497090733E+03 0.  0.
    9000005    1    3    3    0    0  0.16927806924E+02 -0.28350141062E+01 -0.23135883318E+03  0.23199676214E+03  0.10000000000E+01 0.  0.
    9000005    1    3    3    0    0 -0.16927806924E+02  0.28350141062E+01  0.11649538628E+02  0.20767756318E+02  0.10000000000E+01 0.  0.
<mgrwt>
<rscale>  0 0.12497091E+03</rscale>
<asrwt>0</asrwt>
<pdfrwt beam="1">  1        4 0.25427097E-02 0.12497091E+03</pdfrwt>
<pdfrwt beam="2">  1       -4 0.36344137E-01 0.12497091E+03</pdfrwt>
<totfact> 0.81985415E+03</totfact>
</mgrwt>
</event>
<event>
 5    1  0.3312706E-002  0.1249980E+03  0.7818608E-02  0.1235072E+00
          4   -1    0    0  501    0  0.00000000000E+00  0.00000000000E+00  0.29997312074E+02  0.30024184114E+02  0.12700000000E+01 0.  1.
         -4   -1    0    0    0  501 -0.00000000000E+00 -0.00000000000E+00 -0.13012762724E+03  0.13013382447E+03  0.12700000000E+01 0.  1.
         25    2    1    2    0    0  0.00000000000E+00  0.00000000000E+00 -0.10013031517E+03  0.16015800858E+03  0.12499803078E+03 0.  0.
    9000005    1    3    3    0    0  0.13955201116E+02 -0.50202286602E+02 -0.58634560660E+01  0.52444230715E+02  0.10000000000E+01 0.  0.
    9000005    1    3    3    0    0 -0.13955201116E+02  0.50202286602E+02 -0.94266859100E+02  0.10771377787E+03  0.10000000000E+01 0.  0.
<mgrwt>
<rscale>  0 0.12499803E+03</rscale>
<asrwt>0</asrwt>
<pdfrwt beam="1">  1        4 0.46175149E-02 0.12499803E+03</pdfrwt>
<pdfrwt beam="2">  1       -4 0.20022179E-01 0.12499803E+03</pdfrwt>
<totfact> 0.97316638E+03</totfact>
</mgrwt>
</event>
<event>
 5    1  0.3312706E-002  0.1250018E+03  0.7818608E-02  0.1235067E+00
         -4   -1    0    0    0  501 -0.00000000000E+00  0.00000000000E+00  0.30190778306E+02  0.30217478298E+02  0.12700000000E+01 0. -1.
          4   -1    0    0  501    0  0.00000000000E+00 -0.00000000000E+00 -0.12930218865E+03  0.12930842544E+03  0.12700000000E+01 0. -1.
         25    2    1    2    0    0  0.00000000000E+00  0.00000000000E+00 -0.99111410346E+02  0.15952590374E+03  0.12500176920E+03 0.  0.
    9000005    1    3    3    0    0  0.11017599810E+02  0.41702644728E+02  0.81537678332E+01  0.43908791976E+02  0.10000000000E+01 0.  0.
    9000005    1    3    3    0    0 -0.11017599810E+02 -0.41702644728E+02 -0.10726517818E+03  0.11561711176E+03  0.10000000000E+01 0.  0.
<mgrwt>
<rscale>  0 0.12500177E+03</rscale>
<asrwt>0</asrwt>
<pdfrwt beam="2">  1        4 0.19895178E-01 0.12500177E+03</pdfrwt>
<pdfrwt beam="1">  1       -4 0.46472688E-02 0.12500177E+03</pdfrwt>
<totfact> 0.97430390E+03</totfact>
</mgrwt>
</event>
<event>
 5    1  0.3312706E-002  0.1250017E+03  0.7818608E-02  0.1235067E+00
          4   -1    0    0  501    0  0.00000000000E+00  0.00000000000E+00  0.84564337060E+02  0.84573873048E+02  0.12700000000E+01 0.  1.
         -4   -1    0    0    0  501 -0.00000000000E+00 -0.00000000000E+00 -0.46173017240E+02  0.46190479766E+02  0.12700000000E+01 0.  1.
         25    2    1    2    0    0  0.00000000000E+00  0.00000000000E+00  0.38391319820E+02  0.13076435281E+03  0.12500169011E+03 0.  0.
    9000005    1    3    3    0    0  0.35423493822E+02  0.42249108991E+02  0.49972086004E+02  0.74417877588E+02  0.10000000000E+01 0.  0.
    9000005    1    3    3    0    0 -0.35423493822E+02 -0.42249108991E+02 -0.11580766184E+02  0.56346475227E+02  0.10000000000E+01 0.  0.
<mgrwt>
<rscale>  0 0.12500169E+03</rscale>
<asrwt>0</asrwt>
<pdfrwt beam="1">  1        4 0.13011975E-01 0.12500169E+03</pdfrwt>
<pdfrwt beam="2">  1       -4 0.71056180E-02 0.12500169E+03</pdfrwt>
<totfact> 0.10327750E+04</totfact>
</mgrwt>
</event>
<event>
 5    1  0.3312706E-002  0.1250019E+03  0.7818608E-02  0.1235066E+00
         -4   -1    0    0    0  501 -0.00000000000E+00  0.00000000000E+00  0.98235867251E+02  0.98244076231E+02  0.12700000000E+01 0. -1.
          4   -1    0    0  501    0  0.00000000000E+00 -0.00000000000E+00 -0.39745187075E+02  0.39765472405E+02  0.12700000000E+01 0. -1.
         25    2    1    2    0    0  0.00000000000E+00  0.00000000000E+00  0.58490680176E+02  0.13800954864E+03  0.12500190338E+03 0.  0.
    9000005    1    3    3    0    0 -0.41715364683E+02  0.93723381784E+01  0.79566197846E+02  0.90331568199E+02  0.10000000000E+01 0.  0.
    9000005    1    3    3    0    0  0.41715364683E+02 -0.93723381784E+01 -0.21075517670E+02  0.47677980438E+02  0.10000000000E+01 0.  0.
<mgrwt>
<rscale>  0 0.12500190E+03</rscale>
<asrwt>0</asrwt>
<pdfrwt beam="2">  1        4 0.61168361E-02 0.12500190E+03</pdfrwt>
<pdfrwt beam="1">  1       -4 0.15115402E-01 0.12500190E+03</pdfrwt>
<totfact> 0.10174570E+04</totfact>
</mgrwt>
</event>
<event>
 5    1  0.3312706E-002  0.1249917E+03  0.7818608E-02  0.1235082E+00
          4   -1    0    0  501    0  0.00000000000E+00  0.00000000000E+00  0.75933622807E+02  0.75944242525E+02  0.12700000000E+01 0. -1.
         -4   -1    0    0    0  501 -0.00000000000E+00 -0.00000000000E+00 -0.51414037783E+02  0.51429720796E+02  0.12700000000E+01 0. -1.
         25    2    1    2    0    0  0.00000000000E+00  0.00000000000E+00  0.24519585024E+02  0.12737396332E+03  0.12499166565E+03 0.  0.
    9000005    1    3    3    0    0 -0.55591457899E+02  0.28527041176E+02  0.12999471845E+02  0.63829370496E+02  0.10000000000E+01 0.  0.
    9000005    1    3    3    0    0  0.55591457899E+02 -0.28527041176E+02  0.11520113180E+02  0.63544592825E+02  0.10000000000E+01 0.  0.
<mgrwt>
<rscale>  0 0.12499167E+03</rscale>
<asrwt>0</asrwt>
<pdfrwt beam="1">  1        4 0.11684119E-01 0.12499167E+03</pdfrwt>
<pdfrwt beam="2">  1       -4 0.79118753E-02 0.12499167E+03</pdfrwt>
<totfact> 0.10402988E+04</totfact>
</mgrwt>
</event>
<event>
 5    1  0.3312706E-002  0.1249966E+03  0.7818608E-02  0.1235075E+00
         -4   -1    0    0    0  501 -0.00000000000E+00  0.00000000000E+00  0.15166499649E+04  0.15166504967E+04  0.12700000000E+01 0.  1.
          4   -1    0    0  501    0  0.00000000000E+00 -0.00000000000E+00 -0.24183092958E+01  0.27315050522E+01  0.12700000000E+01 0.  1.
         25    2    1    2    0    0  0.00000000000E+00  0.00000000000E+00  0.15142316556E+04  0.15193820017E+04  0.12499664078E+03 0.  0.
    9000005    1    3    3    0    0 -0.54341065878E+01  0.53720264829E+02  0.37472447361E+03  0.37859586302E+03  0.10000000000E+01 0.  0.
    9000005    1    3    3    0    0  0.54341065878E+01 -0.53720264829E+02  0.11395071820E+04  0.11407861387E+04  0.10000000000E+01 0.  0.
<mgrwt>
<rscale>  0 0.12499664E+03</rscale>
<asrwt>0</asrwt>
<pdfrwt beam="2">  1        4 0.39618055E-03 0.12499664E+03</pdfrwt>
<pdfrwt beam="1">  1       -4 0.23335485E+00 0.12499664E+03</pdfrwt>
<totfact> 0.17553825E+03</totfact>
</mgrwt>
</event>
<event>
 5    1  0.3312706E-002  0.1249989E+03  0.7818608E-02  0.1235071E+00
          4   -1    0    0  501    0  0.00000000000E+00  0.00000000000E+00  0.70879440357E+03  0.70879554135E+03  0.12700000000E+01 0. -1.
         -4   -1    0    0    0  501 -0.00000000000E+00 -0.00000000000E+00 -0.54366929454E+01  0.55830574224E+01  0.12700000000E+01 0. -1.
         25    2    1    2    0    0  0.00000000000E+00  0.00000000000E+00  0.70335771063E+03  0.71437859877E+03  0.12499885313E+03 0.  0.
    9000005    1    3    3    0    0 -0.31178545064E+02  0.12050619123E+02  0.49921526008E+02  0.60087251997E+02  0.10000000000E+01 0.  0.
    9000005    1    3    3    0    0  0.31178545064E+02 -0.12050619123E+02  0.65343618462E+03  0.65429134677E+03  0.10000000000E+01 0.  0.
<mgrwt>
<rscale>  0 0.12499885E+03</rscale>
<asrwt>0</asrwt>
<pdfrwt beam="1">  1        4 0.10905665E+00 0.12499885E+03</pdfrwt>
<pdfrwt beam="2">  1       -4 0.84776058E-03 0.12499885E+03</pdfrwt>
<totfact> 0.42339520E+03</totfact>
</mgrwt>
</event>
<event>
 5    1  0.3312706E-002  0.1249926E+03  0.7818608E-02  0.1235081E+00
         -4   -1    0    0    0  501 -0.00000000000E+00  0.00000000000E+00  0.14729587200E+03  0.14730134694E+03  0.12700000000E+01 0.  1.
          4   -1    0    0  501    0  0.00000000000E+00 -0.00000000000E+00 -0.26495441181E+02  0.26525861030E+02  0.12700000000E+01 0.  1.
         25    2    1    2    0    0  0.00000000000E+00  0.00000000000E+00  0.12080043082E+03  0.17382720797E+03  0.12499261635E+03 0.  0.
    9000005    1    3    3    0    0  0.39049983451E+02  0.19098975086E+02  0.12282879776E+03  0.13029806452E+03  0.10000000000E+01 0.  0.
    9000005    1    3    3    0    0 -0.39049983451E+02 -0.19098975086E+02 -0.20283669425E+01  0.43529143448E+02  0.10000000000E+01 0.  0.
<mgrwt>
<rscale>  0 0.12499262E+03</rscale>
<asrwt>0</asrwt>
<pdfrwt beam="2">  1        4 0.40789830E-02 0.12499262E+03</pdfrwt>
<pdfrwt beam="1">  1       -4 0.22663664E-01 0.12499262E+03</pdfrwt>
<totfact> 0.94755771E+03</totfact>
</mgrwt>
</event>
<event>
 5    1  0.3312706E-002  0.1249971E+03  0.7818608E-02  0.1235074E+00
          4   -1    0    0  501    0  0.00000000000E+00  0.00000000000E+00  0.32342384107E+02  0.32367309275E+02  0.12700000000E+01 0.  1.
         -4   -1    0    0    0  501 -0.00000000000E+00 -0.00000000000E+00 -0.12069767418E+03  0.12070435556E+03  0.12700000000E+01 0.  1.
         25    2    1    2    0    0  0.00000000000E+00  0.00000000000E+00 -0.88355290070E+02  0.15307166484E+03  0.12499710914E+03 0.  0.
    9000005    1    3    3    0    0 -0.72712456299E+00  0.18655473105E+02  0.28853329188E+02  0.34381244773E+02  0.10000000000E+01 0.  0.
    9000005    1    3    3    0    0  0.72712456299E+00 -0.18655473105E+02 -0.11720861926E+03  0.11869042006E+03  0.10000000000E+01 0.  0.
<mgrwt>
<rscale>  0 0.12499711E+03</rscale>
<asrwt>0</asrwt>
<pdfrwt beam="1">  1        4 0.49781827E-02 0.12499711E+03</pdfrwt>
<pdfrwt beam="2">  1       -4 0.18571304E-01 0.12499711E+03</pdfrwt>
<totfact> 0.98701314E+03</totfact>
</mgrwt>
</event>
<event>
 5    1  0.3312706E-002  0.1250118E+03  0.7818608E-02  0.1235051E+00
         -4   -1    0    0    0  501 -0.00000000000E+00  0.00000000000E+00  0.88896484037E+01  0.89799080586E+01  0.12700000000E+01 0. -1.
          4   -1    0    0  501    0  0.00000000000E+00 -0.00000000000E+00 -0.43718717473E+03  0.43718901936E+03  0.12700000000E+01 0. -1.
         25    2    1    2    0    0  0.00000000000E+00  0.00000000000E+00 -0.42829752633E+03  0.44616892742E+03  0.12501176239E+03 0.  0.
    9000005    1    3    3    0    0  0.24085271023E+02 -0.28913926288E+02 -0.39223762560E+03  0.39403993496E+03  0.10000000000E+01 0.  0.
    9000005    1    3    3    0    0 -0.24085271023E+02  0.28913926288E+02 -0.36059900733E+02  0.52128992456E+02  0.10000000000E+01 0.  0.
<mgrwt>
<rscale>  0 0.12501176E+03</rscale>
<asrwt>0</asrwt>
<pdfrwt beam="2">  1        4 0.67266634E-01 0.12501176E+03</pdfrwt>
<pdfrwt beam="1">  1       -4 0.13747235E-02 0.12501176E+03</pdfrwt>
<totfact> 0.60281508E+03</totfact>
</mgrwt>
</event>
<event>
 5    1  0.3312706E-002  0.1250022E+03  0.7818608E-02  0.1235066E+00
         -4   -1    0    0    0  501 -0.00000000000E+00  0.00000000000E+00  0.27664667189E+02  0.27693802749E+02  0.12700000000E+01 0. -1.
          4   -1    0    0  501    0  0.00000000000E+00 -0.00000000000E+00 -0.14109853670E+03  0.14110425209E+03  0.12700000000E+01 0. -1.
         25    2    1    2    0    0  0.00000000000E+00  0.00000000000E+00 -0.11343386951E+03  0.16879805484E+03  0.12500216225E+03 0.  0.
    9000005    1    3    3    0    0 -0.39035753381E+02 -0.45685275680E+02 -0.33545325454E+02  0.68827489536E+02  0.10000000000E+01 0.  0.
    9000005    1    3    3    0    0  0.39035753381E+02  0.45685275680E+02 -0.79888544051E+02  0.99970565301E+02  0.10000000000E+01 0.  0.
<mgrwt>
<rscale>  0 0.12500216E+03</rscale>
<asrwt>0</asrwt>
<pdfrwt beam="2">  1        4 0.21710148E-01 0.12500216E+03</pdfrwt>
<pdfrwt beam="1">  1       -4 0.42587836E-02 0.12500216E+03</pdfrwt>
<totfact> 0.95668252E+03</totfact>
</mgrwt>
</event>
<event>
 5    1  0.3312706E-002  0.1250010E+03  0.7818608E-02  0.1235068E+00
         -4   -1    0    0    0  501 -0.00000000000E+00  0.00000000000E+00  0.26019855416E+03  0.26020165351E+03  0.12700000000E+01 0. -1.
          4   -1    0    0  501    0  0.00000000000E+00 -0.00000000000E+00 -0.14982763414E+02  0.15036492261E+02  0.12700000000E+01 0. -1.
         25    2    1    2    0    0  0.00000000000E+00  0.00000000000E+00  0.24521579075E+03  0.27523814577E+03  0.12500101141E+03 0.  0.
    9000005    1    3    3    0    0 -0.36343343056E+02  0.19022779615E+02  0.18800909674E+02  0.45135118626E+02  0.10000000000E+01 0.  0.
    9000005    1    3    3    0    0  0.36343343056E+02 -0.19022779615E+02  0.22641488107E+03  0.23010302714E+03  0.10000000000E+01 0.  0.
<mgrwt>
<rscale>  0 0.12500101E+03</rscale>
<asrwt>0</asrwt>
<pdfrwt beam="2">  1        4 0.23094120E-02 0.12500101E+03</pdfrwt>
<pdfrwt beam="1">  1       -4 0.40034917E-01 0.12500101E+03</pdfrwt>
<totfact> 0.78811986E+03</totfact>
</mgrwt>
</event>
<event>
 5    1  0.3312706E-002  0.1250049E+03  0.7818608E-02  0.1235062E+00
          4   -1    0    0  501    0  0.00000000000E+00  0.00000000000E+00  0.23335025828E+03  0.23335371422E+03  0.12700000000E+01 0.  1.
         -4   -1    0    0    0  501 -0.00000000000E+00 -0.00000000000E+00 -0.16713507520E+02  0.16761689462E+02  0.12700000000E+01 0.  1.
         25    2    1    2    0    0  0.00000000000E+00  0.00000000000E+00  0.21663675076E+03  0.25011540368E+03  0.12500493342E+03 0.  0.
    9000005    1    3    3    0    0 -0.49101281504E+01 -0.23555378784E+01  0.23288439629E+03  0.23295020917E+03  0.10000000000E+01 0.  0.
    9000005    1    3    3    0    0  0.49101281504E+01  0.23555378784E+01 -0.16247645532E+02  0.17165194508E+02  0.10000000000E+01 0.  0.
<mgrwt>
<rscale>  0 0.12500493E+03</rscale>
<asrwt>0</asrwt>
<pdfrwt beam="1">  1        4 0.35904009E-01 0.12500493E+03</pdfrwt>
<pdfrwt beam="2">  1       -4 0.25752812E-02 0.12500493E+03</pdfrwt>
<totfact> 0.82304508E+03</totfact>
</mgrwt>
</event>
<event>
 5    1  0.3312706E-002  0.1250029E+03  0.7818608E-02  0.1235065E+00
          4   -1    0    0  501    0  0.00000000000E+00  0.00000000000E+00  0.49749524076E+03  0.49749686178E+03  0.12700000000E+01 0. -1.
         -4   -1    0    0    0  501 -0.00000000000E+00 -0.00000000000E+00 -0.77992066721E+01  0.79019317077E+01  0.12700000000E+01 0. -1.
         25    2    1    2    0    0  0.00000000000E+00  0.00000000000E+00  0.48969603409E+03  0.50539879349E+03  0.12500293859E+03 0.  0.
    9000005    1    3    3    0    0  0.21896169806E+01 -0.62407539825E+02  0.23499561990E+03  0.24315311395E+03  0.10000000000E+01 0.  0.
    9000005    1    3    3    0    0 -0.21896169806E+01  0.62407539825E+02  0.25470041419E+03  0.26224567954E+03  0.10000000000E+01 0.  0.
<mgrwt>
<rscale>  0 0.12500294E+03</rscale>
<asrwt>0</asrwt>
<pdfrwt beam="1">  1        4 0.76545768E-01 0.12500294E+03</pdfrwt>
<pdfrwt beam="2">  1       -4 0.12079044E-02 0.12500294E+03</pdfrwt>
<totfact> 0.55444317E+03</totfact>
</mgrwt>
</event>
<event>
 5    1  0.3312706E-002  0.1250004E+03  0.7818608E-02  0.1235069E+00
         -4   -1    0    0    0  501 -0.00000000000E+00  0.00000000000E+00  0.15316518036E+02  0.15369080153E+02  0.12700000000E+01 0. -1.
          4   -1    0    0  501    0  0.00000000000E+00 -0.00000000000E+00 -0.25454562699E+03  0.25454879517E+03  0.12700000000E+01 0. -1.
         25    2    1    2    0    0  0.00000000000E+00  0.00000000000E+00 -0.23922910896E+03  0.26991787532E+03  0.12500037138E+03 0.  0.
    9000005    1    3    3    0    0 -0.57683803168E+02 -0.17510693429E+02 -0.15517665025E+03  0.16647774120E+03  0.10000000000E+01 0.  0.
    9000005    1    3    3    0    0  0.57683803168E+02  0.17510693429E+02 -0.84052458706E+02  0.10344013412E+03  0.10000000000E+01 0.  0.
<mgrwt>
<rscale>  0 0.12500037E+03</rscale>
<asrwt>0</asrwt>
<pdfrwt beam="2">  1        4 0.39165150E-01 0.12500037E+03</pdfrwt>
<pdfrwt beam="1">  1       -4 0.23606745E-02 0.12500037E+03</pdfrwt>
<totfact> 0.79533409E+03</totfact>
</mgrwt>
</event>
<event>
 5    1  0.3312706E-002  0.1249980E+03  0.7818608E-02  0.1235072E+00
          4   -1    0    0  501    0  0.00000000000E+00  0.00000000000E+00  0.98691035212E+02  0.98699206335E+02  0.12700000000E+01 0.  1.
         -4   -1    0    0    0  501 -0.00000000000E+00 -0.00000000000E+00 -0.39559325124E+02  0.39579705712E+02  0.12700000000E+01 0.  1.
         25    2    1    2    0    0  0.00000000000E+00  0.00000000000E+00  0.59131710088E+02  0.13827891205E+03  0.12499799350E+03 0.  0.
    9000005    1    3    3    0    0  0.55702442081E+02 -0.28117075269E+02  0.33364756693E+02  0.70763966570E+02  0.10000000000E+01 0.  0.
    9000005    1    3    3    0    0 -0.55702442081E+02  0.28117075269E+02  0.25766953396E+02  0.67514945477E+02  0.10000000000E+01 0.  0.
<mgrwt>
<rscale>  0 0.12499799E+03</rscale>
<asrwt>0</asrwt>
<pdfrwt beam="1">  1        4 0.15185432E-01 0.12499799E+03</pdfrwt>
<pdfrwt beam="2">  1       -4 0.60882464E-02 0.12499799E+03</pdfrwt>
<totfact> 0.10169841E+04</totfact>
</mgrwt>
</event>
<event>
 5    1  0.3312706E-002  0.1250019E+03  0.7818608E-02  0.1235066E+00
          4   -1    0    0  501    0  0.00000000000E+00  0.00000000000E+00  0.30737739366E+01  0.33258060998E+01  0.12700000000E+01 0. -1.
         -4   -1    0    0    0  501 -0.00000000000E+00 -0.00000000000E+00 -0.12205685212E+04  0.12205691819E+04  0.12700000000E+01 0. -1.
         25    2    1    2    0    0  0.00000000000E+00  0.00000000000E+00 -0.12174947472E+04  0.12238949880E+04  0.12500192829E+03 0.  0.
    9000005    1    3    3    0    0 -0.10098300979E+02  0.27796613292E+02 -0.11477638097E+04  0.11481451956E+04  0.10000000000E+01 0.  0.
    9000005    1    3    3    0    0  0.10098300979E+02 -0.27796613292E+02 -0.69730937579E+02  0.75749792401E+02  0.10000000000E+01 0.  0.
<mgrwt>
<rscale>  0 0.12500193E+03</rscale>
<asrwt>0</asrwt>
<pdfrwt beam="1">  1        4 0.49232718E-03 0.12500193E+03</pdfrwt>
<pdfrwt beam="2">  1       -4 0.18779884E+00 0.12500193E+03</pdfrwt>
<totfact> 0.24094783E+03</totfact>
</mgrwt>
</event>
<event>
 5    1  0.3312706E-002  0.1250178E+03  0.7818608E-02  0.1235041E+00
          4   -1    0    0  501    0  0.00000000000E+00  0.00000000000E+00  0.60124184919E+02  0.60137596494E+02  0.12700000000E+01 0. -1.
         -4   -1    0    0    0  501 -0.00000000000E+00 -0.00000000000E+00 -0.64961315856E+02  0.64973728982E+02  0.12700000000E+01 0. -1.
         25    2    1    2    0    0  0.00000000000E+00  0.00000000000E+00 -0.48371309378E+01  0.12511132548E+03  0.12501778244E+03 0.  0.
    9000005    1    3    3    0    0  0.51361830568E+02  0.35580961103E+02 -0.39425474418E+01  0.62614583866E+02  0.10000000000E+01 0.  0.
    9000005    1    3    3    0    0 -0.51361830568E+02 -0.35580961103E+02 -0.89458349592E+00  0.62496741611E+02  0.10000000000E+01 0.  0.
<mgrwt>
<rscale>  0 0.12501778E+03</rscale>
<asrwt>0</asrwt>
<pdfrwt beam="1">  1        4 0.92518611E-02 0.12501778E+03</pdfrwt>
<pdfrwt beam="2">  1       -4 0.99960351E-02 0.12501778E+03</pdfrwt>
<totfact> 0.10446246E+04</totfact>
</mgrwt>
</event>
<event>
 5    1  0.3312706E-002  0.1250036E+03  0.7818608E-02  0.1235064E+00
         -4   -1    0    0    0  501 -0.00000000000E+00  0.00000000000E+00  0.34171486593E+03  0.34171722593E+03  0.12700000000E+01 0. -1.
          4   -1    0    0  501    0  0.00000000000E+00 -0.00000000000E+00 -0.11394290796E+02  0.11464849006E+02  0.12700000000E+01 0. -1.
         25    2    1    2    0    0  0.00000000000E+00  0.00000000000E+00  0.33032057513E+03  0.35318207493E+03  0.12500358275E+03 0.  0.
    9000005    1    3    3    0    0 -0.23771562501E+02 -0.22247899196E+02  0.31587276511E+03  0.31754788606E+03  0.10000000000E+01 0.  0.
    9000005    1    3    3    0    0  0.23771562501E+02  0.22247899196E+02  0.14447810022E+02  0.35634188876E+02  0.10000000000E+01 0.  0.
<mgrwt>
<rscale>  0 0.12500358E+03</rscale>
<asrwt>0</asrwt>
<pdfrwt beam="2">  1        4 0.17585771E-02 0.12500358E+03</pdfrwt>
<pdfrwt beam="1">  1       -4 0.52577120E-01 0.12500358E+03</pdfrwt>
<totfact> 0.69370405E+03</totfact>
</mgrwt>
</event>
<event>
 5    1  0.3312706E-002  0.1250017E+03  0.7818608E-02  0.1235067E+00
         -4   -1    0    0    0  501 -0.00000000000E+00  0.00000000000E+00  0.34896300055E+01  0.37135451493E+01  0.12700000000E+01 0. -1.
          4   -1    0    0  501    0  0.00000000000E+00 -0.00000000000E+00 -0.10843959749E+04  0.10843967186E+04  0.12700000000E+01 0. -1.
         25    2    1    2    0    0  0.00000000000E+00  0.00000000000E+00 -0.10809063449E+04  0.10881102637E+04  0.12500167844E+03 0.  0.
    9000005    1    3    3    0    0 -0.33578502815E+02 -0.35114084334E+02 -0.19831712482E+03  0.20418422261E+03  0.10000000000E+01 0.  0.
    9000005    1    3    3    0    0  0.33578502815E+02  0.35114084334E+02 -0.88258922007E+03  0.88392604112E+03  0.10000000000E+01 0.  0.
<mgrwt>
<rscale>  0 0.12500168E+03</rscale>
<asrwt>0</asrwt>
<pdfrwt beam="2">  1        4 0.16684717E+00 0.12500168E+03</pdfrwt>
<pdfrwt beam="1">  1       -4 0.55414847E-03 0.12500168E+03</pdfrwt>
<totfact> 0.27833026E+03</totfact>
</mgrwt>
</event>
<event>
 5    1  0.3312706E-002  0.1249991E+03  0.7818608E-02  0.1235071E+00
          4   -1    0    0  501    0  0.00000000000E+00  0.00000000000E+00  0.89129390913E+02  0.89138438536E+02  0.12700000000E+01 0.  1.
         -4   -1    0    0    0  501 -0.00000000000E+00 -0.00000000000E+00 -0.43805635176E+02  0.43824041041E+02  0.12700000000E+01 0.  1.
         25    2    1    2    0    0  0.00000000000E+00  0.00000000000E+00  0.45323755737E+02  0.13296247958E+03  0.12499911256E+03 0.  0.
    9000005    1    3    3    0    0 -0.15472349868E+02 -0.25536139831E+01  0.87007646890E+02  0.88415186321E+02  0.10000000000E+01 0.  0.
    9000005    1    3    3    0    0  0.15472349868E+02  0.25536139831E+01 -0.41683891153E+02  0.44547293256E+02  0.10000000000E+01 0.  0.
<mgrwt>
<rscale>  0 0.12499911E+03</rscale>
<asrwt>0</asrwt>
<pdfrwt beam="1">  1        4 0.13714326E-01 0.12499911E+03</pdfrwt>
<pdfrwt beam="2">  1       -4 0.67414403E-02 0.12499911E+03</pdfrwt>
<totfact> 0.10281403E+04</totfact>
</mgrwt>
</event>
<event>
 5    1  0.3312706E-002  0.1250069E+03  0.7818608E-02  0.1235058E+00
          4   -1    0    0  501    0  0.00000000000E+00  0.00000000000E+00  0.30594381397E+02  0.30620729467E+02  0.12700000000E+01 0. -1.
         -4   -1    0    0    0  501 -0.00000000000E+00 -0.00000000000E+00 -0.12760830241E+03  0.12761462198E+03  0.12700000000E+01 0. -1.
         25    2    1    2    0    0  0.00000000000E+00  0.00000000000E+00 -0.97013921010E+02  0.15823535145E+03  0.12500690212E+03 0.  0.
    9000005    1    3    3    0    0 -0.19139019606E+02 -0.58064989635E+02 -0.64905775783E+02  0.89171771445E+02  0.10000000000E+01 0.  0.
    9000005    1    3    3    0    0  0.19139019606E+02  0.58064989635E+02 -0.32108145227E+02  0.69063580002E+02  0.10000000000E+01 0.  0.
<mgrwt>
<rscale>  0 0.12500690E+03</rscale>
<asrwt>0</asrwt>
<pdfrwt beam="1">  1        4 0.47093409E-02 0.12500690E+03</pdfrwt>
<pdfrwt beam="2">  1       -4 0.19634559E-01 0.12500690E+03</pdfrwt>
<totfact> 0.97668922E+03</totfact>
</mgrwt>
</event>
<event>
 5    1  0.3312706E-002  0.1249973E+03  0.7818608E-02  0.1235074E+00
         -4   -1    0    0    0  501 -0.00000000000E+00  0.00000000000E+00  0.85365863978E+02  0.85375310440E+02  0.12700000000E+01 0. -1.
          4   -1    0    0  501    0  0.00000000000E+00 -0.00000000000E+00 -0.45736150400E+02  0.45753779663E+02  0.12700000000E+01 0. -1.
         25    2    1    2    0    0  0.00000000000E+00  0.00000000000E+00  0.39629713578E+02  0.13112909010E+03  0.12499729626E+03 0.  0.
    9000005    1    3    3    0    0 -0.33879557909E+01 -0.56791368422E+02  0.46935389167E+02  0.73760887521E+02  0.10000000000E+01 0.  0.
    9000005    1    3    3    0    0  0.33879557909E+01  0.56791368422E+02 -0.73056755889E+01  0.57368202582E+02  0.10000000000E+01 0.  0.
<mgrwt>
<rscale>  0 0.12499730E+03</rscale>
<asrwt>0</asrwt>
<pdfrwt beam="2">  1        4 0.70384136E-02 0.12499730E+03</pdfrwt>
<pdfrwt beam="1">  1       -4 0.13135292E-01 0.12499730E+03</pdfrwt>
<totfact> 0.10320952E+04</totfact>
</mgrwt>
</event>
<event>
 5    1  0.3312706E-002  0.1250029E+03  0.7818608E-02  0.1235065E+00
          4   -1    0    0  501    0  0.00000000000E+00  0.00000000000E+00  0.76104207199E+03  0.76104313165E+03  0.12700000000E+01 0. -1.
         -4   -1    0    0    0  501 -0.00000000000E+00 -0.00000000000E+00 -0.50533674426E+01  0.52105107725E+01  0.12700000000E+01 0. -1.
         25    2    1    2    0    0  0.00000000000E+00  0.00000000000E+00  0.75598870455E+03  0.76625364243E+03  0.12500289249E+03 0.  0.
    9000005    1    3    3    0    0 -0.59360135600E+02  0.12582411378E+02  0.28635550834E+03  0.29271559564E+03  0.10000000000E+01 0.  0.
    9000005    1    3    3    0    0  0.59360135600E+02 -0.12582411378E+02  0.46963319621E+03  0.47353804679E+03  0.10000000000E+01 0.  0.
<mgrwt>
<rscale>  0 0.12500289E+03</rscale>
<asrwt>0</asrwt>
<pdfrwt beam="1">  1        4 0.11709544E+00 0.12500289E+03</pdfrwt>
<pdfrwt beam="2">  1       -4 0.78961144E-03 0.12500289E+03</pdfrwt>
<totfact> 0.39806048E+03</totfact>
</mgrwt>
</event>
<event>
 5    1  0.3312706E-002  0.1250074E+03  0.7818608E-02  0.1235058E+00
          4   -1    0    0  501    0  0.00000000000E+00  0.00000000000E+00  0.79727216861E+02  0.79737331335E+02  0.12700000000E+01 0.  1.
         -4   -1    0    0    0  501 -0.00000000000E+00 -0.00000000000E+00 -0.48979544974E+02  0.48996007244E+02  0.12700000000E+01 0.  1.
         25    2    1    2    0    0  0.00000000000E+00  0.00000000000E+00  0.30747671888E+02  0.12873333858E+03  0.12500741232E+03 0.  0.
    9000005    1    3    3    0    0  0.22059259000E+02  0.29527699917E+02  0.67348090141E+02  0.76780604423E+02  0.10000000000E+01 0.  0.
    9000005    1    3    3    0    0 -0.22059259000E+02 -0.29527699917E+02 -0.36600418253E+02  0.51952734156E+02  0.10000000000E+01 0.  0.
<mgrwt>
<rscale>  0 0.12500741E+03</rscale>
<asrwt>0</asrwt>
<pdfrwt beam="1">  1        4 0.12267770E-01 0.12500741E+03</pdfrwt>
<pdfrwt beam="2">  1       -4 0.75373591E-02 0.12500741E+03</pdfrwt>
<totfact> 0.10369945E+04</totfact>
</mgrwt>
</event>
<event>
 5    1  0.3312706E-002  0.1249993E+03  0.7818608E-02  0.1235070E+00
         -4   -1    0    0    0  501 -0.00000000000E+00  0.00000000000E+00  0.20688332520E+03  0.20688722325E+03  0.12700000000E+01 0. -1.
          4   -1    0    0  501    0  0.00000000000E+00 -0.00000000000E+00 -0.18855774228E+02  0.18898495224E+02  0.12700000000E+01 0. -1.
         25    2    1    2    0    0  0.00000000000E+00  0.00000000000E+00  0.18802755097E+03  0.22578571848E+03  0.12499932297E+03 0.  0.
    9000005    1    3    3    0    0  0.23642238727E+02 -0.56293566023E+02  0.69963124586E+02  0.92864201011E+02  0.10000000000E+01 0.  0.
    9000005    1    3    3    0    0 -0.23642238727E+02  0.56293566023E+02  0.11806442639E+03  0.13292151747E+03  0.10000000000E+01 0.  0.
<mgrwt>
<rscale>  0 0.12499932E+03</rscale>
<asrwt>0</asrwt>
<pdfrwt beam="2">  1        4 0.29044746E-02 0.12499932E+03</pdfrwt>
<pdfrwt beam="1">  1       -4 0.31831788E-01 0.12499932E+03</pdfrwt>
<totfact> 0.85962233E+03</totfact>
</mgrwt>
</event>
<event>
 5    1  0.3312706E-002  0.1249996E+03  0.7818608E-02  0.1235070E+00
         -4   -1    0    0    0  501 -0.00000000000E+00  0.00000000000E+00  0.37623012890E+02  0.37644441806E+02  0.12700000000E+01 0.  1.
          4   -1    0    0  501    0  0.00000000000E+00 -0.00000000000E+00 -0.10377049051E+03  0.10377826170E+03  0.12700000000E+01 0.  1.
         25    2    1    2    0    0  0.00000000000E+00  0.00000000000E+00 -0.66147477622E+02  0.14142270350E+03  0.12499956908E+03 0.  0.
    9000005    1    3    3    0    0  0.62276380205E+01  0.49652192629E+01 -0.10319943968E+03  0.10351116475E+03  0.10000000000E+01 0.  0.
    9000005    1    3    3    0    0 -0.62276380205E+01 -0.49652192629E+01  0.37051962063E+02  0.37911538749E+02  0.10000000000E+01 0.  0.
<mgrwt>
<rscale>  0 0.12499957E+03</rscale>
<asrwt>0</asrwt>
<pdfrwt beam="2">  1        4 0.15966937E-01 0.12499957E+03</pdfrwt>
<pdfrwt beam="1">  1       -4 0.57904020E-02 0.12499957E+03</pdfrwt>
<totfact> 0.10104282E+04</totfact>
</mgrwt>
</event>
<event>
 5    1  0.3312706E-002  0.1249995E+03  0.7818608E-02  0.1235070E+00
         -4   -1    0    0    0  501 -0.00000000000E+00  0.00000000000E+00  0.41180203860E+01  0.43094073722E+01  0.12700000000E+01 0. -1.
          4   -1    0    0  501    0  0.00000000000E+00 -0.00000000000E+00 -0.92683317901E+03  0.92683404912E+03  0.12700000000E+01 0. -1.
         25    2    1    2    0    0  0.00000000000E+00  0.00000000000E+00 -0.92271515862E+03  0.93114345649E+03  0.12499949048E+03 0.  0.
    9000005    1    3    3    0    0  0.33481107000E+02 -0.51444986893E+02 -0.37396155978E+03  0.37896677875E+03  0.10000000000E+01 0.  0.
    9000005    1    3    3    0    0 -0.33481107000E+02  0.51444986893E+02 -0.54875359884E+03  0.55217667774E+03  0.10000000000E+01 0.  0.
<mgrwt>
<rscale>  0 0.12499949E+03</rscale>
<asrwt>0</asrwt>
<pdfrwt beam="2">  1        4 0.14260435E+00 0.12499949E+03</pdfrwt>
<pdfrwt beam="1">  1       -4 0.64833134E-03 0.12499949E+03</pdfrwt>
<totfact> 0.32995460E+03</totfact>
</mgrwt>
</event>
<event>
 5    1  0.3312706E-002  0.1249969E+03  0.7818608E-02  0.1235074E+00
         -4   -1    0    0    0  501 -0.00000000000E+00  0.00000000000E+00  0.13497400820E+03  0.13497998292E+03  0.12700000000E+01 0. -1.
          4   -1    0    0  501    0  0.00000000000E+00 -0.00000000000E+00 -0.28918761448E+02  0.28946634756E+02  0.12700000000E+01 0. -1.
         25    2    1    2    0    0  0.00000000000E+00  0.00000000000E+00  0.10605524675E+03  0.16392661768E+03  0.12499688244E+03 0.  0.
    9000005    1    3    3    0    0 -0.17883367664E+02 -0.10844797016E+02 -0.24198941251E+02  0.32000206547E+02  0.10000000000E+01 0.  0.
    9000005    1    3    3    0    0  0.17883367664E+02  0.10844797016E+02  0.13025418800E+03  0.13192641113E+03  0.10000000000E+01 0.  0.
<mgrwt>
<rscale>  0 0.12499688E+03</rscale>
<asrwt>0</asrwt>
<pdfrwt beam="2">  1        4 0.44516439E-02 0.12499688E+03</pdfrwt>
<pdfrwt beam="1">  1       -4 0.20767836E-01 0.12499688E+03</pdfrwt>
<totfact> 0.96597826E+03</totfact>
</mgrwt>
</event>
<event>
 5    1  0.3312706E-002  0.1249997E+03  0.7818608E-02  0.1235070E+00
          4   -1    0    0  501    0  0.00000000000E+00  0.00000000000E+00  0.27102293257E+03  0.27102590814E+03  0.12700000000E+01 0. -1.
         -4   -1    0    0    0  501 -0.00000000000E+00 -0.00000000000E+00 -0.14381886405E+02  0.14437851522E+02  0.12700000000E+01 0. -1.
         25    2    1    2    0    0  0.00000000000E+00  0.00000000000E+00  0.25664104617E+03  0.28546375966E+03  0.12499972600E+03 0.  0.
    9000005    1    3    3    0    0 -0.62082971261E+02  0.64289781663E+01  0.13539849045E+03  0.14909519877E+03  0.10000000000E+01 0.  0.
    9000005    1    3    3    0    0  0.62082971261E+02 -0.64289781663E+01  0.12124255572E+03  0.13636856088E+03  0.10000000000E+01 0.  0.
<mgrwt>
<rscale>  0 0.12499973E+03</rscale>
<asrwt>0</asrwt>
<pdfrwt beam="1">  1        4 0.41700366E-01 0.12499973E+03</pdfrwt>
<pdfrwt beam="2">  1       -4 0.22171320E-02 0.12499973E+03</pdfrwt>
<totfact> 0.77459657E+03</totfact>
</mgrwt>
</event>
<event>
 4    1  0.3312706E-002  0.1249068E+03  0.7818608E-02  0.1235215E+00
          4   -1    0    0  501    0  0.00000000000E+00  0.00000000000E+00  0.45156610721E+01  0.46908522593E+01  0.12700000000E+01 0. -1.
         -4   -1    0    0    0  501 -0.00000000000E+00 -0.00000000000E+00 -0.84714338167E+03  0.84714433363E+03  0.12700000000E+01 0. -1.
    9000005    1    1    2    0    0  0.17462924685E+02 -0.26456151056E+02 -0.78822397323E+03  0.78886178361E+03  0.10000000000E+01 0.  0.
    9000005    1    1    2    0    0 -0.17462924685E+02  0.26456151056E+02 -0.54403747365E+02  0.62973402279E+02  0.10000000000E+01 0.  0.
<mgrwt>
<rscale>  0 0.12490680E+03</rscale>
<asrwt>0</asrwt>
<pdfrwt beam="1">  1        4 0.70826723E-03 0.12490680E+03</pdfrwt>
<pdfrwt beam="2">  1       -4 0.13034318E+00 0.12490680E+03</pdfrwt>
<totfact> 0.36125844E+03</totfact>
</mgrwt>
</event>
<event>
 5    1  0.3312706E-002  0.1249992E+03  0.7818608E-02  0.1235070E+00
         -4   -1    0    0    0  501 -0.00000000000E+00  0.00000000000E+00  0.17468502765E+03  0.17468964419E+03  0.12700000000E+01 0.  1.
          4   -1    0    0  501    0  0.00000000000E+00 -0.00000000000E+00 -0.22338451801E+02  0.22374524104E+02  0.12700000000E+01 0.  1.
         25    2    1    2    0    0  0.00000000000E+00  0.00000000000E+00  0.15234657585E+03  0.19706416829E+03  0.12499922900E+03 0.  0.
    9000005    1    3    3    0    0 -0.17484654482E+02  0.59068530469E+02  0.59608735311E+02  0.85726342273E+02  0.10000000000E+01 0.  0.
    9000005    1    3    3    0    0  0.17484654482E+02 -0.59068530469E+02  0.92737840542E+02  0.11133782602E+03  0.10000000000E+01 0.  0.
<mgrwt>
<rscale>  0 0.12499923E+03</rscale>
<asrwt>0</asrwt>
<pdfrwt beam="2">  1        4 0.34398148E-02 0.12499923E+03</pdfrwt>
<pdfrwt beam="1">  1       -4 0.26877749E-01 0.12499923E+03</pdfrwt>
<totfact> 0.90634057E+03</totfact>
</mgrwt>
</event>
<event>
 5    1  0.3312706E-002  0.1249990E+03  0.7818608E-02  0.1235071E+00
         -4   -1    0    0    0  501 -0.00000000000E+00  0.00000000000E+00  0.98196139853E+02  0.98204352154E+02  0.12700000000E+01 0.  1.
          4   -1    0    0  501    0  0.00000000000E+00 -0.00000000000E+00 -0.39759398352E+02  0.39779676436E+02  0.12700000000E+01 0.  1.
         25    2    1    2    0    0  0.00000000000E+00  0.00000000000E+00  0.58436741501E+02  0.13798402859E+03  0.12499895755E+03 0.  0.
    9000005    1    3    3    0    0  0.39405738571E+02 -0.12804342016E+02 -0.22421828564E+02  0.47122200743E+02  0.10000000000E+01 0.  0.
    9000005    1    3    3    0    0 -0.39405738571E+02  0.12804342016E+02  0.80858570064E+02  0.90861827846E+02  0.10000000000E+01 0.  0.
<mgrwt>
<rscale>  0 0.12499896E+03</rscale>
<asrwt>0</asrwt>
<pdfrwt beam="2">  1        4 0.61190221E-02 0.12499896E+03</pdfrwt>
<pdfrwt beam="1">  1       -4 0.15109290E-01 0.12499896E+03</pdfrwt>
<totfact> 0.10175779E+04</totfact>
</mgrwt>
</event>
<event>
 5    1  0.3312706E-002  0.1250038E+03  0.7818608E-02  0.1235063E+00
         -4   -1    0    0    0  501 -0.00000000000E+00  0.00000000000E+00  0.18772700079E+03  0.18773129661E+03  0.12700000000E+01 0.  1.
          4   -1    0    0  501    0  0.00000000000E+00 -0.00000000000E+00 -0.20785504036E+02  0.20824266566E+02  0.12700000000E+01 0.  1.
         25    2    1    2    0    0  0.00000000000E+00  0.00000000000E+00  0.16694149676E+03  0.20855556318E+03  0.12500383831E+03 0.  0.
    9000005    1    3    3    0    0 -0.23439034208E+02  0.41396586632E+02  0.15856052837E+02  0.50154562315E+02  0.10000000000E+01 0.  0.
    9000005    1    3    3    0    0  0.23439034208E+02 -0.41396586632E+02  0.15108544392E+03  0.15840100086E+03  0.10000000000E+01 0.  0.
<mgrwt>
<rscale>  0 0.12500384E+03</rscale>
<asrwt>0</asrwt>
<pdfrwt beam="2">  1        4 0.32010821E-02 0.12500384E+03</pdfrwt>
<pdfrwt beam="1">  1       -4 0.28884389E-01 0.12500384E+03</pdfrwt>
<totfact> 0.88704708E+03</totfact>
</mgrwt>
</event>
<event>
 5    1  0.3312706E-002  0.1250049E+03  0.7818608E-02  0.1235062E+00
         -4   -1    0    0    0  501 -0.00000000000E+00  0.00000000000E+00  0.13685832655E+03  0.13686421901E+03  0.12700000000E+01 0.  1.
          4   -1    0    0  501    0  0.00000000000E+00 -0.00000000000E+00 -0.28523898996E+02  0.28552157780E+02  0.12700000000E+01 0.  1.
         25    2    1    2    0    0  0.00000000000E+00  0.00000000000E+00  0.10833442755E+03  0.16541637679E+03  0.12500491797E+03 0.  0.
    9000005    1    3    3    0    0 -0.10072562254E+02  0.50639445693E+02  0.10075992784E+03  0.11322267012E+03  0.10000000000E+01 0.  0.
    9000005    1    3    3    0    0  0.10072562254E+02 -0.50639445693E+02  0.75744997143E+01  0.52193706675E+02  0.10000000000E+01 0.  0.
<mgrwt>
<rscale>  0 0.12500492E+03</rscale>
<asrwt>0</asrwt>
<pdfrwt beam="2">  1        4 0.43909193E-02 0.12500492E+03</pdfrwt>
<pdfrwt beam="1">  1       -4 0.21057754E-01 0.12500492E+03</pdfrwt>
<totfact> 0.96297956E+03</totfact>
</mgrwt>
</event>
<event>
 5    1  0.3312706E-002  0.1250010E+03  0.7818608E-02  0.1235068E+00
         -4   -1    0    0    0  501 -0.00000000000E+00  0.00000000000E+00  0.56963974876E+02  0.56978130311E+02  0.12700000000E+01 0.  1.
          4   -1    0    0  501    0  0.00000000000E+00 -0.00000000000E+00 -0.68546558309E+02  0.68558322295E+02  0.12700000000E+01 0.  1.
         25    2    1    2    0    0  0.00000000000E+00  0.00000000000E+00 -0.11582583432E+02  0.12553645261E+03  0.12500097877E+03 0.  0.
    9000005    1    3    3    0    0  0.57431203395E+02  0.74080072100E+01 -0.29388529794E+02  0.64945418450E+02  0.10000000000E+01 0.  0.
    9000005    1    3    3    0    0 -0.57431203395E+02 -0.74080072100E+01  0.17805946362E+02  0.60591034156E+02  0.10000000000E+01 0.  0.
<mgrwt>
<rscale>  0 0.12500098E+03</rscale>
<asrwt>0</asrwt>
<pdfrwt beam="2">  1        4 0.10547618E-01 0.12500098E+03</pdfrwt>
<pdfrwt beam="1">  1       -4 0.87656822E-02 0.12500098E+03</pdfrwt>
<totfact> 0.10440918E+04</totfact>
</mgrwt>
</event>
<event>
 5    1  0.3312706E-002  0.1250023E+03  0.7818608E-02  0.1235066E+00
          4   -1    0    0  501    0  0.00000000000E+00  0.00000000000E+00  0.61027389861E+02  0.61040602989E+02  0.12700000000E+01 0.  1.
         -4   -1    0    0    0  501 -0.00000000000E+00 -0.00000000000E+00 -0.63984035500E+02  0.63996638184E+02  0.12700000000E+01 0.  1.
         25    2    1    2    0    0  0.00000000000E+00  0.00000000000E+00 -0.29566456386E+01  0.12503724117E+03  0.12500227969E+03 0.  0.
    9000005    1    3    3    0    0  0.49893035344E+02  0.70939639511E+01  0.35488111340E+02  0.61644507840E+02  0.10000000000E+01 0.  0.
    9000005    1    3    3    0    0 -0.49893035344E+02 -0.70939639511E+01 -0.38444756978E+02  0.63392733333E+02  0.10000000000E+01 0.  0.
<mgrwt>
<rscale>  0 0.12500228E+03</rscale>
<asrwt>0</asrwt>
<pdfrwt beam="1">  1        4 0.93908150E-02 0.12500228E+03</pdfrwt>
<pdfrwt beam="2">  1       -4 0.98456837E-02 0.12500228E+03</pdfrwt>
<totfact> 0.10451515E+04</totfact>
</mgrwt>
</event>
<event>
 5    1  0.3312706E-002  0.1249856E+03  0.7818608E-02  0.1235092E+00
         -4   -1    0    0    0  501 -0.00000000000E+00  0.00000000000E+00  0.33689850882E+02  0.33713779861E+02  0.12700000000E+01 0.  1.
          4   -1    0    0  501    0  0.00000000000E+00 -0.00000000000E+00 -0.11585202418E+03  0.11585898500E+03  0.12700000000E+01 0.  1.
         25    2    1    2    0    0  0.00000000000E+00  0.00000000000E+00 -0.82162173296E+02  0.14957276487E+03  0.12498555624E+03 0.  0.
    9000005    1    3    3    0    0 -0.34666056708E+02 -0.29492599815E+02 -0.92314116612E+02  0.10292932069E+03  0.10000000000E+01 0.  0.
    9000005    1    3    3    0    0  0.34666056708E+02  0.29492599815E+02  0.10151943316E+02  0.46643444176E+02  0.10000000000E+01 0.  0.
<mgrwt>
<rscale>  0 0.12498556E+03</rscale>
<asrwt>0</asrwt>
<pdfrwt beam="2">  1        4 0.17825764E-01 0.12498556E+03</pdfrwt>
<pdfrwt beam="1">  1       -4 0.51854302E-02 0.12498556E+03</pdfrwt>
<totfact> 0.99421245E+03</totfact>
</mgrwt>
</event>
<event>
 5    1  0.3312706E-002  0.1249993E+03  0.7818608E-02  0.1235070E+00
         -4   -1    0    0    0  501 -0.00000000000E+00  0.00000000000E+00  0.16540461985E+02  0.16589146533E+02  0.12700000000E+01 0. -1.
          4   -1    0    0  501    0  0.00000000000E+00 -0.00000000000E+00 -0.23576325980E+03  0.23576668037E+03  0.12700000000E+01 0. -1.
         25    2    1    2    0    0  0.00000000000E+00  0.00000000000E+00 -0.21922279781E+03  0.25235582690E+03  0.12499931315E+03 0.  0.
    9000005    1    3    3    0    0  0.24355654387E+02 -0.54692309178E+02 -0.73454086351E+02  0.94767871061E+02  0.10000000000E+01 0.  0.
    9000005    1    3    3    0    0 -0.24355654387E+02  0.54692309178E+02 -0.14576871146E+03  0.15758795584E+03  0.10000000000E+01 0.  0.
<mgrwt>
<rscale>  0 0.12499931E+03</rscale>
<asrwt>0</asrwt>
<pdfrwt beam="2">  1        4 0.36275276E-01 0.12499931E+03</pdfrwt>
<pdfrwt beam="1">  1       -4 0.25486947E-02 0.12499931E+03</pdfrwt>
<totfact> 0.81992181E+03</totfact>
</mgrwt>
</event>
<event>
 5    1  0.3312706E-002  0.1250079E+03  0.7818608E-02  0.1235057E+00
          4   -1    0    0  501    0  0.00000000000E+00  0.00000000000E+00  0.46229302580E+01  0.47942031841E+01  0.12700000000E+01 0. -1.
         -4   -1    0    0    0  501 -0.00000000000E+00 -0.00000000000E+00 -0.82953737937E+03  0.82953835154E+03  0.12700000000E+01 0. -1.
         25    2    1    2    0    0  0.00000000000E+00  0.00000000000E+00 -0.82491444912E+03  0.83433255473E+03  0.12500785381E+03 0.  0.
    9000005    1    3    3    0    0 -0.27837997918E+02  0.37700772035E+02 -0.68840610465E+03  0.69000019367E+03  0.10000000000E+01 0.  0.
    9000005    1    3    3    0    0  0.27837997918E+02 -0.37700772035E+02 -0.13650834446E+03  0.14433236106E+03  0.10000000000E+01 0.  0.
<mgrwt>
<rscale>  0 0.12500785E+03</rscale>
<asrwt>0</asrwt>
<pdfrwt beam="1">  1        4 0.72447032E-03 0.12500785E+03</pdfrwt>
<pdfrwt beam="2">  1       -4 0.12763427E+00 0.12500785E+03</pdfrwt>
<totfact> 0.36770889E+03</totfact>
</mgrwt>
</event>
<event>
 5    1  0.3312706E-002  0.1249978E+03  0.7818608E-02  0.1235073E+00
         -4   -1    0    0    0  501 -0.00000000000E+00  0.00000000000E+00  0.23583083407E+02  0.23617254772E+02  0.12700000000E+01 0.  1.
          4   -1    0    0  501    0  0.00000000000E+00 -0.00000000000E+00 -0.16547537239E+03  0.16548024586E+03  0.12700000000E+01 0.  1.
         25    2    1    2    0    0  0.00000000000E+00  0.00000000000E+00 -0.14189228899E+03  0.18909750063E+03  0.12499777226E+03 0.  0.
    9000005    1    3    3    0    0  0.20285445161E+02  0.55490576682E+02 -0.40149935586E+02  0.71440329740E+02  0.10000000000E+01 0.  0.
    9000005    1    3    3    0    0 -0.20285445161E+02 -0.55490576682E+02 -0.10174235340E+03  0.11765717089E+03  0.10000000000E+01 0.  0.
<mgrwt>
<rscale>  0 0.12499777E+03</rscale>
<asrwt>0</asrwt>
<pdfrwt beam="2">  1        4 0.25460752E-01 0.12499777E+03</pdfrwt>
<pdfrwt beam="1">  1       -4 0.36311702E-02 0.12499777E+03</pdfrwt>
<totfact> 0.92009176E+03</totfact>
</mgrwt>
</event>
<event>
 5    1  0.3312706E-002  0.1250008E+03  0.7818608E-02  0.1235068E+00
         -4   -1    0    0    0  501 -0.00000000000E+00  0.00000000000E+00  0.94821527766E+03  0.94821612815E+03  0.12700000000E+01 0. -1.
          4   -1    0    0  501    0  0.00000000000E+00 -0.00000000000E+00 -0.40208806815E+01  0.42166789604E+01  0.12700000000E+01 0. -1.
         25    2    1    2    0    0  0.00000000000E+00  0.00000000000E+00  0.94419439698E+03  0.95243280711E+03  0.12500077111E+03 0.  0.
    9000005    1    3    3    0    0  0.47065809907E+02 -0.38831966772E+02  0.36925312715E+03  0.37426191900E+03  0.10000000000E+01 0.  0.
    9000005    1    3    3    0    0 -0.47065809907E+02  0.38831966772E+02  0.57494126983E+03  0.57817088811E+03  0.10000000000E+01 0.  0.
<mgrwt>
<rscale>  0 0.12500077E+03</rscale>
<asrwt>0</asrwt>
<pdfrwt beam="2">  1        4 0.63372472E-03 0.12500077E+03</pdfrwt>
<pdfrwt beam="1">  1       -4 0.14589420E+00 0.12500077E+03</pdfrwt>
<totfact> 0.32229254E+03</totfact>
</mgrwt>
</event>
<event>
 5    1  0.3312706E-002  0.1250198E+03  0.7818608E-02  0.1235038E+00
         -4   -1    0    0    0  501 -0.00000000000E+00  0.00000000000E+00  0.29864749005E+03  0.29865019038E+03  0.12700000000E+01 0. -1.
          4   -1    0    0  501    0  0.00000000000E+00 -0.00000000000E+00 -0.13050367001E+02  0.13112016582E+02  0.12700000000E+01 0. -1.
         25    2    1    2    0    0  0.00000000000E+00  0.00000000000E+00  0.28559712305E+03  0.31176220696E+03  0.12501982641E+03 0.  0.
    9000005    1    3    3    0    0 -0.56468060401E+02 -0.11554755896E+02  0.82518243770E+02  0.10065989660E+03  0.10000000000E+01 0.  0.
    9000005    1    3    3    0    0  0.56468060401E+02  0.11554755896E+02  0.20307887928E+03  0.21110231036E+03  0.10000000000E+01 0.  0.
<mgrwt>
<rscale>  0 0.12501983E+03</rscale>
<asrwt>0</asrwt>
<pdfrwt beam="2">  1        4 0.20126988E-02 0.12501983E+03</pdfrwt>
<pdfrwt beam="1">  1       -4 0.45950716E-01 0.12501983E+03</pdfrwt>
<totfact> 0.74114104E+03</totfact>
</mgrwt>
</event>
<event>
 5    1  0.3312706E-002  0.1249959E+03  0.7818608E-02  0.1235076E+00
         -4   -1    0    0    0  501 -0.00000000000E+00  0.00000000000E+00  0.19211767416E+02  0.19253698534E+02  0.12700000000E+01 0.  1.
          4   -1    0    0  501    0  0.00000000000E+00 -0.00000000000E+00 -0.20304688134E+03  0.20305085305E+03  0.12700000000E+01 0.  1.
         25    2    1    2    0    0  0.00000000000E+00  0.00000000000E+00 -0.18383511393E+03  0.22230455158E+03  0.12499585810E+03 0.  0.
    9000005    1    3    3    0    0  0.28475883717E+02 -0.35187348017E+02 -0.16853677368E+03  0.17451266285E+03  0.10000000000E+01 0.  0.
    9000005    1    3    3    0    0 -0.28475883717E+02  0.35187348017E+02 -0.15298340249E+02  0.47791888729E+02  0.10000000000E+01 0.  0.
<mgrwt>
<rscale>  0 0.12499586E+03</rscale>
<asrwt>0</asrwt>
<pdfrwt beam="2">  1        4 0.31241511E-01 0.12499586E+03</pdfrwt>
<pdfrwt beam="1">  1       -4 0.29591876E-02 0.12499586E+03</pdfrwt>
<totfact> 0.86512996E+03</totfact>
</mgrwt>
</event>
<event>
 5    1  0.3312706E-002  0.1249963E+03  0.7818608E-02  0.1235075E+00
         -4   -1    0    0    0  501 -0.00000000000E+00  0.00000000000E+00  0.33652123498E+03  0.33652363140E+03  0.12700000000E+01 0. -1.
          4   -1    0    0  501    0  0.00000000000E+00 -0.00000000000E+00 -0.11569862301E+02  0.11639356239E+02  0.12700000000E+01 0. -1.
         25    2    1    2    0    0  0.00000000000E+00  0.00000000000E+00  0.32495137268E+03  0.34816298764E+03  0.12499628537E+03 0.  0.
    9000005    1    3    3    0    0  0.32999429662E+02 -0.46826401723E+01  0.30970987599E+03  0.31149975404E+03  0.10000000000E+01 0.  0.
    9000005    1    3    3    0    0 -0.32999429662E+02  0.46826401723E+01  0.15241496683E+02  0.36663233602E+02  0.10000000000E+01 0.  0.
<mgrwt>
<rscale>  0 0.12499629E+03</rscale>
<asrwt>0</asrwt>
<pdfrwt beam="2">  1        4 0.17855092E-02 0.12499629E+03</pdfrwt>
<pdfrwt beam="1">  1       -4 0.51778019E-01 0.12499629E+03</pdfrwt>
<totfact> 0.69932877E+03</totfact>
</mgrwt>
</event>
<event>
 5    1  0.3312706E-002  0.1249974E+03  0.7818608E-02  0.1235073E+00
          4   -1    0    0  501    0  0.00000000000E+00  0.00000000000E+00  0.56867713118E+02  0.56881892508E+02  0.12700000000E+01 0. -1.
         -4   -1    0    0    0  501 -0.00000000000E+00 -0.00000000000E+00 -0.68658670981E+02  0.68670415762E+02  0.12700000000E+01 0. -1.
         25    2    1    2    0    0  0.00000000000E+00  0.00000000000E+00 -0.11790957863E+02  0.12555230827E+03  0.12499742167E+03 0.  0.
    9000005    1    3    3    0    0  0.57308571489E+02  0.90807468558E+01  0.17410032504E+02  0.60587470333E+02  0.10000000000E+01 0.  0.
    9000005    1    3    3    0    0 -0.57308571489E+02 -0.90807468558E+01 -0.29200990367E+02  0.64964837936E+02  0.10000000000E+01 0.  0.
<mgrwt>
<rscale>  0 0.12499742E+03</rscale>
<asrwt>0</asrwt>
<pdfrwt beam="1">  1        4 0.87508730E-02 0.12499742E+03</pdfrwt>
<pdfrwt beam="2">  1       -4 0.10564867E-01 0.12499742E+03</pdfrwt>
<totfact> 0.10441406E+04</totfact>
</mgrwt>
</event>
<event>
 5    1  0.3312706E-002  0.1250057E+03  0.7818608E-02  0.1235060E+00
          4   -1    0    0  501    0  0.00000000000E+00  0.00000000000E+00  0.12395554861E+02  0.12460444628E+02  0.12700000000E+01 0.  1.
         -4   -1    0    0    0  501 -0.00000000000E+00 -0.00000000000E+00 -0.31427312178E+03  0.31427568785E+03  0.12700000000E+01 0.  1.
         25    2    1    2    0    0  0.00000000000E+00  0.00000000000E+00 -0.30187756692E+03  0.32673613248E+03  0.12500573930E+03 0.  0.
    9000005    1    3    3    0    0 -0.35254107130E+02  0.20595572886E+02 -0.27460566970E+03  0.27762619387E+03  0.10000000000E+01 0.  0.
    9000005    1    3    3    0    0  0.35254107130E+02 -0.20595572886E+02 -0.27271897220E+02  0.49109938608E+02  0.10000000000E+01 0.  0.
<mgrwt>
<rscale>  0 0.12500574E+03</rscale>
<asrwt>0</asrwt>
<pdfrwt beam="1">  1        4 0.19121976E-02 0.12500574E+03</pdfrwt>
<pdfrwt beam="2">  1       -4 0.48354894E-01 0.12500574E+03</pdfrwt>
<totfact> 0.72352851E+03</totfact>
</mgrwt>
</event>
<event>
 5    1  0.3312706E-002  0.1249964E+03  0.7818608E-02  0.1235075E+00
         -4   -1    0    0    0  501 -0.00000000000E+00  0.00000000000E+00  0.88510454945E+03  0.88510546059E+03  0.12700000000E+01 0. -1.
          4   -1    0    0  501    0  0.00000000000E+00 -0.00000000000E+00 -0.43207660928E+01  0.45035452288E+01  0.12700000000E+01 0. -1.
         25    2    1    2    0    0  0.00000000000E+00  0.00000000000E+00  0.88078378336E+03  0.88960900582E+03  0.12499644075E+03 0.  0.
    9000005    1    3    3    0    0  0.51528052579E+02  0.10897734991E+02  0.20102881705E+03  0.20781599100E+03  0.10000000000E+01 0.  0.
    9000005    1    3    3    0    0 -0.51528052579E+02 -0.10897734991E+02  0.67975496631E+03  0.68179301481E+03  0.10000000000E+01 0.  0.
<mgrwt>
<rscale>  0 0.12499644E+03</rscale>
<asrwt>0</asrwt>
<pdfrwt beam="2">  1        4 0.67886330E-03 0.12499644E+03</pdfrwt>
<pdfrwt beam="1">  1       -4 0.13618405E+00 0.12499644E+03</pdfrwt>
<totfact> 0.34561626E+03</totfact>
</mgrwt>
</event>
<event>
 5    1  0.3312706E-002  0.1249998E+03  0.7818608E-02  0.1235070E+00
          4   -1    0    0  501    0  0.00000000000E+00  0.00000000000E+00  0.22923568076E+03  0.22923919872E+03  0.12700000000E+01 0. -1.
         -4   -1    0    0    0  501 -0.00000000000E+00 -0.00000000000E+00 -0.17012964048E+02  0.17060300282E+02  0.12700000000E+01 0. -1.
         25    2    1    2    0    0  0.00000000000E+00  0.00000000000E+00  0.21222271671E+03  0.24629949901E+03  0.12499984689E+03 0.  0.
    9000005    1    3    3    0    0  0.35675039450E+02  0.44649964829E+02  0.56306147312E+02  0.80235341491E+02  0.10000000000E+01 0.  0.
    9000005    1    3    3    0    0 -0.35675039450E+02 -0.44649964829E+02  0.15591656940E+03  0.16606415751E+03  0.10000000000E+01 0.  0.
<mgrwt>
<rscale>  0 0.12499985E+03</rscale>
<asrwt>0</asrwt>
<pdfrwt beam="1">  1        4 0.35270937E-01 0.12499985E+03</pdfrwt>
<pdfrwt beam="2">  1       -4 0.26212911E-02 0.12499985E+03</pdfrwt>
<totfact> 0.82868308E+03</totfact>
</mgrwt>
</event>
<event>
 5    1  0.3312706E-002  0.1250002E+03  0.7818608E-02  0.1235069E+00
          4   -1    0    0  501    0  0.00000000000E+00  0.00000000000E+00  0.26078847063E+02  0.26109752280E+02  0.12700000000E+01 0.  1.
         -4   -1    0    0    0  501 -0.00000000000E+00 -0.00000000000E+00 -0.14966434947E+03  0.14966973776E+03  0.12700000000E+01 0.  1.
         25    2    1    2    0    0  0.00000000000E+00  0.00000000000E+00 -0.12358550240E+03  0.17577949004E+03  0.12500021086E+03 0.  0.
    9000005    1    3    3    0    0  0.29741915411E+02 -0.52048754080E+02 -0.86616212785E+02  0.10534240671E+03  0.10000000000E+01 0.  0.
    9000005    1    3    3    0    0 -0.29741915411E+02  0.52048754080E+02 -0.36969289617E+02  0.70437083332E+02  0.10000000000E+01 0.  0.
<mgrwt>
<rscale>  0 0.12500021E+03</rscale>
<asrwt>0</asrwt>
<pdfrwt beam="1">  1        4 0.40149222E-02 0.12500021E+03</pdfrwt>
<pdfrwt beam="2">  1       -4 0.23028076E-01 0.12500021E+03</pdfrwt>
<totfact> 0.94381826E+03</totfact>
</mgrwt>
</event>
<event>
 5    1  0.3312706E-002  0.1249970E+03  0.7818608E-02  0.1235074E+00
         -4   -1    0    0    0  501 -0.00000000000E+00  0.00000000000E+00  0.67288424636E+01  0.68476434559E+01  0.12700000000E+01 0.  1.
          4   -1    0    0  501    0  0.00000000000E+00 -0.00000000000E+00 -0.57529588073E+03  0.57529728253E+03  0.12700000000E+01 0.  1.
         25    2    1    2    0    0  0.00000000000E+00  0.00000000000E+00 -0.56856703827E+03  0.58214492598E+03  0.12499695135E+03 0.  0.
    9000005    1    3    3    0    0  0.94699489820E+01 -0.61709058230E+02 -0.29692838865E+03  0.30342240489E+03  0.10000000000E+01 0.  0.
    9000005    1    3    3    0    0 -0.94699489820E+01  0.61709058230E+02 -0.27163864962E+03  0.27872252110E+03  0.10000000000E+01 0.  0.
<mgrwt>
<rscale>  0 0.12499695E+03</rscale>
<asrwt>0</asrwt>
<pdfrwt beam="2">  1        4 0.88516267E-01 0.12499695E+03</pdfrwt>
<pdfrwt beam="1">  1       -4 0.10444534E-02 0.12499695E+03</pdfrwt>
<totfact> 0.50017786E+03</totfact>
</mgrwt>
</event>
<event>
 5    1  0.3312706E-002  0.1249991E+03  0.7818608E-02  0.1235071E+00
         -4   -1    0    0    0  501 -0.00000000000E+00  0.00000000000E+00  0.22318456560E+02  0.22354561128E+02  0.12700000000E+01 0.  1.
          4   -1    0    0  501    0  0.00000000000E+00 -0.00000000000E+00 -0.17484090370E+03  0.17484551612E+03  0.12700000000E+01 0.  1.
         25    2    1    2    0    0  0.00000000000E+00  0.00000000000E+00 -0.15252244714E+03  0.19720007725E+03  0.12499909433E+03 0.  0.
    9000005    1    3    3    0    0  0.12925428664E+02 -0.32021962843E+02 -0.15842922918E+03  0.16215206897E+03  0.10000000000E+01 0.  0.
    9000005    1    3    3    0    0 -0.12925428664E+02  0.32021962843E+02  0.59067820407E+01  0.35048008282E+02  0.10000000000E+01 0.  0.
<mgrwt>
<rscale>  0 0.12499909E+03</rscale>
<asrwt>0</asrwt>
<pdfrwt beam="2">  1        4 0.26901732E-01 0.12499909E+03</pdfrwt>
<pdfrwt beam="1">  1       -4 0.34367409E-02 0.12499909E+03</pdfrwt>
<totfact> 0.90611235E+03</totfact>
</mgrwt>
</event>
<event>
 5    1  0.3312706E-002  0.1249934E+03  0.7818608E-02  0.1235080E+00
          4   -1    0    0  501    0  0.00000000000E+00  0.00000000000E+00  0.17734136985E+01  0.21812602197E+01  0.12700000000E+01 0.  1.
         -4   -1    0    0    0  501 -0.00000000000E+00 -0.00000000000E+00 -0.19748941972E+04  0.19748946056E+04  0.12700000000E+01 0.  1.
         25    2    1    2    0    0  0.00000000000E+00  0.00000000000E+00 -0.19731207835E+04  0.19770758658E+04  0.12499341074E+03 0.  0.
    9000005    1    3    3    0    0 -0.34320884516E+02 -0.44671630260E+02 -0.55879861848E+03  0.56163188449E+03  0.10000000000E+01 0.  0.
    9000005    1    3    3    0    0  0.34320884516E+02  0.44671630260E+02 -0.14143221650E+04  0.14154439813E+04  0.10000000000E+01 0.  0.
<mgrwt>
<rscale>  0 0.12499341E+03</rscale>
<asrwt>0</asrwt>
<pdfrwt beam="1">  1        4 0.30423868E-03 0.12499341E+03</pdfrwt>
<pdfrwt beam="2">  1       -4 0.30385970E+00 0.12499341E+03</pdfrwt>
<totfact> 0.10165073E+03</totfact>
</mgrwt>
</event>
<event>
 5    1  0.3312706E-002  0.1249934E+03  0.7818608E-02  0.1235080E+00
          4   -1    0    0  501    0  0.00000000000E+00  0.00000000000E+00  0.81726331711E+02  0.81736198804E+02  0.12700000000E+01 0. -1.
         -4   -1    0    0    0  501 -0.00000000000E+00 -0.00000000000E+00 -0.47770501693E+02  0.47787380468E+02  0.12700000000E+01 0. -1.
         25    2    1    2    0    0  0.00000000000E+00  0.00000000000E+00  0.33955830018E+02  0.12952357927E+03  0.12499343661E+03 0.  0.
    9000005    1    3    3    0    0  0.35419022367E+02  0.47771711561E+02 -0.29059724283E+01  0.59549040686E+02  0.10000000000E+01 0.  0.
    9000005    1    3    3    0    0 -0.35419022367E+02 -0.47771711561E+02  0.36861802446E+02  0.69974538587E+02  0.10000000000E+01 0.  0.
<mgrwt>
<rscale>  0 0.12499344E+03</rscale>
<asrwt>0</asrwt>
<pdfrwt beam="1">  1        4 0.12575339E-01 0.12499344E+03</pdfrwt>
<pdfrwt beam="2">  1       -4 0.73513655E-02 0.12499344E+03</pdfrwt>
<totfact> 0.10356244E+04</totfact>
</mgrwt>
</event>
<event>
 5    1  0.3312706E-002  0.1249981E+03  0.7818608E-02  0.1235072E+00
          4   -1    0    0  501    0  0.00000000000E+00  0.00000000000E+00  0.32641209357E+02  0.32665906513E+02  0.12700000000E+01 0. -1.
         -4   -1    0    0    0  501 -0.00000000000E+00 -0.00000000000E+00 -0.11959532140E+03  0.11960206437E+03  0.12700000000E+01 0. -1.
         25    2    1    2    0    0  0.00000000000E+00  0.00000000000E+00 -0.86954112048E+02  0.15226797088E+03  0.12499806941E+03 0.  0.
    9000005    1    3    3    0    0  0.99901271923E+01 -0.29687969225E+02 -0.10934745798E+03  0.11374992187E+03  0.10000000000E+01 0.  0.
    9000005    1    3    3    0    0 -0.99901271923E+01  0.29687969225E+02  0.22393345933E+02  0.38518049017E+02  0.10000000000E+01 0.  0.
<mgrwt>
<rscale>  0 0.12499807E+03</rscale>
<asrwt>0</asrwt>
<pdfrwt beam="1">  1        4 0.50241430E-02 0.12499807E+03</pdfrwt>
<pdfrwt beam="2">  1       -4 0.18401698E-01 0.12499807E+03</pdfrwt>
<totfact> 0.98857813E+03</totfact>
</mgrwt>
</event>
<event>
 5    1  0.3312706E-002  0.1249982E+03  0.7818608E-02  0.1235072E+00
          4   -1    0    0  501    0  0.00000000000E+00  0.00000000000E+00  0.17293775884E+01  0.21456110652E+01  0.12700000000E+01 0.  1.
         -4   -1    0    0    0  501 -0.00000000000E+00 -0.00000000000E+00 -0.20156604956E+04  0.20156608957E+04  0.12700000000E+01 0.  1.
         25    2    1    2    0    0  0.00000000000E+00  0.00000000000E+00 -0.20139311180E+04  0.20178065068E+04  0.12499820245E+03 0.  0.
    9000005    1    3    3    0    0 -0.17920994968E+02  0.48310269946E+02 -0.43621416142E+03  0.43924803797E+03  0.10000000000E+01 0.  0.
    9000005    1    3    3    0    0  0.17920994968E+02 -0.48310269946E+02 -0.15777169566E+04  0.15785584688E+04  0.10000000000E+01 0.  0.
<mgrwt>
<rscale>  0 0.12499820E+03</rscale>
<asrwt>0</asrwt>
<pdfrwt beam="1">  1        4 0.29810844E-03 0.12499820E+03</pdfrwt>
<pdfrwt beam="2">  1       -4 0.31013199E+00 0.12499820E+03</pdfrwt>
<totfact> 0.96310769E+02</totfact>
</mgrwt>
</event>
<event>
 5    1  0.3312706E-002  0.1249997E+03  0.7818608E-02  0.1235070E+00
         -4   -1    0    0    0  501 -0.00000000000E+00  0.00000000000E+00  0.60581325628E+03  0.60581458746E+03  0.12700000000E+01 0.  1.
          4   -1    0    0  501    0  0.00000000000E+00 -0.00000000000E+00 -0.63840253233E+01  0.65091227772E+01  0.12700000000E+01 0.  1.
         25    2    1    2    0    0  0.00000000000E+00  0.00000000000E+00  0.59942923095E+03  0.61232371024E+03  0.12499969279E+03 0.  0.
    9000005    1    3    3    0    0 -0.42724018414E+02  0.32446344007E+02  0.45670878699E+03  0.45985000066E+03  0.10000000000E+01 0.  0.
    9000005    1    3    3    0    0  0.42724018414E+02 -0.32446344007E+02  0.14272044396E+03  0.15247370958E+03  0.10000000000E+01 0.  0.
<mgrwt>
<rscale>  0 0.12499969E+03</rscale>
<asrwt>0</asrwt>
<pdfrwt beam="2">  1        4 0.99188326E-03 0.12499969E+03</pdfrwt>
<pdfrwt beam="1">  1       -4 0.93211742E-01 0.12499969E+03</pdfrwt>
<totfact> 0.48099161E+03</totfact>
</mgrwt>
</event>
<event>
 5    1  0.3312706E-002  0.1250048E+03  0.7818608E-02  0.1235062E+00
          4   -1    0    0  501    0  0.00000000000E+00  0.00000000000E+00  0.10560359327E+04  0.10560366964E+04  0.12700000000E+01 0. -1.
         -4   -1    0    0    0  501 -0.00000000000E+00 -0.00000000000E+00 -0.35894712130E+01  0.38075193484E+01  0.12700000000E+01 0. -1.
         25    2    1    2    0    0  0.00000000000E+00  0.00000000000E+00  0.10524464615E+04  0.10598442157E+04  0.12500482898E+03 0.  0.
    9000005    1    3    3    0    0 -0.56404761765E+00  0.62290333450E+02  0.56874067938E+03  0.57214278303E+03  0.10000000000E+01 0.  0.
    9000005    1    3    3    0    0  0.56404761765E+00 -0.62290333450E+02  0.48370578213E+03  0.48770143270E+03  0.10000000000E+01 0.  0.
<mgrwt>
<rscale>  0 0.12500483E+03</rscale>
<asrwt>0</asrwt>
<pdfrwt beam="1">  1        4 0.16248391E+00 0.12500483E+03</pdfrwt>
<pdfrwt beam="2">  1       -4 0.56905799E-03 0.12500483E+03</pdfrwt>
<totfact> 0.28686351E+03</totfact>
</mgrwt>
</event>
<event>
 5    1  0.3312706E-002  0.1250106E+03  0.7818608E-02  0.1235053E+00
          4   -1    0    0  501    0  0.00000000000E+00  0.00000000000E+00  0.42732767213E+02  0.42751634982E+02  0.12700000000E+01 0.  1.
         -4   -1    0    0    0  501 -0.00000000000E+00 -0.00000000000E+00 -0.91383135192E+02  0.91391959698E+02  0.12700000000E+01 0.  1.
         25    2    1    2    0    0  0.00000000000E+00  0.00000000000E+00 -0.48650367979E+02  0.13414359468E+03  0.12501058231E+03 0.  0.
    9000005    1    3    3    0    0  0.53022110298E+02  0.15669570748E+02 -0.55592106613E+02  0.78411491157E+02  0.10000000000E+01 0.  0.
    9000005    1    3    3    0    0 -0.53022110298E+02 -0.15669570748E+02  0.69417386337E+01  0.55732103523E+02  0.10000000000E+01 0.  0.
<mgrwt>
<rscale>  0 0.12501058E+03</rscale>
<asrwt>0</asrwt>
<pdfrwt beam="1">  1        4 0.65764021E-02 0.12501058E+03</pdfrwt>
<pdfrwt beam="2">  1       -4 0.14061074E-01 0.12501058E+03</pdfrwt>
<totfact> 0.10253706E+04</totfact>
</mgrwt>
</event>
<event>
 5    1  0.3312706E-002  0.1250423E+03  0.7818608E-02  0.1235003E+00
         -4   -1    0    0    0  501 -0.00000000000E+00  0.00000000000E+00  0.71705410139E+02  0.71716655968E+02  0.12700000000E+01 0.  1.
          4   -1    0    0  501    0  0.00000000000E+00 -0.00000000000E+00 -0.54490292154E+02  0.54505090028E+02  0.12700000000E+01 0.  1.
         25    2    1    2    0    0  0.00000000000E+00  0.00000000000E+00  0.17215117985E+02  0.12622174600E+03  0.12504226835E+03 0.  0.
    9000005    1    3    3    0    0 -0.24603038419E+02  0.17543965055E+01  0.66590698010E+02  0.71019071157E+02  0.10000000000E+01 0.  0.
    9000005    1    3    3    0    0  0.24603038419E+02 -0.17543965055E+01 -0.49375580025E+02  0.55202674839E+02  0.10000000000E+01 0.  0.
<mgrwt>
<rscale>  0 0.12504227E+03</rscale>
<asrwt>0</asrwt>
<pdfrwt beam="2">  1        4 0.83851253E-02 0.12504227E+03</pdfrwt>
<pdfrwt beam="1">  1       -4 0.11033605E-01 0.12504227E+03</pdfrwt>
<totfact> 0.10416164E+04</totfact>
</mgrwt>
</event>
<event>
 5    1  0.3312706E-002  0.1250061E+03  0.7818608E-02  0.1235060E+00
          4   -1    0    0  501    0  0.00000000000E+00  0.00000000000E+00  0.25533062313E+03  0.25533378156E+03  0.12700000000E+01 0.  1.
         -4   -1    0    0    0  501 -0.00000000000E+00 -0.00000000000E+00 -0.15270663836E+02  0.15323383242E+02  0.12700000000E+01 0.  1.
         25    2    1    2    0    0  0.00000000000E+00  0.00000000000E+00  0.24005995929E+03  0.27065716481E+03  0.12500606707E+03 0.  0.
    9000005    1    3    3    0    0  0.51063213625E+02  0.36030145231E+02  0.11986156795E+03  0.13517920928E+03  0.10000000000E+01 0.  0.
    9000005    1    3    3    0    0 -0.51063213625E+02 -0.36030145231E+02  0.12019839134E+03  0.13547795552E+03  0.10000000000E+01 0.  0.
<mgrwt>
<rscale>  0 0.12500607E+03</rscale>
<asrwt>0</asrwt>
<pdfrwt beam="1">  1        4 0.39285933E-01 0.12500607E+03</pdfrwt>
<pdfrwt beam="2">  1       -4 0.23536312E-02 0.12500607E+03</pdfrwt>
<totfact> 0.79422637E+03</totfact>
</mgrwt>
</event>
<event>
 5    1  0.3312706E-002  0.1250059E+03  0.7818608E-02  0.1235060E+00
         -4   -1    0    0    0  501 -0.00000000000E+00  0.00000000000E+00  0.12597998537E+03  0.12598638662E+03  0.12700000000E+01 0. -1.
          4   -1    0    0  501    0  0.00000000000E+00 -0.00000000000E+00 -0.30989658369E+02  0.31015670649E+02  0.12700000000E+01 0. -1.
         25    2    1    2    0    0  0.00000000000E+00  0.00000000000E+00  0.94990327004E+02  0.15700205727E+03  0.12500593491E+03 0.  0.
    9000005    1    3    3    0    0 -0.54798585987E+02  0.17048475992E+02  0.78567986719E+02  0.97300894636E+02  0.10000000000E+01 0.  0.
    9000005    1    3    3    0    0  0.54798585987E+02 -0.17048475992E+02  0.16422340285E+02  0.59701162638E+02  0.10000000000E+01 0.  0.
<mgrwt>
<rscale>  0 0.12500593E+03</rscale>
<asrwt>0</asrwt>
<pdfrwt beam="2">  1        4 0.47701331E-02 0.12500593E+03</pdfrwt>
<pdfrwt beam="1">  1       -4 0.19384030E-01 0.12500593E+03</pdfrwt>
<totfact> 0.97910831E+03</totfact>
</mgrwt>
</event>
<event>
 5    1  0.3312706E-002  0.1250019E+03  0.7818608E-02  0.1235066E+00
         -4   -1    0    0    0  501 -0.00000000000E+00  0.00000000000E+00  0.71491970876E+02  0.71503250274E+02  0.12700000000E+01 0. -1.
          4   -1    0    0  501    0  0.00000000000E+00 -0.00000000000E+00 -0.54617721365E+02  0.54632484724E+02  0.12700000000E+01 0. -1.
         25    2    1    2    0    0  0.00000000000E+00  0.00000000000E+00  0.16874249511E+02  0.12613573500E+03  0.12500193337E+03 0.  0.
    9000005    1    3    3    0    0  0.38012652699E+01  0.19680139205E+02 -0.51291084983E+02  0.55077517151E+02  0.10000000000E+01 0.  0.
    9000005    1    3    3    0    0 -0.38012652699E+01 -0.19680139205E+02  0.68165334494E+02  0.71058217846E+02  0.10000000000E+01 0.  0.
<mgrwt>
<rscale>  0 0.12500193E+03</rscale>
<asrwt>0</asrwt>
<pdfrwt beam="2">  1        4 0.84047296E-02 0.12500193E+03</pdfrwt>
<pdfrwt beam="1">  1       -4 0.11000768E-01 0.12500193E+03</pdfrwt>
<totfact> 0.10427530E+04</totfact>
</mgrwt>
</event>
<event>
 5    1  0.3312706E-002  0.1250015E+03  0.7818608E-02  0.1235067E+00
          4   -1    0    0  501    0  0.00000000000E+00  0.00000000000E+00  0.83840887275E+02  0.83850505538E+02  0.12700000000E+01 0.  1.
         -4   -1    0    0    0  501 -0.00000000000E+00 -0.00000000000E+00 -0.46571379842E+02  0.46588693053E+02  0.12700000000E+01 0.  1.
         25    2    1    2    0    0  0.00000000000E+00  0.00000000000E+00  0.37269507433E+02  0.13043919859E+03  0.12500147337E+03 0.  0.
    9000005    1    3    3    0    0  0.18762581443E+02 -0.51923641212E+02 -0.11917622324E+02  0.56490076129E+02  0.10000000000E+01 0.  0.
    9000005    1    3    3    0    0 -0.18762581443E+02  0.51923641212E+02  0.49187129757E+02  0.73949122462E+02  0.10000000000E+01 0.  0.
<mgrwt>
<rscale>  0 0.12500147E+03</rscale>
<asrwt>0</asrwt>
<pdfrwt beam="1">  1        4 0.12900670E-01 0.12500147E+03</pdfrwt>
<pdfrwt beam="2">  1       -4 0.71668993E-02 0.12500147E+03</pdfrwt>
<totfact> 0.10334777E+04</totfact>
</mgrwt>
</event>
<event>
 5    1  0.3312706E-002  0.1249998E+03  0.7818608E-02  0.1235070E+00
         -4   -1    0    0    0  501 -0.00000000000E+00  0.00000000000E+00  0.37976802279E+03  0.37977014632E+03  0.12700000000E+01 0.  1.
          4   -1    0    0  501    0  0.00000000000E+00 -0.00000000000E+00 -0.10244486051E+02  0.10322906299E+02  0.12700000000E+01 0.  1.
         25    2    1    2    0    0  0.00000000000E+00  0.00000000000E+00  0.36952353674E+03  0.39009305262E+03  0.12499978198E+03 0.  0.
    9000005    1    3    3    0    0  0.22860616327E+02  0.22608198946E+02  0.17532143930E+02  0.36634881046E+02  0.10000000000E+01 0.  0.
    9000005    1    3    3    0    0 -0.22860616327E+02 -0.22608198946E+02  0.35199139281E+03  0.35345817157E+03  0.10000000000E+01 0.  0.
<mgrwt>
<rscale>  0 0.12499978E+03</rscale>
<asrwt>0</asrwt>
<pdfrwt beam="2">  1        4 0.15822708E-02 0.12499978E+03</pdfrwt>
<pdfrwt beam="1">  1       -4 0.58432033E-01 0.12499978E+03</pdfrwt>
<totfact> 0.65528190E+03</totfact>
</mgrwt>
</event>
<event>
 5    1  0.3312706E-002  0.1250044E+03  0.7818608E-02  0.1235062E+00
          4   -1    0    0  501    0  0.00000000000E+00  0.00000000000E+00  0.26471529538E+02  0.26501976834E+02  0.12700000000E+01 0. -1.
         -4   -1    0    0    0  501 -0.00000000000E+00 -0.00000000000E+00 -0.14745666944E+03  0.14746213840E+03  0.12700000000E+01 0. -1.
         25    2    1    2    0    0  0.00000000000E+00  0.00000000000E+00 -0.12098513990E+03  0.17396411524E+03  0.12500443717E+03 0.  0.
    9000005    1    3    3    0    0  0.55922887386E+02  0.25504893144E+02 -0.76216423015E+02  0.97917373561E+02  0.10000000000E+01 0.  0.
    9000005    1    3    3    0    0 -0.55922887386E+02 -0.25504893144E+02 -0.44768716888E+02  0.76046741677E+02  0.10000000000E+01 0.  0.
<mgrwt>
<rscale>  0 0.12500444E+03</rscale>
<asrwt>0</asrwt>
<pdfrwt beam="1">  1        4 0.40753059E-02 0.12500444E+03</pdfrwt>
<pdfrwt beam="2">  1       -4 0.22688404E-01 0.12500444E+03</pdfrwt>
<totfact> 0.94705475E+03</totfact>
</mgrwt>
</event>
<event>
 5    1  0.3312706E-002  0.1249959E+03  0.7818608E-02  0.1235076E+00
         -4   -1    0    0    0  501 -0.00000000000E+00  0.00000000000E+00  0.13102004431E+02  0.13163412176E+02  0.12700000000E+01 0. -1.
          4   -1    0    0  501    0  0.00000000000E+00 -0.00000000000E+00 -0.29736187801E+03  0.29736459001E+03  0.12700000000E+01 0. -1.
         25    2    1    2    0    0  0.00000000000E+00  0.00000000000E+00 -0.28425987358E+03  0.31052800219E+03  0.12499585760E+03 0.  0.
    9000005    1    3    3    0    0  0.20677924462E+02 -0.33890609671E+01 -0.28838636653E+03  0.28914833338E+03  0.10000000000E+01 0.  0.
    9000005    1    3    3    0    0 -0.20677924462E+02  0.33890609671E+01  0.41264929535E+01  0.21379668809E+02  0.10000000000E+01 0.  0.
<mgrwt>
<rscale>  0 0.12499586E+03</rscale>
<asrwt>0</asrwt>
<pdfrwt beam="2">  1        4 0.45752909E-01 0.12499586E+03</pdfrwt>
<pdfrwt beam="1">  1       -4 0.20206255E-02 0.12499586E+03</pdfrwt>
<totfact> 0.74303752E+03</totfact>
</mgrwt>
</event>
<event>
 5    1  0.3312706E-002  0.1249971E+03  0.7818608E-02  0.1235074E+00
          4   -1    0    0  501    0  0.00000000000E+00  0.00000000000E+00  0.60254525034E+03  0.60254658875E+03  0.12700000000E+01 0.  1.
         -4   -1    0    0    0  501 -0.00000000000E+00 -0.00000000000E+00 -0.64190539179E+01  0.65434817338E+01  0.12700000000E+01 0.  1.
         25    2    1    2    0    0  0.00000000000E+00  0.00000000000E+00  0.59612619643E+03  0.60909007048E+03  0.12499708754E+03 0.  0.
    9000005    1    3    3    0    0  0.80906100804E+01  0.23647025182E+02  0.18971415553E+02  0.31393540411E+02  0.10000000000E+01 0.  0.
    9000005    1    3    3    0    0 -0.80906100804E+01 -0.23647025182E+02  0.57715478087E+03  0.57769653007E+03  0.10000000000E+01 0.  0.
<mgrwt>
<rscale>  0 0.12499709E+03</rscale>
<asrwt>0</asrwt>
<pdfrwt beam="1">  1        4 0.92708933E-01 0.12499709E+03</pdfrwt>
<pdfrwt beam="2">  1       -4 0.99722119E-03 0.12499709E+03</pdfrwt>
<totfact> 0.48301888E+03</totfact>
</mgrwt>
</event>
<event>
 5    1  0.3312706E-002  0.1249998E+03  0.7818608E-02  0.1235070E+00
         -4   -1    0    0    0  501 -0.00000000000E+00  0.00000000000E+00  0.60990118277E+01  0.62298350921E+01  0.12700000000E+01 0. -1.
          4   -1    0    0  501    0  0.00000000000E+00 -0.00000000000E+00 -0.63354266140E+03  0.63354393432E+03  0.12700000000E+01 0. -1.
         25    2    1    2    0    0  0.00000000000E+00  0.00000000000E+00 -0.62744364958E+03  0.63977376942E+03  0.12499977056E+03 0.  0.
    9000005    1    3    3    0    0 -0.16261888483E+02  0.38368193069E+02 -0.75372574452E+02  0.86131250054E+02  0.10000000000E+01 0.  0.
    9000005    1    3    3    0    0  0.16261888483E+02 -0.38368193069E+02 -0.55207107513E+03  0.55364251936E+03  0.10000000000E+01 0.  0.
<mgrwt>
<rscale>  0 0.12499977E+03</rscale>
<asrwt>0</asrwt>
<pdfrwt beam="2">  1        4 0.97478212E-01 0.12499977E+03</pdfrwt>
<pdfrwt beam="1">  1       -4 0.94847125E-03 0.12499977E+03</pdfrwt>
<totfact> 0.46449718E+03</totfact>
</mgrwt>
</event>
<event>
 5    1  0.3312706E-002  0.1250003E+03  0.7818608E-02  0.1235069E+00
          4   -1    0    0  501    0  0.00000000000E+00  0.00000000000E+00  0.44878264302E+02  0.44896230429E+02  0.12700000000E+01 0. -1.
         -4   -1    0    0    0  501 -0.00000000000E+00 -0.00000000000E+00 -0.87001354697E+02  0.87010623600E+02  0.12700000000E+01 0. -1.
         25    2    1    2    0    0  0.00000000000E+00  0.00000000000E+00 -0.42123090396E+02  0.13190685403E+03  0.12500025358E+03 0.  0.
    9000005    1    3    3    0    0  0.23252961036E+02  0.32753835669E+02 -0.71578861238E+02  0.82085609726E+02  0.10000000000E+01 0.  0.
    9000005    1    3    3    0    0 -0.23252961036E+02 -0.32753835669E+02  0.29455770842E+02  0.49821244302E+02  0.10000000000E+01 0.  0.
<mgrwt>
<rscale>  0 0.12500025E+03</rscale>
<asrwt>0</asrwt>
<pdfrwt beam="1">  1        4 0.69064434E-02 0.12500025E+03</pdfrwt>
<pdfrwt beam="2">  1       -4 0.13386919E-01 0.12500025E+03</pdfrwt>
<totfact> 0.10303628E+04</totfact>
</mgrwt>
</event>
<event>
 5    1  0.3312706E-002  0.1250004E+03  0.7818608E-02  0.1235069E+00
         -4   -1    0    0    0  501 -0.00000000000E+00  0.00000000000E+00  0.33750200837E+02  0.33774087057E+02  0.12700000000E+01 0. -1.
          4   -1    0    0  501    0  0.00000000000E+00 -0.00000000000E+00 -0.11567252550E+03  0.11567949712E+03  0.12700000000E+01 0. -1.
         25    2    1    2    0    0  0.00000000000E+00  0.00000000000E+00 -0.81922324659E+02  0.14945358418E+03  0.12500042618E+03 0.  0.
    9000005    1    3    3    0    0 -0.43108704500E+02  0.34092446975E+02 -0.54001975385E+01  0.55234205687E+02  0.10000000000E+01 0.  0.
    9000005    1    3    3    0    0  0.43108704500E+02 -0.34092446975E+02 -0.76522127120E+02  0.94219378492E+02  0.10000000000E+01 0.  0.
<mgrwt>
<rscale>  0 0.12500043E+03</rscale>
<asrwt>0</asrwt>
<pdfrwt beam="2">  1        4 0.17798147E-01 0.12500043E+03</pdfrwt>
<pdfrwt beam="1">  1       -4 0.51947124E-02 0.12500043E+03</pdfrwt>
<totfact> 0.99411776E+03</totfact>
</mgrwt>
</event>
<event>
 5    1  0.3312706E-002  0.1249999E+03  0.7818608E-02  0.1235069E+00
         -4   -1    0    0    0  501 -0.00000000000E+00  0.00000000000E+00  0.43950889308E+02  0.43969234369E+02  0.12700000000E+01 0. -1.
          4   -1    0    0  501    0  0.00000000000E+00 -0.00000000000E+00 -0.88836002590E+02  0.88845080090E+02  0.12700000000E+01 0. -1.
         25    2    1    2    0    0  0.00000000000E+00  0.00000000000E+00 -0.44885113282E+02  0.13281431446E+03  0.12499987492E+03 0.  0.
    9000005    1    3    3    0    0 -0.25501788031E+02 -0.52953675475E+02  0.11705986362E+00  0.58783047234E+02  0.10000000000E+01 0.  0.
    9000005    1    3    3    0    0  0.25501788031E+02  0.52953675475E+02 -0.45002173145E+02  0.74031267225E+02  0.10000000000E+01 0.  0.
<mgrwt>
<rscale>  0 0.12499987E+03</rscale>
<asrwt>0</asrwt>
<pdfrwt beam="2">  1        4 0.13669187E-01 0.12499987E+03</pdfrwt>
<pdfrwt beam="1">  1       -4 0.67637847E-02 0.12499987E+03</pdfrwt>
<totfact> 0.10284377E+04</totfact>
</mgrwt>
</event>
<event>
 5    1  0.3312706E-002  0.1249953E+03  0.7818608E-02  0.1235077E+00
          4   -1    0    0  501    0  0.00000000000E+00  0.00000000000E+00  0.71200768966E+02  0.71212094488E+02  0.12700000000E+01 0. -1.
         -4   -1    0    0    0  501 -0.00000000000E+00 -0.00000000000E+00 -0.54835333458E+02  0.54850038245E+02  0.12700000000E+01 0. -1.
         25    2    1    2    0    0  0.00000000000E+00  0.00000000000E+00  0.16365435508E+02  0.12606213273E+03  0.12499533523E+03 0.  0.
    9000005    1    3    3    0    0 -0.39960094351E+02 -0.80329565492E+01  0.55953855589E+02  0.69232734214E+02  0.10000000000E+01 0.  0.
    9000005    1    3    3    0    0  0.39960094351E+02  0.80329565492E+01 -0.39588420081E+02  0.56829398519E+02  0.10000000000E+01 0.  0.
<mgrwt>
<rscale>  0 0.12499534E+03</rscale>
<asrwt>0</asrwt>
<pdfrwt beam="1">  1        4 0.10955967E-01 0.12499534E+03</pdfrwt>
<pdfrwt beam="2">  1       -4 0.84382075E-02 0.12499534E+03</pdfrwt>
<totfact> 0.10430694E+04</totfact>
</mgrwt>
</event>
<event>
 5    1  0.3312706E-002  0.1249896E+03  0.7818608E-02  0.1235086E+00
         -4   -1    0    0    0  501 -0.00000000000E+00  0.00000000000E+00  0.24610668991E+03  0.24610996672E+03  0.12700000000E+01 0. -1.
          4   -1    0    0  501    0  0.00000000000E+00 -0.00000000000E+00 -0.15840741652E+02  0.15891569969E+02  0.12700000000E+01 0. -1.
         25    2    1    2    0    0  0.00000000000E+00  0.00000000000E+00  0.23026594826E+03  0.26200153669E+03  0.12498959276E+03 0.  0.
    9000005    1    3    3    0    0 -0.32707168134E+02 -0.45963996851E+02  0.58802395703E+02  0.81493371474E+02  0.10000000000E+01 0.  0.
    9000005    1    3    3    0    0  0.32707168134E+02  0.45963996851E+02  0.17146355255E+03  0.18050816521E+03  0.10000000000E+01 0.  0.
<mgrwt>
<rscale>  0 0.12498959E+03</rscale>
<asrwt>0</asrwt>
<pdfrwt beam="2">  1        4 0.24411993E-02 0.12498959E+03</pdfrwt>
<pdfrwt beam="1">  1       -4 0.37866727E-01 0.12498959E+03</pdfrwt>
<totfact> 0.80644671E+03</totfact>
</mgrwt>
</event>
<event>
 5    1  0.3312706E-002  0.1250004E+03  0.7818608E-02  0.1235069E+00
         -4   -1    0    0    0  501 -0.00000000000E+00  0.00000000000E+00  0.27596797904E+02  0.27626005041E+02  0.12700000000E+01 0.  1.
          4   -1    0    0  501    0  0.00000000000E+00 -0.00000000000E+00 -0.14144114777E+03  0.14144684932E+03  0.12700000000E+01 0.  1.
         25    2    1    2    0    0  0.00000000000E+00  0.00000000000E+00 -0.11384434987E+03  0.16907285436E+03  0.12500037634E+03 0.  0.
    9000005    1    3    3    0    0  0.47467317043E+02  0.40617724355E+02 -0.58985822926E+02  0.85925974101E+02  0.10000000000E+01 0.  0.
    9000005    1    3    3    0    0 -0.47467317043E+02 -0.40617724355E+02 -0.54858526943E+02  0.83146880263E+02  0.10000000000E+01 0.  0.
<mgrwt>
<rscale>  0 0.12500038E+03</rscale>
<asrwt>0</asrwt>
<pdfrwt beam="2">  1        4 0.21762861E-01 0.12500038E+03</pdfrwt>
<pdfrwt beam="1">  1       -4 0.42483466E-02 0.12500038E+03</pdfrwt>
<totfact> 0.95620762E+03</totfact>
</mgrwt>
</event>
<event>
 5    1  0.3312706E-002  0.1250003E+03  0.7818608E-02  0.1235069E+00
         -4   -1    0    0    0  501 -0.00000000000E+00  0.00000000000E+00  0.11475371346E+02  0.11545434056E+02  0.12700000000E+01 0. -1.
          4   -1    0    0  501    0  0.00000000000E+00 -0.00000000000E+00 -0.33929734119E+03  0.33929971800E+03  0.12700000000E+01 0. -1.
         25    2    1    2    0    0  0.00000000000E+00  0.00000000000E+00 -0.32782196984E+03  0.35084515206E+03  0.12500030725E+03 0.  0.
    9000005    1    3    3    0    0 -0.25948851228E+02 -0.15833500553E+02 -0.31716148203E+03  0.31861645956E+03  0.10000000000E+01 0.  0.
    9000005    1    3    3    0    0  0.25948851228E+02  0.15833500553E+02 -0.10660487812E+02  0.32228692499E+02  0.10000000000E+01 0.  0.
<mgrwt>
<rscale>  0 0.12500031E+03</rscale>
<asrwt>0</asrwt>
<pdfrwt beam="2">  1        4 0.52205156E-01 0.12500031E+03</pdfrwt>
<pdfrwt beam="1">  1       -4 0.17710143E-02 0.12500031E+03</pdfrwt>
<totfact> 0.69631209E+03</totfact>
</mgrwt>
</event>
<event>
 5    1  0.3312706E-002  0.1250159E+03  0.7818608E-02  0.1235044E+00
         -4   -1    0    0    0  501 -0.00000000000E+00  0.00000000000E+00  0.13332436249E+03  0.13333041113E+03  0.12700000000E+01 0. -1.
          4   -1    0    0  501    0  0.00000000000E+00 -0.00000000000E+00 -0.29285836902E+02  0.29313361170E+02  0.12700000000E+01 0. -1.
         25    2    1    2    0    0  0.00000000000E+00  0.00000000000E+00  0.10403852558E+03  0.16264377230E+03  0.12501592644E+03 0.  0.
    9000005    1    3    3    0    0 -0.23395747423E+02 -0.50750508899E+02  0.15608654984E+02  0.58031071517E+02  0.10000000000E+01 0.  0.
    9000005    1    3    3    0    0  0.23395747423E+02  0.50750508899E+02  0.88429870600E+02  0.10461270078E+03  0.10000000000E+01 0.  0.
<mgrwt>
<rscale>  0 0.12501593E+03</rscale>
<asrwt>0</asrwt>
<pdfrwt beam="2">  1        4 0.45080959E-02 0.12501593E+03</pdfrwt>
<pdfrwt beam="1">  1       -4 0.20514023E-01 0.12501593E+03</pdfrwt>
<totfact> 0.96800847E+03</totfact>
</mgrwt>
</event>
<event>
 5    1  0.3312706E-002  0.1249970E+03  0.7818608E-02  0.1235074E+00
          4   -1    0    0  501    0  0.00000000000E+00  0.00000000000E+00  0.10174956336E+02  0.10253908350E+02  0.12700000000E+01 0.  1.
         -4   -1    0    0    0  501 -0.00000000000E+00 -0.00000000000E+00 -0.38232617770E+03  0.38232828702E+03  0.12700000000E+01 0.  1.
         25    2    1    2    0    0  0.00000000000E+00  0.00000000000E+00 -0.37215122136E+03  0.39258219537E+03  0.12499699419E+03 0.  0.
    9000005    1    3    3    0    0  0.10911055649E+02  0.53014511313E+02 -0.28416873469E+03  0.28927920652E+03  0.10000000000E+01 0.  0.
    9000005    1    3    3    0    0 -0.10911055649E+02 -0.53014511313E+02 -0.87982486670E+02  0.10330298885E+03  0.10000000000E+01 0.  0.
<mgrwt>
<rscale>  0 0.12499699E+03</rscale>
<asrwt>0</asrwt>
<pdfrwt beam="1">  1        4 0.15716137E-02 0.12499699E+03</pdfrwt>
<pdfrwt beam="2">  1       -4 0.58825636E-01 0.12499699E+03</pdfrwt>
<totfact> 0.65285025E+03</totfact>
</mgrwt>
</event>
<event>
 5    1  0.3312706E-002  0.1249997E+03  0.7818608E-02  0.1235070E+00
         -4   -1    0    0    0  501 -0.00000000000E+00  0.00000000000E+00  0.23855030634E+01  0.27025034441E+01  0.12700000000E+01 0.  1.
          4   -1    0    0  501    0  0.00000000000E+00 -0.00000000000E+00 -0.15351497964E+04  0.15351503217E+04  0.12700000000E+01 0.  1.
         25    2    1    2    0    0  0.00000000000E+00  0.00000000000E+00 -0.15327642934E+04  0.15378528252E+04  0.12499973179E+03 0.  0.
    9000005    1    3    3    0    0 -0.91132548240E+01 -0.27452583341E+02 -0.14478908565E+04  0.14481801090E+04  0.10000000000E+01 0.  0.
    9000005    1    3    3    0    0  0.91132548240E+01  0.27452583341E+02 -0.84873436826E+02  0.89672716164E+02  0.10000000000E+01 0.  0.
<mgrwt>
<rscale>  0 0.12499973E+03</rscale>
<asrwt>0</asrwt>
<pdfrwt beam="2">  1        4 0.23620058E+00 0.12499973E+03</pdfrwt>
<pdfrwt beam="1">  1       -4 0.39142675E-03 0.12499973E+03</pdfrwt>
<totfact> 0.17198400E+03</totfact>
</mgrwt>
</event>
<event>
 5    1  0.3312706E-002  0.1249982E+03  0.7818608E-02  0.1235072E+00
          4   -1    0    0  501    0  0.00000000000E+00  0.00000000000E+00  0.71261892914E+03  0.71262006081E+03  0.12700000000E+01 0. -1.
         -4   -1    0    0    0  501 -0.00000000000E+00 -0.00000000000E+00 -0.54066707627E+01  0.55538264950E+01  0.12700000000E+01 0. -1.
         25    2    1    2    0    0  0.00000000000E+00  0.00000000000E+00  0.70721225838E+03  0.71817388731E+03  0.12499821602E+03 0.  0.
    9000005    1    3    3    0    0  0.57283003062E+02  0.21508211548E+02  0.42655166977E+03  0.43091910214E+03  0.10000000000E+01 0.  0.
    9000005    1    3    3    0    0 -0.57283003062E+02 -0.21508211548E+02  0.28066058861E+03  0.28725478517E+03  0.10000000000E+01 0.  0.
<mgrwt>
<rscale>  0 0.12499822E+03</rscale>
<asrwt>0</asrwt>
<pdfrwt beam="1">  1        4 0.10964504E+00 0.12499822E+03</pdfrwt>
<pdfrwt beam="2">  1       -4 0.84320256E-03 0.12499822E+03</pdfrwt>
<totfact> 0.42146176E+03</totfact>
</mgrwt>
</event>
<event>
 5    1  0.3312706E-002  0.1250023E+03  0.7818608E-02  0.1235066E+00
         -4   -1    0    0    0  501 -0.00000000000E+00  0.00000000000E+00  0.80167239784E+03  0.80167340380E+03  0.12700000000E+01 0. -1.
          4   -1    0    0  501    0  0.00000000000E+00 -0.00000000000E+00 -0.47890316656E+01  0.49545660046E+01  0.12700000000E+01 0. -1.
         25    2    1    2    0    0  0.00000000000E+00  0.00000000000E+00  0.79688336618E+03  0.80662796981E+03  0.12500232951E+03 0.  0.
    9000005    1    3    3    0    0  0.41327909505E+02  0.46822806238E+02  0.38397752051E+03  0.38902455905E+03  0.10000000000E+01 0.  0.
    9000005    1    3    3    0    0 -0.41327909505E+02 -0.46822806238E+02  0.41290584567E+03  0.41760341075E+03  0.10000000000E+01 0.  0.
<mgrwt>
<rscale>  0 0.12500233E+03</rscale>
<asrwt>0</asrwt>
<pdfrwt beam="2">  1        4 0.74958442E-03 0.12500233E+03</pdfrwt>
<pdfrwt beam="1">  1       -4 0.12334710E+00 0.12500233E+03</pdfrwt>
<totfact> 0.37968587E+03</totfact>
</mgrwt>
</event>
<event>
 5    1  0.3312706E-002  0.1250055E+03  0.7818608E-02  0.1235061E+00
         -4   -1    0    0    0  501 -0.00000000000E+00  0.00000000000E+00  0.13449378042E+03  0.13449977648E+03  0.12700000000E+01 0. -1.
          4   -1    0    0  501    0  0.00000000000E+00 -0.00000000000E+00 -0.29026116969E+02  0.29053887284E+02  0.12700000000E+01 0. -1.
         25    2    1    2    0    0  0.00000000000E+00  0.00000000000E+00  0.10546766345E+03  0.16355366376E+03  0.12500549146E+03 0.  0.
    9000005    1    3    3    0    0  0.51035480444E+02 -0.45482459341E+01  0.99548802279E+02  0.11196548951E+03  0.10000000000E+01 0.  0.
    9000005    1    3    3    0    0 -0.51035480444E+02  0.45482459341E+01  0.59188611739E+01  0.51588174254E+02  0.10000000000E+01 0.  0.
<mgrwt>
<rscale>  0 0.12500549E+03</rscale>
<asrwt>0</asrwt>
<pdfrwt beam="2">  1        4 0.44681539E-02 0.12500549E+03</pdfrwt>
<pdfrwt beam="1">  1       -4 0.20693948E-01 0.12500549E+03</pdfrwt>
<totfact> 0.96650083E+03</totfact>
</mgrwt>
</event>
<event>
 5    1  0.3312706E-002  0.1249937E+03  0.7818608E-02  0.1235079E+00
          4   -1    0    0  501    0  0.00000000000E+00  0.00000000000E+00  0.12159493392E+04  0.12159500024E+04  0.12700000000E+01 0.  1.
         -4   -1    0    0    0  501 -0.00000000000E+00 -0.00000000000E+00 -0.30859673784E+01  0.33370787615E+01  0.12700000000E+01 0.  1.
         25    2    1    2    0    0  0.00000000000E+00  0.00000000000E+00  0.12128633718E+04  0.12192870812E+04  0.12499371042E+03 0.  0.
    9000005    1    3    3    0    0 -0.35864422347E+02  0.45166872558E+02  0.37179837639E+03  0.37624637653E+03  0.10000000000E+01 0.  0.
    9000005    1    3    3    0    0  0.35864422347E+02 -0.45166872558E+02  0.84106499542E+03  0.84304070464E+03  0.10000000000E+01 0.  0.
<mgrwt>
<rscale>  0 0.12499371E+03</rscale>
<asrwt>0</asrwt>
<pdfrwt beam="1">  1        4 0.18708843E+00 0.12499371E+03</pdfrwt>
<pdfrwt beam="2">  1       -4 0.49413167E-03 0.12499371E+03</pdfrwt>
<totfact> 0.24216759E+03</totfact>
</mgrwt>
</event>
<event>
 5    1  0.3312706E-002  0.1249987E+03  0.7818608E-02  0.1235071E+00
          4   -1    0    0  501    0  0.00000000000E+00  0.00000000000E+00  0.86812775107E+02  0.86822064142E+02  0.12700000000E+01 0.  1.
         -4   -1    0    0    0  501 -0.00000000000E+00 -0.00000000000E+00 -0.44974671589E+02  0.44992599220E+02  0.12700000000E+01 0.  1.
         25    2    1    2    0    0  0.00000000000E+00  0.00000000000E+00  0.41838103518E+02  0.13181466336E+03  0.12499871428E+03 0.  0.
    9000005    1    3    3    0    0 -0.33930410577E+02 -0.83818633364E+01  0.75547694199E+02  0.83246516405E+02  0.10000000000E+01 0.  0.
    9000005    1    3    3    0    0  0.33930410577E+02  0.83818633364E+01 -0.33709590680E+02  0.48568146956E+02  0.10000000000E+01 0.  0.
<mgrwt>
<rscale>  0 0.12499871E+03</rscale>
<asrwt>0</asrwt>
<pdfrwt beam="1">  1        4 0.13357905E-01 0.12499871E+03</pdfrwt>
<pdfrwt beam="2">  1       -4 0.69212738E-02 0.12499871E+03</pdfrwt>
<totfact> 0.10305955E+04</totfact>
</mgrwt>
</event>
<event>
 5    1  0.3312706E-002  0.1249904E+03  0.7818608E-02  0.1235084E+00
         -4   -1    0    0    0  501 -0.00000000000E+00  0.00000000000E+00  0.80097210776E+02  0.80107278534E+02  0.12700000000E+01 0. -1.
          4   -1    0    0  501    0  0.00000000000E+00 -0.00000000000E+00 -0.48739969003E+02  0.48756512164E+02  0.12700000000E+01 0. -1.
         25    2    1    2    0    0  0.00000000000E+00  0.00000000000E+00  0.31357241773E+02  0.12886379070E+03  0.12499039940E+03 0.  0.
    9000005    1    3    3    0    0  0.87301385727E+01 -0.13625346137E+02 -0.46547251385E+02  0.49290080020E+02  0.10000000000E+01 0.  0.
    9000005    1    3    3    0    0 -0.87301385727E+01  0.13625346137E+02  0.77904493159E+02  0.79573710679E+02  0.10000000000E+01 0.  0.
<mgrwt>
<rscale>  0 0.12499040E+03</rscale>
<asrwt>0</asrwt>
<pdfrwt beam="2">  1        4 0.75005038E-02 0.12499040E+03</pdfrwt>
<pdfrwt beam="1">  1       -4 0.12324695E-01 0.12499040E+03</pdfrwt>
<totfact> 0.10371122E+04</totfact>
</mgrwt>
</event>
<event>
 5    1  0.3312706E-002  0.1250134E+03  0.7818608E-02  0.1235048E+00
          4   -1    0    0  501    0  0.00000000000E+00  0.00000000000E+00  0.46136244395E+03  0.46136419192E+03  0.12700000000E+01 0. -1.
         -4   -1    0    0    0  501 -0.00000000000E+00 -0.00000000000E+00 -0.84191912956E+01  0.85144396217E+01  0.12700000000E+01 0. -1.
         25    2    1    2    0    0  0.00000000000E+00  0.00000000000E+00  0.45294325266E+03  0.46987863154E+03  0.12501335231E+03 0.  0.
    9000005    1    3    3    0    0 -0.48889326039E+02  0.38277815452E+02  0.25324171269E+03  0.26074455392E+03  0.10000000000E+01 0.  0.
    9000005    1    3    3    0    0  0.48889326039E+02 -0.38277815452E+02  0.19970153997E+03  0.20913407762E+03  0.10000000000E+01 0.  0.
<mgrwt>
<rscale>  0 0.12501335E+03</rscale>
<asrwt>0</asrwt>
<pdfrwt beam="1">  1        4 0.70986316E-01 0.12501335E+03</pdfrwt>
<pdfrwt beam="2">  1       -4 0.13027211E-02 0.12501335E+03</pdfrwt>
<totfact> 0.58262440E+03</totfact>
</mgrwt>
</event>
<event>
 5    1  0.3312706E-002  0.1250030E+03  0.7818608E-02  0.1235065E+00
         -4   -1    0    0    0  501 -0.00000000000E+00  0.00000000000E+00  0.12240532863E+02  0.12306240074E+02  0.12700000000E+01 0. -1.
          4   -1    0    0  501    0  0.00000000000E+00 -0.00000000000E+00 -0.31821848236E+03  0.31822101662E+03  0.12700000000E+01 0. -1.
         25    2    1    2    0    0  0.00000000000E+00  0.00000000000E+00 -0.30597794950E+03  0.33052725669E+03  0.12500304731E+03 0.  0.
    9000005    1    3    3    0    0  0.15424599623E+02  0.59344418904E+02 -0.12106558263E+03  0.13571128776E+03  0.10000000000E+01 0.  0.
    9000005    1    3    3    0    0 -0.15424599623E+02 -0.59344418904E+02 -0.18491236687E+03  0.19481596893E+03  0.10000000000E+01 0.  0.
<mgrwt>
<rscale>  0 0.12500305E+03</rscale>
<asrwt>0</asrwt>
<pdfrwt beam="2">  1        4 0.48961933E-01 0.12500305E+03</pdfrwt>
<pdfrwt beam="1">  1       -4 0.18884085E-02 0.12500305E+03</pdfrwt>
<totfact> 0.71916445E+03</totfact>
</mgrwt>
</event>
<event>
 5    1  0.3312706E-002  0.1249872E+03  0.7818608E-02  0.1235089E+00
         -4   -1    0    0    0  501 -0.00000000000E+00  0.00000000000E+00  0.72035032537E+02  0.72046226914E+02  0.12700000000E+01 0. -1.
          4   -1    0    0  501    0  0.00000000000E+00 -0.00000000000E+00 -0.54193104484E+02  0.54207983486E+02  0.12700000000E+01 0. -1.
         25    2    1    2    0    0  0.00000000000E+00  0.00000000000E+00  0.17841928053E+02  0.12625421040E+03  0.12498716433E+03 0.  0.
    9000005    1    3    3    0    0 -0.24953278509E+01 -0.55079825279E+02  0.38620275065E+02  0.67324137276E+02  0.10000000000E+01 0.  0.
    9000005    1    3    3    0    0  0.24953278509E+01  0.55079825279E+02 -0.20778347013E+02  0.58930073124E+02  0.10000000000E+01 0.  0.
<mgrwt>
<rscale>  0 0.12498716E+03</rscale>
<asrwt>0</asrwt>
<pdfrwt beam="2">  1        4 0.83394064E-02 0.12498716E+03</pdfrwt>
<pdfrwt beam="1">  1       -4 0.11084318E-01 0.12498716E+03</pdfrwt>
<totfact> 0.10428415E+04</totfact>
</mgrwt>
</event>
<event>
 5    1  0.3312706E-002  0.1249957E+03  0.7818608E-02  0.1235076E+00
         -4   -1    0    0    0  501 -0.00000000000E+00  0.00000000000E+00  0.24124747073E+04  0.24124750416E+04  0.12700000000E+01 0.  1.
          4   -1    0    0  501    0  0.00000000000E+00 -0.00000000000E+00 -0.13696446061E+01  0.18678400218E+01  0.12700000000E+01 0.  1.
         25    2    1    2    0    0  0.00000000000E+00  0.00000000000E+00  0.24111050627E+04  0.24143428816E+04  0.12499570636E+03 0.  0.
    9000005    1    3    3    0    0 -0.38618505588E+02 -0.49025271122E+02  0.12669848465E+04  0.12685213705E+04  0.10000000000E+01 0.  0.
    9000005    1    3    3    0    0  0.38618505588E+02  0.49025271122E+02  0.11441202162E+04  0.11458215111E+04  0.10000000000E+01 0.  0.
<mgrwt>
<rscale>  0 0.12499571E+03</rscale>
<asrwt>0</asrwt>
<pdfrwt beam="2">  1        4 0.24906385E-03 0.12499571E+03</pdfrwt>
<pdfrwt beam="1">  1       -4 0.37118702E+00 0.12499571E+03</pdfrwt>
<totfact> 0.53782649E+02</totfact>
</mgrwt>
</event>
<event>
 5    1  0.3312706E-002  0.1249977E+03  0.7818608E-02  0.1235073E+00
         -4   -1    0    0    0  501 -0.00000000000E+00  0.00000000000E+00  0.23909227139E+02  0.23942933037E+02  0.12700000000E+01 0. -1.
          4   -1    0    0  501    0  0.00000000000E+00 -0.00000000000E+00 -0.16322116433E+03  0.16322610510E+03  0.12700000000E+01 0. -1.
         25    2    1    2    0    0  0.00000000000E+00  0.00000000000E+00 -0.13931193719E+03  0.18716903814E+03  0.12499773195E+03 0.  0.
    9000005    1    3    3    0    0 -0.43342185363E+01 -0.59727570885E+02 -0.42914428168E+02  0.73680501621E+02  0.10000000000E+01 0.  0.
    9000005    1    3    3    0    0  0.43342185363E+01  0.59727570885E+02 -0.96397509026E+02  0.11348853652E+03  0.10000000000E+01 0.  0.
<mgrwt>
<rscale>  0 0.12499773E+03</rscale>
<asrwt>0</asrwt>
<pdfrwt beam="2">  1        4 0.25113920E-01 0.12499773E+03</pdfrwt>
<pdfrwt beam="1">  1       -4 0.36813156E-02 0.12499773E+03</pdfrwt>
<totfact> 0.92346932E+03</totfact>
</mgrwt>
</event>
<event>
 5    1  0.3312706E-002  0.1250004E+03  0.7818608E-02  0.1235069E+00
          4   -1    0    0  501    0  0.00000000000E+00  0.00000000000E+00  0.19259095901E+03  0.19259514634E+03  0.12700000000E+01 0. -1.
         -4   -1    0    0    0  501 -0.00000000000E+00 -0.00000000000E+00 -0.20258456781E+02  0.20298225813E+02  0.12700000000E+01 0. -1.
         25    2    1    2    0    0  0.00000000000E+00  0.00000000000E+00  0.17233250223E+03  0.21289337215E+03  0.12500038632E+03 0.  0.
    9000005    1    3    3    0    0  0.10711325870E+01 -0.33547153011E+02 -0.36123461542E+01  0.33772886238E+02  0.10000000000E+01 0.  0.
    9000005    1    3    3    0    0 -0.10711325870E+01  0.33547153011E+02  0.17594484838E+03  0.17912048591E+03  0.10000000000E+01 0.  0.
<mgrwt>
<rscale>  0 0.12500039E+03</rscale>
<asrwt>0</asrwt>
<pdfrwt beam="1">  1        4 0.29632761E-01 0.12500039E+03</pdfrwt>
<pdfrwt beam="2">  1       -4 0.31200668E-02 0.12500039E+03</pdfrwt>
<totfact> 0.88004763E+03</totfact>
</mgrwt>
</event>
<event>
 5    1  0.3312706E-002  0.1249992E+03  0.7818608E-02  0.1235071E+00
          4   -1    0    0  501    0  0.00000000000E+00  0.00000000000E+00  0.54563499073E+03  0.54563646873E+03  0.12700000000E+01 0. -1.
         -4   -1    0    0    0  501 -0.00000000000E+00 -0.00000000000E+00 -0.71011723182E+01  0.72138442105E+01  0.12700000000E+01 0. -1.
         25    2    1    2    0    0  0.00000000000E+00  0.00000000000E+00  0.53853381842E+03  0.55285031295E+03  0.12499917978E+03 0.  0.
    9000005    1    3    3    0    0 -0.26679123960E+02  0.15132081036E+02  0.28458325417E+02  0.41852500729E+02  0.10000000000E+01 0.  0.
    9000005    1    3    3    0    0  0.26679123960E+02 -0.15132081036E+02  0.51007549300E+03  0.51099781222E+03  0.10000000000E+01 0.  0.
<mgrwt>
<rscale>  0 0.12499918E+03</rscale>
<asrwt>0</asrwt>
<pdfrwt beam="1">  1        4 0.83952604E-01 0.12499918E+03</pdfrwt>
<pdfrwt beam="2">  1       -4 0.11012691E-02 0.12499918E+03</pdfrwt>
<totfact> 0.51986782E+03</totfact>
</mgrwt>
</event>
<event>
 5    1  0.3312706E-002  0.1250017E+03  0.7818608E-02  0.1235067E+00
          4   -1    0    0  501    0  0.00000000000E+00  0.00000000000E+00  0.40021392193E+02  0.40041537596E+02  0.12700000000E+01 0.  1.
         -4   -1    0    0    0  501 -0.00000000000E+00 -0.00000000000E+00 -0.97557922486E+02  0.97566188507E+02  0.12700000000E+01 0.  1.
         25    2    1    2    0    0  0.00000000000E+00  0.00000000000E+00 -0.57536530293E+02  0.13760772610E+03  0.12500173585E+03 0.  0.
    9000005    1    3    3    0    0 -0.26767820483E+02  0.39970490719E+02  0.15144365298E+02  0.50443117886E+02  0.10000000000E+01 0.  0.
    9000005    1    3    3    0    0  0.26767820483E+02 -0.39970490719E+02 -0.72680895591E+02  0.87164608217E+02  0.10000000000E+01 0.  0.
<mgrwt>
<rscale>  0 0.12500174E+03</rscale>
<asrwt>0</asrwt>
<pdfrwt beam="1">  1        4 0.61593228E-02 0.12500174E+03</pdfrwt>
<pdfrwt beam="2">  1       -4 0.15011097E-01 0.12500174E+03</pdfrwt>
<totfact> 0.10182996E+04</totfact>
</mgrwt>
</event>
<event>
 5    1  0.3312706E-002  0.1249997E+03  0.7818608E-02  0.1235070E+00
         -4   -1    0    0    0  501 -0.00000000000E+00  0.00000000000E+00  0.17464406732E+03  0.17464868494E+03  0.12700000000E+01 0.  1.
          4   -1    0    0  501    0  0.00000000000E+00 -0.00000000000E+00 -0.22343850604E+02  0.22379914204E+02  0.12700000000E+01 0.  1.
         25    2    1    2    0    0  0.00000000000E+00  0.00000000000E+00  0.15230021672E+03  0.19702859914E+03  0.12499965147E+03 0.  0.
    9000005    1    3    3    0    0 -0.14723055687E+02  0.24398146151E+02 -0.11514397297E+02  0.30750922742E+02  0.10000000000E+01 0.  0.
    9000005    1    3    3    0    0  0.14723055687E+02 -0.24398146151E+02  0.16381461401E+03  0.16627767640E+03  0.10000000000E+01 0.  0.
<mgrwt>
<rscale>  0 0.12499965E+03</rscale>
<asrwt>0</asrwt>
<pdfrwt beam="2">  1        4 0.34406449E-02 0.12499965E+03</pdfrwt>
<pdfrwt beam="1">  1       -4 0.26871447E-01 0.12499965E+03</pdfrwt>
<totfact> 0.90639246E+03</totfact>
</mgrwt>
</event>
<event>
 5    1  0.3312706E-002  0.1249937E+03  0.7818608E-02  0.1235079E+00
         -4   -1    0    0    0  501 -0.00000000000E+00  0.00000000000E+00  0.10268087538E+03  0.10268872903E+03  0.12700000000E+01 0. -1.
          4   -1    0    0  501    0  0.00000000000E+00 -0.00000000000E+00 -0.38018889389E+02  0.38040095299E+02  0.12700000000E+01 0. -1.
         25    2    1    2    0    0  0.00000000000E+00  0.00000000000E+00  0.64661985996E+02  0.14072882433E+03  0.12499371810E+03 0.  0.
    9000005    1    3    3    0    0 -0.15331418600E+02 -0.32469240655E+02 -0.25249671001E+02  0.43907287216E+02  0.10000000000E+01 0.  0.
    9000005    1    3    3    0    0  0.15331418600E+02  0.32469240655E+02  0.89911656997E+02  0.96821537113E+02  0.10000000000E+01 0.  0.
<mgrwt>
<rscale>  0 0.12499372E+03</rscale>
<asrwt>0</asrwt>
<pdfrwt beam="2">  1        4 0.58512953E-02 0.12499372E+03</pdfrwt>
<pdfrwt beam="1">  1       -4 0.15799293E-01 0.12499372E+03</pdfrwt>
<totfact> 0.10119935E+04</totfact>
</mgrwt>
</event>
<event>
 4    1  0.3312706E-002  0.1240323E+03  0.7818608E-02  0.1236589E+00
          4   -1    0    0  501    0  0.00000000000E+00  0.00000000000E+00  0.64554326677E+01  0.65791725108E+01  0.12700000000E+01 0.  1.
         -4   -1    0    0    0  501 -0.00000000000E+00 -0.00000000000E+00 -0.58999769801E+03  0.58999906488E+03  0.12700000000E+01 0.  1.
    9000005    1    1    2    0    0  0.45140235256E+02  0.42453083487E+02 -0.28090964575E+03  0.28766496869E+03  0.10000000000E+01 0.  0.
    9000005    1    1    2    0    0 -0.45140235256E+02 -0.42453083487E+02 -0.30263261959E+03  0.30891326869E+03  0.10000000000E+01 0.  0.
<mgrwt>
<rscale>  0 0.12403233E+03</rscale>
<asrwt>0</asrwt>
<pdfrwt beam="1">  1        4 0.10027675E-02 0.12403233E+03</pdfrwt>
<pdfrwt beam="2">  1       -4 0.90778458E-01 0.12403233E+03</pdfrwt>
<totfact> 0.50140717E+03</totfact>
</mgrwt>
</event>
<event>
 5    1  0.3312706E-002  0.1250005E+03  0.7818608E-02  0.1235069E+00
         -4   -1    0    0    0  501 -0.00000000000E+00  0.00000000000E+00  0.11763897553E+03  0.11764583063E+03  0.12700000000E+01 0. -1.
          4   -1    0    0  501    0  0.00000000000E+00 -0.00000000000E+00 -0.33185701542E+02  0.33209993779E+02  0.12700000000E+01 0. -1.
         25    2    1    2    0    0  0.00000000000E+00  0.00000000000E+00  0.84453273990E+02  0.15085582441E+03  0.12500049708E+03 0.  0.
    9000005    1    3    3    0    0 -0.47768226170E+02  0.34257905688E+02  0.16629254107E+02  0.61097787404E+02  0.10000000000E+01 0.  0.
    9000005    1    3    3    0    0  0.47768226170E+02 -0.34257905688E+02  0.67824019883E+02  0.89758037003E+02  0.10000000000E+01 0.  0.
<mgrwt>
<rscale>  0 0.12500050E+03</rscale>
<asrwt>0</asrwt>
<pdfrwt beam="2">  1        4 0.51078884E-02 0.12500050E+03</pdfrwt>
<pdfrwt beam="1">  1       -4 0.18100700E-01 0.12500050E+03</pdfrwt>
<totfact> 0.99132266E+03</totfact>
</mgrwt>
</event>
<event>
 5    1  0.3312706E-002  0.1250092E+03  0.7818608E-02  0.1235055E+00
          4   -1    0    0  501    0  0.00000000000E+00  0.00000000000E+00  0.18264992882E+04  0.18264997297E+04  0.12700000000E+01 0.  1.
         -4   -1    0    0    0  501 -0.00000000000E+00 -0.00000000000E+00 -0.19499734323E+01  0.23270789387E+01  0.12700000000E+01 0.  1.
         25    2    1    2    0    0  0.00000000000E+00  0.00000000000E+00  0.18245493147E+04  0.18288268086E+04  0.12500917597E+03 0.  0.
    9000005    1    3    3    0    0 -0.36584732338E+02 -0.37894882356E+02  0.14043491585E+04  0.14053369788E+04  0.10000000000E+01 0.  0.
    9000005    1    3    3    0    0  0.36584732338E+02  0.37894882356E+02  0.42020015620E+03  0.42348982989E+03  0.10000000000E+01 0.  0.
<mgrwt>
<rscale>  0 0.12500918E+03</rscale>
<asrwt>0</asrwt>
<pdfrwt beam="1">  1        4 0.28102948E+00 0.12500918E+03</pdfrwt>
<pdfrwt beam="2">  1       -4 0.32903735E-03 0.12500918E+03</pdfrwt>
<totfact> 0.12262069E+03</totfact>
</mgrwt>
</event>
<event>
 5    1  0.3312706E-002  0.1249999E+03  0.7818608E-02  0.1235069E+00
          4   -1    0    0  501    0  0.00000000000E+00  0.00000000000E+00  0.71214118545E+03  0.71214231788E+03  0.12700000000E+01 0. -1.
         -4   -1    0    0    0  501 -0.00000000000E+00 -0.00000000000E+00 -0.54105489424E+01  0.55576019881E+01  0.12700000000E+01 0. -1.
         25    2    1    2    0    0  0.00000000000E+00  0.00000000000E+00  0.70673063651E+03  0.71769991987E+03  0.12499992960E+03 0.  0.
    9000005    1    3    3    0    0  0.27878432130E+02 -0.20828277885E+02  0.65138831337E+03  0.65231798912E+03  0.10000000000E+01 0.  0.
    9000005    1    3    3    0    0 -0.27878432130E+02  0.20828277885E+02  0.55342323140E+02  0.65381930747E+02  0.10000000000E+01 0.  0.
<mgrwt>
<rscale>  0 0.12499993E+03</rscale>
<asrwt>0</asrwt>
<pdfrwt beam="1">  1        4 0.10957152E+00 0.12499993E+03</pdfrwt>
<pdfrwt beam="2">  1       -4 0.84379147E-03 0.12499993E+03</pdfrwt>
<totfact> 0.42168741E+03</totfact>
</mgrwt>
</event>
<event>
 5    1  0.3312706E-002  0.1249999E+03  0.7818608E-02  0.1235069E+00
          4   -1    0    0  501    0  0.00000000000E+00  0.00000000000E+00  0.14993848840E+01  0.19649567502E+01  0.12700000000E+01 0. -1.
         -4   -1    0    0    0  501 -0.00000000000E+00 -0.00000000000E+00 -0.22546491219E+04  0.22546494795E+04  0.12700000000E+01 0. -1.
         25    2    1    2    0    0  0.00000000000E+00  0.00000000000E+00 -0.22531497370E+04  0.22566144363E+04  0.12499990741E+03 0.  0.
    9000005    1    3    3    0    0 -0.61201680265E+02 -0.12471040052E+02 -0.10901468227E+04  0.10919351023E+04  0.10000000000E+01 0.  0.
    9000005    1    3    3    0    0  0.61201680265E+02  0.12471040052E+02 -0.11630029143E+04  0.11646793340E+04  0.10000000000E+01 0.  0.
<mgrwt>
<rscale>  0 0.12499991E+03</rscale>
<asrwt>0</asrwt>
<pdfrwt beam="1">  1        4 0.26651714E-03 0.12499991E+03</pdfrwt>
<pdfrwt beam="2">  1       -4 0.34690259E+00 0.12499991E+03</pdfrwt>
<totfact> 0.68728017E+02</totfact>
</mgrwt>
</event>
<event>
 5    1  0.3312706E-002  0.1249983E+03  0.7818608E-02  0.1235072E+00
         -4   -1    0    0    0  501 -0.00000000000E+00  0.00000000000E+00  0.23005470069E+02  0.23040498109E+02  0.12700000000E+01 0. -1.
          4   -1    0    0  501    0  0.00000000000E+00 -0.00000000000E+00 -0.16962547341E+03  0.16963022765E+03  0.12700000000E+01 0. -1.
         25    2    1    2    0    0  0.00000000000E+00  0.00000000000E+00 -0.14662000335E+03  0.19267072576E+03  0.12499833272E+03 0.  0.
    9000005    1    3    3    0    0  0.46733296167E+02 -0.41324006141E+02 -0.67652601074E+02  0.92030152049E+02  0.10000000000E+01 0.  0.
    9000005    1    3    3    0    0 -0.46733296167E+02  0.41324006141E+02 -0.78967402272E+02  0.10064057371E+03  0.10000000000E+01 0.  0.
<mgrwt>
<rscale>  0 0.12499833E+03</rscale>
<asrwt>0</asrwt>
<pdfrwt beam="2">  1        4 0.26099286E-01 0.12499833E+03</pdfrwt>
<pdfrwt beam="1">  1       -4 0.35423634E-02 0.12499833E+03</pdfrwt>
<totfact> 0.91388095E+03</totfact>
</mgrwt>
</event>
<event>
 5    1  0.3312706E-002  0.1250558E+03  0.7818608E-02  0.1234982E+00
          4   -1    0    0  501    0  0.00000000000E+00  0.00000000000E+00  0.19579006662E+03  0.19579418553E+03  0.12700000000E+01 0.  1.
         -4   -1    0    0    0  501 -0.00000000000E+00 -0.00000000000E+00 -0.19944516399E+02  0.19984910167E+02  0.12700000000E+01 0.  1.
         25    2    1    2    0    0  0.00000000000E+00  0.00000000000E+00  0.17584555022E+03  0.21577909570E+03  0.12505582996E+03 0.  0.
    9000005    1    3    3    0    0 -0.38671685764E+02 -0.48920854654E+02  0.80208039000E+02  0.10160255322E+03  0.10000000000E+01 0.  0.
    9000005    1    3    3    0    0  0.38671685764E+02  0.48920854654E+02  0.95637511224E+02  0.11417654248E+03  0.10000000000E+01 0.  0.
<mgrwt>
<rscale>  0 0.12505583E+03</rscale>
<asrwt>0</asrwt>
<pdfrwt beam="1">  1        4 0.30124972E-01 0.12505583E+03</pdfrwt>
<pdfrwt beam="2">  1       -4 0.30718112E-02 0.12505583E+03</pdfrwt>
<totfact> 0.87431571E+03</totfact>
</mgrwt>
</event>
<event>
 5    1  0.3312706E-002  0.1250068E+03  0.7818608E-02  0.1235059E+00
         -4   -1    0    0    0  501 -0.00000000000E+00  0.00000000000E+00  0.43154795874E+03  0.43154982747E+03  0.12700000000E+01 0. -1.
          4   -1    0    0  501    0  0.00000000000E+00 -0.00000000000E+00 -0.90062679578E+01  0.90953703899E+01  0.12700000000E+01 0. -1.
         25    2    1    2    0    0  0.00000000000E+00  0.00000000000E+00  0.42254169078E+03  0.44064519786E+03  0.12500683962E+03 0.  0.
    9000005    1    3    3    0    0 -0.56026642343E+01  0.24136204608E+02  0.41351102969E+03  0.41425392925E+03  0.10000000000E+01 0.  0.
    9000005    1    3    3    0    0  0.56026642343E+01 -0.24136204608E+02  0.90306610878E+01  0.26391268615E+02  0.10000000000E+01 0.  0.
<mgrwt>
<rscale>  0 0.12500684E+03</rscale>
<asrwt>0</asrwt>
<pdfrwt beam="2">  1        4 0.13925776E-02 0.12500684E+03</pdfrwt>
<pdfrwt beam="1">  1       -4 0.66398986E-01 0.12500684E+03</pdfrwt>
<totfact> 0.60773621E+03</totfact>
</mgrwt>
</event>
<event>
 5    1  0.3312706E-002  0.1250027E+03  0.7818608E-02  0.1235065E+00
          4   -1    0    0  501    0  0.00000000000E+00  0.00000000000E+00  0.16161244260E+02  0.16211067702E+02  0.12700000000E+01 0.  1.
         -4   -1    0    0    0  501 -0.00000000000E+00 -0.00000000000E+00 -0.24129181550E+03  0.24129515770E+03  0.12700000000E+01 0.  1.
         25    2    1    2    0    0  0.00000000000E+00  0.00000000000E+00 -0.22513057124E+03  0.25750622540E+03  0.12500272802E+03 0.  0.
    9000005    1    3    3    0    0 -0.53804959930E+02  0.17745058997E+01 -0.17794563096E+03  0.18591334046E+03  0.10000000000E+01 0.  0.
    9000005    1    3    3    0    0  0.53804959930E+02 -0.17745058997E+01 -0.47184940285E+02  0.71592884940E+02  0.10000000000E+01 0.  0.
<mgrwt>
<rscale>  0 0.12500273E+03</rscale>
<asrwt>0</asrwt>
<pdfrwt beam="1">  1        4 0.24904351E-02 0.12500273E+03</pdfrwt>
<pdfrwt beam="2">  1       -4 0.37125905E-01 0.12500273E+03</pdfrwt>
<totfact> 0.81252371E+03</totfact>
</mgrwt>
</event>
<event>
 5    1  0.3312706E-002  0.1250028E+03  0.7818608E-02  0.1235065E+00
          4   -1    0    0  501    0  0.00000000000E+00  0.00000000000E+00  0.80998994493E+03  0.80999094055E+03  0.12700000000E+01 0. -1.
         -4   -1    0    0    0  501 -0.00000000000E+00 -0.00000000000E+00 -0.47381862212E+01  0.49054366439E+01  0.12700000000E+01 0. -1.
         25    2    1    2    0    0  0.00000000000E+00  0.00000000000E+00  0.80525175870E+03  0.81489637720E+03  0.12500284267E+03 0.  0.
    9000005    1    3    3    0    0 -0.37801054214E+02 -0.36920925906E+02  0.62014577109E+03  0.62239364704E+03  0.10000000000E+01 0.  0.
    9000005    1    3    3    0    0  0.37801054214E+02  0.36920925906E+02  0.18510598761E+03  0.19250273016E+03  0.10000000000E+01 0.  0.
<mgrwt>
<rscale>  0 0.12500284E+03</rscale>
<asrwt>0</asrwt>
<pdfrwt beam="1">  1        4 0.12462683E+00 0.12500284E+03</pdfrwt>
<pdfrwt beam="2">  1       -4 0.74189341E-03 0.12500284E+03</pdfrwt>
<totfact> 0.37605954E+03</totfact>
</mgrwt>
</event>
<event>
 5    1  0.3312706E-002  0.1249981E+03  0.7818608E-02  0.1235072E+00
          4   -1    0    0  501    0  0.00000000000E+00  0.00000000000E+00  0.18508302177E+02  0.18551823346E+02  0.12700000000E+01 0.  1.
         -4   -1    0    0    0  501 -0.00000000000E+00 -0.00000000000E+00 -0.21075438501E+03  0.21075821147E+03  0.12700000000E+01 0.  1.
         25    2    1    2    0    0  0.00000000000E+00  0.00000000000E+00 -0.19224608284E+03  0.22931003482E+03  0.12499814279E+03 0.  0.
    9000005    1    3    3    0    0  0.45541728525E+02  0.38025276309E+02 -0.60119773585E+02  0.84471047415E+02  0.10000000000E+01 0.  0.
    9000005    1    3    3    0    0 -0.45541728525E+02 -0.38025276309E+02 -0.13212630925E+03  0.14483898740E+03  0.10000000000E+01 0.  0.
<mgrwt>
<rscale>  0 0.12499814E+03</rscale>
<asrwt>0</asrwt>
<pdfrwt beam="1">  1        4 0.28510734E-02 0.12499814E+03</pdfrwt>
<pdfrwt beam="2">  1       -4 0.32427392E-01 0.12499814E+03</pdfrwt>
<totfact> 0.85419195E+03</totfact>
</mgrwt>
</event>
<event>
 5    1  0.3312706E-002  0.1250045E+03  0.7818608E-02  0.1235062E+00
          4   -1    0    0  501    0  0.00000000000E+00  0.00000000000E+00  0.33571609212E+02  0.33595622409E+02  0.12700000000E+01 0. -1.
         -4   -1    0    0    0  501 -0.00000000000E+00 -0.00000000000E+00 -0.11629510196E+03  0.11630203627E+03  0.12700000000E+01 0. -1.
         25    2    1    2    0    0  0.00000000000E+00  0.00000000000E+00 -0.82723492753E+02  0.14989765868E+03  0.12500452722E+03 0.  0.
    9000005    1    3    3    0    0 -0.39128734648E+02  0.43506199213E+02 -0.15043861111E+02  0.60424870726E+02  0.10000000000E+01 0.  0.
    9000005    1    3    3    0    0  0.39128734648E+02 -0.43506199213E+02 -0.67679631642E+02  0.89472787954E+02  0.10000000000E+01 0.  0.
<mgrwt>
<rscale>  0 0.12500453E+03</rscale>
<asrwt>0</asrwt>
<pdfrwt beam="1">  1        4 0.51672436E-02 0.12500453E+03</pdfrwt>
<pdfrwt beam="2">  1       -4 0.17893935E-01 0.12500453E+03</pdfrwt>
<totfact> 0.99313983E+03</totfact>
</mgrwt>
</event>
<event>
 5    1  0.3312706E-002  0.1249955E+03  0.7818608E-02  0.1235076E+00
          4   -1    0    0  501    0  0.00000000000E+00  0.00000000000E+00  0.26875565064E+03  0.26875865130E+03  0.12700000000E+01 0. -1.
         -4   -1    0    0    0  501 -0.00000000000E+00 -0.00000000000E+00 -0.14502694758E+02  0.14558195467E+02  0.12700000000E+01 0. -1.
         25    2    1    2    0    0  0.00000000000E+00  0.00000000000E+00  0.25425295588E+03  0.28331684677E+03  0.12499548028E+03 0.  0.
    9000005    1    3    3    0    0 -0.23877881900E+02 -0.25552648301E+02  0.24450738813E+03  0.24699788244E+03  0.10000000000E+01 0.  0.
    9000005    1    3    3    0    0  0.23877881900E+02  0.25552648301E+02  0.97455677492E+01  0.36318964330E+02  0.10000000000E+01 0.  0.
<mgrwt>
<rscale>  0 0.12499548E+03</rscale>
<asrwt>0</asrwt>
<pdfrwt beam="1">  1        4 0.41351526E-01 0.12499548E+03</pdfrwt>
<pdfrwt beam="2">  1       -4 0.22356838E-02 0.12499548E+03</pdfrwt>
<totfact> 0.77748167E+03</totfact>
</mgrwt>
</event>
<event>
 5    1  0.3312706E-002  0.1250027E+03  0.7818608E-02  0.1235065E+00
         -4   -1    0    0    0  501 -0.00000000000E+00  0.00000000000E+00  0.56865145507E+02  0.56879325537E+02  0.12700000000E+01 0.  1.
          4   -1    0    0  501    0  0.00000000000E+00 -0.00000000000E+00 -0.68667610084E+02  0.68679353336E+02  0.12700000000E+01 0.  1.
         25    2    1    2    0    0  0.00000000000E+00  0.00000000000E+00 -0.11802464577E+02  0.12555867887E+03  0.12500273465E+03 0.  0.
    9000005    1    3    3    0    0  0.52405335420E+02 -0.13115400771E+02  0.25656454351E+02  0.59812929770E+02  0.10000000000E+01 0.  0.
    9000005    1    3    3    0    0 -0.52405335420E+02  0.13115400771E+02 -0.37458918928E+02  0.65745749103E+02  0.10000000000E+01 0.  0.
<mgrwt>
<rscale>  0 0.12500273E+03</rscale>
<asrwt>0</asrwt>
<pdfrwt beam="2">  1        4 0.10566242E-01 0.12500273E+03</pdfrwt>
<pdfrwt beam="1">  1       -4 0.87504780E-02 0.12500273E+03</pdfrwt>
<totfact> 0.10440014E+04</totfact>
</mgrwt>
</event>
<event>
 5    1  0.3312706E-002  0.1250050E+03  0.7818608E-02  0.1235061E+00
          4   -1    0    0  501    0  0.00000000000E+00  0.00000000000E+00  0.25496110776E+01  0.28484059835E+01  0.12700000000E+01 0. -1.
         -4   -1    0    0    0  501 -0.00000000000E+00 -0.00000000000E+00 -0.14471081009E+04  0.14471086582E+04  0.12700000000E+01 0. -1.
         25    2    1    2    0    0  0.00000000000E+00  0.00000000000E+00 -0.14445584898E+04  0.14499570641E+04  0.12500502954E+03 0.  0.
    9000005    1    3    3    0    0 -0.14577482870E+02  0.48439254872E+02 -0.29661901584E+03  0.30090314883E+03  0.10000000000E+01 0.  0.
    9000005    1    3    3    0    0  0.14577482870E+02 -0.48439254872E+02 -0.11479394740E+04  0.11490539153E+04  0.10000000000E+01 0.  0.
<mgrwt>
<rscale>  0 0.12500503E+03</rscale>
<asrwt>0</asrwt>
<pdfrwt beam="1">  1        4 0.41527611E-03 0.12500503E+03</pdfrwt>
<pdfrwt beam="2">  1       -4 0.22265442E+00 0.12500503E+03</pdfrwt>
<totfact> 0.18931612E+03</totfact>
</mgrwt>
</event>
<event>
 5    1  0.3312706E-002  0.1249950E+03  0.7818608E-02  0.1235077E+00
         -4   -1    0    0    0  501 -0.00000000000E+00  0.00000000000E+00  0.19790568590E+02  0.19831275933E+02  0.12700000000E+01 0. -1.
          4   -1    0    0  501    0  0.00000000000E+00 -0.00000000000E+00 -0.19711815937E+03  0.19712225053E+03  0.12700000000E+01 0. -1.
         25    2    1    2    0    0  0.00000000000E+00  0.00000000000E+00 -0.17732759078E+03  0.21695352646E+03  0.12499503267E+03 0.  0.
    9000005    1    3    3    0    0  0.33301082901E+02  0.46701095016E+02 -0.13170716614E+03  0.14365838650E+03  0.10000000000E+01 0.  0.
    9000005    1    3    3    0    0 -0.33301082901E+02 -0.46701095016E+02 -0.45620424637E+02  0.73295139963E+02  0.10000000000E+01 0.  0.
<mgrwt>
<rscale>  0 0.12499503E+03</rscale>
<asrwt>0</asrwt>
<pdfrwt beam="2">  1        4 0.30329315E-01 0.12499503E+03</pdfrwt>
<pdfrwt beam="1">  1       -4 0.30481490E-02 0.12499503E+03</pdfrwt>
<totfact> 0.87362417E+03</totfact>
</mgrwt>
</event>
<event>
 5    1  0.3312706E-002  0.1249957E+03  0.7818608E-02  0.1235076E+00
         -4   -1    0    0    0  501 -0.00000000000E+00  0.00000000000E+00  0.12368096144E+03  0.12368748168E+03  0.12700000000E+01 0.  1.
          4   -1    0    0  501    0  0.00000000000E+00 -0.00000000000E+00 -0.31560978834E+02  0.31586520621E+02  0.12700000000E+01 0.  1.
         25    2    1    2    0    0  0.00000000000E+00  0.00000000000E+00  0.92119982610E+02  0.15527400230E+03  0.12499569830E+03 0.  0.
    9000005    1    3    3    0    0 -0.60958829763E+02  0.12725610097E+02  0.39597854280E+02  0.73803185175E+02  0.10000000000E+01 0.  0.
    9000005    1    3    3    0    0  0.60958829763E+02 -0.12725610097E+02  0.52522128329E+02  0.81470817123E+02  0.10000000000E+01 0.  0.
<mgrwt>
<rscale>  0 0.12499570E+03</rscale>
<asrwt>0</asrwt>
<pdfrwt beam="2">  1        4 0.48580015E-02 0.12499570E+03</pdfrwt>
<pdfrwt beam="1">  1       -4 0.19030307E-01 0.12499570E+03</pdfrwt>
<totfact> 0.98271242E+03</totfact>
</mgrwt>
</event>
<event>
 5    1  0.3312706E-002  0.1249997E+03  0.7818608E-02  0.1235070E+00
         -4   -1    0    0    0  501 -0.00000000000E+00  0.00000000000E+00  0.23254860133E+03  0.23255206919E+03  0.12700000000E+01 0. -1.
          4   -1    0    0  501    0  0.00000000000E+00 -0.00000000000E+00 -0.16769878762E+02  0.16817899206E+02  0.12700000000E+01 0. -1.
         25    2    1    2    0    0  0.00000000000E+00  0.00000000000E+00  0.21577872257E+03  0.24936996839E+03  0.12499969608E+03 0.  0.
    9000005    1    3    3    0    0 -0.72503164451E+01 -0.59934603045E+02  0.14008856418E+03  0.15254681100E+03  0.10000000000E+01 0.  0.
    9000005    1    3    3    0    0  0.72503164451E+01  0.59934603045E+02  0.75690158388E+02  0.96823157393E+02  0.10000000000E+01 0.  0.
<mgrwt>
<rscale>  0 0.12499970E+03</rscale>
<asrwt>0</asrwt>
<pdfrwt beam="2">  1        4 0.25839421E-02 0.12499970E+03</pdfrwt>
<pdfrwt beam="1">  1       -4 0.35780667E-01 0.12499970E+03</pdfrwt>
<totfact> 0.82421930E+03</totfact>
</mgrwt>
</event>
<event>
 5    1  0.3312706E-002  0.1249994E+03  0.7818608E-02  0.1235070E+00
         -4   -1    0    0    0  501 -0.00000000000E+00  0.00000000000E+00  0.21602798602E+03  0.21603171907E+03  0.12700000000E+01 0. -1.
          4   -1    0    0  501    0  0.00000000000E+00 -0.00000000000E+00 -0.18055766504E+02  0.18100375798E+02  0.12700000000E+01 0. -1.
         25    2    1    2    0    0  0.00000000000E+00  0.00000000000E+00  0.19797221952E+03  0.23413209487E+03  0.12499935259E+03 0.  0.
    9000005    1    3    3    0    0  0.29132134917E+02  0.96861861316E+01 -0.29662939419E+01  0.30859397051E+02  0.10000000000E+01 0.  0.
    9000005    1    3    3    0    0 -0.29132134917E+02 -0.96861861316E+01  0.20093851346E+03  0.20327269782E+03  0.10000000000E+01 0.  0.
<mgrwt>
<rscale>  0 0.12499935E+03</rscale>
<asrwt>0</asrwt>
<pdfrwt beam="2">  1        4 0.27815288E-02 0.12499935E+03</pdfrwt>
<pdfrwt beam="1">  1       -4 0.33238795E-01 0.12499935E+03</pdfrwt>
<totfact> 0.84680343E+03</totfact>
</mgrwt>
</event>
<event>
 5    1  0.3312706E-002  0.1249977E+03  0.7818608E-02  0.1235073E+00
         -4   -1    0    0    0  501 -0.00000000000E+00  0.00000000000E+00  0.85536402456E+01  0.86474077879E+01  0.12700000000E+01 0. -1.
          4   -1    0    0  501    0  0.00000000000E+00 -0.00000000000E+00 -0.45407622075E+03  0.45407799677E+03  0.12700000000E+01 0. -1.
         25    2    1    2    0    0  0.00000000000E+00  0.00000000000E+00 -0.44552258050E+03  0.46272540456E+03  0.12499772112E+03 0.  0.
    9000005    1    3    3    0    0  0.60182774909E+02 -0.13750761695E+02 -0.25866327769E+03  0.26592995519E+03  0.10000000000E+01 0.  0.
    9000005    1    3    3    0    0 -0.60182774909E+02  0.13750761695E+02 -0.18685930282E+03  0.19679544937E+03  0.10000000000E+01 0.  0.
<mgrwt>
<rscale>  0 0.12499772E+03</rscale>
<asrwt>0</asrwt>
<pdfrwt beam="2">  1        4 0.69865211E-01 0.12499772E+03</pdfrwt>
<pdfrwt beam="1">  1       -4 0.13232945E-02 0.12499772E+03</pdfrwt>
<totfact> 0.58879994E+03</totfact>
</mgrwt>
</event>
<event>
 5    1  0.3312706E-002  0.1250021E+03  0.7818608E-02  0.1235066E+00
          4   -1    0    0  501    0  0.00000000000E+00  0.00000000000E+00  0.20819109702E+03  0.20819497059E+03  0.12700000000E+01 0.  1.
         -4   -1    0    0    0  501 -0.00000000000E+00 -0.00000000000E+00 -0.18737904532E+02  0.18780893648E+02  0.12700000000E+01 0.  1.
         25    2    1    2    0    0  0.00000000000E+00  0.00000000000E+00  0.18945319249E+03  0.22697586423E+03  0.12500212319E+03 0.  0.
    9000005    1    3    3    0    0 -0.60474580408E+02 -0.93087473043E+01  0.11780589217E+03  0.13275185830E+03  0.10000000000E+01 0.  0.
    9000005    1    3    3    0    0  0.60474580408E+02  0.93087473043E+01  0.71647300315E+02  0.94224005935E+02  0.10000000000E+01 0.  0.
<mgrwt>
<rscale>  0 0.12500212E+03</rscale>
<asrwt>0</asrwt>
<pdfrwt beam="1">  1        4 0.32033005E-01 0.12500212E+03</pdfrwt>
<pdfrwt beam="2">  1       -4 0.28863593E-02 0.12500212E+03</pdfrwt>
<totfact> 0.85772064E+03</totfact>
</mgrwt>
</event>
<event>
 5    1  0.3312706E-002  0.1250021E+03  0.7818608E-02  0.1235066E+00
         -4   -1    0    0    0  501 -0.00000000000E+00  0.00000000000E+00  0.29135230372E+03  0.29135507166E+03  0.12700000000E+01 0. -1.
          4   -1    0    0  501    0  0.00000000000E+00 -0.00000000000E+00 -0.13374856197E+02  0.13435016869E+02  0.12700000000E+01 0. -1.
         25    2    1    2    0    0  0.00000000000E+00  0.00000000000E+00  0.27797744752E+03  0.30479008853E+03  0.12500214692E+03 0.  0.
    9000005    1    3    3    0    0 -0.61335132109E+01 -0.45779892964E+02  0.24162739266E+03  0.24600450295E+03  0.10000000000E+01 0.  0.
    9000005    1    3    3    0    0  0.61335132109E+01  0.45779892964E+02  0.36350054855E+02  0.58785585581E+02  0.10000000000E+01 0.  0.
<mgrwt>
<rscale>  0 0.12500215E+03</rscale>
<asrwt>0</asrwt>
<pdfrwt beam="2">  1        4 0.20625110E-02 0.12500215E+03</pdfrwt>
<pdfrwt beam="1">  1       -4 0.44828269E-01 0.12500215E+03</pdfrwt>
<totfact> 0.74998308E+03</totfact>
</mgrwt>
</event>
<event>
 5    1  0.3312706E-002  0.1250021E+03  0.7818608E-02  0.1235066E+00
          4   -1    0    0  501    0  0.00000000000E+00  0.00000000000E+00  0.47498339669E+03  0.47498509454E+03  0.12700000000E+01 0. -1.
         -4   -1    0    0    0  501 -0.00000000000E+00 -0.00000000000E+00 -0.81735025316E+01  0.82715804798E+01  0.12700000000E+01 0. -1.
         25    2    1    2    0    0  0.00000000000E+00  0.00000000000E+00  0.46680989416E+03  0.48325667502E+03  0.12500214663E+03 0.  0.
    9000005    1    3    3    0    0 -0.17195940526E+02 -0.49947337017E+02  0.10431644411E+03  0.11693313199E+03  0.10000000000E+01 0.  0.
    9000005    1    3    3    0    0  0.17195940526E+02  0.49947337017E+02  0.36249345005E+03  0.36632354303E+03  0.10000000000E+01 0.  0.
<mgrwt>
<rscale>  0 0.12500215E+03</rscale>
<asrwt>0</asrwt>
<pdfrwt beam="1">  1        4 0.73082047E-01 0.12500215E+03</pdfrwt>
<pdfrwt beam="2">  1       -4 0.12651369E-02 0.12500215E+03</pdfrwt>
<totfact> 0.57184549E+03</totfact>
</mgrwt>
</event>
<event>
 5    1  0.3312706E-002  0.1250282E+03  0.7818608E-02  0.1235025E+00
          4   -1    0    0  501    0  0.00000000000E+00  0.00000000000E+00  0.11193647204E+02  0.11265462162E+02  0.12700000000E+01 0. -1.
         -4   -1    0    0    0  501 -0.00000000000E+00 -0.00000000000E+00 -0.34793866919E+03  0.34794098698E+03  0.12700000000E+01 0. -1.
         25    2    1    2    0    0  0.00000000000E+00  0.00000000000E+00 -0.33674502199E+03  0.35920644914E+03  0.12502824989E+03 0.  0.
    9000005    1    3    3    0    0  0.36274899931E+02  0.48235915030E+02 -0.21509250669E+03  0.22340178669E+03  0.10000000000E+01 0.  0.
    9000005    1    3    3    0    0 -0.36274899931E+02 -0.48235915030E+02 -0.12165251530E+03  0.13580466245E+03  0.10000000000E+01 0.  0.
<mgrwt>
<rscale>  0 0.12502825E+03</rscale>
<asrwt>0</asrwt>
<pdfrwt beam="1">  1        4 0.17278024E-02 0.12502825E+03</pdfrwt>
<pdfrwt beam="2">  1       -4 0.53534720E-01 0.12502825E+03</pdfrwt>
<totfact> 0.68680546E+03</totfact>
</mgrwt>
</event>
<event>
 5    1  0.3312706E-002  0.1249715E+03  0.7818608E-02  0.1235114E+00
         -4   -1    0    0    0  501 -0.00000000000E+00  0.00000000000E+00  0.73026709081E+02  0.73037751466E+02  0.12700000000E+01 0.  1.
          4   -1    0    0  501    0  0.00000000000E+00 -0.00000000000E+00 -0.53443663036E+02  0.53458750628E+02  0.12700000000E+01 0.  1.
         25    2    1    2    0    0  0.00000000000E+00  0.00000000000E+00  0.19583046045E+02  0.12649650209E+03  0.12497147414E+03 0.  0.
    9000005    1    3    3    0    0  0.47616339452E+02  0.33497711649E+01  0.50593859291E+02  0.69564900256E+02  0.10000000000E+01 0.  0.
    9000005    1    3    3    0    0 -0.47616339452E+02 -0.33497711649E+01 -0.31010813246E+02  0.56931601838E+02  0.10000000000E+01 0.  0.
<mgrwt>
<rscale>  0 0.12497147E+03</rscale>
<asrwt>0</asrwt>
<pdfrwt beam="2">  1        4 0.82241121E-02 0.12497147E+03</pdfrwt>
<pdfrwt beam="1">  1       -4 0.11236888E-01 0.12497147E+03</pdfrwt>
<totfact> 0.10426816E+04</totfact>
</mgrwt>
</event>
<event>
 5    1  0.3312706E-002  0.1249997E+03  0.7818608E-02  0.1235070E+00
          4   -1    0    0  501    0  0.00000000000E+00  0.00000000000E+00  0.68793308792E+02  0.68805030590E+02  0.12700000000E+01 0.  1.
         -4   -1    0    0    0  501 -0.00000000000E+00 -0.00000000000E+00 -0.56758521367E+02  0.56772728028E+02  0.12700000000E+01 0.  1.
         25    2    1    2    0    0  0.00000000000E+00  0.00000000000E+00  0.12034787425E+02  0.12557775862E+03  0.12499974940E+03 0.  0.
    9000005    1    3    3    0    0  0.60821082516E+02  0.62291779109E+01 -0.69740544850E+01  0.61543839430E+02  0.10000000000E+01 0.  0.
    9000005    1    3    3    0    0 -0.60821082516E+02 -0.62291779109E+01  0.19008841910E+02  0.64033919188E+02  0.10000000000E+01 0.  0.
<mgrwt>
<rscale>  0 0.12499975E+03</rscale>
<asrwt>0</asrwt>
<pdfrwt beam="1">  1        4 0.10585580E-01 0.12499975E+03</pdfrwt>
<pdfrwt beam="2">  1       -4 0.87340747E-02 0.12499975E+03</pdfrwt>
<totfact> 0.10440296E+04</totfact>
</mgrwt>
</event>
<event>
 5    1  0.3312706E-002  0.1250071E+03  0.7818608E-02  0.1235058E+00
         -4   -1    0    0    0  501 -0.00000000000E+00  0.00000000000E+00  0.10292769989E+04  0.10292777824E+04  0.12700000000E+01 0. -1.
          4   -1    0    0  501    0  0.00000000000E+00 -0.00000000000E+00 -0.36885251152E+01  0.39010405696E+01  0.12700000000E+01 0. -1.
         25    2    1    2    0    0  0.00000000000E+00  0.00000000000E+00  0.10255884738E+04  0.10331788230E+04  0.12500705058E+03 0.  0.
    9000005    1    3    3    0    0 -0.56700311335E+02 -0.21840570226E+01  0.72926614526E+03  0.73147098783E+03  0.10000000000E+01 0.  0.
    9000005    1    3    3    0    0  0.56700311335E+02  0.21840570226E+01  0.29632232854E+03  0.30170783516E+03  0.10000000000E+01 0.  0.
<mgrwt>
<rscale>  0 0.12500705E+03</rscale>
<asrwt>0</asrwt>
<pdfrwt beam="2">  1        4 0.58387355E-03 0.12500705E+03</pdfrwt>
<pdfrwt beam="1">  1       -4 0.15836657E+00 0.12500705E+03</pdfrwt>
<totfact> 0.29521346E+03</totfact>
</mgrwt>
</event>
<event>
 5    1  0.3312706E-002  0.1250012E+03  0.7818608E-02  0.1235067E+00
          4   -1    0    0  501    0  0.00000000000E+00  0.00000000000E+00  0.18743458200E+02  0.18786434608E+02  0.12700000000E+01 0. -1.
         -4   -1    0    0    0  501 -0.00000000000E+00 -0.00000000000E+00 -0.20812644669E+03  0.20813032146E+03  0.12700000000E+01 0. -1.
         25    2    1    2    0    0  0.00000000000E+00  0.00000000000E+00 -0.18938298849E+03  0.22691675607E+03  0.12500119142E+03 0.  0.
    9000005    1    3    3    0    0 -0.57736356330E+02 -0.17292544640E+02 -0.12467476400E+03  0.13848218558E+03  0.10000000000E+01 0.  0.
    9000005    1    3    3    0    0  0.57736356330E+02  0.17292544640E+02 -0.64708224486E+02  0.88434570495E+02  0.10000000000E+01 0.  0.
<mgrwt>
<rscale>  0 0.12500119E+03</rscale>
<asrwt>0</asrwt>
<pdfrwt beam="1">  1        4 0.28872130E-02 0.12500119E+03</pdfrwt>
<pdfrwt beam="2">  1       -4 0.32023056E-01 0.12500119E+03</pdfrwt>
<totfact> 0.85783011E+03</totfact>
</mgrwt>
</event>
<event>
 5    1  0.3312706E-002  0.1250009E+03  0.7818608E-02  0.1235068E+00
         -4   -1    0    0    0  501 -0.00000000000E+00  0.00000000000E+00  0.11415803235E+04  0.11415810299E+04  0.12700000000E+01 0. -1.
          4   -1    0    0  501    0  0.00000000000E+00 -0.00000000000E+00 -0.33032712862E+01  0.35389972012E+01  0.12700000000E+01 0. -1.
         25    2    1    2    0    0  0.00000000000E+00  0.00000000000E+00  0.11382770522E+04  0.11451200271E+04  0.12500091578E+03 0.  0.
    9000005    1    3    3    0    0  0.40982920751E+02 -0.42698492625E+02  0.75293859307E+03  0.75526173344E+03  0.10000000000E+01 0.  0.
    9000005    1    3    3    0    0 -0.40982920751E+02  0.42698492625E+02  0.38533845912E+03  0.38985829367E+03  0.10000000000E+01 0.  0.
<mgrwt>
<rscale>  0 0.12500092E+03</rscale>
<asrwt>0</asrwt>
<pdfrwt beam="2">  1        4 0.52638238E-03 0.12500092E+03</pdfrwt>
<pdfrwt beam="1">  1       -4 0.17564603E+00 0.12500092E+03</pdfrwt>
<totfact> 0.26195480E+03</totfact>
</mgrwt>
</event>
<event>
 5    1  0.3312706E-002  0.1250025E+03  0.7818608E-02  0.1235065E+00
         -4   -1    0    0    0  501 -0.00000000000E+00  0.00000000000E+00  0.21790661878E+02  0.21827639475E+02  0.12700000000E+01 0.  1.
          4   -1    0    0  501    0  0.00000000000E+00 -0.00000000000E+00 -0.17907856249E+03  0.17908306576E+03  0.12700000000E+01 0.  1.
         25    2    1    2    0    0  0.00000000000E+00  0.00000000000E+00 -0.15728790061E+03  0.20091070524E+03  0.12500251118E+03 0.  0.
    9000005    1    3    3    0    0 -0.96989292203E+01  0.25263122468E+02  0.11893251168E+02  0.29576071547E+02  0.10000000000E+01 0.  0.
    9000005    1    3    3    0    0  0.96989292203E+01 -0.25263122468E+02 -0.16918115178E+03  0.17133463369E+03  0.10000000000E+01 0.  0.
<mgrwt>
<rscale>  0 0.12500251E+03</rscale>
<asrwt>0</asrwt>
<pdfrwt beam="2">  1        4 0.27553738E-01 0.12500251E+03</pdfrwt>
<pdfrwt beam="1">  1       -4 0.33556005E-02 0.12500251E+03</pdfrwt>
<totfact> 0.89977080E+03</totfact>
</mgrwt>
</event>
<event>
 5    1  0.3312706E-002  0.1249979E+03  0.7818608E-02  0.1235073E+00
         -4   -1    0    0    0  501 -0.00000000000E+00  0.00000000000E+00  0.12843625600E+03  0.12844253484E+03  0.12700000000E+01 0.  1.
          4   -1    0    0  501    0  0.00000000000E+00 -0.00000000000E+00 -0.30392625426E+02  0.30419148250E+02  0.12700000000E+01 0.  1.
         25    2    1    2    0    0  0.00000000000E+00  0.00000000000E+00  0.98043630578E+02  0.15886168309E+03  0.12499792341E+03 0.  0.
    9000005    1    3    3    0    0 -0.46265031384E+01  0.61252018455E+02  0.63618307578E+02  0.88439263651E+02  0.10000000000E+01 0.  0.
    9000005    1    3    3    0    0  0.46265031384E+01 -0.61252018455E+02  0.34425323000E+02  0.70422419440E+02  0.10000000000E+01 0.  0.
<mgrwt>
<rscale>  0 0.12499792E+03</rscale>
<asrwt>0</asrwt>
<pdfrwt beam="2">  1        4 0.46783117E-02 0.12499792E+03</pdfrwt>
<pdfrwt beam="1">  1       -4 0.19761947E-01 0.12499792E+03</pdfrwt>
<totfact> 0.97567247E+03</totfact>
</mgrwt>
</event>
<event>
 5    1  0.3312706E-002  0.1249924E+03  0.7818608E-02  0.1235081E+00
         -4   -1    0    0    0  501 -0.00000000000E+00  0.00000000000E+00  0.98117096100E+01  0.98935608085E+01  0.12700000000E+01 0.  1.
          4   -1    0    0  501    0  0.00000000000E+00 -0.00000000000E+00 -0.39633675429E+03  0.39633878904E+03  0.12700000000E+01 0.  1.
         25    2    1    2    0    0  0.00000000000E+00  0.00000000000E+00 -0.38652504468E+03  0.40623234985E+03  0.12499244738E+03 0.  0.
    9000005    1    3    3    0    0 -0.35217851305E+02  0.19407550305E+02 -0.34871670466E+03  0.35102890218E+03  0.10000000000E+01 0.  0.
    9000005    1    3    3    0    0  0.35217851305E+02 -0.19407550305E+02 -0.37808340017E+02  0.55203447666E+02  0.10000000000E+01 0.  0.
<mgrwt>
<rscale>  0 0.12499245E+03</rscale>
<asrwt>0</asrwt>
<pdfrwt beam="2">  1        4 0.60981326E-01 0.12499245E+03</pdfrwt>
<pdfrwt beam="1">  1       -4 0.15159469E-02 0.12499245E+03</pdfrwt>
<totfact> 0.63961786E+03</totfact>
</mgrwt>
</event>
<event>
 5    1  0.3312706E-002  0.1250014E+03  0.7818608E-02  0.1235067E+00
         -4   -1    0    0    0  501 -0.00000000000E+00  0.00000000000E+00  0.12578545370E+02  0.12642495941E+02  0.12700000000E+01 0.  1.
          4   -1    0    0  501    0  0.00000000000E+00 -0.00000000000E+00 -0.30970272624E+03  0.30970533017E+03  0.12700000000E+01 0.  1.
         25    2    1    2    0    0  0.00000000000E+00  0.00000000000E+00 -0.29712418087E+03  0.32234782612E+03  0.12500136857E+03 0.  0.
    9000005    1    3    3    0    0  0.15388527263E+02 -0.52212319152E+02 -0.69398006394E+02  0.88204400876E+02  0.10000000000E+01 0.  0.
    9000005    1    3    3    0    0 -0.15388527263E+02  0.52212319152E+02 -0.22772617447E+03  0.23414342524E+03  0.10000000000E+01 0.  0.
<mgrwt>
<rscale>  0 0.12500137E+03</rscale>
<asrwt>0</asrwt>
<pdfrwt beam="2">  1        4 0.47651687E-01 0.12500137E+03</pdfrwt>
<pdfrwt beam="1">  1       -4 0.19402806E-02 0.12500137E+03</pdfrwt>
<totfact> 0.72875542E+03</totfact>
</mgrwt>
</event>
<event>
 5    1  0.3312706E-002  0.1250036E+03  0.7818608E-02  0.1235064E+00
         -4   -1    0    0    0  501 -0.00000000000E+00  0.00000000000E+00  0.23440527374E+03  0.23440871412E+03  0.12700000000E+01 0. -1.
          4   -1    0    0  501    0  0.00000000000E+00 -0.00000000000E+00 -0.16637698945E+02  0.16686099790E+02  0.12700000000E+01 0. -1.
         25    2    1    2    0    0  0.00000000000E+00  0.00000000000E+00  0.21776757479E+03  0.25109481391E+03  0.12500355572E+03 0.  0.
    9000005    1    3    3    0    0 -0.12490529609E+01 -0.21031205334E+02 -0.92988966471E+01  0.23050839680E+02  0.10000000000E+01 0.  0.
    9000005    1    3    3    0    0  0.12490529609E+01  0.21031205334E+02  0.22706647144E+03  0.22804397423E+03  0.10000000000E+01 0.  0.
<mgrwt>
<rscale>  0 0.12500356E+03</rscale>
<asrwt>0</asrwt>
<pdfrwt beam="2">  1        4 0.25636336E-02 0.12500356E+03</pdfrwt>
<pdfrwt beam="1">  1       -4 0.36066339E-01 0.12500356E+03</pdfrwt>
<totfact> 0.82165740E+03</totfact>
</mgrwt>
</event>
<event>
 5    1  0.3312706E-002  0.1249994E+03  0.7818608E-02  0.1235070E+00
         -4   -1    0    0    0  501 -0.00000000000E+00  0.00000000000E+00  0.12593863181E+03  0.12594503516E+03  0.12700000000E+01 0.  1.
          4   -1    0    0  501    0  0.00000000000E+00 -0.00000000000E+00 -0.30996604411E+02  0.31022610867E+02  0.12700000000E+01 0.  1.
         25    2    1    2    0    0  0.00000000000E+00  0.00000000000E+00  0.94942027401E+02  0.15696764603E+03  0.12499941333E+03 0.  0.
    9000005    1    3    3    0    0 -0.22990742319E+02  0.57782159322E+02  0.39744222826E+02  0.73810266334E+02  0.10000000000E+01 0.  0.
    9000005    1    3    3    0    0  0.22990742319E+02 -0.57782159322E+02  0.55197804575E+02  0.83157379697E+02  0.10000000000E+01 0.  0.
<mgrwt>
<rscale>  0 0.12499941E+03</rscale>
<asrwt>0</asrwt>
<pdfrwt beam="2">  1        4 0.47712015E-02 0.12499941E+03</pdfrwt>
<pdfrwt beam="1">  1       -4 0.19377667E-01 0.12499941E+03</pdfrwt>
<totfact> 0.97931896E+03</totfact>
</mgrwt>
</event>
<event>
 5    1  0.3312706E-002  0.1250038E+03  0.7818608E-02  0.1235063E+00
         -4   -1    0    0    0  501 -0.00000000000E+00  0.00000000000E+00  0.65042981440E+01  0.66271256473E+01  0.12700000000E+01 0. -1.
          4   -1    0    0  501    0  0.00000000000E+00 -0.00000000000E+00 -0.59486000345E+03  0.59486135914E+03  0.12700000000E+01 0. -1.
         25    2    1    2    0    0  0.00000000000E+00  0.00000000000E+00 -0.58835570531E+03  0.60148848479E+03  0.12500384543E+03 0.  0.
    9000005    1    3    3    0    0 -0.48294715266E+01  0.61694433739E+02 -0.25224000643E+03  0.25972205874E+03  0.10000000000E+01 0.  0.
    9000005    1    3    3    0    0  0.48294715266E+01 -0.61694433739E+02 -0.33611569887E+03  0.34176642605E+03  0.10000000000E+01 0.  0.
<mgrwt>
<rscale>  0 0.12500385E+03</rscale>
<asrwt>0</asrwt>
<pdfrwt beam="2">  1        4 0.91526433E-01 0.12500385E+03</pdfrwt>
<pdfrwt beam="1">  1       -4 0.10102143E-02 0.12500385E+03</pdfrwt>
<totfact> 0.48769692E+03</totfact>
</mgrwt>
</event>
<event>
 5    1  0.3312706E-002  0.1249969E+03  0.7818608E-02  0.1235074E+00
          4   -1    0    0  501    0  0.00000000000E+00  0.00000000000E+00  0.79656669575E+01  0.80662723781E+01  0.12700000000E+01 0. -1.
         -4   -1    0    0    0  501 -0.00000000000E+00 -0.00000000000E+00 -0.48718307202E+03  0.48718472735E+03  0.12700000000E+01 0. -1.
         25    2    1    2    0    0  0.00000000000E+00  0.00000000000E+00 -0.47921740507E+03  0.49525099973E+03  0.12499692563E+03 0.  0.
    9000005    1    3    3    0    0  0.52176825145E+02 -0.23573697014E+02 -0.14040422960E+03  0.15163274040E+03  0.10000000000E+01 0.  0.
    9000005    1    3    3    0    0 -0.52176825145E+02  0.23573697014E+02 -0.33881317547E+03  0.34361825933E+03  0.10000000000E+01 0.  0.
<mgrwt>
<rscale>  0 0.12499693E+03</rscale>
<asrwt>0</asrwt>
<pdfrwt beam="1">  1        4 0.12333538E-02 0.12499693E+03</pdfrwt>
<pdfrwt beam="2">  1       -4 0.74959085E-01 0.12499693E+03</pdfrwt>
<totfact> 0.56238534E+03</totfact>
</mgrwt>
</event>
<event>
 4    1  0.3312706E-002  0.1235763E+03  0.7818608E-02  0.1237311E+00
          4   -1    0    0  501    0  0.00000000000E+00  0.00000000000E+00  0.68511157623E+02  0.68522927688E+02  0.12700000000E+01 0. -1.
         -4   -1    0    0    0  501 -0.00000000000E+00 -0.00000000000E+00 -0.55701098905E+02  0.55715575194E+02  0.12700000000E+01 0. -1.
    9000005    1    1    2    0    0  0.10807914817E+02  0.19913636915E+02 -0.51378275144E+02  0.56161295522E+02  0.10000000000E+01 0.  0.
    9000005    1    1    2    0    0 -0.10807914817E+02 -0.19913636915E+02  0.64188333863E+02  0.68077207360E+02  0.10000000000E+01 0.  0.
<mgrwt>
<rscale>  0 0.12357632E+03</rscale>
<asrwt>0</asrwt>
<pdfrwt beam="1">  1        4 0.10542197E-01 0.12357632E+03</pdfrwt>
<pdfrwt beam="2">  1       -4 0.85714188E-02 0.12357632E+03</pdfrwt>
<totfact> 0.10813373E+04</totfact>
</mgrwt>
</event>
<event>
 5    1  0.3312706E-002  0.1250007E+03  0.7818608E-02  0.1235068E+00
         -4   -1    0    0    0  501 -0.00000000000E+00  0.00000000000E+00  0.12124838058E+03  0.12125503162E+03  0.12700000000E+01 0. -1.
          4   -1    0    0  501    0  0.00000000000E+00 -0.00000000000E+00 -0.32197241515E+02  0.32222278957E+02  0.12700000000E+01 0. -1.
         25    2    1    2    0    0  0.00000000000E+00  0.00000000000E+00  0.89051139064E+02  0.15347731058E+03  0.12500071797E+03 0.  0.
    9000005    1    3    3    0    0  0.61738626870E+02  0.77817163958E+01  0.51587536537E+02  0.80836174352E+02  0.10000000000E+01 0.  0.
    9000005    1    3    3    0    0 -0.61738626870E+02 -0.77817163958E+01  0.37463602527E+02  0.72641136225E+02  0.10000000000E+01 0.  0.
<mgrwt>
<rscale>  0 0.12500072E+03</rscale>
<asrwt>0</asrwt>
<pdfrwt beam="2">  1        4 0.49558595E-02 0.12500072E+03</pdfrwt>
<pdfrwt beam="1">  1       -4 0.18656034E-01 0.12500072E+03</pdfrwt>
<totfact> 0.98613417E+03</totfact>
</mgrwt>
</event>
<event>
 5    1  0.3312706E-002  0.1250022E+03  0.7818608E-02  0.1235066E+00
         -4   -1    0    0    0  501 -0.00000000000E+00  0.00000000000E+00  0.33158698726E+02  0.33183010731E+02  0.12700000000E+01 0.  1.
          4   -1    0    0  501    0  0.00000000000E+00 -0.00000000000E+00 -0.11773787472E+03  0.11774472406E+03  0.12700000000E+01 0.  1.
         25    2    1    2    0    0  0.00000000000E+00  0.00000000000E+00 -0.84579175998E+02  0.15092773479E+03  0.12500217645E+03 0.  0.
    9000005    1    3    3    0    0 -0.55121119413E+02  0.29114077098E+02 -0.36968971106E+02  0.72482219304E+02  0.10000000000E+01 0.  0.
    9000005    1    3    3    0    0  0.55121119413E+02 -0.29114077098E+02 -0.47610204892E+02  0.78445515490E+02  0.10000000000E+01 0.  0.
<mgrwt>
<rscale>  0 0.12500218E+03</rscale>
<asrwt>0</asrwt>
<pdfrwt beam="2">  1        4 0.18115916E-01 0.12500218E+03</pdfrwt>
<pdfrwt beam="1">  1       -4 0.51037353E-02 0.12500218E+03</pdfrwt>
<totfact> 0.99114234E+03</totfact>
</mgrwt>
</event>
<event>
 5    1  0.3312706E-002  0.1249964E+03  0.7818608E-02  0.1235075E+00
          4   -1    0    0  501    0  0.00000000000E+00  0.00000000000E+00  0.55271838113E+01  0.56712133520E+01  0.12700000000E+01 0.  1.
         -4   -1    0    0    0  501 -0.00000000000E+00 -0.00000000000E+00 -0.69746012498E+03  0.69746128125E+03  0.12700000000E+01 0.  1.
         25    2    1    2    0    0  0.00000000000E+00  0.00000000000E+00 -0.69193294117E+03  0.70313249460E+03  0.12499643949E+03 0.  0.
    9000005    1    3    3    0    0 -0.51244386736E+02 -0.29827562975E+02 -0.23496891854E+03  0.24233667358E+03  0.10000000000E+01 0.  0.
    9000005    1    3    3    0    0  0.51244386736E+02  0.29827562975E+02 -0.45696402263E+03  0.46079582102E+03  0.10000000000E+01 0.  0.
<mgrwt>
<rscale>  0 0.12499644E+03</rscale>
<asrwt>0</asrwt>
<pdfrwt beam="1">  1        4 0.86150466E-03 0.12499644E+03</pdfrwt>
<pdfrwt beam="2">  1       -4 0.10731266E+00 0.12499644E+03</pdfrwt>
<totfact> 0.42925214E+03</totfact>
</mgrwt>
</event>
<event>
 5    1  0.3312706E-002  0.1250011E+03  0.7818608E-02  0.1235068E+00
          4   -1    0    0  501    0  0.00000000000E+00  0.00000000000E+00  0.28418856473E+03  0.28419140245E+03  0.12700000000E+01 0.  1.
         -4   -1    0    0    0  501 -0.00000000000E+00 -0.00000000000E+00 -0.13713272019E+02  0.13771954454E+02  0.12700000000E+01 0.  1.
         25    2    1    2    0    0  0.00000000000E+00  0.00000000000E+00  0.27047529271E+03  0.29796335690E+03  0.12500111234E+03 0.  0.
    9000005    1    3    3    0    0 -0.31841163405E+02 -0.50362852559E+02  0.18015243985E+03  0.18975293987E+03  0.10000000000E+01 0.  0.
    9000005    1    3    3    0    0  0.31841163405E+02  0.50362852559E+02  0.90322852861E+02  0.10821041703E+03  0.10000000000E+01 0.  0.
<mgrwt>
<rscale>  0 0.12500111E+03</rscale>
<asrwt>0</asrwt>
<pdfrwt beam="1">  1        4 0.43726052E-01 0.12500111E+03</pdfrwt>
<pdfrwt beam="2">  1       -4 0.21144664E-02 0.12500111E+03</pdfrwt>
<totfact> 0.75853147E+03</totfact>
</mgrwt>
</event>
<event>
 5    1  0.3312706E-002  0.1249998E+03  0.7818608E-02  0.1235070E+00
          4   -1    0    0  501    0  0.00000000000E+00  0.00000000000E+00  0.11166288948E+03  0.11167011143E+03  0.12700000000E+01 0. -1.
         -4   -1    0    0    0  501 -0.00000000000E+00 -0.00000000000E+00 -0.34962535671E+02  0.34985594186E+02  0.12700000000E+01 0. -1.
         25    2    1    2    0    0  0.00000000000E+00  0.00000000000E+00  0.76700353812E+02  0.14665570562E+03  0.12499980686E+03 0.  0.
    9000005    1    3    3    0    0 -0.92553785736E+01  0.40056767065E+02  0.93568035017E+02  0.10220657414E+03  0.10000000000E+01 0.  0.
    9000005    1    3    3    0    0  0.92553785736E+01 -0.40056767065E+02 -0.16867681205E+02  0.44449131481E+02  0.10000000000E+01 0.  0.
<mgrwt>
<rscale>  0 0.12499981E+03</rscale>
<asrwt>0</asrwt>
<pdfrwt beam="1">  1        4 0.17181236E-01 0.12499981E+03</pdfrwt>
<pdfrwt beam="2">  1       -4 0.53811808E-02 0.12499981E+03</pdfrwt>
<totfact> 0.99974995E+03</totfact>
</mgrwt>
</event>
<event>
 5    1  0.3312706E-002  0.1249981E+03  0.7818608E-02  0.1235072E+00
          4   -1    0    0  501    0  0.00000000000E+00  0.00000000000E+00  0.16384159092E+02  0.16433306702E+02  0.12700000000E+01 0. -1.
         -4   -1    0    0    0  501 -0.00000000000E+00 -0.00000000000E+00 -0.23800120204E+03  0.23800459044E+03  0.12700000000E+01 0. -1.
         25    2    1    2    0    0  0.00000000000E+00  0.00000000000E+00 -0.22161704294E+03  0.25443789714E+03  0.12499811910E+03 0.  0.
    9000005    1    3    3    0    0 -0.57370456316E+01 -0.85145880360E+01 -0.23628263843E+03  0.23650771050E+03  0.10000000000E+01 0.  0.
    9000005    1    3    3    0    0  0.57370456316E+01  0.85145880360E+01  0.14665595487E+02  0.17930186641E+02  0.10000000000E+01 0.  0.
<mgrwt>
<rscale>  0 0.12499812E+03</rscale>
<asrwt>0</asrwt>
<pdfrwt beam="1">  1        4 0.25246813E-02 0.12499812E+03</pdfrwt>
<pdfrwt beam="2">  1       -4 0.36619608E-01 0.12499812E+03</pdfrwt>
<totfact> 0.81696438E+03</totfact>
</mgrwt>
</event>
<event>
 5    1  0.3312706E-002  0.1250040E+03  0.7818608E-02  0.1235063E+00
          4   -1    0    0  501    0  0.00000000000E+00  0.00000000000E+00  0.39565865692E+02  0.39586242913E+02  0.12700000000E+01 0.  1.
         -4   -1    0    0    0  501 -0.00000000000E+00 -0.00000000000E+00 -0.98684234040E+02  0.98692405726E+02  0.12700000000E+01 0.  1.
         25    2    1    2    0    0  0.00000000000E+00  0.00000000000E+00 -0.59118368347E+02  0.13827864864E+03  0.12500401271E+03 0.  0.
    9000005    1    3    3    0    0 -0.55751911296E+02  0.16675395559E+02 -0.54763810612E+02  0.79915076068E+02  0.10000000000E+01 0.  0.
    9000005    1    3    3    0    0  0.55751911296E+02 -0.16675395559E+02 -0.43545577357E+01  0.58363572571E+02  0.10000000000E+01 0.  0.
<mgrwt>
<rscale>  0 0.12500401E+03</rscale>
<asrwt>0</asrwt>
<pdfrwt beam="1">  1        4 0.60892524E-02 0.12500401E+03</pdfrwt>
<pdfrwt beam="2">  1       -4 0.15184386E-01 0.12500401E+03</pdfrwt>
<totfact> 0.10168467E+04</totfact>
</mgrwt>
</event>
<event>
 5    1  0.3312706E-002  0.1250010E+03  0.7818608E-02  0.1235068E+00
         -4   -1    0    0    0  501 -0.00000000000E+00  0.00000000000E+00  0.89259923422E+02  0.89268957814E+02  0.12700000000E+01 0. -1.
          4   -1    0    0  501    0  0.00000000000E+00 -0.00000000000E+00 -0.43742848278E+02  0.43761280551E+02  0.12700000000E+01 0. -1.
         25    2    1    2    0    0  0.00000000000E+00  0.00000000000E+00  0.45517075144E+02  0.13303023836E+03  0.12500096076E+03 0.  0.
    9000005    1    3    3    0    0 -0.22165034237E+02  0.56372517844E+02  0.39113166010E+02  0.72110951083E+02  0.10000000000E+01 0.  0.
    9000005    1    3    3    0    0  0.22165034237E+02 -0.56372517844E+02  0.64039091345E+01  0.60919287282E+02  0.10000000000E+01 0.  0.
<mgrwt>
<rscale>  0 0.12500096E+03</rscale>
<asrwt>0</asrwt>
<pdfrwt beam="2">  1        4 0.67317818E-02 0.12500096E+03</pdfrwt>
<pdfrwt beam="1">  1       -4 0.13734409E-01 0.12500096E+03</pdfrwt>
<totfact> 0.10279535E+04</totfact>
</mgrwt>
</event>
<event>
 5    1  0.3312706E-002  0.1249989E+03  0.7818608E-02  0.1235071E+00
         -4   -1    0    0    0  501 -0.00000000000E+00  0.00000000000E+00  0.22682762109E+02  0.22718287719E+02  0.12700000000E+01 0.  1.
          4   -1    0    0  501    0  0.00000000000E+00 -0.00000000000E+00 -0.17203662417E+03  0.17204131177E+03  0.12700000000E+01 0.  1.
         25    2    1    2    0    0  0.00000000000E+00  0.00000000000E+00 -0.14935386206E+03  0.19475959949E+03  0.12499890192E+03 0.  0.
    9000005    1    3    3    0    0 -0.42380991280E+02 -0.32890184815E+02 -0.24738522147E+02  0.59083899305E+02  0.10000000000E+01 0.  0.
    9000005    1    3    3    0    0  0.42380991280E+02  0.32890184815E+02 -0.12461533992E+03  0.13567570019E+03  0.10000000000E+01 0.  0.
<mgrwt>
<rscale>  0 0.12499890E+03</rscale>
<asrwt>0</asrwt>
<pdfrwt beam="2">  1        4 0.26470265E-01 0.12499890E+03</pdfrwt>
<pdfrwt beam="1">  1       -4 0.34927491E-02 0.12499890E+03</pdfrwt>
<totfact> 0.91027930E+03</totfact>
</mgrwt>
</event>
<event>
 5    1  0.3312706E-002  0.1250000E+03  0.7818608E-02  0.1235069E+00
          4   -1    0    0  501    0  0.00000000000E+00  0.00000000000E+00  0.10112656675E+03  0.10113454109E+03  0.12700000000E+01 0. -1.
         -4   -1    0    0    0  501 -0.00000000000E+00 -0.00000000000E+00 -0.38607381160E+02  0.38628264005E+02  0.12700000000E+01 0. -1.
         25    2    1    2    0    0  0.00000000000E+00  0.00000000000E+00  0.62519185585E+02  0.13976280510E+03  0.12499997249E+03 0.  0.
    9000005    1    3    3    0    0  0.40725781730E+02  0.27628136759E+02 -0.11803258621E+02  0.50618377615E+02  0.10000000000E+01 0.  0.
    9000005    1    3    3    0    0 -0.40725781730E+02 -0.27628136759E+02  0.74322444207E+02  0.89144427482E+02  0.10000000000E+01 0.  0.
<mgrwt>
<rscale>  0 0.12499997E+03</rscale>
<asrwt>0</asrwt>
<pdfrwt beam="1">  1        4 0.15560153E-01 0.12499997E+03</pdfrwt>
<pdfrwt beam="2">  1       -4 0.59418170E-02 0.12499997E+03</pdfrwt>
<totfact> 0.10138510E+04</totfact>
</mgrwt>
</event>
<event>
 5    1  0.3312706E-002  0.1249990E+03  0.7818608E-02  0.1235071E+00
          4   -1    0    0  501    0  0.00000000000E+00  0.00000000000E+00  0.77716040737E+02  0.77726416924E+02  0.12700000000E+01 0. -1.
         -4   -1    0    0    0  501 -0.00000000000E+00 -0.00000000000E+00 -0.50240566657E+02  0.50256615863E+02  0.12700000000E+01 0. -1.
         25    2    1    2    0    0  0.00000000000E+00  0.00000000000E+00  0.27475474079E+02  0.12798303279E+03  0.12499902002E+03 0.  0.
    9000005    1    3    3    0    0  0.72980939023E+01 -0.46374091344E+02 -0.28494608631E+02  0.54925051148E+02  0.10000000000E+01 0.  0.
    9000005    1    3    3    0    0 -0.72980939023E+01  0.46374091344E+02  0.55970082711E+02  0.73057981639E+02  0.10000000000E+01 0.  0.
<mgrwt>
<rscale>  0 0.12499902E+03</rscale>
<asrwt>0</asrwt>
<pdfrwt beam="1">  1        4 0.11958347E-01 0.12499902E+03</pdfrwt>
<pdfrwt beam="2">  1       -4 0.77313507E-02 0.12499902E+03</pdfrwt>
<totfact> 0.10388084E+04</totfact>
</mgrwt>
</event>
<event>
 5    1  0.3312706E-002  0.1249995E+03  0.7818608E-02  0.1235070E+00
         -4   -1    0    0    0  501 -0.00000000000E+00  0.00000000000E+00  0.14021735319E+03  0.14022310450E+03  0.12700000000E+01 0.  1.
          4   -1    0    0  501    0  0.00000000000E+00 -0.00000000000E+00 -0.27837527563E+02  0.27866482391E+02  0.12700000000E+01 0.  1.
         25    2    1    2    0    0  0.00000000000E+00  0.00000000000E+00  0.11237982563E+03  0.16808958690E+03  0.12499953605E+03 0.  0.
    9000005    1    3    3    0    0 -0.16638674391E+02  0.28419698133E+02 -0.15228562000E+02  0.36296471289E+02  0.10000000000E+01 0.  0.
    9000005    1    3    3    0    0  0.16638674391E+02 -0.28419698133E+02  0.12760838763E+03  0.13179311561E+03  0.10000000000E+01 0.  0.
<mgrwt>
<rscale>  0 0.12499954E+03</rscale>
<asrwt>0</asrwt>
<pdfrwt beam="2">  1        4 0.42853663E-02 0.12499954E+03</pdfrwt>
<pdfrwt beam="1">  1       -4 0.21574570E-01 0.12499954E+03</pdfrwt>
<totfact> 0.95806450E+03</totfact>
</mgrwt>
</event>
<event>
 5    1  0.3312706E-002  0.1249938E+03  0.7818608E-02  0.1235079E+00
          4   -1    0    0  501    0  0.00000000000E+00  0.00000000000E+00  0.54550372106E+02  0.54565153687E+02  0.12700000000E+01 0.  1.
         -4   -1    0    0    0  501 -0.00000000000E+00 -0.00000000000E+00 -0.71570865135E+02  0.71582132101E+02  0.12700000000E+01 0.  1.
         25    2    1    2    0    0  0.00000000000E+00  0.00000000000E+00 -0.17020493029E+02  0.12614728579E+03  0.12499376196E+03 0.  0.
    9000005    1    3    3    0    0 -0.38476628436E+02  0.34197964178E+02  0.27241362470E+02  0.58249837073E+02  0.10000000000E+01 0.  0.
    9000005    1    3    3    0    0  0.38476628436E+02 -0.34197964178E+02 -0.44261855500E+02  0.67897448715E+02  0.10000000000E+01 0.  0.
<mgrwt>
<rscale>  0 0.12499376E+03</rscale>
<asrwt>0</asrwt>
<pdfrwt beam="1">  1        4 0.83943687E-02 0.12499376E+03</pdfrwt>
<pdfrwt beam="2">  1       -4 0.11012906E-01 0.12499376E+03</pdfrwt>
<totfact> 0.10429200E+04</totfact>
</mgrwt>
</event>
<event>
 5    1  0.3312706E-002  0.1250012E+03  0.7818608E-02  0.1235067E+00
         -4   -1    0    0    0  501 -0.00000000000E+00  0.00000000000E+00  0.11485746870E+03  0.11486448979E+03  0.12700000000E+01 0. -1.
          4   -1    0    0  501    0  0.00000000000E+00 -0.00000000000E+00 -0.33990297742E+02  0.34014015356E+02  0.12700000000E+01 0. -1.
         25    2    1    2    0    0  0.00000000000E+00  0.00000000000E+00  0.80867170953E+02  0.14887850515E+03  0.12500123982E+03 0.  0.
    9000005    1    3    3    0    0 -0.43742042910E+02  0.15385925801E+02  0.90331827722E+02  0.10154276011E+03  0.10000000000E+01 0.  0.
    9000005    1    3    3    0    0  0.43742042910E+02 -0.15385925801E+02 -0.94646567691E+01  0.47335745040E+02  0.10000000000E+01 0.  0.
<mgrwt>
<rscale>  0 0.12500124E+03</rscale>
<asrwt>0</asrwt>
<pdfrwt beam="2">  1        4 0.52316411E-02 0.12500124E+03</pdfrwt>
<pdfrwt beam="1">  1       -4 0.17672744E-01 0.12500124E+03</pdfrwt>
<totfact> 0.99524944E+03</totfact>
</mgrwt>
</event>
<event>
 5    1  0.3312706E-002  0.1250050E+03  0.7818608E-02  0.1235061E+00
         -4   -1    0    0    0  501 -0.00000000000E+00  0.00000000000E+00  0.26635162675E+03  0.26635465449E+03  0.12700000000E+01 0.  1.
          4   -1    0    0  501    0  0.00000000000E+00 -0.00000000000E+00 -0.14636325506E+02  0.14691321394E+02  0.12700000000E+01 0.  1.
         25    2    1    2    0    0  0.00000000000E+00  0.00000000000E+00  0.25171530124E+03  0.28104597589E+03  0.12500499064E+03 0.  0.
    9000005    1    3    3    0    0  0.34483010001E+02  0.51988919729E+02  0.11755539335E+03  0.13308717541E+03  0.10000000000E+01 0.  0.
    9000005    1    3    3    0    0 -0.34483010001E+02 -0.51988919729E+02  0.13415990789E+03  0.14795880048E+03  0.10000000000E+01 0.  0.
<mgrwt>
<rscale>  0 0.12500499E+03</rscale>
<asrwt>0</asrwt>
<pdfrwt beam="2">  1        4 0.22562061E-02 0.12500499E+03</pdfrwt>
<pdfrwt beam="1">  1       -4 0.40981630E-01 0.12500499E+03</pdfrwt>
<totfact> 0.78030969E+03</totfact>
</mgrwt>
</event>
<event>
 5    1  0.3312706E-002  0.1249989E+03  0.7818608E-02  0.1235071E+00
         -4   -1    0    0    0  501 -0.00000000000E+00  0.00000000000E+00  0.26193756356E+02  0.26224526155E+02  0.12700000000E+01 0.  1.
          4   -1    0    0  501    0  0.00000000000E+00 -0.00000000000E+00 -0.14900545621E+03  0.14901086833E+03  0.12700000000E+01 0.  1.
         25    2    1    2    0    0  0.00000000000E+00  0.00000000000E+00 -0.12281169985E+03  0.17523539448E+03  0.12499891943E+03 0.  0.
    9000005    1    3    3    0    0 -0.21946803636E+02  0.56660432955E+02 -0.81871389758E+02  0.10196073417E+03  0.10000000000E+01 0.  0.
    9000005    1    3    3    0    0  0.21946803636E+02 -0.56660432955E+02 -0.40940310092E+02  0.73274660306E+02  0.10000000000E+01 0.  0.
<mgrwt>
<rscale>  0 0.12499892E+03</rscale>
<asrwt>0</asrwt>
<pdfrwt beam="2">  1        4 0.22926699E-01 0.12499892E+03</pdfrwt>
<pdfrwt beam="1">  1       -4 0.40325920E-02 0.12499892E+03</pdfrwt>
<totfact> 0.94484037E+03</totfact>
</mgrwt>
</event>
<event>
 5    1  0.3312706E-002  0.1249962E+03  0.7818608E-02  0.1235075E+00
         -4   -1    0    0    0  501 -0.00000000000E+00  0.00000000000E+00  0.66804422842E+02  0.66816493557E+02  0.12700000000E+01 0.  1.
          4   -1    0    0  501    0  0.00000000000E+00 -0.00000000000E+00 -0.58445132697E+02  0.58458929480E+02  0.12700000000E+01 0.  1.
         25    2    1    2    0    0  0.00000000000E+00  0.00000000000E+00  0.83592901451E+01  0.12527542304E+03  0.12499621548E+03 0.  0.
    9000005    1    3    3    0    0  0.42918186923E+02  0.28632698923E+02  0.39517605535E+02  0.64995718041E+02  0.10000000000E+01 0.  0.
    9000005    1    3    3    0    0 -0.42918186923E+02 -0.28632698923E+02 -0.31158315390E+02  0.60279704996E+02  0.10000000000E+01 0.  0.
<mgrwt>
<rscale>  0 0.12499622E+03</rscale>
<asrwt>0</asrwt>
<pdfrwt beam="2">  1        4 0.89935487E-02 0.12499622E+03</pdfrwt>
<pdfrwt beam="1">  1       -4 0.10279593E-01 0.12499622E+03</pdfrwt>
<totfact> 0.10447777E+04</totfact>
</mgrwt>
</event>
<event>
 5    1  0.3312706E-002  0.1249657E+03  0.7818608E-02  0.1235123E+00
          4   -1    0    0  501    0  0.00000000000E+00  0.00000000000E+00  0.32980744846E+02  0.33005187935E+02  0.12700000000E+01 0.  1.
         -4   -1    0    0    0  501 -0.00000000000E+00 -0.00000000000E+00 -0.11830368351E+03  0.11831050009E+03  0.12700000000E+01 0.  1.
         25    2    1    2    0    0  0.00000000000E+00  0.00000000000E+00 -0.85322938666E+02  0.15131568803E+03  0.12496572963E+03 0.  0.
    9000005    1    3    3    0    0 -0.45717213346E+01  0.90902944478E+01  0.31976617501E+02  0.33571388948E+02  0.10000000000E+01 0.  0.
    9000005    1    3    3    0    0  0.45717213346E+01 -0.90902944478E+01 -0.11729955617E+03  0.11774429908E+03  0.10000000000E+01 0.  0.
<mgrwt>
<rscale>  0 0.12496573E+03</rscale>
<asrwt>0</asrwt>
<pdfrwt beam="1">  1        4 0.50763654E-02 0.12496573E+03</pdfrwt>
<pdfrwt beam="2">  1       -4 0.18202971E-01 0.12496573E+03</pdfrwt>
<totfact> 0.99118496E+03</totfact>
</mgrwt>
</event>
<event>
 5    1  0.3312706E-002  0.1250016E+03  0.7818608E-02  0.1235067E+00
          4   -1    0    0  501    0  0.00000000000E+00  0.00000000000E+00  0.42415915845E+03  0.42416105974E+03  0.12700000000E+01 0.  1.
         -4   -1    0    0    0  501 -0.00000000000E+00 -0.00000000000E+00 -0.91639227630E+01  0.92515069263E+01  0.12700000000E+01 0.  1.
         25    2    1    2    0    0  0.00000000000E+00  0.00000000000E+00  0.41499523569E+03  0.43341256667E+03  0.12500162918E+03 0.  0.
    9000005    1    3    3    0    0 -0.40626925533E+02 -0.47471770827E+02  0.21135192246E+03  0.22039680404E+03  0.10000000000E+01 0.  0.
    9000005    1    3    3    0    0  0.40626925533E+02  0.47471770827E+02  0.20364331323E+03  0.21301576262E+03  0.10000000000E+01 0.  0.
<mgrwt>
<rscale>  0 0.12500163E+03</rscale>
<asrwt>0</asrwt>
<pdfrwt beam="1">  1        4 0.65262123E-01 0.12500163E+03</pdfrwt>
<pdfrwt beam="2">  1       -4 0.14167181E-02 0.12500163E+03</pdfrwt>
<totfact> 0.61425678E+03</totfact>
</mgrwt>
</event>
<event>
 5    1  0.3312706E-002  0.1249893E+03  0.7818608E-02  0.1235086E+00
         -4   -1    0    0    0  501 -0.00000000000E+00  0.00000000000E+00  0.18058528039E+02  0.18103130528E+02  0.12700000000E+01 0. -1.
          4   -1    0    0  501    0  0.00000000000E+00 -0.00000000000E+00 -0.21596012472E+03  0.21596385894E+03  0.12700000000E+01 0. -1.
         25    2    1    2    0    0  0.00000000000E+00  0.00000000000E+00 -0.19790159668E+03  0.23406698947E+03  0.12498925390E+03 0.  0.
    9000005    1    3    3    0    0  0.53934841507E+02  0.10950655900E+01 -0.15800498521E+03  0.16696329431E+03  0.10000000000E+01 0.  0.
    9000005    1    3    3    0    0 -0.53934841507E+02 -0.10950655900E+01 -0.39896611478E+02  0.67103695163E+02  0.10000000000E+01 0.  0.
<mgrwt>
<rscale>  0 0.12498925E+03</rscale>
<asrwt>0</asrwt>
<pdfrwt beam="2">  1        4 0.33228351E-01 0.12498925E+03</pdfrwt>
<pdfrwt beam="1">  1       -4 0.27819534E-02 0.12498925E+03</pdfrwt>
<totfact> 0.84709297E+03</totfact>
</mgrwt>
</event>
<event>
 5    1  0.3312706E-002  0.1249986E+03  0.7818608E-02  0.1235071E+00
          4   -1    0    0  501    0  0.00000000000E+00  0.00000000000E+00  0.14325542166E+03  0.14326105101E+03  0.12700000000E+01 0.  1.
         -4   -1    0    0    0  501 -0.00000000000E+00 -0.00000000000E+00 -0.27246164216E+02  0.27275746818E+02  0.12700000000E+01 0.  1.
         25    2    1    2    0    0  0.00000000000E+00  0.00000000000E+00  0.11600925745E+03  0.17053679783E+03  0.12499860639E+03 0.  0.
    9000005    1    3    3    0    0  0.14520106787E+01 -0.61733847098E+02  0.71089679802E+02  0.94169627731E+02  0.10000000000E+01 0.  0.
    9000005    1    3    3    0    0 -0.14520106787E+01  0.61733847098E+02  0.44919577645E+02  0.76367170095E+02  0.10000000000E+01 0.  0.
<mgrwt>
<rscale>  0 0.12499861E+03</rscale>
<asrwt>0</asrwt>
<pdfrwt beam="1">  1        4 0.22042004E-01 0.12499861E+03</pdfrwt>
<pdfrwt beam="2">  1       -4 0.41944262E-02 0.12499861E+03</pdfrwt>
<totfact> 0.95351661E+03</totfact>
</mgrwt>
</event>
<event>
 5    1  0.3312706E-002  0.1250008E+03  0.7818608E-02  0.1235068E+00
         -4   -1    0    0    0  501 -0.00000000000E+00  0.00000000000E+00  0.55370078696E+02  0.55384641506E+02  0.12700000000E+01 0.  1.
          4   -1    0    0  501    0  0.00000000000E+00 -0.00000000000E+00 -0.70519406932E+02  0.70530841864E+02  0.12700000000E+01 0.  1.
         25    2    1    2    0    0  0.00000000000E+00  0.00000000000E+00 -0.15149328236E+02  0.12591548337E+03  0.12500082722E+03 0.  0.
    9000005    1    3    3    0    0  0.31488162137E+01  0.16040183406E+02  0.53183342494E+02  0.55647735318E+02  0.10000000000E+01 0.  0.
    9000005    1    3    3    0    0 -0.31488162137E+01 -0.16040183406E+02 -0.68332670730E+02  0.70267748052E+02  0.10000000000E+01 0.  0.
<mgrwt>
<rscale>  0 0.12500083E+03</rscale>
<asrwt>0</asrwt>
<pdfrwt beam="2">  1        4 0.10851139E-01 0.12500083E+03</pdfrwt>
<pdfrwt beam="1">  1       -4 0.85204735E-02 0.12500083E+03</pdfrwt>
<totfact> 0.10432615E+04</totfact>
</mgrwt>
</event>
<event>
 5    1  0.3312706E-002  0.1249993E+03  0.7818608E-02  0.1235070E+00
          4   -1    0    0  501    0  0.00000000000E+00  0.00000000000E+00  0.10690599435E+02  0.10765770585E+02  0.12700000000E+01 0. -1.
         -4   -1    0    0    0  501 -0.00000000000E+00 -0.00000000000E+00 -0.36403071608E+03  0.36403293141E+03  0.12700000000E+01 0. -1.
         25    2    1    2    0    0  0.00000000000E+00  0.00000000000E+00 -0.35334011664E+03  0.37479870199E+03  0.12499931594E+03 0.  0.
    9000005    1    3    3    0    0  0.26723439485E+02 -0.25637621600E+02 -0.25740371878E+02  0.45110936630E+02  0.10000000000E+01 0.  0.
    9000005    1    3    3    0    0 -0.26723439485E+02  0.25637621600E+02 -0.32759974476E+03  0.32968776536E+03  0.10000000000E+01 0.  0.
<mgrwt>
<rscale>  0 0.12499932E+03</rscale>
<asrwt>0</asrwt>
<pdfrwt beam="1">  1        4 0.16506607E-02 0.12499932E+03</pdfrwt>
<pdfrwt beam="2">  1       -4 0.56010669E-01 0.12499932E+03</pdfrwt>
<totfact> 0.67080892E+03</totfact>
</mgrwt>
</event>
<event>
 5    1  0.3312706E-002  0.1249987E+03  0.7818608E-02  0.1235071E+00
          4   -1    0    0  501    0  0.00000000000E+00  0.00000000000E+00  0.11672217660E+04  0.11672224569E+04  0.12700000000E+01 0.  1.
         -4   -1    0    0    0  501 -0.00000000000E+00 -0.00000000000E+00 -0.32253481679E+01  0.34663771872E+01  0.12700000000E+01 0.  1.
         25    2    1    2    0    0  0.00000000000E+00  0.00000000000E+00  0.11639964178E+04  0.11706888341E+04  0.12499874225E+03 0.  0.
    9000005    1    3    3    0    0  0.47987779762E+02  0.33608984955E+02  0.37835702299E+03  0.38286737615E+03  0.10000000000E+01 0.  0.
    9000005    1    3    3    0    0 -0.47987779762E+02 -0.33608984955E+02  0.78563939485E+03  0.78782145796E+03  0.10000000000E+01 0.  0.
<mgrwt>
<rscale>  0 0.12499874E+03</rscale>
<asrwt>0</asrwt>
<pdfrwt beam="1">  1        4 0.17959121E+00 0.12499874E+03</pdfrwt>
<pdfrwt beam="2">  1       -4 0.51480114E-03 0.12499874E+03</pdfrwt>
<totfact> 0.25493808E+03</totfact>
</mgrwt>
</event>
<event>
 5    1  0.3312706E-002  0.1250008E+03  0.7818608E-02  0.1235068E+00
          4   -1    0    0  501    0  0.00000000000E+00  0.00000000000E+00  0.86013444448E+01  0.86945975329E+01  0.12700000000E+01 0.  1.
         -4   -1    0    0    0  501 -0.00000000000E+00 -0.00000000000E+00 -0.45160695016E+03  0.45160873589E+03  0.12700000000E+01 0.  1.
         25    2    1    2    0    0  0.00000000000E+00  0.00000000000E+00 -0.44300560571E+03  0.46030333342E+03  0.12500076826E+03 0.  0.
    9000005    1    3    3    0    0  0.42434210381E+02  0.44168535789E+02 -0.26716702599E+03  0.27409987512E+03  0.10000000000E+01 0.  0.
    9000005    1    3    3    0    0 -0.42434210381E+02 -0.44168535789E+02 -0.17583857972E+03  0.18620345830E+03  0.10000000000E+01 0.  0.
<mgrwt>
<rscale>  0 0.12500077E+03</rscale>
<asrwt>0</asrwt>
<pdfrwt beam="1">  1        4 0.13305948E-02 0.12500077E+03</pdfrwt>
<pdfrwt beam="2">  1       -4 0.69485285E-01 0.12500077E+03</pdfrwt>
<totfact> 0.59080505E+03</totfact>
</mgrwt>
</event>
<event>
 5    1  0.3312706E-002  0.1250013E+03  0.7818608E-02  0.1235067E+00
          4   -1    0    0  501    0  0.00000000000E+00  0.00000000000E+00  0.54800160180E+02  0.54814874402E+02  0.12700000000E+01 0.  1.
         -4   -1    0    0    0  501 -0.00000000000E+00 -0.00000000000E+00 -0.71253235319E+02  0.71264552503E+02  0.12700000000E+01 0.  1.
         25    2    1    2    0    0  0.00000000000E+00  0.00000000000E+00 -0.16453075139E+02  0.12607942691E+03  0.12500127282E+03 0.  0.
    9000005    1    3    3    0    0  0.33298126416E+02  0.41057084421E+02  0.25390806079E+02  0.58652727450E+02  0.10000000000E+01 0.  0.
    9000005    1    3    3    0    0 -0.33298126416E+02 -0.41057084421E+02 -0.41843881218E+02  0.67426699455E+02  0.10000000000E+01 0.  0.
<mgrwt>
<rscale>  0 0.12500127E+03</rscale>
<asrwt>0</asrwt>
<pdfrwt beam="1">  1        4 0.84327962E-02 0.12500127E+03</pdfrwt>
<pdfrwt beam="2">  1       -4 0.10964039E-01 0.12500127E+03</pdfrwt>
<totfact> 0.10428917E+04</totfact>
</mgrwt>
</event>
<event>
 5    1  0.3312706E-002  0.1249970E+03  0.7818608E-02  0.1235074E+00
          4   -1    0    0  501    0  0.00000000000E+00  0.00000000000E+00  0.61284019693E+01  0.62586109239E+01  0.12700000000E+01 0.  1.
         -4   -1    0    0    0  501 -0.00000000000E+00 -0.00000000000E+00 -0.63053981646E+03  0.63054109544E+03  0.12700000000E+01 0.  1.
         25    2    1    2    0    0  0.00000000000E+00  0.00000000000E+00 -0.62441141449E+03  0.63679970636E+03  0.12499700589E+03 0.  0.
    9000005    1    3    3    0    0  0.52265834894E+02  0.92040717534E+01 -0.14411508675E+03  0.15357926508E+03  0.10000000000E+01 0.  0.
    9000005    1    3    3    0    0 -0.52265834894E+02 -0.92040717534E+01 -0.48029632774E+03  0.48322044128E+03  0.10000000000E+01 0.  0.
<mgrwt>
<rscale>  0 0.12499701E+03</rscale>
<asrwt>0</asrwt>
<pdfrwt beam="1">  1        4 0.95294602E-03 0.12499701E+03</pdfrwt>
<pdfrwt beam="2">  1       -4 0.97016190E-01 0.12499701E+03</pdfrwt>
<totfact> 0.46627220E+03</totfact>
</mgrwt>
</event>
