<event>
 5    1  0.3308162E-002  0.1249997E+03  0.7818608E-02  0.1235070E+00
          4   -1    0    0  501    0  0.00000000000E+00  0.00000000000E+00  0.11655982493E+02  0.11724966008E+02  0.12700000000E+01 0. -1.
         -4   -1    0    0    0  501 -0.00000000000E+00 -0.00000000000E+00 -0.33406780758E+03  0.33407022160E+03  0.12700000000E+01 0. -1.
         25    2    1    2    0    0  0.00000000000E+00  0.00000000000E+00 -0.32241182508E+03  0.34579518761E+03  0.12499970727E+03 0.  0.
    9000005    1    3    3    0    0  0.21802708473E+02 -0.36254357431E+02 -0.28844365899E+03  0.29153126923E+03  0.10000000000E+01 0.  0.
    9000005    1    3    3    0    0 -0.21802708473E+02  0.36254357431E+02 -0.33968166096E+02  0.54263918375E+02  0.10000000000E+01 0.  0.
<mgrwt>
<rscale>  0 0.12499971E+03</rscale>
<asrwt>0</asrwt>
<pdfrwt beam="1">  1        4 0.17987204E-02 0.12499971E+03</pdfrwt>
<pdfrwt beam="2">  1       -4 0.51400532E-01 0.12499971E+03</pdfrwt>
<totfact> 0.70190085E+03</totfact>
</mgrwt>
</event>
<event>
 5    1  0.3308162E-002  0.1250349E+03  0.7818608E-02  0.1235015E+00
          4   -1    0    0  501    0  0.00000000000E+00  0.00000000000E+00  0.20704428770E+02  0.20743342804E+02  0.12700000000E+01 0. -1.
         -4   -1    0    0    0  501 -0.00000000000E+00 -0.00000000000E+00 -0.18855455671E+03  0.18855883368E+03  0.12700000000E+01 0. -1.
         25    2    1    2    0    0  0.00000000000E+00  0.00000000000E+00 -0.16785012794E+03  0.20930217648E+03  0.12503493763E+03 0.  0.
    9000005    1    3    3    0    0 -0.62330715530E+02 -0.20359079139E+01 -0.76789464974E+02  0.98928686186E+02  0.10000000000E+01 0.  0.
    9000005    1    3    3    0    0  0.62330715530E+02  0.20359079139E+01 -0.91060662970E+02  0.11037349030E+03  0.10000000000E+01 0.  0.
<mgrwt>
<rscale>  0 0.12503494E+03</rscale>
<asrwt>0</asrwt>
<pdfrwt beam="1">  1        4 0.31886192E-02 0.12503494E+03</pdfrwt>
<pdfrwt beam="2">  1       -4 0.29011715E-01 0.12503494E+03</pdfrwt>
<totfact> 0.88520807E+03</totfact>
</mgrwt>
</event>
<event>
 5    1  0.3308162E-002  0.1249857E+03  0.7818608E-02  0.1235092E+00
          4   -1    0    0  501    0  0.00000000000E+00  0.00000000000E+00  0.15464208149E+04  0.15464213364E+04  0.12700000000E+01 0.  1.
         -4   -1    0    0    0  501 -0.00000000000E+00 -0.00000000000E+00 -0.23651930235E+01  0.26845927137E+01  0.12700000000E+01 0.  1.
         25    2    1    2    0    0  0.00000000000E+00  0.00000000000E+00  0.15440556219E+04  0.15491059291E+04  0.12498566378E+03 0.  0.
    9000005    1    3    3    0    0  0.38399883967E+02  0.21880356406E+02  0.22456396577E+03  0.22887392994E+03  0.10000000000E+01 0.  0.
    9000005    1    3    3    0    0 -0.38399883967E+02 -0.21880356406E+02  0.13194916561E+04  0.13202319992E+04  0.10000000000E+01 0.  0.
<mgrwt>
<rscale>  0 0.12498566E+03</rscale>
<asrwt>0</asrwt>
<pdfrwt beam="1">  1        4 0.23793609E+00 0.12498566E+03</pdfrwt>
<pdfrwt beam="2">  1       -4 0.38848422E-03 0.12498566E+03</pdfrwt>
<totfact> 0.16990333E+03</totfact>
</mgrwt>
</event>
<event>
 5    1  0.3308162E-002  0.1249999E+03  0.7818608E-02  0.1235069E+00
         -4   -1    0    0    0  501 -0.00000000000E+00  0.00000000000E+00  0.25292261783E+02  0.25324126956E+02  0.12700000000E+01 0. -1.
          4   -1    0    0  501    0  0.00000000000E+00 -0.00000000000E+00 -0.15431246071E+03  0.15431768670E+03  0.12700000000E+01 0. -1.
         25    2    1    2    0    0  0.00000000000E+00  0.00000000000E+00 -0.12902019893E+03  0.17964181366E+03  0.12499987794E+03 0.  0.
    9000005    1    3    3    0    0 -0.55770766390E+02 -0.22816977306E+02 -0.40710437354E+02  0.72727797620E+02  0.10000000000E+01 0.  0.
    9000005    1    3    3    0    0  0.55770766390E+02  0.22816977306E+02 -0.88309761572E+02  0.10691401604E+03  0.10000000000E+01 0.  0.
<mgrwt>
<rscale>  0 0.12499988E+03</rscale>
<asrwt>0</asrwt>
<pdfrwt beam="2">  1        4 0.23743231E-01 0.12499988E+03</pdfrwt>
<pdfrwt beam="1">  1       -4 0.38939705E-02 0.12499988E+03</pdfrwt>
<totfact> 0.93681774E+03</totfact>
</mgrwt>
</event>
<event>
 5    1  0.3308162E-002  0.1249950E+03  0.7818608E-02  0.1235077E+00
          4   -1    0    0  501    0  0.00000000000E+00  0.00000000000E+00  0.16489965552E+03  0.16490454600E+03  0.12700000000E+01 0.  1.
         -4   -1    0    0    0  501 -0.00000000000E+00 -0.00000000000E+00 -0.23664466857E+02  0.23698520874E+02  0.12700000000E+01 0.  1.
         25    2    1    2    0    0  0.00000000000E+00  0.00000000000E+00  0.14123518866E+03  0.18860306687E+03  0.12499495316E+03 0.  0.
    9000005    1    3    3    0    0 -0.17267876959E+02 -0.59716562337E+02  0.80242247873E+02  0.10150894412E+03  0.10000000000E+01 0.  0.
    9000005    1    3    3    0    0  0.17267876959E+02  0.59716562337E+02  0.60992940791E+02  0.87094122755E+02  0.10000000000E+01 0.  0.
<mgrwt>
<rscale>  0 0.12499495E+03</rscale>
<asrwt>0</asrwt>
<pdfrwt beam="1">  1        4 0.25372173E-01 0.12499495E+03</pdfrwt>
<pdfrwt beam="2">  1       -4 0.36436830E-02 0.12499495E+03</pdfrwt>
<totfact> 0.92101358E+03</totfact>
</mgrwt>
</event>
<event>
 5    1  0.3308162E-002  0.1250013E+03  0.7818608E-02  0.1235067E+00
         -4   -1    0    0    0  501 -0.00000000000E+00  0.00000000000E+00  0.76661513013E+03  0.76661618209E+03  0.12700000000E+01 0. -1.
          4   -1    0    0  501    0  0.00000000000E+00 -0.00000000000E+00 -0.50153561510E+01  0.51736541555E+01  0.12700000000E+01 0. -1.
         25    2    1    2    0    0  0.00000000000E+00  0.00000000000E+00  0.76159977398E+03  0.77178983624E+03  0.12500134243E+03 0.  0.
    9000005    1    3    3    0    0  0.17824882340E+02  0.49295361250E+02  0.17073236343E+03  0.17860094903E+03  0.10000000000E+01 0.  0.
    9000005    1    3    3    0    0 -0.17824882340E+02 -0.49295361250E+02  0.59086741054E+03  0.59318888721E+03  0.10000000000E+01 0.  0.
<mgrwt>
<rscale>  0 0.12500134E+03</rscale>
<asrwt>0</asrwt>
<pdfrwt beam="2">  1        4 0.78385113E-03 0.12500134E+03</pdfrwt>
<pdfrwt beam="1">  1       -4 0.11795302E+00 0.12500134E+03</pdfrwt>
<totfact> 0.39551812E+03</totfact>
</mgrwt>
</event>
<event>
 5    1  0.3308162E-002  0.1249840E+03  0.7818608E-02  0.1235094E+00
         -4   -1    0    0    0  501 -0.00000000000E+00  0.00000000000E+00  0.43373845899E+01  0.45194916838E+01  0.12700000000E+01 0. -1.
          4   -1    0    0  501    0  0.00000000000E+00 -0.00000000000E+00 -0.88167514348E+03  0.88167605816E+03  0.12700000000E+01 0. -1.
         25    2    1    2    0    0  0.00000000000E+00  0.00000000000E+00 -0.87733775889E+03  0.88619554984E+03  0.12498403653E+03 0.  0.
    9000005    1    3    3    0    0  0.30555918637E+02 -0.54425781296E+02 -0.41809122502E+03  0.42272580034E+03  0.10000000000E+01 0.  0.
    9000005    1    3    3    0    0 -0.30555918637E+02  0.54425781296E+02 -0.45924653386E+03  0.46346974950E+03  0.10000000000E+01 0.  0.
<mgrwt>
<rscale>  0 0.12498404E+03</rscale>
<asrwt>0</asrwt>
<pdfrwt beam="2">  1        4 0.13565627E+00 0.12498404E+03</pdfrwt>
<pdfrwt beam="1">  1       -4 0.68136924E-03 0.12498404E+03</pdfrwt>
<totfact> 0.34702282E+03</totfact>
</mgrwt>
</event>
<event>
 5    1  0.3308162E-002  0.1250002E+03  0.7818608E-02  0.1235069E+00
         -4   -1    0    0    0  501 -0.00000000000E+00  0.00000000000E+00  0.36920298991E+02  0.36942135531E+02  0.12700000000E+01 0. -1.
          4   -1    0    0  501    0  0.00000000000E+00 -0.00000000000E+00 -0.10574569953E+03  0.10575332557E+03  0.12700000000E+01 0. -1.
         25    2    1    2    0    0  0.00000000000E+00  0.00000000000E+00 -0.68825400538E+02  0.14269546110E+03  0.12500023544E+03 0.  0.
    9000005    1    3    3    0    0  0.26038688943E+02 -0.28174755985E+02  0.21900364026E+02  0.44186605902E+02  0.10000000000E+01 0.  0.
    9000005    1    3    3    0    0 -0.26038688943E+02  0.28174755985E+02 -0.90725764565E+02  0.98508855198E+02  0.10000000000E+01 0.  0.
<mgrwt>
<rscale>  0 0.12500024E+03</rscale>
<asrwt>0</asrwt>
<pdfrwt beam="2">  1        4 0.16270835E-01 0.12500024E+03</pdfrwt>
<pdfrwt beam="1">  1       -4 0.56823124E-02 0.12500024E+03</pdfrwt>
<totfact> 0.10077970E+04</totfact>
</mgrwt>
</event>
<event>
 5    1  0.3308162E-002  0.1250056E+03  0.7818608E-02  0.1235060E+00
          4   -1    0    0  501    0  0.00000000000E+00  0.00000000000E+00  0.33051290427E+03  0.33051534426E+03  0.12700000000E+01 0.  1.
         -4   -1    0    0    0  501 -0.00000000000E+00 -0.00000000000E+00 -0.11783215070E+02  0.11851458028E+02  0.12700000000E+01 0.  1.
         25    2    1    2    0    0  0.00000000000E+00  0.00000000000E+00  0.31872968920E+03  0.34236680229E+03  0.12500564999E+03 0.  0.
    9000005    1    3    3    0    0  0.37969969284E+01 -0.41207452592E+02  0.31103918994E+02  0.51777650695E+02  0.10000000000E+01 0.  0.
    9000005    1    3    3    0    0 -0.37969969284E+01  0.41207452592E+02  0.28762577021E+03  0.29058915159E+03  0.10000000000E+01 0.  0.
<mgrwt>
<rscale>  0 0.12500565E+03</rscale>
<asrwt>0</asrwt>
<pdfrwt beam="1">  1        4 0.50853572E-01 0.12500565E+03</pdfrwt>
<pdfrwt beam="2">  1       -4 0.18182396E-02 0.12500565E+03</pdfrwt>
<totfact> 0.70563719E+03</totfact>
</mgrwt>
</event>
<event>
 5    1  0.3308162E-002  0.1250015E+03  0.7818608E-02  0.1235067E+00
          4   -1    0    0  501    0  0.00000000000E+00  0.00000000000E+00  0.47710411466E+02  0.47727311492E+02  0.12700000000E+01 0. -1.
         -4   -1    0    0    0  501 -0.00000000000E+00 -0.00000000000E+00 -0.81839756108E+02  0.81849609528E+02  0.12700000000E+01 0. -1.
         25    2    1    2    0    0  0.00000000000E+00  0.00000000000E+00 -0.34129344642E+02  0.12957692102E+03  0.12500146517E+03 0.  0.
    9000005    1    3    3    0    0  0.48759387087E+02 -0.12533503002E+02  0.21314503811E+02  0.54679745787E+02  0.10000000000E+01 0.  0.
    9000005    1    3    3    0    0 -0.48759387087E+02  0.12533503002E+02 -0.55443848453E+02  0.74897175233E+02  0.10000000000E+01 0.  0.
<mgrwt>
<rscale>  0 0.12500147E+03</rscale>
<asrwt>0</asrwt>
<pdfrwt beam="1">  1        4 0.73421213E-02 0.12500147E+03</pdfrwt>
<pdfrwt beam="2">  1       -4 0.12592790E-01 0.12500147E+03</pdfrwt>
<totfact> 0.10353224E+04</totfact>
</mgrwt>
</event>
<event>
 5    1  0.3308162E-002  0.1249993E+03  0.7818608E-02  0.1235070E+00
          4   -1    0    0  501    0  0.00000000000E+00  0.00000000000E+00  0.70493778365E+02  0.70505217453E+02  0.12700000000E+01 0. -1.
         -4   -1    0    0    0  501 -0.00000000000E+00 -0.00000000000E+00 -0.55388830245E+02  0.55403388126E+02  0.12700000000E+01 0. -1.
         25    2    1    2    0    0  0.00000000000E+00  0.00000000000E+00  0.15104948120E+02  0.12590860558E+03  0.12499927000E+03 0.  0.
    9000005    1    3    3    0    0  0.56202103008E+02  0.26893500223E+02  0.26937292215E+01  0.62371411030E+02  0.10000000000E+01 0.  0.
    9000005    1    3    3    0    0 -0.56202103008E+02 -0.26893500223E+02  0.12411218898E+02  0.63537194550E+02  0.10000000000E+01 0.  0.
<mgrwt>
<rscale>  0 0.12499927E+03</rscale>
<asrwt>0</asrwt>
<pdfrwt beam="1">  1        4 0.10847196E-01 0.12499927E+03</pdfrwt>
<pdfrwt beam="2">  1       -4 0.85233584E-02 0.12499927E+03</pdfrwt>
<totfact> 0.10433133E+04</totfact>
</mgrwt>
</event>
<event>
 5    1  0.3308162E-002  0.1250060E+03  0.7818608E-02  0.1235060E+00
          4   -1    0    0  501    0  0.00000000000E+00  0.00000000000E+00  0.57059100799E+02  0.57073232640E+02  0.12700000000E+01 0. -1.
         -4   -1    0    0    0  501 -0.00000000000E+00 -0.00000000000E+00 -0.68437836612E+02  0.68449619284E+02  0.12700000000E+01 0. -1.
         25    2    1    2    0    0  0.00000000000E+00  0.00000000000E+00 -0.11378735813E+02  0.12552285192E+03  0.12500604276E+03 0.  0.
    9000005    1    3    3    0    0 -0.61297222306E+02  0.70682607775E+01 -0.15645900213E+02  0.63663992698E+02  0.10000000000E+01 0.  0.
    9000005    1    3    3    0    0  0.61297222306E+02 -0.70682607775E+01  0.42671643997E+01  0.61858859227E+02  0.10000000000E+01 0.  0.
<mgrwt>
<rscale>  0 0.12500604E+03</rscale>
<asrwt>0</asrwt>
<pdfrwt beam="1">  1        4 0.87803166E-02 0.12500604E+03</pdfrwt>
<pdfrwt beam="2">  1       -4 0.10530891E-01 0.12500604E+03</pdfrwt>
<totfact> 0.10440026E+04</totfact>
</mgrwt>
</event>
<event>
 5    1  0.3308162E-002  0.1250025E+03  0.7818608E-02  0.1235065E+00
         -4   -1    0    0    0  501 -0.00000000000E+00  0.00000000000E+00  0.40319800140E+02  0.40339796520E+02  0.12700000000E+01 0. -1.
          4   -1    0    0  501    0  0.00000000000E+00 -0.00000000000E+00 -0.96837302467E+02  0.96845629994E+02  0.12700000000E+01 0. -1.
         25    2    1    2    0    0  0.00000000000E+00  0.00000000000E+00 -0.56517502327E+02  0.13718542651E+03  0.12500245269E+03 0.  0.
    9000005    1    3    3    0    0 -0.44162430990E+02  0.39038275264E+02 -0.51045190378E+02  0.77980245622E+02  0.10000000000E+01 0.  0.
    9000005    1    3    3    0    0  0.44162430990E+02 -0.39038275264E+02 -0.54723119486E+01  0.59205180893E+02  0.10000000000E+01 0.  0.
<mgrwt>
<rscale>  0 0.12500245E+03</rscale>
<asrwt>0</asrwt>
<pdfrwt beam="2">  1        4 0.14900225E-01 0.12500245E+03</pdfrwt>
<pdfrwt beam="1">  1       -4 0.62052249E-02 0.12500245E+03</pdfrwt>
<totfact> 0.10191647E+04</totfact>
</mgrwt>
</event>
<event>
 5    1  0.3308162E-002  0.1250006E+03  0.7818608E-02  0.1235068E+00
         -4   -1    0    0    0  501 -0.00000000000E+00  0.00000000000E+00  0.16725919748E+02  0.16774066037E+02  0.12700000000E+01 0. -1.
          4   -1    0    0  501    0  0.00000000000E+00 -0.00000000000E+00 -0.23316137916E+03  0.23316483789E+03  0.12700000000E+01 0. -1.
         25    2    1    2    0    0  0.00000000000E+00  0.00000000000E+00 -0.21643545941E+03  0.24993890393E+03  0.12500059044E+03 0.  0.
    9000005    1    3    3    0    0 -0.58352732397E+02  0.22263241733E+02 -0.10393226434E+03  0.12125843839E+03  0.10000000000E+01 0.  0.
    9000005    1    3    3    0    0  0.58352732397E+02 -0.22263241733E+02 -0.11250319507E+03  0.12868046554E+03  0.10000000000E+01 0.  0.
<mgrwt>
<rscale>  0 0.12500059E+03</rscale>
<asrwt>0</asrwt>
<pdfrwt beam="2">  1        4 0.35874949E-01 0.12500059E+03</pdfrwt>
<pdfrwt beam="1">  1       -4 0.25771882E-02 0.12500059E+03</pdfrwt>
<totfact> 0.82337977E+03</totfact>
</mgrwt>
</event>
<event>
 5    1  0.3308162E-002  0.1250051E+03  0.7818608E-02  0.1235061E+00
          4   -1    0    0  501    0  0.00000000000E+00  0.00000000000E+00  0.40255516025E+03  0.40255716357E+03  0.12700000000E+01 0.  1.
         -4   -1    0    0    0  501 -0.00000000000E+00 -0.00000000000E+00 -0.96608379064E+01  0.97439565400E+01  0.12700000000E+01 0.  1.
         25    2    1    2    0    0  0.00000000000E+00  0.00000000000E+00  0.39289432234E+03  0.41230112011E+03  0.12500506036E+03 0.  0.
    9000005    1    3    3    0    0  0.17893196483E+01  0.44785911885E+02  0.34008645856E+03  0.34302883095E+03  0.10000000000E+01 0.  0.
    9000005    1    3    3    0    0 -0.17893196483E+01 -0.44785911885E+02  0.52807863781E+02  0.69272289159E+02  0.10000000000E+01 0.  0.
<mgrwt>
<rscale>  0 0.12500506E+03</rscale>
<asrwt>0</asrwt>
<pdfrwt beam="1">  1        4 0.61938115E-01 0.12500506E+03</pdfrwt>
<pdfrwt beam="2">  1       -4 0.14928305E-02 0.12500506E+03</pdfrwt>
<totfact> 0.63366646E+03</totfact>
</mgrwt>
</event>
<event>
 5    1  0.3308162E-002  0.1249833E+03  0.7818608E-02  0.1235095E+00
          4   -1    0    0  501    0  0.00000000000E+00  0.00000000000E+00  0.46778037788E+02  0.46795274540E+02  0.12700000000E+01 0.  1.
         -4   -1    0    0    0  501 -0.00000000000E+00 -0.00000000000E+00 -0.83446364299E+02  0.83456028031E+02  0.12700000000E+01 0.  1.
         25    2    1    2    0    0  0.00000000000E+00  0.00000000000E+00 -0.36668326511E+02  0.13025130257E+03  0.12498334150E+03 0.  0.
    9000005    1    3    3    0    0 -0.37953348736E+02 -0.41197358308E+02 -0.47187396992E+02  0.73248409175E+02  0.10000000000E+01 0.  0.
    9000005    1    3    3    0    0  0.37953348736E+02  0.41197358308E+02  0.10519070480E+02  0.57002893396E+02  0.10000000000E+01 0.  0.
<mgrwt>
<rscale>  0 0.12498334E+03</rscale>
<asrwt>0</asrwt>
<pdfrwt beam="1">  1        4 0.71986905E-02 0.12498334E+03</pdfrwt>
<pdfrwt beam="2">  1       -4 0.12839971E-01 0.12498334E+03</pdfrwt>
<totfact> 0.10343023E+04</totfact>
</mgrwt>
</event>
<event>
 5    1  0.3308162E-002  0.1249992E+03  0.7818608E-02  0.1235071E+00
         -4   -1    0    0    0  501 -0.00000000000E+00  0.00000000000E+00  0.27352843327E+02  0.27382310678E+02  0.12700000000E+01 0. -1.
          4   -1    0    0  501    0  0.00000000000E+00 -0.00000000000E+00 -0.14269857459E+03  0.14270422590E+03  0.12700000000E+01 0. -1.
         25    2    1    2    0    0  0.00000000000E+00  0.00000000000E+00 -0.11534573126E+03  0.17008653658E+03  0.12499916882E+03 0.  0.
    9000005    1    3    3    0    0  0.32021744006E+02 -0.31858852954E+02  0.10870559896E+01  0.45194693178E+02  0.10000000000E+01 0.  0.
    9000005    1    3    3    0    0 -0.32021744006E+02  0.31858852954E+02 -0.11643278725E+03  0.12489184340E+03  0.10000000000E+01 0.  0.
<mgrwt>
<rscale>  0 0.12499917E+03</rscale>
<asrwt>0</asrwt>
<pdfrwt beam="2">  1        4 0.21956328E-01 0.12499917E+03</pdfrwt>
<pdfrwt beam="1">  1       -4 0.42108312E-02 0.12499917E+03</pdfrwt>
<totfact> 0.95434290E+03</totfact>
</mgrwt>
</event>
<event>
 5    1  0.3308162E-002  0.1249942E+03  0.7818608E-02  0.1235078E+00
         -4   -1    0    0    0  501 -0.00000000000E+00  0.00000000000E+00  0.20348557373E+03  0.20348953687E+03  0.12700000000E+01 0.  1.
          4   -1    0    0  501    0  0.00000000000E+00 -0.00000000000E+00 -0.19169751715E+02  0.19211774536E+02  0.12700000000E+01 0.  1.
         25    2    1    2    0    0  0.00000000000E+00  0.00000000000E+00  0.18431582202E+03  0.22270131141E+03  0.12499420730E+03 0.  0.
    9000005    1    3    3    0    0 -0.58243926868E+02  0.77198694921E+01  0.13007644845E+03  0.14273343631E+03  0.10000000000E+01 0.  0.
    9000005    1    3    3    0    0  0.58243926868E+02 -0.77198694921E+01  0.54239373572E+02  0.79967875096E+02  0.10000000000E+01 0.  0.
<mgrwt>
<rscale>  0 0.12499421E+03</rscale>
<asrwt>0</asrwt>
<pdfrwt beam="2">  1        4 0.29527300E-02 0.12499421E+03</pdfrwt>
<pdfrwt beam="1">  1       -4 0.31309010E-01 0.12499421E+03</pdfrwt>
<totfact> 0.86453881E+03</totfact>
</mgrwt>
</event>
<event>
 5    1  0.3308162E-002  0.1250352E+03  0.7818608E-02  0.1235014E+00
          4   -1    0    0  501    0  0.00000000000E+00  0.00000000000E+00  0.30067100543E+02  0.30093910266E+02  0.12700000000E+01 0. -1.
         -4   -1    0    0    0  501 -0.00000000000E+00 -0.00000000000E+00 -0.12990317188E+03  0.12990937981E+03  0.12700000000E+01 0. -1.
         25    2    1    2    0    0  0.00000000000E+00  0.00000000000E+00 -0.99836071334E+02  0.16000329008E+03  0.12503524182E+03 0.  0.
    9000005    1    3    3    0    0  0.48149757984E+02 -0.14140650671E+01 -0.10089715716E+03  0.11181071101E+03  0.10000000000E+01 0.  0.
    9000005    1    3    3    0    0 -0.48149757984E+02  0.14140650671E+01  0.10610858285E+01  0.48192579066E+02  0.10000000000E+01 0.  0.
<mgrwt>
<rscale>  0 0.12503524E+03</rscale>
<asrwt>0</asrwt>
<pdfrwt beam="1">  1        4 0.46282477E-02 0.12503524E+03</pdfrwt>
<pdfrwt beam="2">  1       -4 0.19987643E-01 0.12503524E+03</pdfrwt>
<totfact> 0.97265082E+03</totfact>
</mgrwt>
</event>
<event>
 5    1  0.3308162E-002  0.1250043E+03  0.7818608E-02  0.1235063E+00
         -4   -1    0    0    0  501 -0.00000000000E+00  0.00000000000E+00  0.55059863800E+02  0.55074508638E+02  0.12700000000E+01 0. -1.
          4   -1    0    0  501    0  0.00000000000E+00 -0.00000000000E+00 -0.70920660979E+02  0.70932031225E+02  0.12700000000E+01 0. -1.
         25    2    1    2    0    0  0.00000000000E+00  0.00000000000E+00 -0.15860797179E+02  0.12600653986E+03  0.12500433273E+03 0.  0.
    9000005    1    3    3    0    0  0.14901934484E+02  0.60641799414E+02 -0.54560674672E+01  0.62691818922E+02  0.10000000000E+01 0.  0.
    9000005    1    3    3    0    0 -0.14901934484E+02 -0.60641799414E+02 -0.10404729712E+02  0.63314720942E+02  0.10000000000E+01 0.  0.
<mgrwt>
<rscale>  0 0.12500433E+03</rscale>
<asrwt>0</asrwt>
<pdfrwt beam="2">  1        4 0.10912872E-01 0.12500433E+03</pdfrwt>
<pdfrwt beam="1">  1       -4 0.84727494E-02 0.12500433E+03</pdfrwt>
<totfact> 0.10429794E+04</totfact>
</mgrwt>
</event>
<event>
 5    1  0.3308162E-002  0.1249985E+03  0.7818608E-02  0.1235072E+00
         -4   -1    0    0    0  501 -0.00000000000E+00  0.00000000000E+00  0.37165125318E+02  0.37186818093E+02  0.12700000000E+01 0.  1.
          4   -1    0    0  501    0  0.00000000000E+00 -0.00000000000E+00 -0.10504646558E+03  0.10505414238E+03  0.12700000000E+01 0.  1.
         25    2    1    2    0    0  0.00000000000E+00  0.00000000000E+00 -0.67881340262E+02  0.14224096047E+03  0.12499845791E+03 0.  0.
    9000005    1    3    3    0    0  0.33180393669E+02 -0.50916975149E+02 -0.17384625526E+02  0.63219475536E+02  0.10000000000E+01 0.  0.
    9000005    1    3    3    0    0 -0.33180393669E+02  0.50916975149E+02 -0.50496714736E+02  0.79021484936E+02  0.10000000000E+01 0.  0.
<mgrwt>
<rscale>  0 0.12499846E+03</rscale>
<asrwt>0</asrwt>
<pdfrwt beam="2">  1        4 0.16163254E-01 0.12499846E+03</pdfrwt>
<pdfrwt beam="1">  1       -4 0.57199708E-02 0.12499846E+03</pdfrwt>
<totfact> 0.10087701E+04</totfact>
</mgrwt>
</event>
<event>
 5    1  0.3308162E-002  0.1250014E+03  0.7818608E-02  0.1235067E+00
         -4   -1    0    0    0  501 -0.00000000000E+00  0.00000000000E+00  0.10046209116E+03  0.10047011825E+03  0.12700000000E+01 0. -1.
          4   -1    0    0  501    0  0.00000000000E+00 -0.00000000000E+00 -0.38863774217E+02  0.38884519367E+02  0.12700000000E+01 0. -1.
         25    2    1    2    0    0  0.00000000000E+00  0.00000000000E+00  0.61598316943E+02  0.13935463761E+03  0.12500144949E+03 0.  0.
    9000005    1    3    3    0    0 -0.36990348955E+02  0.35434475542E+02  0.70706946249E+02  0.87317582540E+02  0.10000000000E+01 0.  0.
    9000005    1    3    3    0    0  0.36990348955E+02 -0.35434475542E+02 -0.91086293061E+01  0.52037055072E+02  0.10000000000E+01 0.  0.
<mgrwt>
<rscale>  0 0.12500145E+03</rscale>
<asrwt>0</asrwt>
<pdfrwt beam="2">  1        4 0.59812554E-02 0.12500145E+03</pdfrwt>
<pdfrwt beam="1">  1       -4 0.15457920E-01 0.12500145E+03</pdfrwt>
<totfact> 0.10146647E+04</totfact>
</mgrwt>
</event>
<event>
 5    1  0.3308162E-002  0.1249566E+03  0.7818608E-02  0.1235137E+00
          4   -1    0    0  501    0  0.00000000000E+00  0.00000000000E+00  0.49998041269E+02  0.50014168300E+02  0.12700000000E+01 0. -1.
         -4   -1    0    0    0  501 -0.00000000000E+00 -0.00000000000E+00 -0.78039980806E+02  0.78050313928E+02  0.12700000000E+01 0. -1.
         25    2    1    2    0    0  0.00000000000E+00  0.00000000000E+00 -0.28041939537E+02  0.12806448223E+03  0.12495663742E+03 0.  0.
    9000005    1    3    3    0    0  0.38633053128E+02 -0.30536919883E+02 -0.53415565297E+02  0.72658371065E+02  0.10000000000E+01 0.  0.
    9000005    1    3    3    0    0 -0.38633053128E+02  0.30536919883E+02  0.25373625760E+02  0.55406111162E+02  0.10000000000E+01 0.  0.
<mgrwt>
<rscale>  0 0.12495664E+03</rscale>
<asrwt>0</asrwt>
<pdfrwt beam="1">  1        4 0.76940418E-02 0.12495664E+03</pdfrwt>
<pdfrwt beam="2">  1       -4 0.12008186E-01 0.12495664E+03</pdfrwt>
<totfact> 0.10396269E+04</totfact>
</mgrwt>
</event>
<event>
 5    1  0.3308162E-002  0.1249979E+03  0.7818608E-02  0.1235072E+00
          4   -1    0    0  501    0  0.00000000000E+00  0.00000000000E+00  0.11122007953E+02  0.11194282509E+02  0.12700000000E+01 0. -1.
         -4   -1    0    0    0  501 -0.00000000000E+00 -0.00000000000E+00 -0.34999567019E+03  0.34999797436E+03  0.12700000000E+01 0. -1.
         25    2    1    2    0    0  0.00000000000E+00  0.00000000000E+00 -0.33887366224E+03  0.36119225687E+03  0.12499794982E+03 0.  0.
    9000005    1    3    3    0    0 -0.30877232797E+02  0.29564672638E+02 -0.37725973364E+02  0.57023876049E+02  0.10000000000E+01 0.  0.
    9000005    1    3    3    0    0  0.30877232797E+02 -0.29564672638E+02 -0.30114768888E+03  0.30416838082E+03  0.10000000000E+01 0.  0.
<mgrwt>
<rscale>  0 0.12499795E+03</rscale>
<asrwt>0</asrwt>
<pdfrwt beam="1">  1        4 0.17168152E-02 0.12499795E+03</pdfrwt>
<pdfrwt beam="2">  1       -4 0.53851216E-01 0.12499795E+03</pdfrwt>
<totfact> 0.68513681E+03</totfact>
</mgrwt>
</event>
<event>
 5    1  0.3308162E-002  0.1250018E+03  0.7818608E-02  0.1235067E+00
          4   -1    0    0  501    0  0.00000000000E+00  0.00000000000E+00  0.27712142901E+03  0.27712433909E+03  0.12700000000E+01 0. -1.
         -4   -1    0    0    0  501 -0.00000000000E+00 -0.00000000000E+00 -0.14064609087E+02  0.14121831637E+02  0.12700000000E+01 0. -1.
         25    2    1    2    0    0  0.00000000000E+00  0.00000000000E+00  0.26305681992E+03  0.29124617072E+03  0.12500176581E+03 0.  0.
    9000005    1    3    3    0    0  0.24946244930E+02  0.22112982468E+02  0.83705777696E+01  0.34385544956E+02  0.10000000000E+01 0.  0.
    9000005    1    3    3    0    0 -0.24946244930E+02 -0.22112982468E+02  0.25468624215E+03  0.25686062577E+03  0.10000000000E+01 0.  0.
<mgrwt>
<rscale>  0 0.12500177E+03</rscale>
<asrwt>0</asrwt>
<pdfrwt beam="1">  1        4 0.42638690E-01 0.12500177E+03</pdfrwt>
<pdfrwt beam="2">  1       -4 0.21684117E-02 0.12500177E+03</pdfrwt>
<totfact> 0.76707180E+03</totfact>
</mgrwt>
</event>
<event>
 5    1  0.3308162E-002  0.1250004E+03  0.7818608E-02  0.1235069E+00
         -4   -1    0    0    0  501 -0.00000000000E+00  0.00000000000E+00  0.48613748558E+02  0.48630334657E+02  0.12700000000E+01 0.  1.
          4   -1    0    0  501    0  0.00000000000E+00 -0.00000000000E+00 -0.80318031717E+02  0.80328071799E+02  0.12700000000E+01 0.  1.
         25    2    1    2    0    0  0.00000000000E+00  0.00000000000E+00 -0.31704283159E+02  0.12895840646E+03  0.12500043610E+03 0.  0.
    9000005    1    3    3    0    0 -0.30538107987E+02  0.14730633162E+02  0.38304890906E+02  0.51164756034E+02  0.10000000000E+01 0.  0.
    9000005    1    3    3    0    0  0.30538107987E+02 -0.14730633162E+02 -0.70009174064E+02  0.77793650422E+02  0.10000000000E+01 0.  0.
<mgrwt>
<rscale>  0 0.12500044E+03</rscale>
<asrwt>0</asrwt>
<pdfrwt beam="2">  1        4 0.12358668E-01 0.12500044E+03</pdfrwt>
<pdfrwt beam="1">  1       -4 0.74810864E-02 0.12500044E+03</pdfrwt>
<totfact> 0.10366739E+04</totfact>
</mgrwt>
</event>
<event>
 5    1  0.3308162E-002  0.1250020E+03  0.7818608E-02  0.1235066E+00
          4   -1    0    0  501    0  0.00000000000E+00  0.00000000000E+00  0.13853909356E+03  0.13854491454E+03  0.12700000000E+01 0. -1.
         -4   -1    0    0    0  501 -0.00000000000E+00 -0.00000000000E+00 -0.28176185469E+02  0.28204792635E+02  0.12700000000E+01 0. -1.
         25    2    1    2    0    0  0.00000000000E+00  0.00000000000E+00  0.11036290810E+03  0.16674970718E+03  0.12500197343E+03 0.  0.
    9000005    1    3    3    0    0  0.25837867324E+02 -0.12061840576E+02  0.12936170793E+03  0.13247088308E+03  0.10000000000E+01 0.  0.
    9000005    1    3    3    0    0 -0.25837867324E+02  0.12061840576E+02 -0.18998799838E+02  0.34278824093E+02  0.10000000000E+01 0.  0.
<mgrwt>
<rscale>  0 0.12500197E+03</rscale>
<asrwt>0</asrwt>
<pdfrwt beam="1">  1        4 0.21316355E-01 0.12500197E+03</pdfrwt>
<pdfrwt beam="2">  1       -4 0.43374460E-02 0.12500197E+03</pdfrwt>
<totfact> 0.96052790E+03</totfact>
</mgrwt>
</event>
<event>
 5    1  0.3308162E-002  0.1250000E+03  0.7818608E-02  0.1235069E+00
         -4   -1    0    0    0  501 -0.00000000000E+00  0.00000000000E+00  0.84949838092E+02  0.84959330811E+02  0.12700000000E+01 0. -1.
          4   -1    0    0  501    0  0.00000000000E+00 -0.00000000000E+00 -0.45962218465E+02  0.45979761050E+02  0.12700000000E+01 0. -1.
         25    2    1    2    0    0  0.00000000000E+00  0.00000000000E+00  0.38987619628E+02  0.13093909186E+03  0.12500004517E+03 0.  0.
    9000005    1    3    3    0    0 -0.17787982166E+02 -0.46530858374E+01  0.82057482209E+02  0.84098120691E+02  0.10000000000E+01 0.  0.
    9000005    1    3    3    0    0  0.17787982166E+02  0.46530858374E+01 -0.43069862581E+02  0.46840971170E+02  0.10000000000E+01 0.  0.
<mgrwt>
<rscale>  0 0.12500005E+03</rscale>
<asrwt>0</asrwt>
<pdfrwt beam="2">  1        4 0.70731903E-02 0.12500005E+03</pdfrwt>
<pdfrwt beam="1">  1       -4 0.13071285E-01 0.12500005E+03</pdfrwt>
<totfact> 0.10324385E+04</totfact>
</mgrwt>
</event>
<event>
 5    1  0.3308162E-002  0.1250076E+03  0.7818608E-02  0.1235057E+00
         -4   -1    0    0    0  501 -0.00000000000E+00  0.00000000000E+00  0.19609041015E+02  0.19650124415E+02  0.12700000000E+01 0. -1.
          4   -1    0    0  501    0  0.00000000000E+00 -0.00000000000E+00 -0.19897926877E+03  0.19898332166E+03  0.12700000000E+01 0. -1.
         25    2    1    2    0    0  0.00000000000E+00  0.00000000000E+00 -0.17937022775E+03  0.21863344608E+03  0.12500762032E+03 0.  0.
    9000005    1    3    3    0    0  0.13125053223E+02  0.42928434193E+02 -0.16573191490E+03  0.17170668333E+03  0.10000000000E+01 0.  0.
    9000005    1    3    3    0    0 -0.13125053223E+02 -0.42928434193E+02 -0.13638312856E+02  0.46926762748E+02  0.10000000000E+01 0.  0.
<mgrwt>
<rscale>  0 0.12500762E+03</rscale>
<asrwt>0</asrwt>
<pdfrwt beam="2">  1        4 0.30615666E-01 0.12500762E+03</pdfrwt>
<pdfrwt beam="1">  1       -4 0.30202477E-02 0.12500762E+03</pdfrwt>
<totfact> 0.87070229E+03</totfact>
</mgrwt>
</event>
<event>
 5    1  0.3308162E-002  0.1250000E+03  0.7818608E-02  0.1235069E+00
         -4   -1    0    0    0  501 -0.00000000000E+00  0.00000000000E+00  0.41455455747E+02  0.41474904595E+02  0.12700000000E+01 0.  1.
          4   -1    0    0  501    0  0.00000000000E+00 -0.00000000000E+00 -0.94181803876E+02  0.94190366181E+02  0.12700000000E+01 0.  1.
         25    2    1    2    0    0  0.00000000000E+00  0.00000000000E+00 -0.52726348129E+02  0.13566527078E+03  0.12499999163E+03 0.  0.
    9000005    1    3    3    0    0  0.19221976809E+00  0.29487171095E+02 -0.86161566050E+02  0.91073298347E+02  0.10000000000E+01 0.  0.
    9000005    1    3    3    0    0 -0.19221976809E+00 -0.29487171095E+02  0.33435217921E+02  0.44591972429E+02  0.10000000000E+01 0.  0.
<mgrwt>
<rscale>  0 0.12499999E+03</rscale>
<asrwt>0</asrwt>
<pdfrwt beam="2">  1        4 0.14491663E-01 0.12499999E+03</pdfrwt>
<pdfrwt beam="1">  1       -4 0.63799172E-02 0.12499999E+03</pdfrwt>
<totfact> 0.10224070E+04</totfact>
</mgrwt>
</event>
<event>
 5    1  0.3308162E-002  0.1250087E+03  0.7818608E-02  0.1235056E+00
         -4   -1    0    0    0  501 -0.00000000000E+00  0.00000000000E+00  0.56478379203E+01  0.57888663117E+01  0.12700000000E+01 0. -1.
          4   -1    0    0  501    0  0.00000000000E+00 -0.00000000000E+00 -0.68306131434E+03  0.68306249498E+03  0.12700000000E+01 0. -1.
         25    2    1    2    0    0  0.00000000000E+00  0.00000000000E+00 -0.67741347642E+03  0.68885136129E+03  0.12500871937E+03 0.  0.
    9000005    1    3    3    0    0 -0.32180211069E+02 -0.25825859032E+02 -0.80053750987E+02  0.90067441544E+02  0.10000000000E+01 0.  0.
    9000005    1    3    3    0    0  0.32180211069E+02  0.25825859032E+02 -0.59735972543E+03  0.59878391975E+03  0.10000000000E+01 0.  0.
<mgrwt>
<rscale>  0 0.12500872E+03</rscale>
<asrwt>0</asrwt>
<pdfrwt beam="2">  1        4 0.10509723E+00 0.12500872E+03</pdfrwt>
<pdfrwt beam="1">  1       -4 0.87983784E-03 0.12500872E+03</pdfrwt>
<totfact> 0.43673471E+03</totfact>
</mgrwt>
</event>
<event>
 5    1  0.3308162E-002  0.1250014E+03  0.7818608E-02  0.1235067E+00
         -4   -1    0    0    0  501 -0.00000000000E+00  0.00000000000E+00  0.12275637353E+03  0.12276294287E+03  0.12700000000E+01 0.  1.
          4   -1    0    0  501    0  0.00000000000E+00 -0.00000000000E+00 -0.31801780423E+02  0.31827128964E+02  0.12700000000E+01 0.  1.
         25    2    1    2    0    0  0.00000000000E+00  0.00000000000E+00  0.90954593104E+02  0.15459007183E+03  0.12500140920E+03 0.  0.
    9000005    1    3    3    0    0  0.18789199206E+02  0.49481046681E+02  0.86567422753E+02  0.10147081684E+03  0.10000000000E+01 0.  0.
    9000005    1    3    3    0    0 -0.18789199206E+02 -0.49481046681E+02  0.43871703510E+01  0.53119254994E+02  0.10000000000E+01 0.  0.
<mgrwt>
<rscale>  0 0.12500141E+03</rscale>
<asrwt>0</asrwt>
<pdfrwt beam="2">  1        4 0.48950368E-02 0.12500141E+03</pdfrwt>
<pdfrwt beam="1">  1       -4 0.18888051E-01 0.12500141E+03</pdfrwt>
<totfact> 0.98392914E+03</totfact>
</mgrwt>
</event>
<event>
 5    1  0.3308162E-002  0.1249873E+03  0.7818608E-02  0.1235089E+00
         -4   -1    0    0    0  501 -0.00000000000E+00  0.00000000000E+00  0.39770629744E+03  0.39770832519E+03  0.12700000000E+01 0. -1.
          4   -1    0    0  501    0  0.00000000000E+00 -0.00000000000E+00 -0.97768323568E+01  0.98589731175E+01  0.12700000000E+01 0. -1.
         25    2    1    2    0    0  0.00000000000E+00  0.00000000000E+00  0.38792946509E+03  0.40756729831E+03  0.12498733043E+03 0.  0.
    9000005    1    3    3    0    0 -0.56044443407E+02  0.37325611401E+01  0.28324030444E+03  0.28875765221E+03  0.10000000000E+01 0.  0.
    9000005    1    3    3    0    0  0.56044443407E+02 -0.37325611401E+01  0.10468916064E+03  0.11880964610E+03  0.10000000000E+01 0.  0.
<mgrwt>
<rscale>  0 0.12498733E+03</rscale>
<asrwt>0</asrwt>
<pdfrwt beam="2">  1        4 0.15106024E-02 0.12498733E+03</pdfrwt>
<pdfrwt beam="1">  1       -4 0.61192063E-01 0.12498733E+03</pdfrwt>
<totfact> 0.63841242E+03</totfact>
</mgrwt>
</event>
<event>
 5    1  0.3308162E-002  0.1249995E+03  0.7818608E-02  0.1235070E+00
          4   -1    0    0  501    0  0.00000000000E+00  0.00000000000E+00  0.13352862109E+03  0.13353466048E+03  0.12700000000E+01 0. -1.
         -4   -1    0    0    0  501 -0.00000000000E+00 -0.00000000000E+00 -0.29233297452E+02  0.29260871141E+02  0.12700000000E+01 0. -1.
         25    2    1    2    0    0  0.00000000000E+00  0.00000000000E+00  0.10429532364E+03  0.16279553163E+03  0.12499948234E+03 0.  0.
    9000005    1    3    3    0    0  0.36252094548E+00 -0.42686483629E+01 -0.29048217004E+02  0.29379443347E+02  0.10000000000E+01 0.  0.
    9000005    1    3    3    0    0 -0.36252094548E+00  0.42686483629E+01  0.13334354064E+03  0.13341608828E+03  0.10000000000E+01 0.  0.
<mgrwt>
<rscale>  0 0.12499948E+03</rscale>
<asrwt>0</asrwt>
<pdfrwt beam="1">  1        4 0.20545450E-01 0.12499948E+03</pdfrwt>
<pdfrwt beam="2">  1       -4 0.45000160E-02 0.12499948E+03</pdfrwt>
<totfact> 0.96807646E+03</totfact>
</mgrwt>
</event>
<event>
 5    1  0.3308162E-002  0.1249993E+03  0.7818608E-02  0.1235070E+00
          4   -1    0    0  501    0  0.00000000000E+00  0.00000000000E+00  0.17283729885E+03  0.17284196473E+03  0.12700000000E+01 0.  1.
         -4   -1    0    0    0  501 -0.00000000000E+00 -0.00000000000E+00 -0.22577666424E+02  0.22613357140E+02  0.12700000000E+01 0.  1.
         25    2    1    2    0    0  0.00000000000E+00  0.00000000000E+00  0.15025963243E+03  0.19545532187E+03  0.12499930285E+03 0.  0.
    9000005    1    3    3    0    0 -0.36009743980E+02  0.76795833975E+01 -0.38234075030E+01  0.37031015482E+02  0.10000000000E+01 0.  0.
    9000005    1    3    3    0    0  0.36009743980E+02 -0.76795833975E+01  0.15408303993E+03  0.15842430639E+03  0.10000000000E+01 0.  0.
<mgrwt>
<rscale>  0 0.12499930E+03</rscale>
<asrwt>0</asrwt>
<pdfrwt beam="1">  1        4 0.26593458E-01 0.12499930E+03</pdfrwt>
<pdfrwt beam="2">  1       -4 0.34765915E-02 0.12499930E+03</pdfrwt>
<totfact> 0.90908094E+03</totfact>
</mgrwt>
</event>
<event>
 5    1  0.3308162E-002  0.1250090E+03  0.7818608E-02  0.1235055E+00
          4   -1    0    0  501    0  0.00000000000E+00  0.00000000000E+00  0.89250156473E+03  0.89250246831E+03  0.12700000000E+01 0. -1.
         -4   -1    0    0    0  501 -0.00000000000E+00 -0.00000000000E+00 -0.42843330397E+01  0.44686026446E+01  0.12700000000E+01 0. -1.
         25    2    1    2    0    0  0.00000000000E+00  0.00000000000E+00  0.88821723169E+03  0.89697107096E+03  0.12500900553E+03 0.  0.
    9000005    1    3    3    0    0  0.57911536765E+02 -0.22511161759E+02  0.39580772757E+03  0.40065603165E+03  0.10000000000E+01 0.  0.
    9000005    1    3    3    0    0 -0.57911536765E+02  0.22511161759E+02  0.49240950412E+03  0.49631503931E+03  0.10000000000E+01 0.  0.
<mgrwt>
<rscale>  0 0.12500901E+03</rscale>
<asrwt>0</asrwt>
<pdfrwt beam="1">  1        4 0.13732215E+00 0.12500901E+03</pdfrwt>
<pdfrwt beam="2">  1       -4 0.67337239E-03 0.12500901E+03</pdfrwt>
<totfact> 0.34269432E+03</totfact>
</mgrwt>
</event>
<event>
 5    1  0.3308162E-002  0.1249997E+03  0.7818608E-02  0.1235070E+00
         -4   -1    0    0    0  501 -0.00000000000E+00  0.00000000000E+00  0.37435930271E+03  0.37436145692E+03  0.12700000000E+01 0. -1.
          4   -1    0    0  501    0  0.00000000000E+00 -0.00000000000E+00 -0.10393605297E+02  0.10470908799E+02  0.12700000000E+01 0. -1.
         25    2    1    2    0    0  0.00000000000E+00  0.00000000000E+00  0.36396569741E+03  0.38483236572E+03  0.12499968324E+03 0.  0.
    9000005    1    3    3    0    0 -0.47346759886E+02 -0.10860400566E+02  0.30301659839E+03  0.30688715006E+03  0.10000000000E+01 0.  0.
    9000005    1    3    3    0    0  0.47346759886E+02  0.10860400566E+02  0.60949099028E+02  0.77945215661E+02  0.10000000000E+01 0.  0.
<mgrwt>
<rscale>  0 0.12499968E+03</rscale>
<asrwt>0</asrwt>
<pdfrwt beam="2">  1        4 0.16051283E-02 0.12499968E+03</pdfrwt>
<pdfrwt beam="1">  1       -4 0.57599852E-01 0.12499968E+03</pdfrwt>
<totfact> 0.66055661E+03</totfact>
</mgrwt>
</event>
<event>
 5    1  0.3308162E-002  0.1249993E+03  0.7818608E-02  0.1235070E+00
         -4   -1    0    0    0  501 -0.00000000000E+00  0.00000000000E+00  0.69858222418E+01  0.71003248090E+01  0.12700000000E+01 0.  1.
          4   -1    0    0  501    0  0.00000000000E+00 -0.00000000000E+00 -0.55450165655E+03  0.55450311092E+03  0.12700000000E+01 0.  1.
         25    2    1    2    0    0  0.00000000000E+00  0.00000000000E+00 -0.54751583431E+03  0.56160343573E+03  0.12499932080E+03 0.  0.
    9000005    1    3    3    0    0  0.43008534235E+02 -0.37275610026E+02 -0.38970504893E+03  0.39384036142E+03  0.10000000000E+01 0.  0.
    9000005    1    3    3    0    0 -0.43008534235E+02  0.37275610026E+02 -0.15781078538E+03  0.16776307431E+03  0.10000000000E+01 0.  0.
<mgrwt>
<rscale>  0 0.12499932E+03</rscale>
<asrwt>0</asrwt>
<pdfrwt beam="2">  1        4 0.85316833E-01 0.12499932E+03</pdfrwt>
<pdfrwt beam="1">  1       -4 0.10836621E-02 0.12499932E+03</pdfrwt>
<totfact> 0.51385399E+03</totfact>
</mgrwt>
</event>
<event>
 5    1  0.3308162E-002  0.1249996E+03  0.7818608E-02  0.1235070E+00
         -4   -1    0    0    0  501 -0.00000000000E+00  0.00000000000E+00  0.25343092848E+03  0.25343411059E+03  0.12700000000E+01 0. -1.
          4   -1    0    0  501    0  0.00000000000E+00 -0.00000000000E+00 -0.15383924594E+02  0.15436257186E+02  0.12700000000E+01 0. -1.
         25    2    1    2    0    0  0.00000000000E+00  0.00000000000E+00  0.23804700388E+03  0.26887036777E+03  0.12499959443E+03 0.  0.
    9000005    1    3    3    0    0 -0.57058537245E+02  0.16813199428E+02  0.77824464820E+02  0.97959214330E+02  0.10000000000E+01 0.  0.
    9000005    1    3    3    0    0  0.57058537245E+02 -0.16813199428E+02  0.16022253906E+03  0.17091115344E+03  0.10000000000E+01 0.  0.
<mgrwt>
<rscale>  0 0.12499959E+03</rscale>
<asrwt>0</asrwt>
<pdfrwt beam="2">  1        4 0.23710282E-02 0.12499959E+03</pdfrwt>
<pdfrwt beam="1">  1       -4 0.38993641E-01 0.12499959E+03</pdfrwt>
<totfact> 0.79677845E+03</totfact>
</mgrwt>
</event>
<event>
 5    1  0.3308162E-002  0.1250006E+03  0.7818608E-02  0.1235068E+00
         -4   -1    0    0    0  501 -0.00000000000E+00  0.00000000000E+00  0.15216352428E+03  0.15216882407E+03  0.12700000000E+01 0. -1.
          4   -1    0    0  501    0  0.00000000000E+00 -0.00000000000E+00 -0.25650189843E+02  0.25681610910E+02  0.12700000000E+01 0. -1.
         25    2    1    2    0    0  0.00000000000E+00  0.00000000000E+00  0.12651333443E+03  0.17785043498E+03  0.12500061374E+03 0.  0.
    9000005    1    3    3    0    0 -0.55860417065E+02 -0.23758810381E+02  0.84380336643E+02  0.10395147174E+03  0.10000000000E+01 0.  0.
    9000005    1    3    3    0    0  0.55860417065E+02  0.23758810381E+02  0.42132997790E+02  0.73898963242E+02  0.10000000000E+01 0.  0.
<mgrwt>
<rscale>  0 0.12500061E+03</rscale>
<asrwt>0</asrwt>
<pdfrwt beam="2">  1        4 0.39490078E-02 0.12500061E+03</pdfrwt>
<pdfrwt beam="1">  1       -4 0.23412597E-01 0.12500061E+03</pdfrwt>
<totfact> 0.94004075E+03</totfact>
</mgrwt>
</event>
<event>
 5    1  0.3308162E-002  0.1249977E+03  0.7818608E-02  0.1235073E+00
          4   -1    0    0  501    0  0.00000000000E+00  0.00000000000E+00  0.28029409817E+03  0.28029697532E+03  0.12700000000E+01 0. -1.
         -4   -1    0    0    0  501 -0.00000000000E+00 -0.00000000000E+00 -0.13903861503E+02  0.13961742896E+02  0.12700000000E+01 0. -1.
         25    2    1    2    0    0  0.00000000000E+00  0.00000000000E+00  0.26639023667E+03  0.29425871821E+03  0.12499774018E+03 0.  0.
    9000005    1    3    3    0    0 -0.99358721145E+01  0.41052820171E+02  0.24161350850E+03  0.24527972417E+03  0.10000000000E+01 0.  0.
    9000005    1    3    3    0    0  0.99358721145E+01 -0.41052820171E+02  0.24776728172E+02  0.48978994044E+02  0.10000000000E+01 0.  0.
<mgrwt>
<rscale>  0 0.12499774E+03</rscale>
<asrwt>0</asrwt>
<pdfrwt beam="1">  1        4 0.43126837E-01 0.12499774E+03</pdfrwt>
<pdfrwt beam="2">  1       -4 0.21437297E-02 0.12499774E+03</pdfrwt>
<totfact> 0.76328538E+03</totfact>
</mgrwt>
</event>
<event>
 5    1  0.3308162E-002  0.1249959E+03  0.7818608E-02  0.1235076E+00
         -4   -1    0    0    0  501 -0.00000000000E+00  0.00000000000E+00  0.13585907136E+02  0.13645137328E+02  0.12700000000E+01 0. -1.
          4   -1    0    0  501    0  0.00000000000E+00 -0.00000000000E+00 -0.28681743734E+03  0.28682024904E+03  0.12700000000E+01 0. -1.
         25    2    1    2    0    0  0.00000000000E+00  0.00000000000E+00 -0.27323153020E+03  0.30046538637E+03  0.12499591717E+03 0.  0.
    9000005    1    3    3    0    0 -0.60459682389E+02  0.92353004139E+01 -0.16743048213E+03  0.17825439774E+03  0.10000000000E+01 0.  0.
    9000005    1    3    3    0    0  0.60459682389E+02 -0.92353004139E+01 -0.10580104808E+03  0.12221098863E+03  0.10000000000E+01 0.  0.
<mgrwt>
<rscale>  0 0.12499592E+03</rscale>
<asrwt>0</asrwt>
<pdfrwt beam="2">  1        4 0.44130527E-01 0.12499592E+03</pdfrwt>
<pdfrwt beam="1">  1       -4 0.20949122E-02 0.12499592E+03</pdfrwt>
<totfact> 0.75547348E+03</totfact>
</mgrwt>
</event>
<event>
 5    1  0.3308162E-002  0.1249945E+03  0.7818608E-02  0.1235078E+00
         -4   -1    0    0    0  501 -0.00000000000E+00  0.00000000000E+00  0.61183688466E+02  0.61196867847E+02  0.12700000000E+01 0.  1.
          4   -1    0    0  501    0  0.00000000000E+00 -0.00000000000E+00 -0.63812600740E+02  0.63825237275E+02  0.12700000000E+01 0.  1.
         25    2    1    2    0    0  0.00000000000E+00  0.00000000000E+00 -0.26289122740E+01  0.12502210512E+03  0.12499446223E+03 0.  0.
    9000005    1    3    3    0    0  0.43179403437E+01 -0.49406069010E+02  0.36711048048E+02  0.61711468243E+02  0.10000000000E+01 0.  0.
    9000005    1    3    3    0    0 -0.43179403437E+01  0.49406069010E+02 -0.39339960322E+02  0.63310636879E+02  0.10000000000E+01 0.  0.
<mgrwt>
<rscale>  0 0.12499446E+03</rscale>
<asrwt>0</asrwt>
<pdfrwt beam="2">  1        4 0.98193090E-02 0.12499446E+03</pdfrwt>
<pdfrwt beam="1">  1       -4 0.94148610E-02 0.12499446E+03</pdfrwt>
<totfact> 0.10453691E+04</totfact>
</mgrwt>
</event>
<event>
 5    1  0.3308162E-002  0.1250002E+03  0.7818608E-02  0.1235069E+00
          4   -1    0    0  501    0  0.00000000000E+00  0.00000000000E+00  0.36109601489E+03  0.36109824822E+03  0.12700000000E+01 0. -1.
         -4   -1    0    0    0  501 -0.00000000000E+00 -0.00000000000E+00 -0.10778254159E+02  0.10852818193E+02  0.12700000000E+01 0. -1.
         25    2    1    2    0    0  0.00000000000E+00  0.00000000000E+00  0.35031776073E+03  0.37195106642E+03  0.12500024930E+03 0.  0.
    9000005    1    3    3    0    0 -0.51924661782E+02  0.98663160095E+01  0.27437418532E+03  0.27942030754E+03  0.10000000000E+01 0.  0.
    9000005    1    3    3    0    0  0.51924661782E+02 -0.98663160095E+01  0.75943575409E+02  0.92530758879E+02  0.10000000000E+01 0.  0.
<mgrwt>
<rscale>  0 0.12500025E+03</rscale>
<asrwt>0</asrwt>
<pdfrwt beam="1">  1        4 0.55559133E-01 0.12500025E+03</pdfrwt>
<pdfrwt beam="2">  1       -4 0.16641007E-02 0.12500025E+03</pdfrwt>
<totfact> 0.67374944E+03</totfact>
</mgrwt>
</event>
<event>
 5    1  0.3308162E-002  0.1249994E+03  0.7818608E-02  0.1235070E+00
          4   -1    0    0  501    0  0.00000000000E+00  0.00000000000E+00  0.61151295730E+01  0.62456152375E+01  0.12700000000E+01 0. -1.
         -4   -1    0    0    0  501 -0.00000000000E+00 -0.00000000000E+00 -0.63190402303E+03  0.63190529925E+03  0.12700000000E+01 0. -1.
         25    2    1    2    0    0  0.00000000000E+00  0.00000000000E+00 -0.62578889346E+03  0.63815091449E+03  0.12499940195E+03 0.  0.
    9000005    1    3    3    0    0 -0.25310339679E+02  0.33998441512E+02 -0.78458930916E+02  0.89181338633E+02  0.10000000000E+01 0.  0.
    9000005    1    3    3    0    0  0.25310339679E+02 -0.33998441512E+02 -0.54732996254E+03  0.54896957585E+03  0.10000000000E+01 0.  0.
<mgrwt>
<rscale>  0 0.12499940E+03</rscale>
<asrwt>0</asrwt>
<pdfrwt beam="1">  1        4 0.95092519E-03 0.12499940E+03</pdfrwt>
<pdfrwt beam="2">  1       -4 0.97226088E-01 0.12499940E+03</pdfrwt>
<totfact> 0.46545291E+03</totfact>
</mgrwt>
</event>
<event>
 5    1  0.3308162E-002  0.1250027E+03  0.7818608E-02  0.1235065E+00
          4   -1    0    0  501    0  0.00000000000E+00  0.00000000000E+00  0.18169150282E+03  0.18169594133E+03  0.12700000000E+01 0. -1.
         -4   -1    0    0    0  501 -0.00000000000E+00 -0.00000000000E+00 -0.21476806400E+02  0.21514323441E+02  0.12700000000E+01 0. -1.
         25    2    1    2    0    0  0.00000000000E+00  0.00000000000E+00  0.16021469642E+03  0.20321026478E+03  0.12500265102E+03 0.  0.
    9000005    1    3    3    0    0 -0.35973238789E+02  0.47311149779E+02  0.11150368812E+03  0.12635858209E+03  0.10000000000E+01 0.  0.
    9000005    1    3    3    0    0  0.35973238789E+02 -0.47311149779E+02  0.48711008298E+02  0.76851682687E+02  0.10000000000E+01 0.  0.
<mgrwt>
<rscale>  0 0.12500265E+03</rscale>
<asrwt>0</asrwt>
<pdfrwt beam="1">  1        4 0.27955766E-01 0.12500265E+03</pdfrwt>
<pdfrwt beam="2">  1       -4 0.33073514E-02 0.12500265E+03</pdfrwt>
<totfact> 0.89591566E+03</totfact>
</mgrwt>
</event>
<event>
 5    1  0.3308162E-002  0.1249779E+03  0.7818608E-02  0.1235104E+00
         -4   -1    0    0    0  501 -0.00000000000E+00  0.00000000000E+00  0.27816805873E+02  0.27845782248E+02  0.12700000000E+01 0. -1.
          4   -1    0    0  501    0  0.00000000000E+00 -0.00000000000E+00 -0.14027322453E+03  0.14027897354E+03  0.12700000000E+01 0. -1.
         25    2    1    2    0    0  0.00000000000E+00  0.00000000000E+00 -0.11245641865E+03  0.16812475579E+03  0.12497794771E+03 0.  0.
    9000005    1    3    3    0    0 -0.14795723209E+02 -0.33453105721E+02  0.11913614412E+02  0.38483216030E+02  0.10000000000E+01 0.  0.
    9000005    1    3    3    0    0  0.14795723209E+02  0.33453105721E+02 -0.12437003306E+03  0.12964153976E+03  0.10000000000E+01 0.  0.
<mgrwt>
<rscale>  0 0.12497795E+03</rscale>
<asrwt>0</asrwt>
<pdfrwt beam="2">  1        4 0.21583167E-01 0.12497795E+03</pdfrwt>
<pdfrwt beam="1">  1       -4 0.42821799E-02 0.12497795E+03</pdfrwt>
<totfact> 0.95846322E+03</totfact>
</mgrwt>
</event>
<event>
 5    1  0.3308162E-002  0.1249894E+03  0.7818608E-02  0.1235086E+00
         -4   -1    0    0    0  501 -0.00000000000E+00  0.00000000000E+00  0.30148026827E+03  0.30148294322E+03  0.12700000000E+01 0. -1.
          4   -1    0    0  501    0  0.00000000000E+00 -0.00000000000E+00 -0.12920834263E+02  0.12983098939E+02  0.12700000000E+01 0. -1.
         25    2    1    2    0    0  0.00000000000E+00  0.00000000000E+00  0.28855943400E+03  0.31446604216E+03  0.12498937843E+03 0.  0.
    9000005    1    3    3    0    0 -0.99680397087E+01 -0.46553296914E+02  0.42453508808E+02  0.63795545921E+02  0.10000000000E+01 0.  0.
    9000005    1    3    3    0    0  0.99680397087E+01  0.46553296914E+02  0.24610592519E+03  0.25067049624E+03  0.10000000000E+01 0.  0.
<mgrwt>
<rscale>  0 0.12498938E+03</rscale>
<asrwt>0</asrwt>
<pdfrwt beam="2">  1        4 0.19928160E-02 0.12498938E+03</pdfrwt>
<pdfrwt beam="1">  1       -4 0.46386575E-01 0.12498938E+03</pdfrwt>
<totfact> 0.73836574E+03</totfact>
</mgrwt>
</event>
<event>
 5    1  0.3308162E-002  0.1249995E+03  0.7818608E-02  0.1235070E+00
         -4   -1    0    0    0  501 -0.00000000000E+00  0.00000000000E+00  0.24636583729E+03  0.24636911065E+03  0.12700000000E+01 0. -1.
          4   -1    0    0  501    0  0.00000000000E+00 -0.00000000000E+00 -0.15826545917E+02  0.15877419679E+02  0.12700000000E+01 0. -1.
         25    2    1    2    0    0  0.00000000000E+00  0.00000000000E+00  0.23053929137E+03  0.26224653033E+03  0.12499951121E+03 0.  0.
    9000005    1    3    3    0    0 -0.15615789024E+02 -0.85178147774E+01  0.24095274333E+03  0.24161049347E+03  0.10000000000E+01 0.  0.
    9000005    1    3    3    0    0  0.15615789024E+02  0.85178147774E+01 -0.10413451962E+02  0.20636036858E+02  0.10000000000E+01 0.  0.
<mgrwt>
<rscale>  0 0.12499951E+03</rscale>
<asrwt>0</asrwt>
<pdfrwt beam="2">  1        4 0.24390187E-02 0.12499951E+03</pdfrwt>
<pdfrwt beam="1">  1       -4 0.37906596E-01 0.12499951E+03</pdfrwt>
<totfact> 0.80592703E+03</totfact>
</mgrwt>
</event>
<event>
 5    1  0.3308162E-002  0.1249607E+03  0.7818608E-02  0.1235131E+00
         -4   -1    0    0    0  501 -0.00000000000E+00  0.00000000000E+00  0.70365741817E+02  0.70377201716E+02  0.12700000000E+01 0.  1.
          4   -1    0    0  501    0  0.00000000000E+00 -0.00000000000E+00 -0.55455335179E+02  0.55469875606E+02  0.12700000000E+01 0.  1.
         25    2    1    2    0    0  0.00000000000E+00  0.00000000000E+00  0.14910406638E+02  0.12584707732E+03  0.12496066039E+03 0.  0.
    9000005    1    3    3    0    0 -0.56737012870E+01  0.55282068043E+02 -0.21286578901E+02  0.59518202046E+02  0.10000000000E+01 0.  0.
    9000005    1    3    3    0    0  0.56737012870E+01 -0.55282068043E+02  0.36196985539E+02  0.66328875277E+02  0.10000000000E+01 0.  0.
<mgrwt>
<rscale>  0 0.12496066E+03</rscale>
<asrwt>0</asrwt>
<pdfrwt beam="2">  1        4 0.85335901E-02 0.12496066E+03</pdfrwt>
<pdfrwt beam="1">  1       -4 0.10827499E-01 0.12496066E+03</pdfrwt>
<totfact> 0.10443579E+04</totfact>
</mgrwt>
</event>
<event>
 5    1  0.3308162E-002  0.1250038E+03  0.7818608E-02  0.1235063E+00
         -4   -1    0    0    0  501 -0.00000000000E+00  0.00000000000E+00  0.18002059765E+02  0.18046801816E+02  0.12700000000E+01 0. -1.
          4   -1    0    0  501    0  0.00000000000E+00 -0.00000000000E+00 -0.21668641716E+03  0.21669013886E+03  0.12700000000E+01 0. -1.
         25    2    1    2    0    0  0.00000000000E+00  0.00000000000E+00 -0.19868435739E+03  0.23473694068E+03  0.12500382973E+03 0.  0.
    9000005    1    3    3    0    0  0.29962358897E+02 -0.72712736350E+01 -0.20141912694E+03  0.20376770860E+03  0.10000000000E+01 0.  0.
    9000005    1    3    3    0    0 -0.29962358897E+02  0.72712736350E+01  0.27347695490E+01  0.30969232077E+02  0.10000000000E+01 0.  0.
<mgrwt>
<rscale>  0 0.12500383E+03</rscale>
<asrwt>0</asrwt>
<pdfrwt beam="2">  1        4 0.33340098E-01 0.12500383E+03</pdfrwt>
<pdfrwt beam="1">  1       -4 0.27732758E-02 0.12500383E+03</pdfrwt>
<totfact> 0.84580279E+03</totfact>
</mgrwt>
</event>
<event>
 5    1  0.3308162E-002  0.1250012E+03  0.7818608E-02  0.1235067E+00
          4   -1    0    0  501    0  0.00000000000E+00  0.00000000000E+00  0.48109624512E+02  0.48126384351E+02  0.12700000000E+01 0. -1.
         -4   -1    0    0    0  501 -0.00000000000E+00 -0.00000000000E+00 -0.81160417914E+02  0.81170353800E+02  0.12700000000E+01 0. -1.
         25    2    1    2    0    0  0.00000000000E+00  0.00000000000E+00 -0.33050793402E+02  0.12929673815E+03  0.12500116620E+03 0.  0.
    9000005    1    3    3    0    0 -0.17939414358E+01 -0.59402618629E+02  0.34631020620E+01  0.59538915020E+02  0.10000000000E+01 0.  0.
    9000005    1    3    3    0    0  0.17939414358E+01  0.59402618629E+02 -0.36513895464E+02  0.69757823130E+02  0.10000000000E+01 0.  0.
<mgrwt>
<rscale>  0 0.12500117E+03</rscale>
<asrwt>0</asrwt>
<pdfrwt beam="1">  1        4 0.74035342E-02 0.12500117E+03</pdfrwt>
<pdfrwt beam="2">  1       -4 0.12488272E-01 0.12500117E+03</pdfrwt>
<totfact> 0.10359302E+04</totfact>
</mgrwt>
</event>
<event>
 5    1  0.3308162E-002  0.1249976E+03  0.7818608E-02  0.1235073E+00
         -4   -1    0    0    0  501 -0.00000000000E+00  0.00000000000E+00  0.33195007786E+02  0.33219293218E+02  0.12700000000E+01 0.  1.
          4   -1    0    0  501    0  0.00000000000E+00 -0.00000000000E+00 -0.11760050955E+03  0.11760736689E+03  0.12700000000E+01 0.  1.
         25    2    1    2    0    0  0.00000000000E+00  0.00000000000E+00 -0.84405501765E+02  0.15082666011E+03  0.12499757066E+03 0.  0.
    9000005    1    3    3    0    0  0.62483284398E+02 -0.30984871276E+00 -0.41095973356E+02  0.74793956049E+02  0.10000000000E+01 0.  0.
    9000005    1    3    3    0    0 -0.62483284398E+02  0.30984871276E+00 -0.43309528409E+02  0.76032704058E+02  0.10000000000E+01 0.  0.
<mgrwt>
<rscale>  0 0.12499757E+03</rscale>
<asrwt>0</asrwt>
<pdfrwt beam="2">  1        4 0.18094781E-01 0.12499757E+03</pdfrwt>
<pdfrwt beam="1">  1       -4 0.51093199E-02 0.12499757E+03</pdfrwt>
<totfact> 0.99144591E+03</totfact>
</mgrwt>
</event>
<event>
 5    1  0.3308162E-002  0.1249961E+03  0.7818608E-02  0.1235075E+00
         -4   -1    0    0    0  501 -0.00000000000E+00  0.00000000000E+00  0.54569593450E+03  0.54569741234E+03  0.12700000000E+01 0.  1.
          4   -1    0    0  501    0  0.00000000000E+00 -0.00000000000E+00 -0.71000111612E+01  0.72127011923E+01  0.12700000000E+01 0.  1.
         25    2    1    2    0    0  0.00000000000E+00  0.00000000000E+00  0.53859592334E+03  0.55291011353E+03  0.12499609996E+03 0.  0.
    9000005    1    3    3    0    0  0.17090442909E+01  0.73904695613E+01  0.54367356206E+03  0.54372739674E+03  0.10000000000E+01 0.  0.
    9000005    1    3    3    0    0 -0.17090442909E+01 -0.73904695613E+01 -0.50776387236E+01  0.91827167947E+01  0.10000000000E+01 0.  0.
<mgrwt>
<rscale>  0 0.12499610E+03</rscale>
<asrwt>0</asrwt>
<pdfrwt beam="2">  1        4 0.11010915E-02 0.12499610E+03</pdfrwt>
<pdfrwt beam="1">  1       -4 0.83962005E-01 0.12499610E+03</pdfrwt>
<totfact> 0.51986143E+03</totfact>
</mgrwt>
</event>
<event>
 5    1  0.3308162E-002  0.1250008E+03  0.7818608E-02  0.1235068E+00
          4   -1    0    0  501    0  0.00000000000E+00  0.00000000000E+00  0.38619399414E+02  0.38640275764E+02  0.12700000000E+01 0. -1.
         -4   -1    0    0    0  501 -0.00000000000E+00 -0.00000000000E+00 -0.10109640205E+03  0.10110437877E+03  0.12700000000E+01 0. -1.
         25    2    1    2    0    0  0.00000000000E+00  0.00000000000E+00 -0.62477002635E+02  0.13974465454E+03  0.12500077045E+03 0.  0.
    9000005    1    3    3    0    0 -0.17482153664E+02 -0.56817411388E+02 -0.96920792547E+01  0.60239358678E+02  0.10000000000E+01 0.  0.
    9000005    1    3    3    0    0  0.17482153664E+02  0.56817411388E+02 -0.52784923380E+02  0.79505295860E+02  0.10000000000E+01 0.  0.
<mgrwt>
<rscale>  0 0.12500077E+03</rscale>
<asrwt>0</asrwt>
<pdfrwt beam="1">  1        4 0.59436656E-02 0.12500077E+03</pdfrwt>
<pdfrwt beam="2">  1       -4 0.15555512E-01 0.12500077E+03</pdfrwt>
<totfact> 0.10138705E+04</totfact>
</mgrwt>
</event>
<event>
 5    1  0.3308162E-002  0.1250002E+03  0.7818608E-02  0.1235069E+00
          4   -1    0    0  501    0  0.00000000000E+00  0.00000000000E+00  0.56469436377E+03  0.56469579188E+03  0.12700000000E+01 0. -1.
         -4   -1    0    0    0  501 -0.00000000000E+00 -0.00000000000E+00 -0.68577359338E+01  0.69743416993E+01  0.12700000000E+01 0. -1.
         25    2    1    2    0    0  0.00000000000E+00  0.00000000000E+00  0.55783662783E+03  0.57167013358E+03  0.12500015311E+03 0.  0.
    9000005    1    3    3    0    0 -0.54036671979E+02  0.23085885563E+02  0.18165093034E+03  0.19092139881E+03  0.10000000000E+01 0.  0.
    9000005    1    3    3    0    0  0.54036671979E+02 -0.23085885563E+02  0.37618569750E+03  0.38074873477E+03  0.10000000000E+01 0.  0.
<mgrwt>
<rscale>  0 0.12500015E+03</rscale>
<asrwt>0</asrwt>
<pdfrwt beam="1">  1        4 0.86885143E-01 0.12500015E+03</pdfrwt>
<pdfrwt beam="2">  1       -4 0.10641157E-02 0.12500015E+03</pdfrwt>
<totfact> 0.50705962E+03</totfact>
</mgrwt>
</event>
<event>
 5    1  0.3308162E-002  0.1250094E+03  0.7818608E-02  0.1235055E+00
          4   -1    0    0  501    0  0.00000000000E+00  0.00000000000E+00  0.50466947183E+01  0.52040395444E+01  0.12700000000E+01 0. -1.
         -4   -1    0    0    0  501 -0.00000000000E+00 -0.00000000000E+00 -0.76209725336E+03  0.76209831155E+03  0.12700000000E+01 0. -1.
         25    2    1    2    0    0  0.00000000000E+00  0.00000000000E+00 -0.75705055864E+03  0.76730235110E+03  0.12500939831E+03 0.  0.
    9000005    1    3    3    0    0  0.43462852031E+02 -0.39929915201E+02 -0.50467781612E+03  0.50811821038E+03  0.10000000000E+01 0.  0.
    9000005    1    3    3    0    0 -0.43462852031E+02  0.39929915201E+02 -0.25237274252E+03  0.25918414072E+03  0.10000000000E+01 0.  0.
<mgrwt>
<rscale>  0 0.12500940E+03</rscale>
<asrwt>0</asrwt>
<pdfrwt beam="1">  1        4 0.78860002E-03 0.12500940E+03</pdfrwt>
<pdfrwt beam="2">  1       -4 0.11725783E+00 0.12500940E+03</pdfrwt>
<totfact> 0.39751779E+03</totfact>
</mgrwt>
</event>
<event>
 5    1  0.3308162E-002  0.1249965E+03  0.7818608E-02  0.1235075E+00
         -4   -1    0    0    0  501 -0.00000000000E+00  0.00000000000E+00  0.57752177141E+03  0.57752316780E+03  0.12700000000E+01 0. -1.
          4   -1    0    0  501    0  0.00000000000E+00 -0.00000000000E+00 -0.67024008871E+01  0.68216623818E+01  0.12700000000E+01 0. -1.
         25    2    1    2    0    0  0.00000000000E+00  0.00000000000E+00  0.57081937052E+03  0.58434483019E+03  0.12499650716E+03 0.  0.
    9000005    1    3    3    0    0 -0.50185482875E+02 -0.27808330189E+02  0.16965110254E+03  0.17909322297E+03  0.10000000000E+01 0.  0.
    9000005    1    3    3    0    0  0.50185482875E+02  0.27808330189E+02  0.40116826798E+03  0.40525160722E+03  0.10000000000E+01 0.  0.
<mgrwt>
<rscale>  0 0.12499651E+03</rscale>
<asrwt>0</asrwt>
<pdfrwt beam="2">  1        4 0.10404201E-02 0.12499651E+03</pdfrwt>
<pdfrwt beam="1">  1       -4 0.88858777E-01 0.12499651E+03</pdfrwt>
<totfact> 0.49874784E+03</totfact>
</mgrwt>
</event>
<event>
 5    1  0.3308162E-002  0.1249965E+03  0.7818608E-02  0.1235075E+00
         -4   -1    0    0    0  501 -0.00000000000E+00  0.00000000000E+00  0.16826047751E+04  0.16826052544E+04  0.12700000000E+01 0. -1.
          4   -1    0    0  501    0  0.00000000000E+00 -0.00000000000E+00 -0.21472052900E+01  0.24946724349E+01  0.12700000000E+01 0. -1.
         25    2    1    2    0    0  0.00000000000E+00  0.00000000000E+00  0.16804575698E+04  0.16850999268E+04  0.12499647772E+03 0.  0.
    9000005    1    3    3    0    0 -0.51682589545E+02 -0.12040154798E+02  0.39535508293E+03  0.39890186385E+03  0.10000000000E+01 0.  0.
    9000005    1    3    3    0    0  0.51682589545E+02  0.12040154798E+02  0.12851024869E+04  0.12861980630E+04  0.10000000000E+01 0.  0.
<mgrwt>
<rscale>  0 0.12499648E+03</rscale>
<asrwt>0</asrwt>
<pdfrwt beam="2">  1        4 0.35710339E-03 0.12499648E+03</pdfrwt>
<pdfrwt beam="1">  1       -4 0.25888976E+00 0.12499648E+03</pdfrwt>
<totfact> 0.14559072E+03</totfact>
</mgrwt>
</event>
<event>
 5    1  0.3308162E-002  0.1250061E+03  0.7818608E-02  0.1235060E+00
          4   -1    0    0  501    0  0.00000000000E+00  0.00000000000E+00  0.88048494841E+02  0.88057653522E+02  0.12700000000E+01 0. -1.
         -4   -1    0    0    0  501 -0.00000000000E+00 -0.00000000000E+00 -0.44348543305E+02  0.44366723941E+02  0.12700000000E+01 0. -1.
         25    2    1    2    0    0  0.00000000000E+00  0.00000000000E+00  0.43699951536E+02  0.13242437746E+03  0.12500611978E+03 0.  0.
    9000005    1    3    3    0    0  0.10983493922E+02 -0.61302878010E+02  0.27349640669E+02  0.68027074285E+02  0.10000000000E+01 0.  0.
    9000005    1    3    3    0    0 -0.10983493922E+02  0.61302878010E+02  0.16350310867E+02  0.64397303178E+02  0.10000000000E+01 0.  0.
<mgrwt>
<rscale>  0 0.12500612E+03</rscale>
<asrwt>0</asrwt>
<pdfrwt beam="1">  1        4 0.13548025E-01 0.12500612E+03</pdfrwt>
<pdfrwt beam="2">  1       -4 0.68249559E-02 0.12500612E+03</pdfrwt>
<totfact> 0.10291228E+04</totfact>
</mgrwt>
</event>
<event>
 5    1  0.3308162E-002  0.1250002E+03  0.7818608E-02  0.1235069E+00
         -4   -1    0    0    0  501 -0.00000000000E+00  0.00000000000E+00  0.24862977728E+01  0.27918768983E+01  0.12700000000E+01 0.  1.
          4   -1    0    0  501    0  0.00000000000E+00 -0.00000000000E+00 -0.14798503637E+04  0.14798509087E+04  0.12700000000E+01 0.  1.
         25    2    1    2    0    0  0.00000000000E+00  0.00000000000E+00 -0.14773640659E+04  0.14826427855E+04  0.12500018502E+03 0.  0.
    9000005    1    3    3    0    0  0.34353186190E+02 -0.45795071050E+02 -0.44145927977E+03  0.44515685508E+03  0.10000000000E+01 0.  0.
    9000005    1    3    3    0    0 -0.34353186190E+02  0.45795071050E+02 -0.10359047862E+04  0.10374859305E+04  0.10000000000E+01 0.  0.
<mgrwt>
<rscale>  0 0.12500019E+03</rscale>
<asrwt>0</asrwt>
<pdfrwt beam="2">  1        4 0.22769217E+00 0.12500019E+03</pdfrwt>
<pdfrwt beam="1">  1       -4 0.40605654E-03 0.12500019E+03</pdfrwt>
<totfact> 0.18273909E+03</totfact>
</mgrwt>
</event>
<event>
 5    1  0.3308162E-002  0.1250000E+03  0.7818608E-02  0.1235069E+00
          4   -1    0    0  501    0  0.00000000000E+00  0.00000000000E+00  0.23046849171E+02  0.23081814416E+02  0.12700000000E+01 0.  1.
         -4   -1    0    0    0  501 -0.00000000000E+00 -0.00000000000E+00 -0.16932579135E+03  0.16933055400E+03  0.12700000000E+01 0.  1.
         25    2    1    2    0    0  0.00000000000E+00  0.00000000000E+00 -0.14627894218E+03  0.19241236841E+03  0.12499996237E+03 0.  0.
    9000005    1    3    3    0    0  0.54911720764E+02 -0.50065617757E+01 -0.27870329109E+02  0.61790921523E+02  0.10000000000E+01 0.  0.
    9000005    1    3    3    0    0 -0.54911720764E+02  0.50065617757E+01 -0.11840861307E+03  0.13062144689E+03  0.10000000000E+01 0.  0.
<mgrwt>
<rscale>  0 0.12499996E+03</rscale>
<asrwt>0</asrwt>
<pdfrwt beam="1">  1        4 0.35487252E-02 0.12499996E+03</pdfrwt>
<pdfrwt beam="2">  1       -4 0.26053177E-01 0.12499996E+03</pdfrwt>
<totfact> 0.91429334E+03</totfact>
</mgrwt>
</event>
<event>
 5    1  0.3308162E-002  0.1250052E+03  0.7818608E-02  0.1235061E+00
          4   -1    0    0  501    0  0.00000000000E+00  0.00000000000E+00  0.10103016661E+04  0.10103024644E+04  0.12700000000E+01 0.  1.
         -4   -1    0    0    0  501 -0.00000000000E+00 -0.00000000000E+00 -0.37616379458E+01  0.39702418107E+01  0.12700000000E+01 0.  1.
         25    2    1    2    0    0  0.00000000000E+00  0.00000000000E+00  0.10065400282E+04  0.10142727062E+04  0.12500517645E+03 0.  0.
    9000005    1    3    3    0    0 -0.50880246253E+02  0.36281929211E+02  0.50837393120E+03  0.51220135862E+03  0.10000000000E+01 0.  0.
    9000005    1    3    3    0    0  0.50880246253E+02 -0.36281929211E+02  0.49816609700E+03  0.50207134757E+03  0.10000000000E+01 0.  0.
<mgrwt>
<rscale>  0 0.12500518E+03</rscale>
<asrwt>0</asrwt>
<pdfrwt beam="1">  1        4 0.15544726E+00 0.12500518E+03</pdfrwt>
<pdfrwt beam="2">  1       -4 0.59482091E-03 0.12500518E+03</pdfrwt>
<totfact> 0.30133591E+03</totfact>
</mgrwt>
</event>
<event>
 5    1  0.3308162E-002  0.1249975E+03  0.7818608E-02  0.1235073E+00
          4   -1    0    0  501    0  0.00000000000E+00  0.00000000000E+00  0.27497731017E+03  0.27498024294E+03  0.12700000000E+01 0. -1.
         -4   -1    0    0    0  501 -0.00000000000E+00 -0.00000000000E+00 -0.14173754078E+02  0.14230537750E+02  0.12700000000E+01 0. -1.
         25    2    1    2    0    0  0.00000000000E+00  0.00000000000E+00  0.26080355609E+03  0.28921078069E+03  0.12499752317E+03 0.  0.
    9000005    1    3    3    0    0 -0.60643566270E+02 -0.14963799432E+02  0.12604988466E+03  0.14068095409E+03  0.10000000000E+01 0.  0.
    9000005    1    3    3    0    0  0.60643566270E+02  0.14963799432E+02  0.13475367143E+03  0.14852982659E+03  0.10000000000E+01 0.  0.
<mgrwt>
<rscale>  0 0.12499752E+03</rscale>
<asrwt>0</asrwt>
<pdfrwt beam="1">  1        4 0.42308795E-01 0.12499752E+03</pdfrwt>
<pdfrwt beam="2">  1       -4 0.21851711E-02 0.12499752E+03</pdfrwt>
<totfact> 0.76976695E+03</totfact>
</mgrwt>
</event>
<event>
 5    1  0.3308162E-002  0.1249934E+03  0.7818608E-02  0.1235080E+00
          4   -1    0    0  501    0  0.00000000000E+00  0.00000000000E+00  0.57489338387E+02  0.57503364494E+02  0.12700000000E+01 0. -1.
         -4   -1    0    0    0  501 -0.00000000000E+00 -0.00000000000E+00 -0.67911965714E+02  0.67923839608E+02  0.12700000000E+01 0. -1.
         25    2    1    2    0    0  0.00000000000E+00  0.00000000000E+00 -0.10422627327E+02  0.12542720410E+03  0.12499340930E+03 0.  0.
    9000005    1    3    3    0    0 -0.38103801909E+02  0.40434242519E+02  0.23488828056E+02  0.60328705700E+02  0.10000000000E+01 0.  0.
    9000005    1    3    3    0    0  0.38103801909E+02 -0.40434242519E+02 -0.33911455384E+02  0.65098498402E+02  0.10000000000E+01 0.  0.
<mgrwt>
<rscale>  0 0.12499341E+03</rscale>
<asrwt>0</asrwt>
<pdfrwt beam="1">  1        4 0.88465059E-02 0.12499341E+03</pdfrwt>
<pdfrwt beam="2">  1       -4 0.10449987E-01 0.12499341E+03</pdfrwt>
<totfact> 0.10445117E+04</totfact>
</mgrwt>
</event>
<event>
 5    1  0.3308162E-002  0.1250095E+03  0.7818608E-02  0.1235054E+00
          4   -1    0    0  501    0  0.00000000000E+00  0.00000000000E+00  0.12069186952E+03  0.12069855123E+03  0.12700000000E+01 0. -1.
         -4   -1    0    0    0  501 -0.00000000000E+00 -0.00000000000E+00 -0.32350382815E+02  0.32375301825E+02  0.12700000000E+01 0. -1.
         25    2    1    2    0    0  0.00000000000E+00  0.00000000000E+00  0.88341486708E+02  0.15307385305E+03  0.12500954450E+03 0.  0.
    9000005    1    3    3    0    0 -0.12377578878E+02  0.54905432123E+02  0.10905055946E+02  0.57338740662E+02  0.10000000000E+01 0.  0.
    9000005    1    3    3    0    0  0.12377578878E+02 -0.54905432123E+02  0.77436430762E+02  0.95735112392E+02  0.10000000000E+01 0.  0.
<mgrwt>
<rscale>  0 0.12500954E+03</rscale>
<asrwt>0</asrwt>
<pdfrwt beam="1">  1        4 0.18570410E-01 0.12500954E+03</pdfrwt>
<pdfrwt beam="2">  1       -4 0.49794129E-02 0.12500954E+03</pdfrwt>
<totfact> 0.98673274E+03</totfact>
</mgrwt>
</event>
<event>
 5    1  0.3308162E-002  0.1249853E+03  0.7818608E-02  0.1235092E+00
         -4   -1    0    0    0  501 -0.00000000000E+00  0.00000000000E+00  0.62138755671E+02  0.62151732529E+02  0.12700000000E+01 0. -1.
          4   -1    0    0  501    0  0.00000000000E+00 -0.00000000000E+00 -0.62822632947E+02  0.62835468570E+02  0.12700000000E+01 0. -1.
         25    2    1    2    0    0  0.00000000000E+00  0.00000000000E+00 -0.68387727546E+00  0.12498720110E+03  0.12498533014E+03 0.  0.
    9000005    1    3    3    0    0 -0.26421190800E+02  0.23164853282E+02  0.51327427174E+02  0.62210887561E+02  0.10000000000E+01 0.  0.
    9000005    1    3    3    0    0  0.26421190800E+02 -0.23164853282E+02 -0.52011304449E+02  0.62776313538E+02  0.10000000000E+01 0.  0.
<mgrwt>
<rscale>  0 0.12498533E+03</rscale>
<asrwt>0</asrwt>
<pdfrwt beam="2">  1        4 0.96670060E-02 0.12498533E+03</pdfrwt>
<pdfrwt beam="1">  1       -4 0.95617942E-02 0.12498533E+03</pdfrwt>
<totfact> 0.10456607E+04</totfact>
</mgrwt>
</event>
<event>
 5    1  0.3308162E-002  0.1249971E+03  0.7818608E-02  0.1235074E+00
          4   -1    0    0  501    0  0.00000000000E+00  0.00000000000E+00  0.13267450384E+03  0.13268058211E+03  0.12700000000E+01 0. -1.
         -4   -1    0    0    0  501 -0.00000000000E+00 -0.00000000000E+00 -0.29420516910E+02  0.29447915296E+02  0.12700000000E+01 0. -1.
         25    2    1    2    0    0  0.00000000000E+00  0.00000000000E+00  0.10325398693E+03  0.16212849740E+03  0.12499705538E+03 0.  0.
    9000005    1    3    3    0    0  0.24617456655E+02  0.59908915394E+01 -0.22466230840E+02  0.33876857613E+02  0.10000000000E+01 0.  0.
    9000005    1    3    3    0    0 -0.24617456655E+02 -0.59908915394E+01  0.12572021777E+03  0.12825163979E+03  0.10000000000E+01 0.  0.
<mgrwt>
<rscale>  0 0.12499706E+03</rscale>
<asrwt>0</asrwt>
<pdfrwt beam="1">  1        4 0.20414037E-01 0.12499706E+03</pdfrwt>
<pdfrwt beam="2">  1       -4 0.45288085E-02 0.12499706E+03</pdfrwt>
<totfact> 0.96940405E+03</totfact>
</mgrwt>
</event>
<event>
 5    1  0.3308162E-002  0.1250027E+03  0.7818608E-02  0.1235065E+00
         -4   -1    0    0    0  501 -0.00000000000E+00  0.00000000000E+00  0.27418878473E+03  0.27419172594E+03  0.12700000000E+01 0.  1.
          4   -1    0    0  501    0  0.00000000000E+00 -0.00000000000E+00 -0.14215869765E+02  0.14272485879E+02  0.12700000000E+01 0.  1.
         25    2    1    2    0    0  0.00000000000E+00  0.00000000000E+00  0.25997291497E+03  0.28846421182E+03  0.12500273990E+03 0.  0.
    9000005    1    3    3    0    0  0.29330432896E+01 -0.12761443415E+02  0.27099891293E+03  0.27131691431E+03  0.10000000000E+01 0.  0.
    9000005    1    3    3    0    0 -0.29330432896E+01  0.12761443415E+02 -0.11025997959E+02  0.17147297512E+02  0.10000000000E+01 0.  0.
<mgrwt>
<rscale>  0 0.12500274E+03</rscale>
<asrwt>0</asrwt>
<pdfrwt beam="2">  1        4 0.21916382E-02 0.12500274E+03</pdfrwt>
<pdfrwt beam="1">  1       -4 0.42187472E-01 0.12500274E+03</pdfrwt>
<totfact> 0.77064339E+03</totfact>
</mgrwt>
</event>
<event>
 5    1  0.3308162E-002  0.1249984E+03  0.7818608E-02  0.1235072E+00
          4   -1    0    0  501    0  0.00000000000E+00  0.00000000000E+00  0.50889647011E+02  0.50905491579E+02  0.12700000000E+01 0.  1.
         -4   -1    0    0    0  501 -0.00000000000E+00 -0.00000000000E+00 -0.76724153371E+02  0.76734663683E+02  0.12700000000E+01 0.  1.
         25    2    1    2    0    0  0.00000000000E+00  0.00000000000E+00 -0.25834506360E+02  0.12764015526E+03  0.12499835005E+03 0.  0.
    9000005    1    3    3    0    0 -0.52843478230E+02  0.21324768569E+02 -0.39110263104E+02  0.69121571350E+02  0.10000000000E+01 0.  0.
    9000005    1    3    3    0    0  0.52843478230E+02 -0.21324768569E+02  0.13275756743E+02  0.58518583911E+02  0.10000000000E+01 0.  0.
<mgrwt>
<rscale>  0 0.12499835E+03</rscale>
<asrwt>0</asrwt>
<pdfrwt beam="1">  1        4 0.78312037E-02 0.12499835E+03</pdfrwt>
<pdfrwt beam="2">  1       -4 0.11805743E-01 0.12499835E+03</pdfrwt>
<totfact> 0.10395654E+04</totfact>
</mgrwt>
</event>
<event>
 5    1  0.3308162E-002  0.1249992E+03  0.7818608E-02  0.1235071E+00
          4   -1    0    0  501    0  0.00000000000E+00  0.00000000000E+00  0.66754799297E+02  0.66766878983E+02  0.12700000000E+01 0. -1.
         -4   -1    0    0    0  501 -0.00000000000E+00 -0.00000000000E+00 -0.58491373115E+02  0.58505158993E+02  0.12700000000E+01 0. -1.
         25    2    1    2    0    0  0.00000000000E+00  0.00000000000E+00  0.82634261822E+01  0.12527203798E+03  0.12499919714E+03 0.  0.
    9000005    1    3    3    0    0  0.14509537946E+02 -0.59955854538E+02  0.14151968793E+02  0.63296993653E+02  0.10000000000E+01 0.  0.
    9000005    1    3    3    0    0 -0.14509537946E+02  0.59955854538E+02 -0.58885426106E+01  0.61975044324E+02  0.10000000000E+01 0.  0.
<mgrwt>
<rscale>  0 0.12499920E+03</rscale>
<asrwt>0</asrwt>
<pdfrwt beam="1">  1        4 0.10271959E-01 0.12499920E+03</pdfrwt>
<pdfrwt beam="2">  1       -4 0.90006625E-02 0.12499920E+03</pdfrwt>
<totfact> 0.10447146E+04</totfact>
</mgrwt>
</event>
<event>
 5    1  0.3308162E-002  0.1249965E+03  0.7818608E-02  0.1235075E+00
          4   -1    0    0  501    0  0.00000000000E+00  0.00000000000E+00  0.10143313004E+03  0.10144108029E+03  0.12700000000E+01 0.  1.
         -4   -1    0    0    0  501 -0.00000000000E+00 -0.00000000000E+00 -0.38488488932E+02  0.38509436250E+02  0.12700000000E+01 0.  1.
         25    2    1    2    0    0  0.00000000000E+00  0.00000000000E+00  0.62944641109E+02  0.13995051654E+03  0.12499647689E+03 0.  0.
    9000005    1    3    3    0    0 -0.48947042949E+02  0.31205423371E+02  0.57380176243E+02  0.81627667410E+02  0.10000000000E+01 0.  0.
    9000005    1    3    3    0    0  0.48947042949E+02 -0.31205423371E+02  0.55644648665E+01  0.58322849128E+02  0.10000000000E+01 0.  0.
<mgrwt>
<rscale>  0 0.12499648E+03</rscale>
<asrwt>0</asrwt>
<pdfrwt beam="1">  1        4 0.15607320E-01 0.12499648E+03</pdfrwt>
<pdfrwt beam="2">  1       -4 0.59235290E-02 0.12499648E+03</pdfrwt>
<totfact> 0.10135416E+04</totfact>
</mgrwt>
</event>
<event>
 5    1  0.3308162E-002  0.1250094E+03  0.7818608E-02  0.1235055E+00
         -4   -1    0    0    0  501 -0.00000000000E+00  0.00000000000E+00  0.73281447462E+01  0.74373789349E+01  0.12700000000E+01 0. -1.
          4   -1    0    0  501    0  0.00000000000E+00 -0.00000000000E+00 -0.52907380001E+03  0.52907532427E+03  0.12700000000E+01 0. -1.
         25    2    1    2    0    0  0.00000000000E+00  0.00000000000E+00 -0.52174565526E+03  0.53651270321E+03  0.12500940732E+03 0.  0.
    9000005    1    3    3    0    0  0.93392989630E+01  0.29224354198E+01 -0.52578631314E+03  0.52587832264E+03  0.10000000000E+01 0.  0.
    9000005    1    3    3    0    0 -0.93392989630E+01 -0.29224354198E+01  0.40406578831E+01  0.10634380566E+02  0.10000000000E+01 0.  0.
<mgrwt>
<rscale>  0 0.12500941E+03</rscale>
<asrwt>0</asrwt>
<pdfrwt beam="2">  1        4 0.81404459E-01 0.12500941E+03</pdfrwt>
<pdfrwt beam="1">  1       -4 0.11359272E-02 0.12500941E+03</pdfrwt>
<totfact> 0.53127729E+03</totfact>
</mgrwt>
</event>
<event>
 5    1  0.3308162E-002  0.1250032E+03  0.7818608E-02  0.1235064E+00
          4   -1    0    0  501    0  0.00000000000E+00  0.00000000000E+00  0.35346369314E+01  0.37558698375E+01  0.12700000000E+01 0. -1.
         -4   -1    0    0    0  501 -0.00000000000E+00 -0.00000000000E+00 -0.10714329825E+04  0.10714337352E+04  0.12700000000E+01 0. -1.
         25    2    1    2    0    0  0.00000000000E+00  0.00000000000E+00 -0.10678983456E+04  0.10751896050E+04  0.12500324106E+03 0.  0.
    9000005    1    3    3    0    0 -0.54318131444E+01 -0.51814023662E+02 -0.23707929176E+03  0.24273810624E+03  0.10000000000E+01 0.  0.
    9000005    1    3    3    0    0  0.54318131444E+01  0.51814023662E+02 -0.83081905380E+03  0.83245149876E+03  0.10000000000E+01 0.  0.
<mgrwt>
<rscale>  0 0.12500324E+03</rscale>
<asrwt>0</asrwt>
<pdfrwt beam="1">  1        4 0.56086697E-03 0.12500324E+03</pdfrwt>
<pdfrwt beam="2">  1       -4 0.16485267E+00 0.12500324E+03</pdfrwt>
<totfact> 0.28219159E+03</totfact>
</mgrwt>
</event>
<event>
 5    1  0.3308162E-002  0.1249963E+03  0.7818608E-02  0.1235075E+00
          4   -1    0    0  501    0  0.00000000000E+00  0.00000000000E+00  0.51893043570E+02  0.51908581863E+02  0.12700000000E+01 0.  1.
         -4   -1    0    0    0  501 -0.00000000000E+00 -0.00000000000E+00 -0.75238401663E+02  0.75249119495E+02  0.12700000000E+01 0.  1.
         25    2    1    2    0    0  0.00000000000E+00  0.00000000000E+00 -0.23345358092E+02  0.12715770136E+03  0.12499630103E+03 0.  0.
    9000005    1    3    3    0    0  0.28644650553E+02 -0.52453216774E+02 -0.30241049821E+02  0.66987887334E+02  0.10000000000E+01 0.  0.
    9000005    1    3    3    0    0 -0.28644650553E+02  0.52453216774E+02  0.68956917287E+01  0.60169814024E+02  0.10000000000E+01 0.  0.
<mgrwt>
<rscale>  0 0.12499630E+03</rscale>
<asrwt>0</asrwt>
<pdfrwt beam="1">  1        4 0.79855648E-02 0.12499630E+03</pdfrwt>
<pdfrwt beam="2">  1       -4 0.11577158E-01 0.12499630E+03</pdfrwt>
<totfact> 0.10406590E+04</totfact>
</mgrwt>
</event>
<event>
 5    1  0.3308162E-002  0.1249949E+03  0.7818608E-02  0.1235077E+00
          4   -1    0    0  501    0  0.00000000000E+00  0.00000000000E+00  0.73287266783E+03  0.73287376823E+03  0.12700000000E+01 0. -1.
         -4   -1    0    0    0  501 -0.00000000000E+00 -0.00000000000E+00 -0.52528383646E+01  0.54041845716E+01  0.12700000000E+01 0. -1.
         25    2    1    2    0    0  0.00000000000E+00  0.00000000000E+00  0.72761982947E+03  0.73827795280E+03  0.12499487731E+03 0.  0.
    9000005    1    3    3    0    0  0.15955082497E+02 -0.58648507989E+02  0.27807095996E+03  0.28463778899E+03  0.10000000000E+01 0.  0.
    9000005    1    3    3    0    0 -0.15955082497E+02  0.58648507989E+02  0.44954886951E+03  0.45364016381E+03  0.10000000000E+01 0.  0.
<mgrwt>
<rscale>  0 0.12499488E+03</rscale>
<asrwt>0</asrwt>
<pdfrwt beam="1">  1        4 0.11276133E+00 0.12499488E+03</pdfrwt>
<pdfrwt beam="2">  1       -4 0.81985593E-03 0.12499488E+03</pdfrwt>
<totfact> 0.41145797E+03</totfact>
</mgrwt>
</event>
<event>
 5    1  0.3308162E-002  0.1250013E+03  0.7818608E-02  0.1235067E+00
          4   -1    0    0  501    0  0.00000000000E+00  0.00000000000E+00  0.54589452042E+02  0.54604223044E+02  0.12700000000E+01 0.  1.
         -4   -1    0    0    0  501 -0.00000000000E+00 -0.00000000000E+00 -0.71528294145E+02  0.71539567816E+02  0.12700000000E+01 0.  1.
         25    2    1    2    0    0  0.00000000000E+00  0.00000000000E+00 -0.16938842103E+02  0.12614379086E+03  0.12500132640E+03 0.  0.
    9000005    1    3    3    0    0  0.52339335294E+02  0.34144194018E+02 -0.81488765377E+01  0.63028852068E+02  0.10000000000E+01 0.  0.
    9000005    1    3    3    0    0 -0.52339335294E+02 -0.34144194018E+02 -0.87899655653E+01  0.63114938793E+02  0.10000000000E+01 0.  0.
<mgrwt>
<rscale>  0 0.12500133E+03</rscale>
<asrwt>0</asrwt>
<pdfrwt beam="1">  1        4 0.84003807E-02 0.12500133E+03</pdfrwt>
<pdfrwt beam="2">  1       -4 0.11006356E-01 0.12500133E+03</pdfrwt>
<totfact> 0.10427496E+04</totfact>
</mgrwt>
</event>
<event>
 5    1  0.3308162E-002  0.1250029E+03  0.7818608E-02  0.1235065E+00
         -4   -1    0    0    0  501 -0.00000000000E+00  0.00000000000E+00  0.35948961754E+02  0.35971387952E+02  0.12700000000E+01 0. -1.
          4   -1    0    0  501    0  0.00000000000E+00 -0.00000000000E+00 -0.10860601584E+03  0.10861344105E+03  0.12700000000E+01 0. -1.
         25    2    1    2    0    0  0.00000000000E+00  0.00000000000E+00 -0.72657054090E+02  0.14458482901E+03  0.12500290104E+03 0.  0.
    9000005    1    3    3    0    0 -0.37942870267E+02  0.21938367434E+02  0.15197395003E+02  0.46399506298E+02  0.10000000000E+01 0.  0.
    9000005    1    3    3    0    0  0.37942870267E+02 -0.21938367434E+02 -0.87854449093E+02  0.98185322708E+02  0.10000000000E+01 0.  0.
<mgrwt>
<rscale>  0 0.12500290E+03</rscale>
<asrwt>0</asrwt>
<pdfrwt beam="2">  1        4 0.16710914E-01 0.12500290E+03</pdfrwt>
<pdfrwt beam="1">  1       -4 0.55329058E-02 0.12500290E+03</pdfrwt>
<totfact> 0.10038775E+04</totfact>
</mgrwt>
</event>
<event>
 5    1  0.3308162E-002  0.1249947E+03  0.7818608E-02  0.1235078E+00
         -4   -1    0    0    0  501 -0.00000000000E+00  0.00000000000E+00  0.28394345229E+03  0.28394629245E+03  0.12700000000E+01 0. -1.
          4   -1    0    0  501    0  0.00000000000E+00 -0.00000000000E+00 -0.13723752244E+02  0.13782390056E+02  0.12700000000E+01 0. -1.
         25    2    1    2    0    0  0.00000000000E+00  0.00000000000E+00  0.27021970005E+03  0.29772868251E+03  0.12499472827E+03 0.  0.
    9000005    1    3    3    0    0  0.54321140309E+02  0.30035080416E+02  0.15229084507E+03  0.16445787859E+03  0.10000000000E+01 0.  0.
    9000005    1    3    3    0    0 -0.54321140309E+02 -0.30035080416E+02  0.11792885498E+03  0.13327080392E+03  0.10000000000E+01 0.  0.
<mgrwt>
<rscale>  0 0.12499473E+03</rscale>
<asrwt>0</asrwt>
<pdfrwt beam="2">  1        4 0.21160756E-02 0.12499473E+03</pdfrwt>
<pdfrwt beam="1">  1       -4 0.43688337E-01 0.12499473E+03</pdfrwt>
<totfact> 0.75893516E+03</totfact>
</mgrwt>
</event>
<event>
 5    1  0.3308162E-002  0.1250020E+03  0.7818608E-02  0.1235066E+00
         -4   -1    0    0    0  501 -0.00000000000E+00  0.00000000000E+00  0.16025613390E+04  0.16025618422E+04  0.12700000000E+01 0.  1.
          4   -1    0    0  501    0  0.00000000000E+00 -0.00000000000E+00 -0.22716255214E+01  0.26025338633E+01  0.12700000000E+01 0.  1.
         25    2    1    2    0    0  0.00000000000E+00  0.00000000000E+00  0.16002897135E+04  0.16051643761E+04  0.12500202878E+03 0.  0.
    9000005    1    3    3    0    0  0.10637867202E+02  0.24330117553E+02  0.15265768189E+04  0.15268080766E+04  0.10000000000E+01 0.  0.
    9000005    1    3    3    0    0 -0.10637867202E+02 -0.24330117553E+02  0.73712894572E+02  0.78356299459E+02  0.10000000000E+01 0.  0.
<mgrwt>
<rscale>  0 0.12500203E+03</rscale>
<asrwt>0</asrwt>
<pdfrwt beam="2">  1        4 0.37497587E-03 0.12500203E+03</pdfrwt>
<pdfrwt beam="1">  1       -4 0.24657219E+00 0.12500203E+03</pdfrwt>
<totfact> 0.15952487E+03</totfact>
</mgrwt>
</event>
<event>
 5    1  0.3308162E-002  0.1250012E+03  0.7818608E-02  0.1235067E+00
         -4   -1    0    0    0  501 -0.00000000000E+00  0.00000000000E+00  0.18622113244E+02  0.18665369047E+02  0.12700000000E+01 0. -1.
          4   -1    0    0  501    0  0.00000000000E+00 -0.00000000000E+00 -0.20947965067E+03  0.20948350041E+03  0.12700000000E+01 0. -1.
         25    2    1    2    0    0  0.00000000000E+00  0.00000000000E+00 -0.19085753743E+03  0.22814886946E+03  0.12500122817E+03 0.  0.
    9000005    1    3    3    0    0  0.48680317432E+02 -0.62569410871E+01 -0.24824901082E+02  0.55010892838E+02  0.10000000000E+01 0.  0.
    9000005    1    3    3    0    0 -0.48680317432E+02  0.62569410871E+01 -0.16603263634E+03  0.17313797662E+03  0.10000000000E+01 0.  0.
<mgrwt>
<rscale>  0 0.12500123E+03</rscale>
<asrwt>0</asrwt>
<pdfrwt beam="2">  1        4 0.32231260E-01 0.12500123E+03</pdfrwt>
<pdfrwt beam="1">  1       -4 0.28685642E-02 0.12500123E+03</pdfrwt>
<totfact> 0.85592307E+03</totfact>
</mgrwt>
</event>
<event>
 5    1  0.3308162E-002  0.1249742E+03  0.7818608E-02  0.1235110E+00
          4   -1    0    0  501    0  0.00000000000E+00  0.00000000000E+00  0.79904092605E+02  0.79914184692E+02  0.12700000000E+01 0. -1.
         -4   -1    0    0    0  501 -0.00000000000E+00 -0.00000000000E+00 -0.48845121811E+02  0.48861629370E+02  0.12700000000E+01 0. -1.
         25    2    1    2    0    0  0.00000000000E+00  0.00000000000E+00  0.31058970794E+02  0.12877581406E+03  0.12497419982E+03 0.  0.
    9000005    1    3    3    0    0  0.34252141186E+02 -0.49972322789E+02  0.31264746757E+02  0.68183037558E+02  0.10000000000E+01 0.  0.
    9000005    1    3    3    0    0 -0.34252141186E+02  0.49972322789E+02 -0.20577596307E+00  0.60592776505E+02  0.10000000000E+01 0.  0.
<mgrwt>
<rscale>  0 0.12497420E+03</rscale>
<asrwt>0</asrwt>
<pdfrwt beam="1">  1        4 0.12294983E-01 0.12497420E+03</pdfrwt>
<pdfrwt beam="2">  1       -4 0.75166803E-02 0.12497420E+03</pdfrwt>
<totfact> 0.10376809E+04</totfact>
</mgrwt>
</event>
<event>
 5    1  0.3308162E-002  0.1249993E+03  0.7818608E-02  0.1235070E+00
          4   -1    0    0  501    0  0.00000000000E+00  0.00000000000E+00  0.14955362958E+03  0.14955902187E+03  0.12700000000E+01 0.  1.
         -4   -1    0    0    0  501 -0.00000000000E+00 -0.00000000000E+00 -0.26097775015E+02  0.26128657844E+02  0.12700000000E+01 0.  1.
         25    2    1    2    0    0  0.00000000000E+00  0.00000000000E+00  0.12345585457E+03  0.17568767971E+03  0.12499925110E+03 0.  0.
    9000005    1    3    3    0    0  0.87590804756E+01  0.14955407771E+02 -0.22659070502E+02  0.28545037894E+02  0.10000000000E+01 0.  0.
    9000005    1    3    3    0    0 -0.87590804756E+01 -0.14955407771E+02  0.14611492507E+03  0.14714264182E+03  0.10000000000E+01 0.  0.
<mgrwt>
<rscale>  0 0.12499925E+03</rscale>
<asrwt>0</asrwt>
<pdfrwt beam="1">  1        4 0.23011042E-01 0.12499925E+03</pdfrwt>
<pdfrwt beam="2">  1       -4 0.40178326E-02 0.12499925E+03</pdfrwt>
<totfact> 0.94400629E+03</totfact>
</mgrwt>
</event>
<event>
 5    1  0.3308162E-002  0.1250020E+03  0.7818608E-02  0.1235066E+00
         -4   -1    0    0    0  501 -0.00000000000E+00  0.00000000000E+00  0.22146045992E+01  0.25529147128E+01  0.12700000000E+01 0. -1.
          4   -1    0    0  501    0  0.00000000000E+00 -0.00000000000E+00 -0.16384072075E+04  0.16384076997E+04  0.12700000000E+01 0. -1.
         25    2    1    2    0    0  0.00000000000E+00  0.00000000000E+00 -0.16361926029E+04  0.16409606144E+04  0.12500201726E+03 0.  0.
    9000005    1    3    3    0    0  0.52146681913E+02 -0.31086600959E+02 -0.62350707882E+03  0.62645648734E+03  0.10000000000E+01 0.  0.
    9000005    1    3    3    0    0 -0.52146681913E+02  0.31086600959E+02 -0.10126855241E+04  0.10145041271E+04  0.10000000000E+01 0.  0.
<mgrwt>
<rscale>  0 0.12500202E+03</rscale>
<asrwt>0</asrwt>
<pdfrwt beam="2">  1        4 0.25208781E+00 0.12500202E+03</pdfrwt>
<pdfrwt beam="1">  1       -4 0.36677143E-03 0.12500202E+03</pdfrwt>
<totfact> 0.15316530E+03</totfact>
</mgrwt>
</event>
<event>
 5    1  0.3308162E-002  0.1249993E+03  0.7818608E-02  0.1235070E+00
          4   -1    0    0  501    0  0.00000000000E+00  0.00000000000E+00  0.18767623449E+03  0.18768053146E+03  0.12700000000E+01 0.  1.
         -4   -1    0    0    0  501 -0.00000000000E+00 -0.00000000000E+00 -0.20789608297E+02  0.20828363189E+02  0.12700000000E+01 0.  1.
         25    2    1    2    0    0  0.00000000000E+00  0.00000000000E+00  0.16688662619E+03  0.20850889465E+03  0.12499925259E+03 0.  0.
    9000005    1    3    3    0    0  0.29332537739E+02  0.51053460232E+02  0.48519027248E+02  0.76301701010E+02  0.10000000000E+01 0.  0.
    9000005    1    3    3    0    0 -0.29332537739E+02 -0.51053460232E+02  0.11836759894E+03  0.13220719364E+03  0.10000000000E+01 0.  0.
<mgrwt>
<rscale>  0 0.12499925E+03</rscale>
<asrwt>0</asrwt>
<pdfrwt beam="1">  1        4 0.28876579E-01 0.12499925E+03</pdfrwt>
<pdfrwt beam="2">  1       -4 0.32017129E-02 0.12499925E+03</pdfrwt>
<totfact> 0.88721460E+03</totfact>
</mgrwt>
</event>
<event>
 5    1  0.3308162E-002  0.1249996E+03  0.7818608E-02  0.1235070E+00
          4   -1    0    0  501    0  0.00000000000E+00  0.00000000000E+00  0.48479844212E+03  0.48480010560E+03  0.12700000000E+01 0.  1.
         -4   -1    0    0    0  501 -0.00000000000E+00 -0.00000000000E+00 -0.80056934022E+01  0.81058020485E+01  0.12700000000E+01 0.  1.
         25    2    1    2    0    0  0.00000000000E+00  0.00000000000E+00  0.47679274872E+03  0.49290590765E+03  0.12499963423E+03 0.  0.
    9000005    1    3    3    0    0 -0.44797333692E+02 -0.24005533634E+02  0.95013477004E+02  0.10775726223E+03  0.10000000000E+01 0.  0.
    9000005    1    3    3    0    0  0.44797333692E+02  0.24005533634E+02  0.38177927172E+03  0.38514864541E+03  0.10000000000E+01 0.  0.
<mgrwt>
<rscale>  0 0.12499963E+03</rscale>
<asrwt>0</asrwt>
<pdfrwt beam="1">  1        4 0.74592196E-01 0.12499963E+03</pdfrwt>
<pdfrwt beam="2">  1       -4 0.12394739E-02 0.12499963E+03</pdfrwt>
<totfact> 0.56419469E+03</totfact>
</mgrwt>
</event>
<event>
 5    1  0.3308162E-002  0.1250137E+03  0.7818608E-02  0.1235048E+00
         -4   -1    0    0    0  501 -0.00000000000E+00  0.00000000000E+00  0.20619048750E+02  0.20658123616E+02  0.12700000000E+01 0.  1.
          4   -1    0    0  501    0  0.00000000000E+00 -0.00000000000E+00 -0.18926954749E+03  0.18927380830E+03  0.12700000000E+01 0.  1.
         25    2    1    2    0    0  0.00000000000E+00  0.00000000000E+00 -0.16865049874E+03  0.20993193192E+03  0.12501370050E+03 0.  0.
    9000005    1    3    3    0    0  0.53677504658E+02  0.28640814336E+02 -0.60308992473E+02  0.85672313644E+02  0.10000000000E+01 0.  0.
    9000005    1    3    3    0    0 -0.53677504658E+02 -0.28640814336E+02 -0.10834150627E+03  0.12425961827E+03  0.10000000000E+01 0.  0.
<mgrwt>
<rscale>  0 0.12501370E+03</rscale>
<asrwt>0</asrwt>
<pdfrwt beam="2">  1        4 0.29121724E-01 0.12501370E+03</pdfrwt>
<pdfrwt beam="1">  1       -4 0.31754950E-02 0.12501370E+03</pdfrwt>
<totfact> 0.88459901E+03</totfact>
</mgrwt>
</event>
<event>
 5    1  0.3308162E-002  0.1249989E+03  0.7818608E-02  0.1235071E+00
          4   -1    0    0  501    0  0.00000000000E+00  0.00000000000E+00  0.40209633851E+03  0.40209834412E+03  0.12700000000E+01 0.  1.
         -4   -1    0    0    0  501 -0.00000000000E+00 -0.00000000000E+00 -0.96709878681E+01  0.97540200095E+01  0.12700000000E+01 0.  1.
         25    2    1    2    0    0  0.00000000000E+00  0.00000000000E+00  0.39242535064E+03  0.41185236413E+03  0.12499885604E+03 0.  0.
    9000005    1    3    3    0    0 -0.25147325018E+02  0.27684819168E+02  0.31261416912E+02  0.48755649471E+02  0.10000000000E+01 0.  0.
    9000005    1    3    3    0    0  0.25147325018E+02 -0.27684819168E+02  0.36116393373E+03  0.36309671466E+03  0.10000000000E+01 0.  0.
<mgrwt>
<rscale>  0 0.12499886E+03</rscale>
<asrwt>0</asrwt>
<pdfrwt beam="1">  1        4 0.61867518E-01 0.12499886E+03</pdfrwt>
<pdfrwt beam="2">  1       -4 0.14943856E-02 0.12499886E+03</pdfrwt>
<totfact> 0.63417736E+03</totfact>
</mgrwt>
</event>
<event>
 5    1  0.3308162E-002  0.1250004E+03  0.7818608E-02  0.1235069E+00
          4   -1    0    0  501    0  0.00000000000E+00  0.00000000000E+00  0.19314805382E+02  0.19356513295E+02  0.12700000000E+01 0.  1.
         -4   -1    0    0    0  501 -0.00000000000E+00 -0.00000000000E+00 -0.20198060464E+03  0.20198459731E+03  0.12700000000E+01 0.  1.
         25    2    1    2    0    0  0.00000000000E+00  0.00000000000E+00 -0.18266579925E+03  0.22134111060E+03  0.12500037210E+03 0.  0.
    9000005    1    3    3    0    0  0.61136235708E+02  0.11853655837E+02 -0.10055508647E+03  0.11828133364E+03  0.10000000000E+01 0.  0.
    9000005    1    3    3    0    0 -0.61136235708E+02 -0.11853655837E+02 -0.82110712790E+02  0.10305977697E+03  0.10000000000E+01 0.  0.
<mgrwt>
<rscale>  0 0.12500037E+03</rscale>
<asrwt>0</asrwt>
<pdfrwt beam="1">  1        4 0.29750241E-02 0.12500037E+03</pdfrwt>
<pdfrwt beam="2">  1       -4 0.31077453E-01 0.12500037E+03</pdfrwt>
<totfact> 0.86655861E+03</totfact>
</mgrwt>
</event>
<event>
 5    1  0.3308162E-002  0.1250010E+03  0.7818608E-02  0.1235068E+00
          4   -1    0    0  501    0  0.00000000000E+00  0.00000000000E+00  0.19640773064E+02  0.19681790227E+02  0.12700000000E+01 0. -1.
         -4   -1    0    0    0  501 -0.00000000000E+00 -0.00000000000E+00 -0.19863752054E+03  0.19864158041E+03  0.12700000000E+01 0. -1.
         25    2    1    2    0    0  0.00000000000E+00  0.00000000000E+00 -0.17899674748E+03  0.21832337064E+03  0.12500103423E+03 0.  0.
    9000005    1    3    3    0    0 -0.47706091562E+02 -0.27816360554E+02 -0.14058953234E+03  0.15104978547E+03  0.10000000000E+01 0.  0.
    9000005    1    3    3    0    0  0.47706091562E+02  0.27816360554E+02 -0.38407215141E+02  0.67273585168E+02  0.10000000000E+01 0.  0.
<mgrwt>
<rscale>  0 0.12500103E+03</rscale>
<asrwt>0</asrwt>
<pdfrwt beam="1">  1        4 0.30251250E-02 0.12500103E+03</pdfrwt>
<pdfrwt beam="2">  1       -4 0.30563085E-01 0.12500103E+03</pdfrwt>
<totfact> 0.87132339E+03</totfact>
</mgrwt>
</event>
<event>
 5    1  0.3308162E-002  0.1250024E+03  0.7818608E-02  0.1235066E+00
         -4   -1    0    0    0  501 -0.00000000000E+00  0.00000000000E+00  0.13805842538E+02  0.13864133157E+02  0.12700000000E+01 0. -1.
          4   -1    0    0  501    0  0.00000000000E+00 -0.00000000000E+00 -0.28229675038E+03  0.28229960711E+03  0.12700000000E+01 0. -1.
         25    2    1    2    0    0  0.00000000000E+00  0.00000000000E+00 -0.26849090784E+03  0.29616374027E+03  0.12500237380E+03 0.  0.
    9000005    1    3    3    0    0  0.91097273205E+01  0.48371985150E+02 -0.43019145768E+02  0.65379530297E+02  0.10000000000E+01 0.  0.
    9000005    1    3    3    0    0 -0.91097273205E+01 -0.48371985150E+02 -0.22547176208E+03  0.23078420997E+03  0.10000000000E+01 0.  0.
<mgrwt>
<rscale>  0 0.12500237E+03</rscale>
<asrwt>0</asrwt>
<pdfrwt beam="2">  1        4 0.43434969E-01 0.12500237E+03</pdfrwt>
<pdfrwt beam="1">  1       -4 0.21286796E-02 0.12500237E+03</pdfrwt>
<totfact> 0.76078577E+03</totfact>
</mgrwt>
</event>
<event>
 5    1  0.3308162E-002  0.1249930E+03  0.7818608E-02  0.1235080E+00
         -4   -1    0    0    0  501 -0.00000000000E+00  0.00000000000E+00  0.94929680212E+02  0.94938175068E+02  0.12700000000E+01 0.  1.
          4   -1    0    0  501    0  0.00000000000E+00 -0.00000000000E+00 -0.41124144952E+02  0.41143750413E+02  0.12700000000E+01 0.  1.
         25    2    1    2    0    0  0.00000000000E+00  0.00000000000E+00  0.53805535260E+02  0.13608192548E+03  0.12499301908E+03 0.  0.
    9000005    1    3    3    0    0  0.45584214890E+02 -0.22676853071E+01 -0.19565786050E+02  0.49667726217E+02  0.10000000000E+01 0.  0.
    9000005    1    3    3    0    0 -0.45584214890E+02  0.22676853071E+01  0.73371321310E+02  0.86414199265E+02  0.10000000000E+01 0.  0.
<mgrwt>
<rscale>  0 0.12499302E+03</rscale>
<asrwt>0</asrwt>
<pdfrwt beam="2">  1        4 0.63289532E-02 0.12499302E+03</pdfrwt>
<pdfrwt beam="1">  1       -4 0.14606727E-01 0.12499302E+03</pdfrwt>
<totfact> 0.10216925E+04</totfact>
</mgrwt>
</event>
<event>
 5    1  0.3308162E-002  0.1249995E+03  0.7818608E-02  0.1235070E+00
          4   -1    0    0  501    0  0.00000000000E+00  0.00000000000E+00  0.77420367525E+01  0.78455103771E+01  0.12700000000E+01 0.  1.
         -4   -1    0    0    0  501 -0.00000000000E+00 -0.00000000000E+00 -0.50109269710E+03  0.50109430648E+03  0.12700000000E+01 0.  1.
         25    2    1    2    0    0  0.00000000000E+00  0.00000000000E+00 -0.49335066035E+03  0.50893981686E+03  0.12499945247E+03 0.  0.
    9000005    1    3    3    0    0  0.52062164036E+02  0.31517658125E+02 -0.18889621486E+03  0.19846060487E+03  0.10000000000E+01 0.  0.
    9000005    1    3    3    0    0 -0.52062164036E+02 -0.31517658125E+02 -0.30445444549E+03  0.31047921199E+03  0.10000000000E+01 0.  0.
<mgrwt>
<rscale>  0 0.12499945E+03</rscale>
<asrwt>0</asrwt>
<pdfrwt beam="1">  1        4 0.11991663E-02 0.12499945E+03</pdfrwt>
<pdfrwt beam="2">  1       -4 0.77099242E-01 0.12499945E+03</pdfrwt>
<totfact> 0.55178033E+03</totfact>
</mgrwt>
</event>
<event>
 5    1  0.3308162E-002  0.1250034E+03  0.7818608E-02  0.1235064E+00
         -4   -1    0    0    0  501 -0.00000000000E+00  0.00000000000E+00  0.88769644702E+02  0.88778728987E+02  0.12700000000E+01 0. -1.
          4   -1    0    0  501    0  0.00000000000E+00 -0.00000000000E+00 -0.43986215157E+02  0.44004545490E+02  0.12700000000E+01 0. -1.
         25    2    1    2    0    0  0.00000000000E+00  0.00000000000E+00  0.44783429545E+02  0.13278327448E+03  0.12500336963E+03 0.  0.
    9000005    1    3    3    0    0  0.14482034297E+02 -0.55277509967E+02 -0.44836970005E+01  0.57327445123E+02  0.10000000000E+01 0.  0.
    9000005    1    3    3    0    0 -0.14482034297E+02  0.55277509967E+02  0.49267126546E+02  0.75455829355E+02  0.10000000000E+01 0.  0.
<mgrwt>
<rscale>  0 0.12500337E+03</rscale>
<asrwt>0</asrwt>
<pdfrwt beam="2">  1        4 0.67692189E-02 0.12500337E+03</pdfrwt>
<pdfrwt beam="1">  1       -4 0.13658977E-01 0.12500337E+03</pdfrwt>
<totfact> 0.10284226E+04</totfact>
</mgrwt>
</event>
<event>
 5    1  0.3308162E-002  0.1249995E+03  0.7818608E-02  0.1235070E+00
          4   -1    0    0  501    0  0.00000000000E+00  0.00000000000E+00  0.43391919157E+02  0.43410500436E+02  0.12700000000E+01 0. -1.
         -4   -1    0    0    0  501 -0.00000000000E+00 -0.00000000000E+00 -0.89979488469E+02  0.89988450621E+02  0.12700000000E+01 0. -1.
         25    2    1    2    0    0  0.00000000000E+00  0.00000000000E+00 -0.46587569312E+02  0.13339895106E+03  0.12499951411E+03 0.  0.
    9000005    1    3    3    0    0  0.44677765493E+02 -0.43689507908E+02 -0.22668038858E+02  0.66480943257E+02  0.10000000000E+01 0.  0.
    9000005    1    3    3    0    0 -0.44677765493E+02  0.43689507908E+02 -0.23919530454E+02  0.66918007799E+02  0.10000000000E+01 0.  0.
<mgrwt>
<rscale>  0 0.12499951E+03</rscale>
<asrwt>0</asrwt>
<pdfrwt beam="1">  1        4 0.66777986E-02 0.12499951E+03</pdfrwt>
<pdfrwt beam="2">  1       -4 0.13845117E-01 0.12499951E+03</pdfrwt>
<totfact> 0.10272041E+04</totfact>
</mgrwt>
</event>
<event>
 5    1  0.3308162E-002  0.1249797E+03  0.7818608E-02  0.1235101E+00
          4   -1    0    0  501    0  0.00000000000E+00  0.00000000000E+00  0.38347992711E+02  0.38369016731E+02  0.12700000000E+01 0.  1.
         -4   -1    0    0    0  501 -0.00000000000E+00 -0.00000000000E+00 -0.10177727180E+03  0.10178519517E+03  0.12700000000E+01 0.  1.
         25    2    1    2    0    0  0.00000000000E+00  0.00000000000E+00 -0.63429279091E+02  0.14015421190E+03  0.12497971702E+03 0.  0.
    9000005    1    3    3    0    0 -0.45243570935E+02  0.34564811295E+02 -0.60573951306E+02  0.83137900308E+02  0.10000000000E+01 0.  0.
    9000005    1    3    3    0    0  0.45243570935E+02 -0.34564811295E+02 -0.28553277856E+01  0.57016311592E+02  0.10000000000E+01 0.  0.
<mgrwt>
<rscale>  0 0.12497972E+03</rscale>
<asrwt>0</asrwt>
<pdfrwt beam="1">  1        4 0.59019179E-02 0.12497972E+03</pdfrwt>
<pdfrwt beam="2">  1       -4 0.15660268E-01 0.12497972E+03</pdfrwt>
<totfact> 0.10135021E+04</totfact>
</mgrwt>
</event>
<event>
 5    1  0.3308162E-002  0.1249885E+03  0.7818608E-02  0.1235087E+00
          4   -1    0    0  501    0  0.00000000000E+00  0.00000000000E+00  0.42296617572E+02  0.42315679813E+02  0.12700000000E+01 0.  1.
         -4   -1    0    0    0  501 -0.00000000000E+00 -0.00000000000E+00 -0.92292526500E+02  0.92301264063E+02  0.12700000000E+01 0.  1.
         25    2    1    2    0    0  0.00000000000E+00  0.00000000000E+00 -0.49995908928E+02  0.13461694388E+03  0.12498852215E+03 0.  0.
    9000005    1    3    3    0    0  0.19458799742E+02 -0.17158419686E+02 -0.86223137053E+02  0.90047129975E+02  0.10000000000E+01 0.  0.
    9000005    1    3    3    0    0 -0.19458799742E+02  0.17158419686E+02  0.36227228125E+02  0.44569813901E+02  0.10000000000E+01 0.  0.
<mgrwt>
<rscale>  0 0.12498852E+03</rscale>
<asrwt>0</asrwt>
<pdfrwt beam="1">  1        4 0.65093104E-02 0.12498852E+03</pdfrwt>
<pdfrwt beam="2">  1       -4 0.14200989E-01 0.12498852E+03</pdfrwt>
<totfact> 0.10248804E+04</totfact>
</mgrwt>
</event>
<event>
 5    1  0.3308162E-002  0.1250003E+03  0.7818608E-02  0.1235069E+00
         -4   -1    0    0    0  501 -0.00000000000E+00  0.00000000000E+00  0.35998570866E+03  0.35998794888E+03  0.12700000000E+01 0. -1.
          4   -1    0    0  501    0  0.00000000000E+00 -0.00000000000E+00 -0.10811732787E+02  0.10886067511E+02  0.12700000000E+01 0. -1.
         25    2    1    2    0    0  0.00000000000E+00  0.00000000000E+00  0.34917397587E+03  0.37087401639E+03  0.12500028243E+03 0.  0.
    9000005    1    3    3    0    0  0.13816502980E+02 -0.27045214069E+02  0.12541545847E+02  0.32872933104E+02  0.10000000000E+01 0.  0.
    9000005    1    3    3    0    0 -0.13816502980E+02  0.27045214069E+02  0.33663243002E+03  0.33800108329E+03  0.10000000000E+01 0.  0.
<mgrwt>
<rscale>  0 0.12500028E+03</rscale>
<asrwt>0</asrwt>
<pdfrwt beam="2">  1        4 0.16692341E-02 0.12500028E+03</pdfrwt>
<pdfrwt beam="1">  1       -4 0.55388299E-01 0.12500028E+03</pdfrwt>
<totfact> 0.67487180E+03</totfact>
</mgrwt>
</event>
<event>
 5    1  0.3308162E-002  0.1249695E+03  0.7818608E-02  0.1235117E+00
         -4   -1    0    0    0  501 -0.00000000000E+00  0.00000000000E+00  0.21325044563E+02  0.21362828128E+02  0.12700000000E+01 0. -1.
          4   -1    0    0  501    0  0.00000000000E+00 -0.00000000000E+00 -0.18288515718E+03  0.18288956672E+03  0.12700000000E+01 0. -1.
         25    2    1    2    0    0  0.00000000000E+00  0.00000000000E+00 -0.16156011262E+03  0.20425239485E+03  0.12496947953E+03 0.  0.
    9000005    1    3    3    0    0  0.56480644769E+02 -0.31402996149E+01 -0.12412814281E+03  0.13641378432E+03  0.10000000000E+01 0.  0.
    9000005    1    3    3    0    0 -0.56480644769E+02  0.31402996149E+01 -0.37431969805E+02  0.67838610530E+02  0.10000000000E+01 0.  0.
<mgrwt>
<rscale>  0 0.12496948E+03</rscale>
<asrwt>0</asrwt>
<pdfrwt beam="2">  1        4 0.28139423E-01 0.12496948E+03</pdfrwt>
<pdfrwt beam="1">  1       -4 0.32840218E-02 0.12496948E+03</pdfrwt>
<totfact> 0.89484305E+03</totfact>
</mgrwt>
</event>
<event>
 5    1  0.3308162E-002  0.1249997E+03  0.7818608E-02  0.1235070E+00
         -4   -1    0    0    0  501 -0.00000000000E+00  0.00000000000E+00  0.62157505652E+03  0.62157635394E+03  0.12700000000E+01 0. -1.
          4   -1    0    0  501    0  0.00000000000E+00 -0.00000000000E+00 -0.62189253872E+01  0.63472776032E+01  0.12700000000E+01 0. -1.
         25    2    1    2    0    0  0.00000000000E+00  0.00000000000E+00  0.61535613113E+03  0.62792363155E+03  0.12499967575E+03 0.  0.
    9000005    1    3    3    0    0  0.53635346626E+02  0.31369405195E+02  0.34116564202E+03  0.34677915924E+03  0.10000000000E+01 0.  0.
    9000005    1    3    3    0    0 -0.53635346626E+02 -0.31369405195E+02  0.27419048911E+03  0.28114447231E+03  0.10000000000E+01 0.  0.
<mgrwt>
<rscale>  0 0.12499968E+03</rscale>
<asrwt>0</asrwt>
<pdfrwt beam="2">  1        4 0.96673101E-03 0.12499968E+03</pdfrwt>
<pdfrwt beam="1">  1       -4 0.95636884E-01 0.12499968E+03</pdfrwt>
<totfact> 0.47151475E+03</totfact>
</mgrwt>
</event>
<event>
 5    1  0.3308162E-002  0.1250035E+03  0.7818608E-02  0.1235064E+00
          4   -1    0    0  501    0  0.00000000000E+00  0.00000000000E+00  0.23764489173E+02  0.23798400065E+02  0.12700000000E+01 0. -1.
         -4   -1    0    0    0  501 -0.00000000000E+00 -0.00000000000E+00 -0.16422913368E+03  0.16423404413E+03  0.12700000000E+01 0. -1.
         25    2    1    2    0    0  0.00000000000E+00  0.00000000000E+00 -0.14046464451E+03  0.18803244419E+03  0.12500353480E+03 0.  0.
    9000005    1    3    3    0    0 -0.32224801673E+02 -0.32980785511E+02 -0.67818011506E+01  0.46617195139E+02  0.10000000000E+01 0.  0.
    9000005    1    3    3    0    0  0.32224801673E+02  0.32980785511E+02 -0.13368284336E+03  0.14141524905E+03  0.10000000000E+01 0.  0.
<mgrwt>
<rscale>  0 0.12500353E+03</rscale>
<asrwt>0</asrwt>
<pdfrwt beam="1">  1        4 0.36590616E-02 0.12500353E+03</pdfrwt>
<pdfrwt beam="2">  1       -4 0.25269006E-01 0.12500353E+03</pdfrwt>
<totfact> 0.92183494E+03</totfact>
</mgrwt>
</event>
<event>
 5    1  0.3308162E-002  0.1250029E+03  0.7818608E-02  0.1235065E+00
          4   -1    0    0  501    0  0.00000000000E+00  0.00000000000E+00  0.84658141363E+02  0.84667666787E+02  0.12700000000E+01 0. -1.
         -4   -1    0    0    0  501 -0.00000000000E+00 -0.00000000000E+00 -0.46122751366E+02  0.46140232916E+02  0.12700000000E+01 0. -1.
         25    2    1    2    0    0  0.00000000000E+00  0.00000000000E+00  0.38535389998E+02  0.13080789970E+03  0.12500292133E+03 0.  0.
    9000005    1    3    3    0    0  0.51864029147E+02  0.92074836094E+01 -0.15920934529E+02  0.55037545640E+02  0.10000000000E+01 0.  0.
    9000005    1    3    3    0    0 -0.51864029147E+02 -0.92074836094E+01  0.54456324527E+02  0.75770354063E+02  0.10000000000E+01 0.  0.
<mgrwt>
<rscale>  0 0.12500292E+03</rscale>
<asrwt>0</asrwt>
<pdfrwt beam="1">  1        4 0.13026407E-01 0.12500292E+03</pdfrwt>
<pdfrwt beam="2">  1       -4 0.70978854E-02 0.12500292E+03</pdfrwt>
<totfact> 0.10326529E+04</totfact>
</mgrwt>
</event>
<event>
 5    1  0.3308162E-002  0.1250064E+03  0.7818608E-02  0.1235059E+00
          4   -1    0    0  501    0  0.00000000000E+00  0.00000000000E+00  0.54325107090E+03  0.54325255539E+03  0.12700000000E+01 0. -1.
         -4   -1    0    0    0  501 -0.00000000000E+00 -0.00000000000E+00 -0.71336687130E+01  0.72458353078E+01  0.12700000000E+01 0. -1.
         25    2    1    2    0    0  0.00000000000E+00  0.00000000000E+00  0.53611740219E+03  0.55049839070E+03  0.12500643675E+03 0.  0.
    9000005    1    3    3    0    0  0.14489862966E+02  0.57723251685E+02  0.35204504923E+03  0.35704151944E+03  0.10000000000E+01 0.  0.
    9000005    1    3    3    0    0 -0.14489862966E+02 -0.57723251685E+02  0.18407235296E+03  0.19345687126E+03  0.10000000000E+01 0.  0.
<mgrwt>
<rscale>  0 0.12500644E+03</rscale>
<asrwt>0</asrwt>
<pdfrwt beam="1">  1        4 0.83585878E-01 0.12500644E+03</pdfrwt>
<pdfrwt beam="2">  1       -4 0.11062293E-02 0.12500644E+03</pdfrwt>
<totfact> 0.52141818E+03</totfact>
</mgrwt>
</event>
<event>
 5    1  0.3308162E-002  0.1249996E+03  0.7818608E-02  0.1235070E+00
          4   -1    0    0  501    0  0.00000000000E+00  0.00000000000E+00  0.48829464703E+03  0.48829629859E+03  0.12700000000E+01 0. -1.
         -4   -1    0    0    0  501 -0.00000000000E+00 -0.00000000000E+00 -0.79476437622E+01  0.80484744747E+01  0.12700000000E+01 0. -1.
         25    2    1    2    0    0  0.00000000000E+00  0.00000000000E+00  0.48034700326E+03  0.49634477306E+03  0.12499956081E+03 0.  0.
    9000005    1    3    3    0    0  0.46352699459E+02  0.13834376466E+02  0.39727060802E+03  0.40020607032E+03  0.10000000000E+01 0.  0.
    9000005    1    3    3    0    0 -0.46352699459E+02 -0.13834376466E+02  0.83076395241E+02  0.96138702746E+02  0.10000000000E+01 0.  0.
<mgrwt>
<rscale>  0 0.12499956E+03</rscale>
<asrwt>0</asrwt>
<pdfrwt beam="1">  1        4 0.75130140E-01 0.12499956E+03</pdfrwt>
<pdfrwt beam="2">  1       -4 0.12305976E-02 0.12499956E+03</pdfrwt>
<totfact> 0.56149625E+03</totfact>
</mgrwt>
</event>
<event>
 5    1  0.3308162E-002  0.1249991E+03  0.7818608E-02  0.1235071E+00
         -4   -1    0    0    0  501 -0.00000000000E+00  0.00000000000E+00  0.10886120422E+03  0.10886861202E+03  0.12700000000E+01 0.  1.
          4   -1    0    0  501    0  0.00000000000E+00 -0.00000000000E+00 -0.35862486117E+02  0.35884966358E+02  0.12700000000E+01 0.  1.
         25    2    1    2    0    0  0.00000000000E+00  0.00000000000E+00  0.72998718102E+02  0.14475357838E+03  0.12499914244E+03 0.  0.
    9000005    1    3    3    0    0 -0.48431470583E+02  0.24429114230E+02  0.56648185045E+00  0.54255966184E+02  0.10000000000E+01 0.  0.
    9000005    1    3    3    0    0  0.48431470583E+02 -0.24429114230E+02  0.72432236252E+02  0.90497612197E+02  0.10000000000E+01 0.  0.
<mgrwt>
<rscale>  0 0.12499914E+03</rscale>
<asrwt>0</asrwt>
<pdfrwt beam="2">  1        4 0.55196047E-02 0.12499914E+03</pdfrwt>
<pdfrwt beam="1">  1       -4 0.16750176E-01 0.12499914E+03</pdfrwt>
<totfact> 0.10036191E+04</totfact>
</mgrwt>
</event>
<event>
 5    1  0.3308162E-002  0.1250017E+03  0.7818608E-02  0.1235067E+00
         -4   -1    0    0    0  501 -0.00000000000E+00  0.00000000000E+00  0.70874617925E+01  0.72003482318E+01  0.12700000000E+01 0.  1.
          4   -1    0    0  501    0  0.00000000000E+00 -0.00000000000E+00 -0.54669584878E+03  0.54669732391E+03  0.12700000000E+01 0.  1.
         25    2    1    2    0    0  0.00000000000E+00  0.00000000000E+00 -0.53960838699E+03  0.55389767215E+03  0.12500167959E+03 0.  0.
    9000005    1    3    3    0    0  0.20418786782E+02  0.15065591211E+02 -0.16746550334E+02  0.30419497699E+02  0.10000000000E+01 0.  0.
    9000005    1    3    3    0    0 -0.20418786782E+02 -0.15065591211E+02 -0.52286183665E+03  0.52347817445E+03  0.10000000000E+01 0.  0.
<mgrwt>
<rscale>  0 0.12500168E+03</rscale>
<asrwt>0</asrwt>
<pdfrwt beam="2">  1        4 0.84115818E-01 0.12500168E+03</pdfrwt>
<pdfrwt beam="1">  1       -4 0.10991762E-02 0.12500168E+03</pdfrwt>
<totfact> 0.51911435E+03</totfact>
</mgrwt>
</event>
<event>
 5    1  0.3308162E-002  0.1250031E+03  0.7818608E-02  0.1235064E+00
         -4   -1    0    0    0  501 -0.00000000000E+00  0.00000000000E+00  0.11652009423E+04  0.11652016345E+04  0.12700000000E+01 0. -1.
          4   -1    0    0  501    0  0.00000000000E+00 -0.00000000000E+00 -0.32315995690E+01  0.34721946625E+01  0.12700000000E+01 0. -1.
         25    2    1    2    0    0  0.00000000000E+00  0.00000000000E+00  0.11619693428E+04  0.11686738291E+04  0.12500306123E+03 0.  0.
    9000005    1    3    3    0    0  0.27099706156E+02 -0.53655046817E+02  0.74079332613E+03  0.74322877377E+03  0.10000000000E+01 0.  0.
    9000005    1    3    3    0    0 -0.27099706156E+02  0.53655046817E+02  0.42117601665E+03  0.42544505535E+03  0.10000000000E+01 0.  0.
<mgrwt>
<rscale>  0 0.12500306E+03</rscale>
<asrwt>0</asrwt>
<pdfrwt beam="2">  1        4 0.51572962E-03 0.12500306E+03</pdfrwt>
<pdfrwt beam="1">  1       -4 0.17928028E+00 0.12500306E+03</pdfrwt>
<totfact> 0.25546035E+03</totfact>
</mgrwt>
</event>
<event>
 5    1  0.3308162E-002  0.1249995E+03  0.7818608E-02  0.1235070E+00
          4   -1    0    0  501    0  0.00000000000E+00  0.00000000000E+00  0.20785355813E+02  0.20824118619E+02  0.12700000000E+01 0.  1.
         -4   -1    0    0    0  501 -0.00000000000E+00 -0.00000000000E+00 -0.18771539664E+03  0.18771969272E+03  0.12700000000E+01 0.  1.
         25    2    1    2    0    0  0.00000000000E+00  0.00000000000E+00 -0.16693004082E+03  0.20854381134E+03  0.12499953087E+03 0.  0.
    9000005    1    3    3    0    0 -0.53117211854E+02 -0.29758499146E+02 -0.59976464367E+02  0.85470361790E+02  0.10000000000E+01 0.  0.
    9000005    1    3    3    0    0  0.53117211854E+02  0.29758499146E+02 -0.10695357646E+03  0.12307344955E+03  0.10000000000E+01 0.  0.
<mgrwt>
<rscale>  0 0.12499953E+03</rscale>
<asrwt>0</asrwt>
<pdfrwt beam="1">  1        4 0.32010594E-02 0.12499953E+03</pdfrwt>
<pdfrwt beam="2">  1       -4 0.28882603E-01 0.12499953E+03</pdfrwt>
<totfact> 0.88715180E+03</totfact>
</mgrwt>
</event>
<event>
 5    1  0.3308162E-002  0.1250009E+03  0.7818608E-02  0.1235068E+00
          4   -1    0    0  501    0  0.00000000000E+00  0.00000000000E+00  0.47931961279E+02  0.47948783218E+02  0.12700000000E+01 0. -1.
         -4   -1    0    0    0  501 -0.00000000000E+00 -0.00000000000E+00 -0.81460838708E+02  0.81470737955E+02  0.12700000000E+01 0. -1.
         25    2    1    2    0    0  0.00000000000E+00  0.00000000000E+00 -0.33528877429E+02  0.12941952117E+03  0.12500090735E+03 0.  0.
    9000005    1    3    3    0    0  0.33134014535E+02  0.19210635251E+02 -0.67890069348E+02  0.77954941742E+02  0.10000000000E+01 0.  0.
    9000005    1    3    3    0    0 -0.33134014535E+02 -0.19210635251E+02  0.34361191919E+02  0.51464579431E+02  0.10000000000E+01 0.  0.
<mgrwt>
<rscale>  0 0.12500091E+03</rscale>
<asrwt>0</asrwt>
<pdfrwt beam="1">  1        4 0.73762033E-02 0.12500091E+03</pdfrwt>
<pdfrwt beam="2">  1       -4 0.12534492E-01 0.12500091E+03</pdfrwt>
<totfact> 0.10356729E+04</totfact>
</mgrwt>
</event>
<event>
 5    1  0.3308162E-002  0.1249971E+03  0.7818608E-02  0.1235074E+00
         -4   -1    0    0    0  501 -0.00000000000E+00  0.00000000000E+00  0.88431151232E+02  0.88440270286E+02  0.12700000000E+01 0. -1.
          4   -1    0    0  501    0  0.00000000000E+00 -0.00000000000E+00 -0.44150200872E+02  0.44168463150E+02  0.12700000000E+01 0. -1.
         25    2    1    2    0    0  0.00000000000E+00  0.00000000000E+00  0.44280950360E+02  0.13260873344E+03  0.12499709444E+03 0.  0.
    9000005    1    3    3    0    0  0.47449528563E+02 -0.16239189335E+02 -0.17411109503E+02  0.53097229355E+02  0.10000000000E+01 0.  0.
    9000005    1    3    3    0    0 -0.47449528563E+02  0.16239189335E+02  0.61692059863E+02  0.79511504081E+02  0.10000000000E+01 0.  0.
<mgrwt>
<rscale>  0 0.12499709E+03</rscale>
<asrwt>0</asrwt>
<pdfrwt beam="2">  1        4 0.67944450E-02 0.12499709E+03</pdfrwt>
<pdfrwt beam="1">  1       -4 0.13606899E-01 0.12499709E+03</pdfrwt>
<totfact> 0.10289397E+04</totfact>
</mgrwt>
</event>
<event>
 5    1  0.3308162E-002  0.1250088E+03  0.7818608E-02  0.1235055E+00
          4   -1    0    0  501    0  0.00000000000E+00  0.00000000000E+00  0.19102921091E+02  0.19145090604E+02  0.12700000000E+01 0. -1.
         -4   -1    0    0    0  501 -0.00000000000E+00 -0.00000000000E+00 -0.20424372871E+03  0.20424767714E+03  0.12700000000E+01 0. -1.
         25    2    1    2    0    0  0.00000000000E+00  0.00000000000E+00 -0.18514080762E+03  0.22339276775E+03  0.12500883983E+03 0.  0.
    9000005    1    3    3    0    0  0.27798062595E+02  0.52516789714E+02 -0.57962361328E+02  0.83014341030E+02  0.10000000000E+01 0.  0.
    9000005    1    3    3    0    0 -0.27798062595E+02 -0.52516789714E+02 -0.12717844629E+03  0.14037842672E+03  0.10000000000E+01 0.  0.
<mgrwt>
<rscale>  0 0.12500884E+03</rscale>
<asrwt>0</asrwt>
<pdfrwt beam="1">  1        4 0.29424586E-02 0.12500884E+03</pdfrwt>
<pdfrwt beam="2">  1       -4 0.31425658E-01 0.12500884E+03</pdfrwt>
<totfact> 0.86317280E+03</totfact>
</mgrwt>
</event>
<event>
 5    1  0.3308162E-002  0.1249988E+03  0.7818608E-02  0.1235071E+00
         -4   -1    0    0    0  501 -0.00000000000E+00  0.00000000000E+00  0.97819990330E+01  0.98640967697E+01  0.12700000000E+01 0. -1.
          4   -1    0    0  501    0  0.00000000000E+00 -0.00000000000E+00 -0.39757087539E+03  0.39757290383E+03  0.12700000000E+01 0. -1.
         25    2    1    2    0    0  0.00000000000E+00  0.00000000000E+00 -0.38778887635E+03  0.40743700060E+03  0.12499878731E+03 0.  0.
    9000005    1    3    3    0    0  0.21610225862E+01  0.50100348469E+01 -0.39680896674E+03  0.39684773724E+03  0.10000000000E+01 0.  0.
    9000005    1    3    3    0    0 -0.21610225862E+01 -0.50100348469E+01  0.90200903867E+01  0.10589263353E+02  0.10000000000E+01 0.  0.
<mgrwt>
<rscale>  0 0.12499879E+03</rscale>
<asrwt>0</asrwt>
<pdfrwt beam="2">  1        4 0.61171209E-01 0.12499879E+03</pdfrwt>
<pdfrwt beam="1">  1       -4 0.15113945E-02 0.12499879E+03</pdfrwt>
<totfact> 0.63837560E+03</totfact>
</mgrwt>
</event>
<event>
 5    1  0.3308162E-002  0.1249989E+03  0.7818608E-02  0.1235071E+00
         -4   -1    0    0    0  501 -0.00000000000E+00  0.00000000000E+00  0.51037895109E+02  0.51053693668E+02  0.12700000000E+01 0.  1.
          4   -1    0    0  501    0  0.00000000000E+00 -0.00000000000E+00 -0.76502045904E+02  0.76512586726E+02  0.12700000000E+01 0.  1.
         25    2    1    2    0    0  0.00000000000E+00  0.00000000000E+00 -0.25464150795E+02  0.12756628039E+03  0.12499893167E+03 0.  0.
    9000005    1    3    3    0    0 -0.23493462063E+02 -0.34531946771E+01  0.46259278130E+02  0.52007577586E+02  0.10000000000E+01 0.  0.
    9000005    1    3    3    0    0  0.23493462063E+02  0.34531946771E+01 -0.71723428926E+02  0.75558702808E+02  0.10000000000E+01 0.  0.
<mgrwt>
<rscale>  0 0.12499893E+03</rscale>
<asrwt>0</asrwt>
<pdfrwt beam="2">  1        4 0.11771572E-01 0.12499893E+03</pdfrwt>
<pdfrwt beam="1">  1       -4 0.78540099E-02 0.12499893E+03</pdfrwt>
<totfact> 0.10397116E+04</totfact>
</mgrwt>
</event>
<event>
 5    1  0.3308162E-002  0.1249993E+03  0.7818608E-02  0.1235070E+00
          4   -1    0    0  501    0  0.00000000000E+00  0.00000000000E+00  0.77076642561E+03  0.77076747191E+03  0.12700000000E+01 0. -1.
         -4   -1    0    0    0  501 -0.00000000000E+00 -0.00000000000E+00 -0.49873239956E+01  0.51464842987E+01  0.12700000000E+01 0. -1.
         25    2    1    2    0    0  0.00000000000E+00  0.00000000000E+00  0.76577910162E+03  0.77591395621E+03  0.12499933985E+03 0.  0.
    9000005    1    3    3    0    0  0.24620099063E+02 -0.18013530146E+02  0.72143587369E+03  0.72208126717E+03  0.10000000000E+01 0.  0.
    9000005    1    3    3    0    0 -0.24620099063E+02  0.18013530146E+02  0.44343227923E+02  0.53832689036E+02  0.10000000000E+01 0.  0.
<mgrwt>
<rscale>  0 0.12499934E+03</rscale>
<asrwt>0</asrwt>
<pdfrwt beam="1">  1        4 0.11859177E+00 0.12499934E+03</pdfrwt>
<pdfrwt beam="2">  1       -4 0.77960421E-03 0.12499934E+03</pdfrwt>
<totfact> 0.39363420E+03</totfact>
</mgrwt>
</event>
<event>
 5    1  0.3308162E-002  0.1249981E+03  0.7818608E-02  0.1235072E+00
          4   -1    0    0  501    0  0.00000000000E+00  0.00000000000E+00  0.90400474909E+03  0.90400564117E+03  0.12700000000E+01 0.  1.
         -4   -1    0    0    0  501 -0.00000000000E+00 -0.00000000000E+00 -0.42266854967E+01  0.44133626962E+01  0.12700000000E+01 0.  1.
         25    2    1    2    0    0  0.00000000000E+00  0.00000000000E+00  0.89977806359E+03  0.90841900387E+03  0.12499809147E+03 0.  0.
    9000005    1    3    3    0    0 -0.14737790244E+02  0.40116225764E+02  0.78122610650E+03  0.78239487697E+03  0.10000000000E+01 0.  0.
    9000005    1    3    3    0    0  0.14737790244E+02 -0.40116225764E+02  0.11855195709E+03  0.12602412690E+03  0.10000000000E+01 0.  0.
<mgrwt>
<rscale>  0 0.12499809E+03</rscale>
<asrwt>0</asrwt>
<pdfrwt beam="1">  1        4 0.13909209E+00 0.12499809E+03</pdfrwt>
<pdfrwt beam="2">  1       -4 0.66468768E-03 0.12499809E+03</pdfrwt>
<totfact> 0.33840998E+03</totfact>
</mgrwt>
</event>
<event>
 5    1  0.3308162E-002  0.1250027E+03  0.7818608E-02  0.1235065E+00
          4   -1    0    0  501    0  0.00000000000E+00  0.00000000000E+00  0.48058452021E+01  0.49708196615E+01  0.12700000000E+01 0.  1.
         -4   -1    0    0    0  501 -0.00000000000E+00 -0.00000000000E+00 -0.79896584032E+03  0.79896684968E+03  0.12700000000E+01 0.  1.
         25    2    1    2    0    0  0.00000000000E+00  0.00000000000E+00 -0.79415999512E+03  0.80393766935E+03  0.12500271338E+03 0.  0.
    9000005    1    3    3    0    0 -0.45073327563E+01  0.46908882913E+02 -0.66105275058E+03  0.66273109056E+03  0.10000000000E+01 0.  0.
    9000005    1    3    3    0    0  0.45073327563E+01 -0.46908882913E+02 -0.13310724454E+03  0.14120657879E+03  0.10000000000E+01 0.  0.
<mgrwt>
<rscale>  0 0.12500271E+03</rscale>
<asrwt>0</asrwt>
<pdfrwt beam="1">  1        4 0.75212942E-03 0.12500271E+03</pdfrwt>
<pdfrwt beam="2">  1       -4 0.12293049E+00 0.12500271E+03</pdfrwt>
<totfact> 0.38087311E+03</totfact>
</mgrwt>
</event>
<event>
 5    1  0.3308162E-002  0.1250040E+03  0.7818608E-02  0.1235063E+00
         -4   -1    0    0    0  501 -0.00000000000E+00  0.00000000000E+00  0.39261507411E+02  0.39282042515E+02  0.12700000000E+01 0.  1.
          4   -1    0    0  501    0  0.00000000000E+00 -0.00000000000E+00 -0.99448910779E+02  0.99457019637E+02  0.12700000000E+01 0.  1.
         25    2    1    2    0    0  0.00000000000E+00  0.00000000000E+00 -0.60187403368E+02  0.13873906215E+03  0.12500401531E+03 0.  0.
    9000005    1    3    3    0    0 -0.27971581853E+02 -0.51144344716E+01  0.31671060722E+02  0.42574909495E+02  0.10000000000E+01 0.  0.
    9000005    1    3    3    0    0  0.27971581853E+02  0.51144344716E+01 -0.91858464089E+02  0.96164152657E+02  0.10000000000E+01 0.  0.
<mgrwt>
<rscale>  0 0.12500402E+03</rscale>
<asrwt>0</asrwt>
<pdfrwt beam="2">  1        4 0.15302036E-01 0.12500402E+03</pdfrwt>
<pdfrwt beam="1">  1       -4 0.60424353E-02 0.12500402E+03</pdfrwt>
<totfact> 0.10158867E+04</totfact>
</mgrwt>
</event>
<event>
 5    1  0.3308162E-002  0.1250015E+03  0.7818608E-02  0.1235067E+00
          4   -1    0    0  501    0  0.00000000000E+00  0.00000000000E+00  0.50783005462E+02  0.50798883292E+02  0.12700000000E+01 0. -1.
         -4   -1    0    0    0  501 -0.00000000000E+00 -0.00000000000E+00 -0.76889148435E+02  0.76899636195E+02  0.12700000000E+01 0. -1.
         25    2    1    2    0    0  0.00000000000E+00  0.00000000000E+00 -0.26106142973E+02  0.12769851949E+03  0.12500152470E+03 0.  0.
    9000005    1    3    3    0    0  0.10374438120E+02 -0.56159661860E+02  0.12867762772E+02  0.58550114477E+02  0.10000000000E+01 0.  0.
    9000005    1    3    3    0    0 -0.10374438120E+02  0.56159661860E+02 -0.38973905745E+02  0.69148405011E+02  0.10000000000E+01 0.  0.
<mgrwt>
<rscale>  0 0.12500152E+03</rscale>
<asrwt>0</asrwt>
<pdfrwt beam="1">  1        4 0.78147981E-02 0.12500152E+03</pdfrwt>
<pdfrwt beam="2">  1       -4 0.11831128E-01 0.12500152E+03</pdfrwt>
<totfact> 0.10393646E+04</totfact>
</mgrwt>
</event>
<event>
 5    1  0.3308162E-002  0.1250019E+03  0.7818608E-02  0.1235066E+00
         -4   -1    0    0    0  501 -0.00000000000E+00  0.00000000000E+00  0.14920670315E+02  0.14974621954E+02  0.12700000000E+01 0. -1.
          4   -1    0    0  501    0  0.00000000000E+00 -0.00000000000E+00 -0.26128124700E+03  0.26128433350E+03  0.12700000000E+01 0. -1.
         25    2    1    2    0    0  0.00000000000E+00  0.00000000000E+00 -0.24636057668E+03  0.27625895545E+03  0.12500190689E+03 0.  0.
    9000005    1    3    3    0    0  0.62663477314E+01  0.52941007032E+02 -0.51112993394E+02  0.73861731858E+02  0.10000000000E+01 0.  0.
    9000005    1    3    3    0    0 -0.62663477314E+01 -0.52941007032E+02 -0.19524758329E+03  0.20239722360E+03  0.10000000000E+01 0.  0.
<mgrwt>
<rscale>  0 0.12500191E+03</rscale>
<asrwt>0</asrwt>
<pdfrwt beam="2">  1        4 0.40201499E-01 0.12500191E+03</pdfrwt>
<pdfrwt beam="1">  1       -4 0.22998755E-02 0.12500191E+03</pdfrwt>
<totfact> 0.78673435E+03</totfact>
</mgrwt>
</event>
<event>
 5    1  0.3308162E-002  0.1249954E+03  0.7818608E-02  0.1235076E+00
          4   -1    0    0  501    0  0.00000000000E+00  0.00000000000E+00  0.23238254298E+03  0.23238601331E+03  0.12700000000E+01 0. -1.
         -4   -1    0    0    0  501 -0.00000000000E+00 -0.00000000000E+00 -0.16780745240E+02  0.16828734676E+02  0.12700000000E+01 0. -1.
         25    2    1    2    0    0  0.00000000000E+00  0.00000000000E+00  0.21560179774E+03  0.24921474798E+03  0.12499542161E+03 0.  0.
    9000005    1    3    3    0    0  0.13271448372E+02  0.10962235311E+02 -0.11970392309E+02  0.20990289110E+02  0.10000000000E+01 0.  0.
    9000005    1    3    3    0    0 -0.13271448372E+02 -0.10962235311E+02  0.22757219005E+03  0.22822445887E+03  0.10000000000E+01 0.  0.
<mgrwt>
<rscale>  0 0.12499542E+03</rscale>
<asrwt>0</asrwt>
<pdfrwt beam="1">  1        4 0.35755119E-01 0.12499542E+03</pdfrwt>
<pdfrwt beam="2">  1       -4 0.25856116E-02 0.12499542E+03</pdfrwt>
<totfact> 0.82452262E+03</totfact>
</mgrwt>
</event>
<event>
 5    1  0.3308162E-002  0.1249879E+03  0.7818608E-02  0.1235088E+00
          4   -1    0    0  501    0  0.00000000000E+00  0.00000000000E+00  0.12284649364E+03  0.12285305816E+03  0.12700000000E+01 0.  1.
         -4   -1    0    0    0  501 -0.00000000000E+00 -0.00000000000E+00 -0.31771577895E+02  0.31796950514E+02  0.12700000000E+01 0.  1.
         25    2    1    2    0    0  0.00000000000E+00  0.00000000000E+00  0.91074915745E+02  0.15465000868E+03  0.12498793904E+03 0.  0.
    9000005    1    3    3    0    0  0.53589240016E+02  0.31681831510E+02  0.38879904991E+02  0.73404305769E+02  0.10000000000E+01 0.  0.
    9000005    1    3    3    0    0 -0.53589240016E+02 -0.31681831510E+02  0.52195010753E+02  0.81245702907E+02  0.10000000000E+01 0.  0.
<mgrwt>
<rscale>  0 0.12498794E+03</rscale>
<asrwt>0</asrwt>
<pdfrwt beam="1">  1        4 0.18901918E-01 0.12498794E+03</pdfrwt>
<pdfrwt beam="2">  1       -4 0.48903917E-02 0.12498794E+03</pdfrwt>
<totfact> 0.98410942E+03</totfact>
</mgrwt>
</event>
<event>
 5    1  0.3308162E-002  0.1249976E+03  0.7818608E-02  0.1235073E+00
          4   -1    0    0  501    0  0.00000000000E+00  0.00000000000E+00  0.14997163409E+02  0.15050840851E+02  0.12700000000E+01 0. -1.
         -4   -1    0    0    0  501 -0.00000000000E+00 -0.00000000000E+00 -0.25993539931E+03  0.25993850179E+03  0.12700000000E+01 0. -1.
         25    2    1    2    0    0  0.00000000000E+00  0.00000000000E+00 -0.24493823590E+03  0.27498934264E+03  0.12499759662E+03 0.  0.
    9000005    1    3    3    0    0 -0.44750162950E+02 -0.22434738734E+02 -0.20476060418E+03  0.21079326273E+03  0.10000000000E+01 0.  0.
    9000005    1    3    3    0    0  0.44750162950E+02  0.22434738734E+02 -0.40177631715E+02  0.64196079914E+02  0.10000000000E+01 0.  0.
<mgrwt>
<rscale>  0 0.12499760E+03</rscale>
<asrwt>0</asrwt>
<pdfrwt beam="1">  1        4 0.23116238E-02 0.12499760E+03</pdfrwt>
<pdfrwt beam="2">  1       -4 0.39994426E-01 0.12499760E+03</pdfrwt>
<totfact> 0.78851423E+03</totfact>
</mgrwt>
</event>
<event>
 5    1  0.3308162E-002  0.1250013E+03  0.7818608E-02  0.1235067E+00
         -4   -1    0    0    0  501 -0.00000000000E+00  0.00000000000E+00  0.82585364313E+01  0.83556163140E+01  0.12700000000E+01 0.  1.
          4   -1    0    0  501    0  0.00000000000E+00 -0.00000000000E+00 -0.47014321431E+03  0.47014492963E+03  0.12700000000E+01 0.  1.
         25    2    1    2    0    0  0.00000000000E+00  0.00000000000E+00 -0.46188467788E+03  0.47850054595E+03  0.12500126725E+03 0.  0.
    9000005    1    3    3    0    0 -0.41295426182E+02  0.26625854523E+02 -0.83127301339E+02  0.96568092974E+02  0.10000000000E+01 0.  0.
    9000005    1    3    3    0    0  0.41295426182E+02 -0.26625854523E+02 -0.37875737654E+03  0.38193245297E+03  0.10000000000E+01 0.  0.
<mgrwt>
<rscale>  0 0.12500127E+03</rscale>
<asrwt>0</asrwt>
<pdfrwt beam="2">  1        4 0.72337304E-01 0.12500127E+03</pdfrwt>
<pdfrwt beam="1">  1       -4 0.12781441E-02 0.12500127E+03</pdfrwt>
<totfact> 0.57570320E+03</totfact>
</mgrwt>
</event>
<event>
 4    1  0.3308162E-002  0.1250708E+03  0.7818608E-02  0.1234959E+00
         -4   -1    0    0    0  501 -0.00000000000E+00  0.00000000000E+00  0.37118297096E+02  0.37140017222E+02  0.12700000000E+01 0. -1.
          4   -1    0    0  501    0  0.00000000000E+00 -0.00000000000E+00 -0.10530072498E+03  0.10530838324E+03  0.12700000000E+01 0. -1.
    9000005    1    1    2    0    0  0.34960542757E+02  0.37624451944E+02 -0.74709106137E+02  0.90665812045E+02  0.10000000000E+01 0.  0.
    9000005    1    1    2    0    0 -0.34960542757E+02 -0.37624451944E+02  0.65266782576E+01  0.51782588416E+02  0.10000000000E+01 0.  0.
<mgrwt>
<rscale>  0 0.12507079E+03</rscale>
<asrwt>0</asrwt>
<pdfrwt beam="2">  1        4 0.16202371E-01 0.12507079E+03</pdfrwt>
<pdfrwt beam="1">  1       -4 0.57127672E-02 0.12507079E+03</pdfrwt>
<totfact> 0.10067030E+04</totfact>
</mgrwt>
</event>
<event>
 5    1  0.3308162E-002  0.1250018E+03  0.7818608E-02  0.1235067E+00
          4   -1    0    0  501    0  0.00000000000E+00  0.00000000000E+00  0.74845352418E+02  0.74856126526E+02  0.12700000000E+01 0.  1.
         -4   -1    0    0    0  501 -0.00000000000E+00 -0.00000000000E+00 -0.52170161326E+02  0.52185617106E+02  0.12700000000E+01 0.  1.
         25    2    1    2    0    0  0.00000000000E+00  0.00000000000E+00  0.22675191092E+02  0.12704174363E+03  0.12500176132E+03 0.  0.
    9000005    1    3    3    0    0  0.39934391270E+02 -0.47193612679E+02  0.20617178133E+02  0.65177148741E+02  0.10000000000E+01 0.  0.
    9000005    1    3    3    0    0 -0.39934391270E+02  0.47193612679E+02  0.20580129589E+01  0.61864594892E+02  0.10000000000E+01 0.  0.
<mgrwt>
<rscale>  0 0.12500176E+03</rscale>
<asrwt>0</asrwt>
<pdfrwt beam="1">  1        4 0.11516687E-01 0.12500176E+03</pdfrwt>
<pdfrwt beam="2">  1       -4 0.80281964E-02 0.12500176E+03</pdfrwt>
<totfact> 0.10407825E+04</totfact>
</mgrwt>
</event>
<event>
 5    1  0.3308162E-002  0.1249996E+03  0.7818608E-02  0.1235070E+00
          4   -1    0    0  501    0  0.00000000000E+00  0.00000000000E+00  0.18770798182E+01  0.22663469823E+01  0.12700000000E+01 0.  1.
         -4   -1    0    0    0  501 -0.00000000000E+00 -0.00000000000E+00 -0.18851138056E+04  0.18851142334E+04  0.12700000000E+01 0.  1.
         25    2    1    2    0    0  0.00000000000E+00  0.00000000000E+00 -0.18832367258E+04  0.18873805804E+04  0.12499955947E+03 0.  0.
    9000005    1    3    3    0    0  0.11428574652E+02  0.60591742401E+02 -0.10950439963E+04  0.10967790687E+04  0.10000000000E+01 0.  0.
    9000005    1    3    3    0    0 -0.11428574652E+02 -0.60591742401E+02 -0.78819272946E+03  0.79060151173E+03  0.10000000000E+01 0.  0.
<mgrwt>
<rscale>  0 0.12499956E+03</rscale>
<asrwt>0</asrwt>
<pdfrwt beam="1">  1        4 0.31875955E-03 0.12499956E+03</pdfrwt>
<pdfrwt beam="2">  1       -4 0.29004611E+00 0.12499956E+03</pdfrwt>
<totfact> 0.11403914E+03</totfact>
</mgrwt>
</event>
<event>
 5    1  0.3308162E-002  0.1249993E+03  0.7818608E-02  0.1235070E+00
          4   -1    0    0  501    0  0.00000000000E+00  0.00000000000E+00  0.29450954015E+02  0.29478324111E+02  0.12700000000E+01 0.  1.
         -4   -1    0    0    0  501 -0.00000000000E+00 -0.00000000000E+00 -0.13254219252E+03  0.13254827686E+03  0.12700000000E+01 0.  1.
         25    2    1    2    0    0  0.00000000000E+00  0.00000000000E+00 -0.10309123851E+03  0.16202660097E+03  0.12499926386E+03 0.  0.
    9000005    1    3    3    0    0  0.56974400117E+02  0.22765296735E+02 -0.36161334383E+02  0.71224877034E+02  0.10000000000E+01 0.  0.
    9000005    1    3    3    0    0 -0.56974400117E+02 -0.22765296735E+02 -0.66929904126E+02  0.90801723940E+02  0.10000000000E+01 0.  0.
<mgrwt>
<rscale>  0 0.12499926E+03</rscale>
<asrwt>0</asrwt>
<pdfrwt beam="1">  1        4 0.45334895E-02 0.12499926E+03</pdfrwt>
<pdfrwt beam="2">  1       -4 0.20393680E-01 0.12499926E+03</pdfrwt>
<totfact> 0.96955093E+03</totfact>
</mgrwt>
</event>
<event>
 5    1  0.3308162E-002  0.1250022E+03  0.7818608E-02  0.1235066E+00
          4   -1    0    0  501    0  0.00000000000E+00  0.00000000000E+00  0.25518850266E+03  0.25519166285E+03  0.12700000000E+01 0.  1.
         -4   -1    0    0    0  501 -0.00000000000E+00 -0.00000000000E+00 -0.15278239791E+02  0.15330933146E+02  0.12700000000E+01 0.  1.
         25    2    1    2    0    0  0.00000000000E+00  0.00000000000E+00  0.23991026287E+03  0.27052259600E+03  0.12500216285E+03 0.  0.
    9000005    1    3    3    0    0 -0.25968777171E+02  0.21641681719E+02  0.62058684336E+01  0.34383899988E+02  0.10000000000E+01 0.  0.
    9000005    1    3    3    0    0  0.25968777171E+02 -0.21641681719E+02  0.23370439444E+03  0.23613869601E+03  0.10000000000E+01 0.  0.
<mgrwt>
<rscale>  0 0.12500216E+03</rscale>
<asrwt>0</asrwt>
<pdfrwt beam="1">  1        4 0.39264064E-01 0.12500216E+03</pdfrwt>
<pdfrwt beam="2">  1       -4 0.23547950E-02 0.12500216E+03</pdfrwt>
<totfact> 0.79447851E+03</totfact>
</mgrwt>
</event>
<event>
 5    1  0.3308162E-002  0.1249980E+03  0.7818608E-02  0.1235072E+00
          4   -1    0    0  501    0  0.00000000000E+00  0.00000000000E+00  0.11212532808E+03  0.11213252024E+03  0.12700000000E+01 0. -1.
         -4   -1    0    0    0  501 -0.00000000000E+00 -0.00000000000E+00 -0.34817233302E+02  0.34840387983E+02  0.12700000000E+01 0. -1.
         25    2    1    2    0    0  0.00000000000E+00  0.00000000000E+00  0.77308094774E+02  0.14697290823E+03  0.12499797692E+03 0.  0.
    9000005    1    3    3    0    0  0.28866635651E+02  0.21444750949E+02  0.98746213734E+02  0.10509507469E+03  0.10000000000E+01 0.  0.
    9000005    1    3    3    0    0 -0.28866635651E+02 -0.21444750949E+02 -0.21438118961E+02  0.41877833536E+02  0.10000000000E+01 0.  0.
<mgrwt>
<rscale>  0 0.12499798E+03</rscale>
<asrwt>0</asrwt>
<pdfrwt beam="1">  1        4 0.17252384E-01 0.12499798E+03</pdfrwt>
<pdfrwt beam="2">  1       -4 0.53588319E-02 0.12499798E+03</pdfrwt>
<totfact> 0.99915113E+03</totfact>
</mgrwt>
</event>
<event>
 5    1  0.3308162E-002  0.1250009E+03  0.7818608E-02  0.1235068E+00
         -4   -1    0    0    0  501 -0.00000000000E+00  0.00000000000E+00  0.21020721267E+03  0.21021104908E+03  0.12700000000E+01 0. -1.
          4   -1    0    0  501    0  0.00000000000E+00 -0.00000000000E+00 -0.18557414003E+02  0.18600820264E+02  0.12700000000E+01 0. -1.
         25    2    1    2    0    0  0.00000000000E+00  0.00000000000E+00  0.19164979866E+03  0.22881186935E+03  0.12500090490E+03 0.  0.
    9000005    1    3    3    0    0  0.55179322056E+02  0.22787714033E+02  0.62009552011E+02  0.86082646533E+02  0.10000000000E+01 0.  0.
    9000005    1    3    3    0    0 -0.55179322056E+02 -0.22787714033E+02  0.12964024665E+03  0.14272922282E+03  0.10000000000E+01 0.  0.
<mgrwt>
<rscale>  0 0.12500090E+03</rscale>
<asrwt>0</asrwt>
<pdfrwt beam="2">  1        4 0.28586207E-02 0.12500090E+03</pdfrwt>
<pdfrwt beam="1">  1       -4 0.32343207E-01 0.12500090E+03</pdfrwt>
<totfact> 0.85490642E+03</totfact>
</mgrwt>
</event>
<event>
 5    1  0.3308162E-002  0.1249952E+03  0.7818608E-02  0.1235077E+00
          4   -1    0    0  501    0  0.00000000000E+00  0.00000000000E+00  0.34477404014E+01  0.36742092857E+01  0.12700000000E+01 0. -1.
         -4   -1    0    0    0  501 -0.00000000000E+00 -0.00000000000E+00 -0.10966503836E+04  0.10966511190E+04  0.12700000000E+01 0. -1.
         25    2    1    2    0    0  0.00000000000E+00  0.00000000000E+00 -0.10932026432E+04  0.11003253283E+04  0.12499523557E+03 0.  0.
    9000005    1    3    3    0    0  0.30854649908E+02 -0.38528498768E+02 -0.20926409517E+03  0.21500910717E+03  0.10000000000E+01 0.  0.
    9000005    1    3    3    0    0 -0.30854649908E+02  0.38528498768E+02 -0.88393854802E+03  0.88531622108E+03  0.10000000000E+01 0.  0.
<mgrwt>
<rscale>  0 0.12499524E+03</rscale>
<asrwt>0</asrwt>
<pdfrwt beam="1">  1        4 0.54789972E-03 0.12499524E+03</pdfrwt>
<pdfrwt beam="2">  1       -4 0.16873265E+00 0.12499524E+03</pdfrwt>
<totfact> 0.27476775E+03</totfact>
</mgrwt>
</event>
<event>
 5    1  0.3308162E-002  0.1250011E+03  0.7818608E-02  0.1235068E+00
         -4   -1    0    0    0  501 -0.00000000000E+00  0.00000000000E+00  0.38782915260E+03  0.38783123199E+03  0.12700000000E+01 0.  1.
          4   -1    0    0  501    0  0.00000000000E+00 -0.00000000000E+00 -0.10030114226E+02  0.10110197396E+02  0.12700000000E+01 0.  1.
         25    2    1    2    0    0  0.00000000000E+00  0.00000000000E+00  0.37779903837E+03  0.39794142938E+03  0.12500107129E+03 0.  0.
    9000005    1    3    3    0    0 -0.51686358348E+02  0.23046103156E+01  0.77316627462E+02  0.93035755224E+02  0.10000000000E+01 0.  0.
    9000005    1    3    3    0    0  0.51686358348E+02 -0.23046103156E+01  0.30048241091E+03  0.30490567416E+03  0.10000000000E+01 0.  0.
<mgrwt>
<rscale>  0 0.12500107E+03</rscale>
<asrwt>0</asrwt>
<pdfrwt beam="2">  1        4 0.15494147E-02 0.12500107E+03</pdfrwt>
<pdfrwt beam="1">  1       -4 0.59672345E-01 0.12500107E+03</pdfrwt>
<totfact> 0.64751962E+03</totfact>
</mgrwt>
</event>
<event>
 5    1  0.3308162E-002  0.1249969E+03  0.7818608E-02  0.1235074E+00
         -4   -1    0    0    0  501 -0.00000000000E+00  0.00000000000E+00  0.37929532547E+01  0.39999242983E+01  0.12700000000E+01 0. -1.
          4   -1    0    0  501    0  0.00000000000E+00 -0.00000000000E+00 -0.10022602380E+04  0.10022610426E+04  0.12700000000E+01 0. -1.
         25    2    1    2    0    0  0.00000000000E+00  0.00000000000E+00 -0.99846728472E+03  0.10062609669E+04  0.12499685939E+03 0.  0.
    9000005    1    3    3    0    0  0.82569086490E+00  0.59538047510E+02 -0.65189075645E+03  0.65460523921E+03  0.10000000000E+01 0.  0.
    9000005    1    3    3    0    0 -0.82569086490E+00 -0.59538047510E+02 -0.34657652827E+03  0.35165572769E+03  0.10000000000E+01 0.  0.
<mgrwt>
<rscale>  0 0.12499686E+03</rscale>
<asrwt>0</asrwt>
<pdfrwt beam="2">  1        4 0.15420966E+00 0.12499686E+03</pdfrwt>
<pdfrwt beam="1">  1       -4 0.59951481E-03 0.12499686E+03</pdfrwt>
<totfact> 0.30400772E+03</totfact>
</mgrwt>
</event>
<event>
 5    1  0.3308162E-002  0.1249924E+03  0.7818608E-02  0.1235081E+00
          4   -1    0    0  501    0  0.00000000000E+00  0.00000000000E+00  0.59940117958E+02  0.59953570709E+02  0.12700000000E+01 0.  1.
         -4   -1    0    0    0  501 -0.00000000000E+00 -0.00000000000E+00 -0.65134317985E+02  0.65146698147E+02  0.12700000000E+01 0.  1.
         25    2    1    2    0    0  0.00000000000E+00  0.00000000000E+00 -0.51942000277E+01  0.12510026886E+03  0.12499238998E+03 0.  0.
    9000005    1    3    3    0    0 -0.31256673288E+02  0.25636717903E+02 -0.50288551077E+02  0.64530297530E+02  0.10000000000E+01 0.  0.
    9000005    1    3    3    0    0  0.31256673288E+02 -0.25636717903E+02  0.45094351049E+02  0.60569971326E+02  0.10000000000E+01 0.  0.
<mgrwt>
<rscale>  0 0.12499239E+03</rscale>
<asrwt>0</asrwt>
<pdfrwt beam="1">  1        4 0.92235438E-02 0.12499239E+03</pdfrwt>
<pdfrwt beam="2">  1       -4 0.10022651E-01 0.12499239E+03</pdfrwt>
<totfact> 0.10452483E+04</totfact>
</mgrwt>
</event>
<event>
 5    1  0.3308162E-002  0.1250034E+03  0.7818608E-02  0.1235064E+00
         -4   -1    0    0    0  501 -0.00000000000E+00  0.00000000000E+00  0.19024358373E+02  0.19066701642E+02  0.12700000000E+01 0. -1.
          4   -1    0    0  501    0  0.00000000000E+00 -0.00000000000E+00 -0.20506759135E+03  0.20507152392E+03  0.12700000000E+01 0. -1.
         25    2    1    2    0    0  0.00000000000E+00  0.00000000000E+00 -0.18604323298E+03  0.22413822556E+03  0.12500343844E+03 0.  0.
    9000005    1    3    3    0    0 -0.48620777224E+02  0.32605531496E+02 -0.53804710684E+02  0.79517592731E+02  0.10000000000E+01 0.  0.
    9000005    1    3    3    0    0  0.48620777224E+02 -0.32605531496E+02 -0.13223852229E+03  0.14462063283E+03  0.10000000000E+01 0.  0.
<mgrwt>
<rscale>  0 0.12500344E+03</rscale>
<asrwt>0</asrwt>
<pdfrwt beam="2">  1        4 0.31552418E-01 0.12500344E+03</pdfrwt>
<pdfrwt beam="1">  1       -4 0.29303842E-02 0.12500344E+03</pdfrwt>
<totfact> 0.86211117E+03</totfact>
</mgrwt>
</event>
<event>
 5    1  0.3308162E-002  0.1250173E+03  0.7818608E-02  0.1235042E+00
          4   -1    0    0  501    0  0.00000000000E+00  0.00000000000E+00  0.21263086034E+02  0.21300979501E+02  0.12700000000E+01 0. -1.
         -4   -1    0    0    0  501 -0.00000000000E+00 -0.00000000000E+00 -0.18355766971E+03  0.18356206310E+03  0.12700000000E+01 0. -1.
         25    2    1    2    0    0  0.00000000000E+00  0.00000000000E+00 -0.16229458367E+03  0.20486304260E+03  0.12501733613E+03 0.  0.
    9000005    1    3    3    0    0  0.44357935091E+02  0.20157672671E+01 -0.90707581243E+01  0.45331759023E+02  0.10000000000E+01 0.  0.
    9000005    1    3    3    0    0 -0.44357935091E+02 -0.20157672671E+01 -0.15322382555E+03  0.15953128357E+03  0.10000000000E+01 0.  0.
<mgrwt>
<rscale>  0 0.12501734E+03</rscale>
<asrwt>0</asrwt>
<pdfrwt beam="1">  1        4 0.32744970E-02 0.12501734E+03</pdfrwt>
<pdfrwt beam="2">  1       -4 0.28242893E-01 0.12501734E+03</pdfrwt>
<totfact> 0.89287120E+03</totfact>
</mgrwt>
</event>
<event>
 5    1  0.3308162E-002  0.1250049E+03  0.7818608E-02  0.1235062E+00
          4   -1    0    0  501    0  0.00000000000E+00  0.00000000000E+00  0.57345716002E+02  0.57359777230E+02  0.12700000000E+01 0. -1.
         -4   -1    0    0    0  501 -0.00000000000E+00 -0.00000000000E+00 -0.68094592091E+02  0.68106434145E+02  0.12700000000E+01 0. -1.
         25    2    1    2    0    0  0.00000000000E+00  0.00000000000E+00 -0.10748876088E+02  0.12546621137E+03  0.12500492734E+03 0.  0.
    9000005    1    3    3    0    0  0.25762922248E+02 -0.46679296115E+02  0.27347601359E+02  0.59929760125E+02  0.10000000000E+01 0.  0.
    9000005    1    3    3    0    0 -0.25762922248E+02  0.46679296115E+02 -0.38096477447E+02  0.65536451250E+02  0.10000000000E+01 0.  0.
<mgrwt>
<rscale>  0 0.12500493E+03</rscale>
<asrwt>0</asrwt>
<pdfrwt beam="1">  1        4 0.88244105E-02 0.12500493E+03</pdfrwt>
<pdfrwt beam="2">  1       -4 0.10478084E-01 0.12500493E+03</pdfrwt>
<totfact> 0.10441541E+04</totfact>
</mgrwt>
</event>
<event>
 5    1  0.3308162E-002  0.1249949E+03  0.7818608E-02  0.1235077E+00
         -4   -1    0    0    0  501 -0.00000000000E+00  0.00000000000E+00  0.10577329180E+02  0.10653299610E+02  0.12700000000E+01 0. -1.
          4   -1    0    0  501    0  0.00000000000E+00 -0.00000000000E+00 -0.36787551588E+03  0.36787770806E+03  0.12700000000E+01 0. -1.
         25    2    1    2    0    0  0.00000000000E+00  0.00000000000E+00 -0.35729818670E+03  0.37853100767E+03  0.12499491808E+03 0.  0.
    9000005    1    3    3    0    0  0.17680653528E+02  0.13299825854E+02 -0.35563249203E+03  0.35632142830E+03  0.10000000000E+01 0.  0.
    9000005    1    3    3    0    0 -0.17680653528E+02 -0.13299825854E+02 -0.16656946705E+01  0.22209579367E+02  0.10000000000E+01 0.  0.
<mgrwt>
<rscale>  0 0.12499492E+03</rscale>
<asrwt>0</asrwt>
<pdfrwt beam="2">  1        4 0.56602236E-01 0.12499492E+03</pdfrwt>
<pdfrwt beam="1">  1       -4 0.16332942E-02 0.12499492E+03</pdfrwt>
<totfact> 0.66703273E+03</totfact>
</mgrwt>
</event>
<event>
 5    1  0.3308162E-002  0.1249715E+03  0.7818608E-02  0.1235114E+00
          4   -1    0    0  501    0  0.00000000000E+00  0.00000000000E+00  0.66389873938E+03  0.66389995410E+03  0.12700000000E+01 0.  1.
         -4   -1    0    0    0  501 -0.00000000000E+00 -0.00000000000E+00 -0.58113244916E+01  0.59484781538E+01  0.12700000000E+01 0.  1.
         25    2    1    2    0    0  0.00000000000E+00  0.00000000000E+00  0.65808741489E+03  0.66984843225E+03  0.12497150297E+03 0.  0.
    9000005    1    3    3    0    0 -0.23010463695E+02  0.57012756513E+02  0.26946959739E+03  0.27639609216E+03  0.10000000000E+01 0.  0.
    9000005    1    3    3    0    0  0.23010463695E+02 -0.57012756513E+02  0.38861781750E+03  0.39345234009E+03  0.10000000000E+01 0.  0.
<mgrwt>
<rscale>  0 0.12497150E+03</rscale>
<asrwt>0</asrwt>
<pdfrwt beam="1">  1        4 0.10214883E+00 0.12497150E+03</pdfrwt>
<pdfrwt beam="2">  1       -4 0.90469433E-03 0.12497150E+03</pdfrwt>
<totfact> 0.44754780E+03</totfact>
</mgrwt>
</event>
<event>
 5    1  0.3308162E-002  0.1250010E+03  0.7818608E-02  0.1235068E+00
         -4   -1    0    0    0  501 -0.00000000000E+00  0.00000000000E+00  0.88353177263E+01  0.89261267818E+01  0.12700000000E+01 0.  1.
          4   -1    0    0  501    0  0.00000000000E+00 -0.00000000000E+00 -0.43977284331E+03  0.43977467710E+03  0.12700000000E+01 0.  1.
         25    2    1    2    0    0  0.00000000000E+00  0.00000000000E+00 -0.43093752559E+03  0.44870080388E+03  0.12500104177E+03 0.  0.
    9000005    1    3    3    0    0  0.18741404300E+02 -0.46515568107E+01 -0.21247386067E+01  0.19452293697E+02  0.10000000000E+01 0.  0.
    9000005    1    3    3    0    0 -0.18741404300E+02  0.46515568107E+01 -0.42881278698E+03  0.42924851018E+03  0.10000000000E+01 0.  0.
<mgrwt>
<rscale>  0 0.12500104E+03</rscale>
<asrwt>0</asrwt>
<pdfrwt beam="2">  1        4 0.67664470E-01 0.12500104E+03</pdfrwt>
<pdfrwt beam="1">  1       -4 0.13664064E-02 0.12500104E+03</pdfrwt>
<totfact> 0.60075138E+03</totfact>
</mgrwt>
</event>
<event>
 5    1  0.3308162E-002  0.1249982E+03  0.7818608E-02  0.1235072E+00
         -4   -1    0    0    0  501 -0.00000000000E+00  0.00000000000E+00  0.45178096894E+03  0.45178275398E+03  0.12700000000E+01 0. -1.
          4   -1    0    0  501    0  0.00000000000E+00 -0.00000000000E+00 -0.85976449797E+01  0.86909377628E+01  0.12700000000E+01 0. -1.
         25    2    1    2    0    0  0.00000000000E+00  0.00000000000E+00  0.44318332396E+03  0.46047369174E+03  0.12499824860E+03 0.  0.
    9000005    1    3    3    0    0  0.45841067455E+02 -0.39898122768E+02  0.27521362040E+03  0.28184534858E+03  0.10000000000E+01 0.  0.
    9000005    1    3    3    0    0 -0.45841067455E+02  0.39898122768E+02  0.16796970356E+03  0.17862834316E+03  0.10000000000E+01 0.  0.
<mgrwt>
<rscale>  0 0.12499825E+03</rscale>
<asrwt>0</asrwt>
<pdfrwt beam="2">  1        4 0.13300281E-02 0.12499825E+03</pdfrwt>
<pdfrwt beam="1">  1       -4 0.69512090E-01 0.12499825E+03</pdfrwt>
<totfact> 0.59069348E+03</totfact>
</mgrwt>
</event>
<event>
 5    1  0.3308162E-002  0.1250010E+03  0.7818608E-02  0.1235068E+00
         -4   -1    0    0    0  501 -0.00000000000E+00  0.00000000000E+00  0.64787467493E+02  0.64799913921E+02  0.12700000000E+01 0.  1.
          4   -1    0    0  501    0  0.00000000000E+00 -0.00000000000E+00 -0.60269346123E+02  0.60282725404E+02  0.12700000000E+01 0.  1.
         25    2    1    2    0    0  0.00000000000E+00  0.00000000000E+00  0.45181213697E+01  0.12508263932E+03  0.12500101295E+03 0.  0.
    9000005    1    3    3    0    0  0.79453603328E+01 -0.57300937017E+02  0.25913176537E+02  0.63395732128E+02  0.10000000000E+01 0.  0.
    9000005    1    3    3    0    0 -0.79453603328E+01  0.57300937017E+02 -0.21395055167E+02  0.61686907196E+02  0.10000000000E+01 0.  0.
<mgrwt>
<rscale>  0 0.12500101E+03</rscale>
<asrwt>0</asrwt>
<pdfrwt beam="2">  1        4 0.92741937E-02 0.12500101E+03</pdfrwt>
<pdfrwt beam="1">  1       -4 0.99692892E-02 0.12500101E+03</pdfrwt>
<totfact> 0.10450829E+04</totfact>
</mgrwt>
</event>
<event>
 5    1  0.3308162E-002  0.1249969E+03  0.7818608E-02  0.1235074E+00
          4   -1    0    0  501    0  0.00000000000E+00  0.00000000000E+00  0.77523761584E+02  0.77534163503E+02  0.12700000000E+01 0.  1.
         -4   -1    0    0    0  501 -0.00000000000E+00 -0.00000000000E+00 -0.50363519487E+02  0.50379529525E+02  0.12700000000E+01 0.  1.
         25    2    1    2    0    0  0.00000000000E+00  0.00000000000E+00  0.27160242097E+02  0.12791369303E+03  0.12499693642E+03 0.  0.
    9000005    1    3    3    0    0  0.54606110639E+02 -0.18399664577E+02 -0.11164346177E+02  0.58702790404E+02  0.10000000000E+01 0.  0.
    9000005    1    3    3    0    0 -0.54606110639E+02  0.18399664577E+02  0.38324588274E+02  0.69210902624E+02  0.10000000000E+01 0.  0.
<mgrwt>
<rscale>  0 0.12499694E+03</rscale>
<asrwt>0</asrwt>
<pdfrwt beam="1">  1        4 0.11928764E-01 0.12499694E+03</pdfrwt>
<pdfrwt beam="2">  1       -4 0.77502654E-02 0.12499694E+03</pdfrwt>
<totfact> 0.10390070E+04</totfact>
</mgrwt>
</event>
<event>
 5    1  0.3308162E-002  0.1250001E+03  0.7818608E-02  0.1235069E+00
         -4   -1    0    0    0  501 -0.00000000000E+00  0.00000000000E+00  0.16757608409E+02  0.16805663914E+02  0.12700000000E+01 0.  1.
          4   -1    0    0  501    0  0.00000000000E+00 -0.00000000000E+00 -0.23271995094E+03  0.23272341624E+03  0.12700000000E+01 0.  1.
         25    2    1    2    0    0  0.00000000000E+00  0.00000000000E+00 -0.21596234254E+03  0.24952908016E+03  0.12500011380E+03 0.  0.
    9000005    1    3    3    0    0  0.45489054721E+02  0.19256972823E+02 -0.18439202713E+03  0.19089658135E+03  0.10000000000E+01 0.  0.
    9000005    1    3    3    0    0 -0.45489054721E+02 -0.19256972823E+02 -0.31570315409E+02  0.58632498810E+02  0.10000000000E+01 0.  0.
<mgrwt>
<rscale>  0 0.12500011E+03</rscale>
<asrwt>0</asrwt>
<pdfrwt beam="2">  1        4 0.35807030E-01 0.12500011E+03</pdfrwt>
<pdfrwt beam="1">  1       -4 0.25820569E-02 0.12500011E+03</pdfrwt>
<totfact> 0.82398130E+03</totfact>
</mgrwt>
</event>
<event>
 5    1  0.3308162E-002  0.1250045E+03  0.7818608E-02  0.1235062E+00
         -4   -1    0    0    0  501 -0.00000000000E+00  0.00000000000E+00  0.16546098024E+03  0.16546585412E+03  0.12700000000E+01 0.  1.
          4   -1    0    0  501    0  0.00000000000E+00 -0.00000000000E+00 -0.23587664525E+02  0.23621829263E+02  0.12700000000E+01 0.  1.
         25    2    1    2    0    0  0.00000000000E+00  0.00000000000E+00  0.14187331571E+03  0.18908768339E+03  0.12500445711E+03 0.  0.
    9000005    1    3    3    0    0  0.66819580807E+01  0.52347483227E+02  0.12157355936E+03  0.13253693032E+03  0.10000000000E+01 0.  0.
    9000005    1    3    3    0    0 -0.66819580807E+01 -0.52347483227E+02  0.20299756351E+02  0.56550753063E+02  0.10000000000E+01 0.  0.
<mgrwt>
<rscale>  0 0.12500446E+03</rscale>
<asrwt>0</asrwt>
<pdfrwt beam="2">  1        4 0.36318744E-02 0.12500446E+03</pdfrwt>
<pdfrwt beam="1">  1       -4 0.25458539E-01 0.12500446E+03</pdfrwt>
<totfact> 0.91997111E+03</totfact>
</mgrwt>
</event>
<event>
 5    1  0.3308162E-002  0.1249962E+03  0.7818608E-02  0.1235075E+00
          4   -1    0    0  501    0  0.00000000000E+00  0.00000000000E+00  0.19006137602E+03  0.19006561908E+03  0.12700000000E+01 0.  1.
         -4   -1    0    0    0  501 -0.00000000000E+00 -0.00000000000E+00 -0.20527208486E+02  0.20566457844E+02  0.12700000000E+01 0.  1.
         25    2    1    2    0    0  0.00000000000E+00  0.00000000000E+00  0.16953416754E+03  0.21063207692E+03  0.12499615141E+03 0.  0.
    9000005    1    3    3    0    0  0.25191975986E+02  0.23958335134E+02  0.17226904198E+03  0.17574487276E+03  0.10000000000E+01 0.  0.
    9000005    1    3    3    0    0 -0.25191975986E+02 -0.23958335134E+02 -0.27348744381E+01  0.34887204168E+02  0.10000000000E+01 0.  0.
<mgrwt>
<rscale>  0 0.12499615E+03</rscale>
<asrwt>0</asrwt>
<pdfrwt beam="1">  1        4 0.29243558E-01 0.12499615E+03</pdfrwt>
<pdfrwt beam="2">  1       -4 0.31613775E-02 0.12499615E+03</pdfrwt>
<totfact> 0.88380360E+03</totfact>
</mgrwt>
</event>
<event>
 5    1  0.3308162E-002  0.1250034E+03  0.7818608E-02  0.1235064E+00
          4   -1    0    0  501    0  0.00000000000E+00  0.00000000000E+00  0.10341902306E+03  0.10342682066E+03  0.12700000000E+01 0.  1.
         -4   -1    0    0    0  501 -0.00000000000E+00 -0.00000000000E+00 -0.37753245682E+02  0.37774600720E+02  0.12700000000E+01 0.  1.
         25    2    1    2    0    0  0.00000000000E+00  0.00000000000E+00  0.65665777382E+02  0.14120142138E+03  0.12500338827E+03 0.  0.
    9000005    1    3    3    0    0  0.16149654212E+02  0.41850964730E+02 -0.16315521492E+02  0.47744222913E+02  0.10000000000E+01 0.  0.
    9000005    1    3    3    0    0 -0.16149654212E+02 -0.41850964730E+02  0.81981298874E+02  0.93457198466E+02  0.10000000000E+01 0.  0.
<mgrwt>
<rscale>  0 0.12500339E+03</rscale>
<asrwt>0</asrwt>
<pdfrwt beam="1">  1        4 0.15912861E-01 0.12500339E+03</pdfrwt>
<pdfrwt beam="2">  1       -4 0.58104342E-02 0.12500339E+03</pdfrwt>
<totfact> 0.10107975E+04</totfact>
</mgrwt>
</event>
<event>
 5    1  0.3308162E-002  0.1250016E+03  0.7818608E-02  0.1235067E+00
          4   -1    0    0  501    0  0.00000000000E+00  0.00000000000E+00  0.10011133720E+03  0.10011939241E+03  0.12700000000E+01 0. -1.
         -4   -1    0    0    0  501 -0.00000000000E+00 -0.00000000000E+00 -0.39000076888E+02  0.39020749573E+02  0.12700000000E+01 0. -1.
         25    2    1    2    0    0  0.00000000000E+00  0.00000000000E+00  0.61111260315E+02  0.13914014198E+03  0.12500157189E+03 0.  0.
    9000005    1    3    3    0    0  0.54949162449E+02  0.19181087902E+02  0.55890096730E+02  0.80697134394E+02  0.10000000000E+01 0.  0.
    9000005    1    3    3    0    0 -0.54949162449E+02 -0.19181087902E+02  0.52211635857E+01  0.58443007589E+02  0.10000000000E+01 0.  0.
<mgrwt>
<rscale>  0 0.12500157E+03</rscale>
<asrwt>0</asrwt>
<pdfrwt beam="1">  1        4 0.15403954E-01 0.12500157E+03</pdfrwt>
<pdfrwt beam="2">  1       -4 0.60022217E-02 0.12500157E+03</pdfrwt>
<totfact> 0.10151078E+04</totfact>
</mgrwt>
</event>
<event>
 5    1  0.3308162E-002  0.1250001E+03  0.7818608E-02  0.1235069E+00
         -4   -1    0    0    0  501 -0.00000000000E+00  0.00000000000E+00  0.13300569963E+02  0.13361065127E+02  0.12700000000E+01 0.  1.
          4   -1    0    0  501    0  0.00000000000E+00 -0.00000000000E+00 -0.29296251603E+03  0.29296526876E+03  0.12700000000E+01 0.  1.
         25    2    1    2    0    0  0.00000000000E+00  0.00000000000E+00 -0.27966194607E+03  0.30632633389E+03  0.12500007502E+03 0.  0.
    9000005    1    3    3    0    0  0.34204318598E+02 -0.27144435379E+02 -0.24938441253E+03  0.25318045145E+03  0.10000000000E+01 0.  0.
    9000005    1    3    3    0    0 -0.34204318598E+02  0.27144435379E+02 -0.30277533535E+02  0.53145882435E+02  0.10000000000E+01 0.  0.
<mgrwt>
<rscale>  0 0.12500008E+03</rscale>
<asrwt>0</asrwt>
<pdfrwt beam="2">  1        4 0.45076017E-01 0.12500008E+03</pdfrwt>
<pdfrwt beam="1">  1       -4 0.20511070E-02 0.12500008E+03</pdfrwt>
<totfact> 0.74811944E+03</totfact>
</mgrwt>
</event>
<event>
 5    1  0.3308162E-002  0.1250009E+03  0.7818608E-02  0.1235068E+00
         -4   -1    0    0    0  501 -0.00000000000E+00  0.00000000000E+00  0.28781612703E+03  0.28781892898E+03  0.12700000000E+01 0.  1.
          4   -1    0    0  501    0  0.00000000000E+00 -0.00000000000E+00 -0.13539651011E+02  0.13599082671E+02  0.12700000000E+01 0.  1.
         25    2    1    2    0    0  0.00000000000E+00  0.00000000000E+00  0.27427647602E+03  0.30141801165E+03  0.12500092979E+03 0.  0.
    9000005    1    3    3    0    0  0.27694816913E+02  0.21153784715E-01  0.20543610975E+01  0.27788913812E+02  0.10000000000E+01 0.  0.
    9000005    1    3    3    0    0 -0.27694816913E+02 -0.21153784715E-01  0.27222211492E+03  0.27362909784E+03  0.10000000000E+01 0.  0.
<mgrwt>
<rscale>  0 0.12500093E+03</rscale>
<asrwt>0</asrwt>
<pdfrwt beam="2">  1        4 0.20878105E-02 0.12500093E+03</pdfrwt>
<pdfrwt beam="1">  1       -4 0.44284189E-01 0.12500093E+03</pdfrwt>
<totfact> 0.75419753E+03</totfact>
</mgrwt>
</event>
<event>
 5    1  0.3308162E-002  0.1249805E+03  0.7818608E-02  0.1235100E+00
         -4   -1    0    0    0  501 -0.00000000000E+00  0.00000000000E+00  0.93980068923E+02  0.93988649606E+02  0.12700000000E+01 0. -1.
          4   -1    0    0  501    0  0.00000000000E+00 -0.00000000000E+00 -0.41531500767E+02  0.41550914020E+02  0.12700000000E+01 0. -1.
         25    2    1    2    0    0  0.00000000000E+00  0.00000000000E+00  0.52448568157E+02  0.13553956363E+03  0.12498048250E+03 0.  0.
    9000005    1    3    3    0    0  0.65114671543E+01 -0.18253704510E+02 -0.38194844154E+02  0.42842071060E+02  0.10000000000E+01 0.  0.
    9000005    1    3    3    0    0 -0.65114671543E+01  0.18253704510E+02  0.90643412310E+02  0.92697492566E+02  0.10000000000E+01 0.  0.
<mgrwt>
<rscale>  0 0.12498048E+03</rscale>
<asrwt>0</asrwt>
<pdfrwt beam="2">  1        4 0.63916151E-02 0.12498048E+03</pdfrwt>
<pdfrwt beam="1">  1       -4 0.14460625E-01 0.12498048E+03</pdfrwt>
<totfact> 0.10231213E+04</totfact>
</mgrwt>
</event>
<event>
 5    1  0.3308162E-002  0.1250031E+03  0.7818608E-02  0.1235064E+00
          4   -1    0    0  501    0  0.00000000000E+00  0.00000000000E+00  0.51641334648E+02  0.51656948654E+02  0.12700000000E+01 0.  1.
         -4   -1    0    0    0  501 -0.00000000000E+00 -0.00000000000E+00 -0.75613264769E+02  0.75623929474E+02  0.12700000000E+01 0.  1.
         25    2    1    2    0    0  0.00000000000E+00  0.00000000000E+00 -0.23971930121E+02  0.12728087813E+03  0.12500307398E+03 0.  0.
    9000005    1    3    3    0    0  0.73761722191E+01  0.29248345719E+02 -0.67715073623E+02  0.74136393490E+02  0.10000000000E+01 0.  0.
    9000005    1    3    3    0    0 -0.73761722191E+01 -0.29248345719E+02  0.43743143502E+02  0.53144484637E+02  0.10000000000E+01 0.  0.
<mgrwt>
<rscale>  0 0.12500307E+03</rscale>
<asrwt>0</asrwt>
<pdfrwt beam="1">  1        4 0.79468421E-02 0.12500307E+03</pdfrwt>
<pdfrwt beam="2">  1       -4 0.11634831E-01 0.12500307E+03</pdfrwt>
<totfact> 0.10402327E+04</totfact>
</mgrwt>
</event>
<event>
 5    1  0.3308162E-002  0.1250017E+03  0.7818608E-02  0.1235067E+00
         -4   -1    0    0    0  501 -0.00000000000E+00  0.00000000000E+00  0.14669441415E+02  0.14724313615E+02  0.12700000000E+01 0.  1.
          4   -1    0    0  501    0  0.00000000000E+00 -0.00000000000E+00 -0.26573849971E+03  0.26574153445E+03  0.12700000000E+01 0.  1.
         25    2    1    2    0    0  0.00000000000E+00  0.00000000000E+00 -0.25106905830E+03  0.28046584806E+03  0.12500167957E+03 0.  0.
    9000005    1    3    3    0    0 -0.38345189103E+02 -0.36634788868E+02 -0.51360290644E+02  0.73833195365E+02  0.10000000000E+01 0.  0.
    9000005    1    3    3    0    0  0.38345189103E+02  0.36634788868E+02 -0.19970876766E+03  0.20663265270E+03  0.10000000000E+01 0.  0.
<mgrwt>
<rscale>  0 0.12500168E+03</rscale>
<asrwt>0</asrwt>
<pdfrwt beam="2">  1        4 0.40887297E-01 0.12500168E+03</pdfrwt>
<pdfrwt beam="1">  1       -4 0.22612917E-02 0.12500168E+03</pdfrwt>
<totfact> 0.78113463E+03</totfact>
</mgrwt>
</event>
<event>
 5    1  0.3308162E-002  0.1249979E+03  0.7818608E-02  0.1235073E+00
          4   -1    0    0  501    0  0.00000000000E+00  0.00000000000E+00  0.26510518672E+03  0.26510822870E+03  0.12700000000E+01 0.  1.
         -4   -1    0    0    0  501 -0.00000000000E+00 -0.00000000000E+00 -0.14703730487E+02  0.14758475200E+02  0.12700000000E+01 0.  1.
         25    2    1    2    0    0  0.00000000000E+00  0.00000000000E+00  0.25040145623E+03  0.27986670390E+03  0.12499793066E+03 0.  0.
    9000005    1    3    3    0    0 -0.35502774368E+02 -0.50551295840E+02  0.10404984035E+03  0.12100929624E+03  0.10000000000E+01 0.  0.
    9000005    1    3    3    0    0  0.35502774368E+02  0.50551295840E+02  0.14635161588E+03  0.15885740767E+03  0.10000000000E+01 0.  0.
<mgrwt>
<rscale>  0 0.12499793E+03</rscale>
<asrwt>0</asrwt>
<pdfrwt beam="1">  1        4 0.40789856E-01 0.12499793E+03</pdfrwt>
<pdfrwt beam="2">  1       -4 0.22665577E-02 0.12499793E+03</pdfrwt>
<totfact> 0.78199381E+03</totfact>
</mgrwt>
</event>
<event>
 4    1  0.3308162E-002  0.1249292E+03  0.7818608E-02  0.1235180E+00
          4   -1    0    0  501    0  0.00000000000E+00  0.00000000000E+00  0.77421054110E+03  0.77421158274E+03  0.12700000000E+01 0.  1.
         -4   -1    0    0    0  501 -0.00000000000E+00 -0.00000000000E+00 -0.49586815979E+01  0.51187325765E+01  0.12700000000E+01 0.  1.
    9000005    1    1    2    0    0 -0.71221714813E+01  0.58018057861E+02  0.52186700573E+03  0.52513140454E+03  0.10000000000E+01 0.  0.
    9000005    1    1    2    0    0  0.71221714813E+01 -0.58018057861E+02  0.24738485376E+03  0.25419891077E+03  0.10000000000E+01 0.  0.
<mgrwt>
<rscale>  0 0.12492925E+03</rscale>
<asrwt>0</asrwt>
<pdfrwt beam="1">  1        4 0.11912175E+00 0.12492925E+03</pdfrwt>
<pdfrwt beam="2">  1       -4 0.77526555E-03 0.12492925E+03</pdfrwt>
<totfact> 0.39264952E+03</totfact>
</mgrwt>
</event>
<event>
 5    1  0.3308162E-002  0.1249980E+03  0.7818608E-02  0.1235072E+00
          4   -1    0    0  501    0  0.00000000000E+00  0.00000000000E+00  0.28438997427E+02  0.28467340492E+02  0.12700000000E+01 0.  1.
         -4   -1    0    0    0  501 -0.00000000000E+00 -0.00000000000E+00 -0.13725141053E+03  0.13725728612E+03  0.12700000000E+01 0.  1.
         25    2    1    2    0    0  0.00000000000E+00  0.00000000000E+00 -0.10881241310E+03  0.16572462661E+03  0.12499804246E+03 0.  0.
    9000005    1    3    3    0    0 -0.27621961467E+02  0.25060593557E+02 -0.12088405770E+03  0.12651071698E+03  0.10000000000E+01 0.  0.
    9000005    1    3    3    0    0  0.27621961467E+02 -0.25060593557E+02  0.12071644602E+02  0.39213909626E+02  0.10000000000E+01 0.  0.
<mgrwt>
<rscale>  0 0.12499804E+03</rscale>
<asrwt>0</asrwt>
<pdfrwt beam="1">  1        4 0.43778627E-02 0.12499804E+03</pdfrwt>
<pdfrwt beam="2">  1       -4 0.21118233E-01 0.12499804E+03</pdfrwt>
<totfact> 0.96254568E+03</totfact>
</mgrwt>
</event>
<event>
 5    1  0.3308162E-002  0.1250039E+03  0.7818608E-02  0.1235063E+00
          4   -1    0    0  501    0  0.00000000000E+00  0.00000000000E+00  0.39548515743E+02  0.39568901898E+02  0.12700000000E+01 0. -1.
         -4   -1    0    0    0  501 -0.00000000000E+00 -0.00000000000E+00 -0.98727262057E+02  0.98735430183E+02  0.12700000000E+01 0. -1.
         25    2    1    2    0    0  0.00000000000E+00  0.00000000000E+00 -0.59178746315E+02  0.13830433208E+03  0.12500385697E+03 0.  0.
    9000005    1    3    3    0    0 -0.42545545160E+02  0.44072561771E+02 -0.43273760846E+02  0.75007549566E+02  0.10000000000E+01 0.  0.
    9000005    1    3    3    0    0  0.42545545160E+02 -0.44072561771E+02 -0.15904985468E+02  0.63296782515E+02  0.10000000000E+01 0.  0.
<mgrwt>
<rscale>  0 0.12500386E+03</rscale>
<asrwt>0</asrwt>
<pdfrwt beam="1">  1        4 0.60865835E-02 0.12500386E+03</pdfrwt>
<pdfrwt beam="2">  1       -4 0.15191006E-01 0.12500386E+03</pdfrwt>
<totfact> 0.10167967E+04</totfact>
</mgrwt>
</event>
<event>
 5    1  0.3308162E-002  0.1250005E+03  0.7818608E-02  0.1235068E+00
          4   -1    0    0  501    0  0.00000000000E+00  0.00000000000E+00  0.11928352427E+03  0.11929028487E+03  0.12700000000E+01 0. -1.
         -4   -1    0    0    0  501 -0.00000000000E+00 -0.00000000000E+00 -0.32727871441E+02  0.32752503249E+02  0.12700000000E+01 0. -1.
         25    2    1    2    0    0  0.00000000000E+00  0.00000000000E+00  0.86555652833E+02  0.15204278811E+03  0.12500051352E+03 0.  0.
    9000005    1    3    3    0    0 -0.42414493953E+02 -0.45221606602E+02  0.52800985873E+02  0.81442784272E+02  0.10000000000E+01 0.  0.
    9000005    1    3    3    0    0  0.42414493953E+02  0.45221606602E+02  0.33754666960E+02  0.70600003842E+02  0.10000000000E+01 0.  0.
<mgrwt>
<rscale>  0 0.12500051E+03</rscale>
<asrwt>0</asrwt>
<pdfrwt beam="1">  1        4 0.18353726E-01 0.12500051E+03</pdfrwt>
<pdfrwt beam="2">  1       -4 0.50374719E-02 0.12500051E+03</pdfrwt>
<totfact> 0.98896904E+03</totfact>
</mgrwt>
</event>
<event>
 4    1  0.3308162E-002  0.1250677E+03  0.7818608E-02  0.1234964E+00
         -4   -1    0    0    0  501 -0.00000000000E+00  0.00000000000E+00  0.82608861015E+02  0.82618622708E+02  0.12700000000E+01 0. -1.
          4   -1    0    0  501    0  0.00000000000E+00 -0.00000000000E+00 -0.47316237406E+02  0.47333278169E+02  0.12700000000E+01 0. -1.
    9000005    1    1    2    0    0 -0.42885688602E+02  0.44570905371E+02  0.27154291026E+02  0.67558148388E+02  0.10000000000E+01 0.  0.
    9000005    1    1    2    0    0  0.42885688602E+02 -0.44570905371E+02  0.81383325829E+01  0.62393752490E+02  0.10000000000E+01 0.  0.
<mgrwt>
<rscale>  0 0.12506769E+03</rscale>
<asrwt>0</asrwt>
<pdfrwt beam="2">  1        4 0.72814829E-02 0.12506769E+03</pdfrwt>
<pdfrwt beam="1">  1       -4 0.12711117E-01 0.12506769E+03</pdfrwt>
<totfact> 0.10329745E+04</totfact>
</mgrwt>
</event>
<event>
 5    1  0.3308162E-002  0.1249985E+03  0.7818608E-02  0.1235072E+00
         -4   -1    0    0    0  501 -0.00000000000E+00  0.00000000000E+00  0.66624456744E+03  0.66624577788E+03  0.12700000000E+01 0.  1.
          4   -1    0    0  501    0  0.00000000000E+00 -0.00000000000E+00 -0.57929449134E+01  0.59305236505E+01  0.12700000000E+01 0.  1.
         25    2    1    2    0    0  0.00000000000E+00  0.00000000000E+00  0.66045162253E+03  0.67217630153E+03  0.12499853856E+03 0.  0.
    9000005    1    3    3    0    0 -0.10578319887E+02  0.38967060027E+02  0.73746489231E+02  0.84082562358E+02  0.10000000000E+01 0.  0.
    9000005    1    3    3    0    0  0.10578319887E+02 -0.38967060027E+02  0.58670513329E+03  0.58809373917E+03  0.10000000000E+01 0.  0.
<mgrwt>
<rscale>  0 0.12499854E+03</rscale>
<asrwt>0</asrwt>
<pdfrwt beam="2">  1        4 0.90189794E-03 0.12499854E+03</pdfrwt>
<pdfrwt beam="1">  1       -4 0.10250989E+00 0.12499854E+03</pdfrwt>
<totfact> 0.44598129E+03</totfact>
</mgrwt>
</event>
<event>
 5    1  0.3308162E-002  0.1250000E+03  0.7818608E-02  0.1235069E+00
         -4   -1    0    0    0  501 -0.00000000000E+00  0.00000000000E+00  0.73765621001E+02  0.73776552791E+02  0.12700000000E+01 0. -1.
          4   -1    0    0  501    0  0.00000000000E+00 -0.00000000000E+00 -0.52932426049E+02  0.52947659319E+02  0.12700000000E+01 0. -1.
         25    2    1    2    0    0  0.00000000000E+00  0.00000000000E+00  0.20833194952E+02  0.12672421211E+03  0.12500001569E+03 0.  0.
    9000005    1    3    3    0    0 -0.61982659767E+01 -0.48384728740E+02 -0.29183047588E+02  0.56852007378E+02  0.10000000000E+01 0.  0.
    9000005    1    3    3    0    0  0.61982659767E+01  0.48384728740E+02  0.50016242540E+02  0.69872204733E+02  0.10000000000E+01 0.  0.
<mgrwt>
<rscale>  0 0.12500002E+03</rscale>
<asrwt>0</asrwt>
<pdfrwt beam="2">  1        4 0.81454628E-02 0.12500002E+03</pdfrwt>
<pdfrwt beam="1">  1       -4 0.11350570E-01 0.12500002E+03</pdfrwt>
<totfact> 0.10415139E+04</totfact>
</mgrwt>
</event>
<event>
 5    1  0.3308162E-002  0.1250022E+03  0.7818608E-02  0.1235066E+00
         -4   -1    0    0    0  501 -0.00000000000E+00  0.00000000000E+00  0.91247454856E+02  0.91256292483E+02  0.12700000000E+01 0.  1.
          4   -1    0    0  501    0  0.00000000000E+00 -0.00000000000E+00 -0.42790559842E+02  0.42809402140E+02  0.12700000000E+01 0.  1.
         25    2    1    2    0    0  0.00000000000E+00  0.00000000000E+00  0.48456895014E+02  0.13406569462E+03  0.12500215918E+03 0.  0.
    9000005    1    3    3    0    0 -0.49371455013E+02 -0.37701104967E+02  0.31539694522E+02  0.69675434813E+02  0.10000000000E+01 0.  0.
    9000005    1    3    3    0    0  0.49371455013E+02  0.37701104967E+02  0.16917200492E+02  0.64390259810E+02  0.10000000000E+01 0.  0.
<mgrwt>
<rscale>  0 0.12500216E+03</rscale>
<asrwt>0</asrwt>
<pdfrwt beam="2">  1        4 0.65852923E-02 0.12500216E+03</pdfrwt>
<pdfrwt beam="1">  1       -4 0.14040199E-01 0.12500216E+03</pdfrwt>
<totfact> 0.10257302E+04</totfact>
</mgrwt>
</event>
<event>
 5    1  0.3308162E-002  0.1250005E+03  0.7818608E-02  0.1235068E+00
         -4   -1    0    0    0  501 -0.00000000000E+00  0.00000000000E+00  0.65646134886E+02  0.65658418542E+02  0.12700000000E+01 0. -1.
          4   -1    0    0  501    0  0.00000000000E+00 -0.00000000000E+00 -0.59480496655E+02  0.59494053335E+02  0.12700000000E+01 0. -1.
         25    2    1    2    0    0  0.00000000000E+00  0.00000000000E+00  0.61656382310E+01  0.12515247188E+03  0.12500050449E+03 0.  0.
    9000005    1    3    3    0    0 -0.38162920739E+02 -0.33432942501E+02  0.39611573400E+02  0.64375825516E+02  0.10000000000E+01 0.  0.
    9000005    1    3    3    0    0  0.38162920739E+02  0.33432942501E+02 -0.33445935169E+02  0.60776646361E+02  0.10000000000E+01 0.  0.
<mgrwt>
<rscale>  0 0.12500050E+03</rscale>
<asrwt>0</asrwt>
<pdfrwt beam="2">  1        4 0.91528333E-02 0.12500050E+03</pdfrwt>
<pdfrwt beam="1">  1       -4 0.10101393E-01 0.12500050E+03</pdfrwt>
<totfact> 0.10449433E+04</totfact>
</mgrwt>
</event>
<event>
 5    1  0.3308162E-002  0.1250034E+03  0.7818608E-02  0.1235064E+00
          4   -1    0    0  501    0  0.00000000000E+00  0.00000000000E+00  0.52924175053E+02  0.52939410698E+02  0.12700000000E+01 0.  1.
         -4   -1    0    0    0  501 -0.00000000000E+00 -0.00000000000E+00 -0.73781072983E+02  0.73792002483E+02  0.12700000000E+01 0.  1.
         25    2    1    2    0    0  0.00000000000E+00  0.00000000000E+00 -0.20856897929E+02  0.12673141318E+03  0.12500336354E+03 0.  0.
    9000005    1    3    3    0    0 -0.50282972147E+02  0.24835474060E+02  0.17525938463E+02  0.58765096603E+02  0.10000000000E+01 0.  0.
    9000005    1    3    3    0    0  0.50282972147E+02 -0.24835474060E+02 -0.38382836393E+02  0.67966316579E+02  0.10000000000E+01 0.  0.
<mgrwt>
<rscale>  0 0.12500336E+03</rscale>
<asrwt>0</asrwt>
<pdfrwt beam="1">  1        4 0.81441935E-02 0.12500336E+03</pdfrwt>
<pdfrwt beam="2">  1       -4 0.11352947E-01 0.12500336E+03</pdfrwt>
<totfact> 0.10414196E+04</totfact>
</mgrwt>
</event>
<event>
 4    1  0.3308162E-002  0.1246285E+03  0.7818608E-02  0.1235651E+00
         -4   -1    0    0    0  501 -0.00000000000E+00  0.00000000000E+00  0.21119702905E+02  0.21157853170E+02  0.12700000000E+01 0.  1.
          4   -1    0    0  501    0  0.00000000000E+00 -0.00000000000E+00 -0.18365349181E+03  0.18365788291E+03  0.12700000000E+01 0.  1.
    9000005    1    1    2    0    0  0.21805718761E+00 -0.34026178179E+02 -0.16704340404E+03  0.17047676435E+03  0.10000000000E+01 0.  0.
    9000005    1    1    2    0    0 -0.21805718761E+00  0.34026178179E+02  0.45096151369E+01  0.34338971724E+02  0.10000000000E+01 0.  0.
<mgrwt>
<rscale>  0 0.12462846E+03</rscale>
<asrwt>0</asrwt>
<pdfrwt beam="2">  1        4 0.28257655E-01 0.12462846E+03</pdfrwt>
<pdfrwt beam="1">  1       -4 0.32524576E-02 0.12462846E+03</pdfrwt>
<totfact> 0.90076033E+03</totfact>
</mgrwt>
</event>
<event>
 5    1  0.3308162E-002  0.1250123E+03  0.7818608E-02  0.1235050E+00
         -4   -1    0    0    0  501 -0.00000000000E+00  0.00000000000E+00  0.19723592344E+03  0.19724001216E+03  0.12700000000E+01 0.  1.
          4   -1    0    0  501    0  0.00000000000E+00 -0.00000000000E+00 -0.19784197836E+02  0.19824918259E+02  0.12700000000E+01 0.  1.
         25    2    1    2    0    0  0.00000000000E+00  0.00000000000E+00  0.17745172561E+03  0.21706493042E+03  0.12501227578E+03 0.  0.
    9000005    1    3    3    0    0  0.38627607192E+02  0.37064342120E+02  0.32725991309E+02  0.62752274870E+02  0.10000000000E+01 0.  0.
    9000005    1    3    3    0    0 -0.38627607192E+02 -0.37064342120E+02  0.14472573430E+03  0.15431265555E+03  0.10000000000E+01 0.  0.
<mgrwt>
<rscale>  0 0.12501228E+03</rscale>
<asrwt>0</asrwt>
<pdfrwt beam="2">  1        4 0.30471695E-02 0.12501228E+03</pdfrwt>
<pdfrwt beam="1">  1       -4 0.30347436E-01 0.12501228E+03</pdfrwt>
<totfact> 0.87310976E+03</totfact>
</mgrwt>
</event>
<event>
 5    1  0.3308162E-002  0.1249981E+03  0.7818608E-02  0.1235072E+00
         -4   -1    0    0    0  501 -0.00000000000E+00  0.00000000000E+00  0.13553229972E+03  0.13553824983E+03  0.12700000000E+01 0.  1.
          4   -1    0    0  501    0  0.00000000000E+00 -0.00000000000E+00 -0.28800091129E+02  0.28828079177E+02  0.12700000000E+01 0.  1.
         25    2    1    2    0    0  0.00000000000E+00  0.00000000000E+00  0.10673220859E+03  0.16436632901E+03  0.12499810303E+03 0.  0.
    9000005    1    3    3    0    0 -0.85725289508E+01  0.95250425975E+01  0.13379247203E+03  0.13440848285E+03  0.10000000000E+01 0.  0.
    9000005    1    3    3    0    0  0.85725289508E+01 -0.95250425975E+01 -0.27060263440E+02  0.29957846160E+02  0.10000000000E+01 0.  0.
<mgrwt>
<rscale>  0 0.12499810E+03</rscale>
<asrwt>0</asrwt>
<pdfrwt beam="2">  1        4 0.44333939E-02 0.12499810E+03</pdfrwt>
<pdfrwt beam="1">  1       -4 0.20853733E-01 0.12499810E+03</pdfrwt>
<totfact> 0.96511647E+03</totfact>
</mgrwt>
</event>
<event>
 5    1  0.3308162E-002  0.1250012E+03  0.7818608E-02  0.1235067E+00
          4   -1    0    0  501    0  0.00000000000E+00  0.00000000000E+00  0.44771401056E+02  0.44789410049E+02  0.12700000000E+01 0. -1.
         -4   -1    0    0    0  501 -0.00000000000E+00 -0.00000000000E+00 -0.87210227396E+02  0.87219474101E+02  0.12700000000E+01 0. -1.
         25    2    1    2    0    0  0.00000000000E+00  0.00000000000E+00 -0.42438826339E+02  0.13200888415E+03  0.12500116605E+03 0.  0.
    9000005    1    3    3    0    0  0.87137782082E+01 -0.39125732397E+02  0.29411756914E+02  0.49727299454E+02  0.10000000000E+01 0.  0.
    9000005    1    3    3    0    0 -0.87137782082E+01  0.39125732397E+02 -0.71850583253E+02  0.82281584696E+02  0.10000000000E+01 0.  0.
<mgrwt>
<rscale>  0 0.12500117E+03</rscale>
<asrwt>0</asrwt>
<pdfrwt beam="1">  1        4 0.68900045E-02 0.12500117E+03</pdfrwt>
<pdfrwt beam="2">  1       -4 0.13419055E-01 0.12500117E+03</pdfrwt>
<totfact> 0.10301238E+04</totfact>
</mgrwt>
</event>
<event>
 5    1  0.3308162E-002  0.1249961E+03  0.7818608E-02  0.1235075E+00
         -4   -1    0    0    0  501 -0.00000000000E+00  0.00000000000E+00  0.12093691936E+02  0.12160192624E+02  0.12700000000E+01 0.  1.
          4   -1    0    0  501    0  0.00000000000E+00 -0.00000000000E+00 -0.32202557614E+03  0.32202808043E+03  0.12700000000E+01 0.  1.
         25    2    1    2    0    0  0.00000000000E+00  0.00000000000E+00 -0.30993188420E+03  0.33418827306E+03  0.12499611595E+03 0.  0.
    9000005    1    3    3    0    0 -0.32841108530E+02 -0.52665596773E+02 -0.17439389775E+03  0.18511195279E+03  0.10000000000E+01 0.  0.
    9000005    1    3    3    0    0  0.32841108530E+02  0.52665596773E+02 -0.13553798645E+03  0.14907632027E+03  0.10000000000E+01 0.  0.
<mgrwt>
<rscale>  0 0.12499612E+03</rscale>
<asrwt>0</asrwt>
<pdfrwt beam="2">  1        4 0.49547698E-01 0.12499612E+03</pdfrwt>
<pdfrwt beam="1">  1       -4 0.18658763E-02 0.12499612E+03</pdfrwt>
<totfact> 0.71505953E+03</totfact>
</mgrwt>
</event>
<event>
 5    1  0.3308162E-002  0.1249870E+03  0.7818608E-02  0.1235090E+00
          4   -1    0    0  501    0  0.00000000000E+00  0.00000000000E+00  0.64390097105E+02  0.64402620328E+02  0.12700000000E+01 0. -1.
         -4   -1    0    0    0  501 -0.00000000000E+00 -0.00000000000E+00 -0.60627677750E+02  0.60640977971E+02  0.12700000000E+01 0. -1.
         25    2    1    2    0    0  0.00000000000E+00  0.00000000000E+00  0.37624193552E+01  0.12504359830E+03  0.12498698203E+03 0.  0.
    9000005    1    3    3    0    0  0.55759092823E+02 -0.20679099878E+02  0.21066309141E+02  0.63099056927E+02  0.10000000000E+01 0.  0.
    9000005    1    3    3    0    0 -0.55759092823E+02  0.20679099878E+02 -0.17303889786E+02  0.61944541373E+02  0.10000000000E+01 0.  0.
<mgrwt>
<rscale>  0 0.12498698E+03</rscale>
<asrwt>0</asrwt>
<pdfrwt beam="1">  1        4 0.99081552E-02 0.12498698E+03</pdfrwt>
<pdfrwt beam="2">  1       -4 0.93293215E-02 0.12498698E+03</pdfrwt>
<totfact> 0.10454991E+04</totfact>
</mgrwt>
</event>
<event>
 5    1  0.3308162E-002  0.1249996E+03  0.7818608E-02  0.1235070E+00
         -4   -1    0    0    0  501 -0.00000000000E+00  0.00000000000E+00  0.99140417589E+03  0.99140498933E+03  0.12700000000E+01 0.  1.
          4   -1    0    0  501    0  0.00000000000E+00 -0.00000000000E+00 -0.38369210628E+01  0.40416411570E+01  0.12700000000E+01 0.  1.
         25    2    1    2    0    0  0.00000000000E+00  0.00000000000E+00  0.98756725483E+03  0.99544663049E+03  0.12499964538E+03 0.  0.
    9000005    1    3    3    0    0  0.18241358678E+00  0.58284602718E+02  0.31427569416E+03  0.31963626222E+03  0.10000000000E+01 0.  0.
    9000005    1    3    3    0    0 -0.18241358678E+00 -0.58284602718E+02  0.67329156067E+03  0.67581036827E+03  0.10000000000E+01 0.  0.
<mgrwt>
<rscale>  0 0.12499965E+03</rscale>
<asrwt>0</asrwt>
<pdfrwt beam="2">  1        4 0.60610540E-03 0.12499965E+03</pdfrwt>
<pdfrwt beam="1">  1       -4 0.15253964E+00 0.12499965E+03</pdfrwt>
<totfact> 0.30755517E+03</totfact>
</mgrwt>
</event>
<event>
 5    1  0.3308162E-002  0.1249989E+03  0.7818608E-02  0.1235071E+00
         -4   -1    0    0    0  501 -0.00000000000E+00  0.00000000000E+00  0.22331170564E+02  0.22367254609E+02  0.12700000000E+01 0.  1.
          4   -1    0    0  501    0  0.00000000000E+00 -0.00000000000E+00 -0.17474105220E+03  0.17474566726E+03  0.12700000000E+01 0.  1.
         25    2    1    2    0    0  0.00000000000E+00  0.00000000000E+00 -0.15240988164E+03  0.19711292187E+03  0.12499892778E+03 0.  0.
    9000005    1    3    3    0    0 -0.29429119253E+02  0.27630358707E+02 -0.97967070809E+00  0.40391453762E+02  0.10000000000E+01 0.  0.
    9000005    1    3    3    0    0  0.29429119253E+02 -0.27630358707E+02 -0.15143021093E+03  0.15672146810E+03  0.10000000000E+01 0.  0.
<mgrwt>
<rscale>  0 0.12499893E+03</rscale>
<asrwt>0</asrwt>
<pdfrwt beam="2">  1        4 0.26886369E-01 0.12499893E+03</pdfrwt>
<pdfrwt beam="1">  1       -4 0.34386955E-02 0.12499893E+03</pdfrwt>
<totfact> 0.90626382E+03</totfact>
</mgrwt>
</event>
<event>
 5    1  0.3308162E-002  0.1249992E+03  0.7818608E-02  0.1235071E+00
         -4   -1    0    0    0  501 -0.00000000000E+00  0.00000000000E+00  0.97815575409E+02  0.97823819659E+02  0.12700000000E+01 0.  1.
          4   -1    0    0  501    0  0.00000000000E+00 -0.00000000000E+00 -0.39914318339E+02  0.39934517757E+02  0.12700000000E+01 0.  1.
         25    2    1    2    0    0  0.00000000000E+00  0.00000000000E+00  0.57901257070E+02  0.13775833742E+03  0.12499921583E+03 0.  0.
    9000005    1    3    3    0    0  0.56657915180E+02 -0.12899116212E+02  0.36102571916E+01  0.58228347981E+02  0.10000000000E+01 0.  0.
    9000005    1    3    3    0    0 -0.56657915180E+02  0.12899116212E+02  0.54290999879E+02  0.79529989434E+02  0.10000000000E+01 0.  0.
<mgrwt>
<rscale>  0 0.12499922E+03</rscale>
<asrwt>0</asrwt>
<pdfrwt beam="2">  1        4 0.61428523E-02 0.12499922E+03</pdfrwt>
<pdfrwt beam="1">  1       -4 0.15050738E-01 0.12499922E+03</pdfrwt>
<totfact> 0.10180434E+04</totfact>
</mgrwt>
</event>
<event>
 5    1  0.3308162E-002  0.1249976E+03  0.7818608E-02  0.1235073E+00
          4   -1    0    0  501    0  0.00000000000E+00  0.00000000000E+00  0.79776713015E+01  0.80781272208E+01  0.12700000000E+01 0.  1.
         -4   -1    0    0    0  501 -0.00000000000E+00 -0.00000000000E+00 -0.48646404576E+03  0.48646570353E+03  0.12700000000E+01 0.  1.
         25    2    1    2    0    0  0.00000000000E+00  0.00000000000E+00 -0.47848637446E+03  0.49454383076E+03  0.12499755997E+03 0.  0.
    9000005    1    3    3    0    0  0.27648289316E+02  0.44519563954E+02 -0.37391745965E+03  0.37757341817E+03  0.10000000000E+01 0.  0.
    9000005    1    3    3    0    0 -0.27648289316E+02 -0.44519563954E+02 -0.10456891481E+03  0.11697041259E+03  0.10000000000E+01 0.  0.
<mgrwt>
<rscale>  0 0.12499756E+03</rscale>
<asrwt>0</asrwt>
<pdfrwt beam="1">  1        4 0.12351893E-02 0.12499756E+03</pdfrwt>
<pdfrwt beam="2">  1       -4 0.74848454E-01 0.12499756E+03</pdfrwt>
<totfact> 0.56293228E+03</totfact>
</mgrwt>
</event>
<event>
 5    1  0.3308162E-002  0.1250078E+03  0.7818608E-02  0.1235057E+00
          4   -1    0    0  501    0  0.00000000000E+00  0.00000000000E+00  0.34682211908E+02  0.34705456672E+02  0.12700000000E+01 0.  1.
         -4   -1    0    0    0  501 -0.00000000000E+00 -0.00000000000E+00 -0.11257921731E+03  0.11258638048E+03  0.12700000000E+01 0.  1.
         25    2    1    2    0    0  0.00000000000E+00  0.00000000000E+00 -0.77897005400E+02  0.14729183715E+03  0.12500776712E+03 0.  0.
    9000005    1    3    3    0    0 -0.40438317161E+02  0.16164601433E+02 -0.91762798838E+02  0.10157737487E+03  0.10000000000E+01 0.  0.
    9000005    1    3    3    0    0  0.40438317161E+02 -0.16164601433E+02  0.13865793439E+02  0.45714462285E+02  0.10000000000E+01 0.  0.
<mgrwt>
<rscale>  0 0.12500777E+03</rscale>
<asrwt>0</asrwt>
<pdfrwt beam="1">  1        4 0.53380640E-02 0.12500777E+03</pdfrwt>
<pdfrwt beam="2">  1       -4 0.17322218E-01 0.12500777E+03</pdfrwt>
<totfact> 0.99828838E+03</totfact>
</mgrwt>
</event>
<event>
 5    1  0.3308162E-002  0.1249986E+03  0.7818608E-02  0.1235071E+00
          4   -1    0    0  501    0  0.00000000000E+00  0.00000000000E+00  0.27447593102E+01  0.30243352445E+01  0.12700000000E+01 0.  1.
         -4   -1    0    0    0  501 -0.00000000000E+00 -0.00000000000E+00 -0.13538890199E+04  0.13538896155E+04  0.12700000000E+01 0.  1.
         25    2    1    2    0    0  0.00000000000E+00  0.00000000000E+00 -0.13511442606E+04  0.13569139508E+04  0.12499862778E+03 0.  0.
    9000005    1    3    3    0    0 -0.52772783773E+02 -0.30669768149E+02 -0.53010820292E+03  0.53361157052E+03  0.10000000000E+01 0.  0.
    9000005    1    3    3    0    0  0.52772783773E+02  0.30669768149E+02 -0.82103605765E+03  0.82330238026E+03  0.10000000000E+01 0.  0.
<mgrwt>
<rscale>  0 0.12499863E+03</rscale>
<asrwt>0</asrwt>
<pdfrwt beam="1">  1        4 0.44382340E-03 0.12499863E+03</pdfrwt>
<pdfrwt beam="2">  1       -4 0.20831166E+00 0.12499863E+03</pdfrwt>
<totfact> 0.20924406E+03</totfact>
</mgrwt>
</event>
<event>
 5    1  0.3308162E-002  0.1249985E+03  0.7818608E-02  0.1235072E+00
         -4   -1    0    0    0  501 -0.00000000000E+00  0.00000000000E+00  0.18966393238E+03  0.18966818433E+03  0.12700000000E+01 0.  1.
          4   -1    0    0  501    0  0.00000000000E+00 -0.00000000000E+00 -0.20571069042E+02  0.20610234874E+02  0.12700000000E+01 0.  1.
         25    2    1    2    0    0  0.00000000000E+00  0.00000000000E+00  0.16909286334E+03  0.21027841920E+03  0.12499846859E+03 0.  0.
    9000005    1    3    3    0    0 -0.27163800609E+02 -0.36544915858E+02  0.15654490227E+03  0.16303591434E+03  0.10000000000E+01 0.  0.
    9000005    1    3    3    0    0  0.27163800609E+02  0.36544915858E+02  0.12547961070E+02  0.47242504861E+02  0.10000000000E+01 0.  0.
<mgrwt>
<rscale>  0 0.12499847E+03</rscale>
<asrwt>0</asrwt>
<pdfrwt beam="2">  1        4 0.31681197E-02 0.12499847E+03</pdfrwt>
<pdfrwt beam="1">  1       -4 0.29182407E-01 0.12499847E+03</pdfrwt>
<totfact> 0.88433458E+03</totfact>
</mgrwt>
</event>
<event>
 5    1  0.3308162E-002  0.1249983E+03  0.7818608E-02  0.1235072E+00
         -4   -1    0    0    0  501 -0.00000000000E+00  0.00000000000E+00  0.31839557812E+03  0.31839811096E+03  0.12700000000E+01 0.  1.
          4   -1    0    0  501    0  0.00000000000E+00 -0.00000000000E+00 -0.12232747316E+02  0.12298496124E+02  0.12700000000E+01 0.  1.
         25    2    1    2    0    0  0.00000000000E+00  0.00000000000E+00  0.30616283080E+03  0.33069660708E+03  0.12499826788E+03 0.  0.
    9000005    1    3    3    0    0  0.14548965941E+02 -0.59137797483E+02  0.11602491127E+03  0.13104095366E+03  0.10000000000E+01 0.  0.
    9000005    1    3    3    0    0 -0.14548965941E+02  0.59137797483E+02  0.19013791953E+03  0.19965565342E+03  0.10000000000E+01 0.  0.
<mgrwt>
<rscale>  0 0.12499827E+03</rscale>
<asrwt>0</asrwt>
<pdfrwt beam="2">  1        4 0.18872136E-02 0.12499827E+03</pdfrwt>
<pdfrwt beam="1">  1       -4 0.48989187E-01 0.12499827E+03</pdfrwt>
<totfact> 0.71904469E+03</totfact>
</mgrwt>
</event>
<event>
 5    1  0.3308162E-002  0.1249898E+03  0.7818608E-02  0.1235085E+00
          4   -1    0    0  501    0  0.00000000000E+00  0.00000000000E+00  0.23281892501E+02  0.23316505279E+02  0.12700000000E+01 0.  1.
         -4   -1    0    0    0  501 -0.00000000000E+00 -0.00000000000E+00 -0.16759153421E+03  0.16759634614E+03  0.12700000000E+01 0.  1.
         25    2    1    2    0    0  0.00000000000E+00  0.00000000000E+00 -0.14430964171E+03  0.19091285142E+03  0.12498977617E+03 0.  0.
    9000005    1    3    3    0    0 -0.57044473937E+02  0.22240914195E+02 -0.53084546596E+02  0.81041343513E+02  0.10000000000E+01 0.  0.
    9000005    1    3    3    0    0  0.57044473937E+02 -0.22240914195E+02 -0.91225095115E+02  0.10987150791E+03  0.10000000000E+01 0.  0.
<mgrwt>
<rscale>  0 0.12498978E+03</rscale>
<asrwt>0</asrwt>
<pdfrwt beam="1">  1        4 0.35848624E-02 0.12498978E+03</pdfrwt>
<pdfrwt beam="2">  1       -4 0.25786345E-01 0.12498978E+03</pdfrwt>
<totfact> 0.91709723E+03</totfact>
</mgrwt>
</event>
<event>
 5    1  0.3308162E-002  0.1250142E+03  0.7818608E-02  0.1235047E+00
         -4   -1    0    0    0  501 -0.00000000000E+00  0.00000000000E+00  0.12833688564E+02  0.12896373993E+02  0.12700000000E+01 0.  1.
          4   -1    0    0  501    0  0.00000000000E+00 -0.00000000000E+00 -0.30363802890E+03  0.30364068485E+03  0.12700000000E+01 0.  1.
         25    2    1    2    0    0  0.00000000000E+00  0.00000000000E+00 -0.29080434034E+03  0.31653705884E+03  0.12501418024E+03 0.  0.
    9000005    1    3    3    0    0  0.16911100332E+02  0.54029357148E+02 -0.21243969405E+03  0.21985627204E+03  0.10000000000E+01 0.  0.
    9000005    1    3    3    0    0 -0.16911100332E+02 -0.54029357148E+02 -0.78364646287E+02  0.96680786799E+02  0.10000000000E+01 0.  0.
<mgrwt>
<rscale>  0 0.12501418E+03</rscale>
<asrwt>0</asrwt>
<pdfrwt beam="2">  1        4 0.46718564E-01 0.12501418E+03</pdfrwt>
<pdfrwt beam="1">  1       -4 0.19794401E-02 0.12501418E+03</pdfrwt>
<totfact> 0.73546774E+03</totfact>
</mgrwt>
</event>
<event>
 5    1  0.3308162E-002  0.1250002E+03  0.7818608E-02  0.1235069E+00
          4   -1    0    0  501    0  0.00000000000E+00  0.00000000000E+00  0.76895147375E+01  0.77936857069E+01  0.12700000000E+01 0.  1.
         -4   -1    0    0    0  501 -0.00000000000E+00 -0.00000000000E+00 -0.50447544759E+03  0.50447704618E+03  0.12700000000E+01 0.  1.
         25    2    1    2    0    0  0.00000000000E+00  0.00000000000E+00 -0.49678593286E+03  0.51227073189E+03  0.12500015867E+03 0.  0.
    9000005    1    3    3    0    0 -0.43587590313E+02 -0.43164524825E+02 -0.29726354235E+03  0.30352869361E+03  0.10000000000E+01 0.  0.
    9000005    1    3    3    0    0  0.43587590313E+02  0.43164524825E+02 -0.19952239050E+03  0.20874203828E+03  0.10000000000E+01 0.  0.
<mgrwt>
<rscale>  0 0.12500016E+03</rscale>
<asrwt>0</asrwt>
<pdfrwt beam="1">  1        4 0.11911388E-02 0.12500016E+03</pdfrwt>
<pdfrwt beam="2">  1       -4 0.77619718E-01 0.12500016E+03</pdfrwt>
<totfact> 0.54924541E+03</totfact>
</mgrwt>
</event>
<event>
 5    1  0.3308162E-002  0.1249989E+03  0.7818608E-02  0.1235071E+00
         -4   -1    0    0    0  501 -0.00000000000E+00  0.00000000000E+00  0.28791334503E+03  0.28791614603E+03  0.12700000000E+01 0. -1.
          4   -1    0    0  501    0  0.00000000000E+00 -0.00000000000E+00 -0.13534619108E+02  0.13594072767E+02  0.12700000000E+01 0. -1.
         25    2    1    2    0    0  0.00000000000E+00  0.00000000000E+00  0.27437872592E+03  0.30151021880E+03  0.12499890720E+03 0.  0.
    9000005    1    3    3    0    0 -0.15776626136E+02 -0.39780026780E+02  0.27343851300E+02  0.50794081021E+02  0.10000000000E+01 0.  0.
    9000005    1    3    3    0    0  0.15776626136E+02  0.39780026780E+02  0.24703487462E+03  0.25071613777E+03  0.10000000000E+01 0.  0.
<mgrwt>
<rscale>  0 0.12499891E+03</rscale>
<asrwt>0</asrwt>
<pdfrwt beam="2">  1        4 0.20870379E-02 0.12499891E+03</pdfrwt>
<pdfrwt beam="1">  1       -4 0.44299150E-01 0.12499891E+03</pdfrwt>
<totfact> 0.75411617E+03</totfact>
</mgrwt>
</event>
<event>
 5    1  0.3308162E-002  0.1249992E+03  0.7818608E-02  0.1235071E+00
          4   -1    0    0  501    0  0.00000000000E+00  0.00000000000E+00  0.16015441763E+03  0.16015945301E+03  0.12700000000E+01 0.  1.
         -4   -1    0    0    0  501 -0.00000000000E+00 -0.00000000000E+00 -0.24368261949E+02  0.24401333784E+02  0.12700000000E+01 0.  1.
         25    2    1    2    0    0  0.00000000000E+00  0.00000000000E+00  0.13578615569E+03  0.18456078679E+03  0.12499921578E+03 0.  0.
    9000005    1    3    3    0    0  0.53988998988E+02 -0.12766259594E+02  0.11036412263E+03  0.12352744213E+03  0.10000000000E+01 0.  0.
    9000005    1    3    3    0    0 -0.53988998988E+02  0.12766259594E+02  0.25422033055E+02  0.61033344660E+02  0.10000000000E+01 0.  0.
<mgrwt>
<rscale>  0 0.12499922E+03</rscale>
<asrwt>0</asrwt>
<pdfrwt beam="1">  1        4 0.24642073E-01 0.12499922E+03</pdfrwt>
<pdfrwt beam="2">  1       -4 0.37518947E-02 0.12499922E+03</pdfrwt>
<totfact> 0.92804060E+03</totfact>
</mgrwt>
</event>
<event>
 5    1  0.3308162E-002  0.1249998E+03  0.7818608E-02  0.1235070E+00
          4   -1    0    0  501    0  0.00000000000E+00  0.00000000000E+00  0.11267492098E+02  0.11338839366E+02  0.12700000000E+01 0. -1.
         -4   -1    0    0    0  501 -0.00000000000E+00 -0.00000000000E+00 -0.34551539250E+03  0.34551772654E+03  0.12700000000E+01 0. -1.
         25    2    1    2    0    0  0.00000000000E+00  0.00000000000E+00 -0.33424790040E+03  0.35685656590E+03  0.12499979883E+03 0.  0.
    9000005    1    3    3    0    0 -0.60838967469E+02  0.20044588553E+00 -0.12636669913E+03  0.14025320956E+03  0.10000000000E+01 0.  0.
    9000005    1    3    3    0    0  0.60838967469E+02 -0.20044588553E+00 -0.20788120127E+03  0.21660335635E+03  0.10000000000E+01 0.  0.
<mgrwt>
<rscale>  0 0.12499980E+03</rscale>
<asrwt>0</asrwt>
<pdfrwt beam="1">  1        4 0.17391284E-02 0.12499980E+03</pdfrwt>
<pdfrwt beam="2">  1       -4 0.53161874E-01 0.12499980E+03</pdfrwt>
<totfact> 0.68977089E+03</totfact>
</mgrwt>
</event>
<event>
 5    1  0.3308162E-002  0.1249699E+03  0.7818608E-02  0.1235116E+00
          4   -1    0    0  501    0  0.00000000000E+00  0.00000000000E+00  0.15995481528E+02  0.16045819683E+02  0.12700000000E+01 0.  1.
         -4   -1    0    0    0  501 -0.00000000000E+00 -0.00000000000E+00 -0.24365664051E+03  0.24365995027E+03  0.12700000000E+01 0.  1.
         25    2    1    2    0    0  0.00000000000E+00  0.00000000000E+00 -0.22766115899E+03  0.25970576996E+03  0.12496993093E+03 0.  0.
    9000005    1    3    3    0    0  0.84936570784E+01  0.61828174152E+02 -0.11989135265E+03  0.13516583063E+03  0.10000000000E+01 0.  0.
    9000005    1    3    3    0    0 -0.84936570784E+01 -0.61828174152E+02 -0.10776980634E+03  0.12453993933E+03  0.10000000000E+01 0.  0.
<mgrwt>
<rscale>  0 0.12496993E+03</rscale>
<asrwt>0</asrwt>
<pdfrwt beam="1">  1        4 0.24649702E-02 0.12496993E+03</pdfrwt>
<pdfrwt beam="2">  1       -4 0.37489761E-01 0.12496993E+03</pdfrwt>
<totfact> 0.81001576E+03</totfact>
</mgrwt>
</event>
<event>
 5    1  0.3308162E-002  0.1249959E+03  0.7818608E-02  0.1235076E+00
          4   -1    0    0  501    0  0.00000000000E+00  0.00000000000E+00  0.27086775818E+03  0.27087073545E+03  0.12700000000E+01 0. -1.
         -4   -1    0    0    0  501 -0.00000000000E+00 -0.00000000000E+00 -0.14389267322E+02  0.14445203843E+02  0.12700000000E+01 0. -1.
         25    2    1    2    0    0  0.00000000000E+00  0.00000000000E+00  0.25647849086E+03  0.28531593929E+03  0.12499587569E+03 0.  0.
    9000005    1    3    3    0    0 -0.32985111744E+02 -0.61263635682E+01  0.78994738334E+01  0.34481177680E+02  0.10000000000E+01 0.  0.
    9000005    1    3    3    0    0  0.32985111744E+02  0.61263635682E+01  0.24857901702E+03  0.25083476161E+03  0.10000000000E+01 0.  0.
<mgrwt>
<rscale>  0 0.12499588E+03</rscale>
<asrwt>0</asrwt>
<pdfrwt beam="1">  1        4 0.41676491E-01 0.12499588E+03</pdfrwt>
<pdfrwt beam="2">  1       -4 0.22182655E-02 0.12499588E+03</pdfrwt>
<totfact> 0.77485592E+03</totfact>
</mgrwt>
</event>
<event>
 5    1  0.3308162E-002  0.1249985E+03  0.7818608E-02  0.1235072E+00
          4   -1    0    0  501    0  0.00000000000E+00  0.00000000000E+00  0.43248226973E+02  0.43266869962E+02  0.12700000000E+01 0.  1.
         -4   -1    0    0    0  501 -0.00000000000E+00 -0.00000000000E+00 -0.90276894397E+02  0.90285827027E+02  0.12700000000E+01 0.  1.
         25    2    1    2    0    0  0.00000000000E+00  0.00000000000E+00 -0.47028667423E+02  0.13355269699E+03  0.12499850924E+03 0.  0.
    9000005    1    3    3    0    0  0.26563887169E+02 -0.37173953649E+02  0.22036742929E+02  0.50736189947E+02  0.10000000000E+01 0.  0.
    9000005    1    3    3    0    0 -0.26563887169E+02  0.37173953649E+02 -0.69065410352E+02  0.82816507042E+02  0.10000000000E+01 0.  0.
<mgrwt>
<rscale>  0 0.12499851E+03</rscale>
<asrwt>0</asrwt>
<pdfrwt beam="1">  1        4 0.66556946E-02 0.12499851E+03</pdfrwt>
<pdfrwt beam="2">  1       -4 0.13890874E-01 0.12499851E+03</pdfrwt>
<totfact> 0.10269012E+04</totfact>
</mgrwt>
</event>
<event>
 4    1  0.3308162E-002  0.1252050E+03  0.7818608E-02  0.1234749E+00
         -4   -1    0    0    0  501 -0.00000000000E+00  0.00000000000E+00  0.64384717954E+02  0.64397242224E+02  0.12700000000E+01 0. -1.
          4   -1    0    0  501    0  0.00000000000E+00 -0.00000000000E+00 -0.60844513001E+02  0.60857765834E+02  0.12700000000E+01 0. -1.
    9000005    1    1    2    0    0  0.36288636404E+02  0.33918543592E+02 -0.36333678427E+02  0.61550539555E+02  0.10000000000E+01 0.  0.
    9000005    1    1    2    0    0 -0.36288636404E+02 -0.33918543592E+02  0.39873883380E+02  0.63704468503E+02  0.10000000000E+01 0.  0.
<mgrwt>
<rscale>  0 0.12520497E+03</rscale>
<asrwt>0</asrwt>
<pdfrwt beam="2">  1        4 0.93626772E-02 0.12520497E+03</pdfrwt>
<pdfrwt beam="1">  1       -4 0.99073241E-02 0.12520497E+03</pdfrwt>
<totfact> 0.10399079E+04</totfact>
</mgrwt>
</event>
<event>
 5    1  0.3308162E-002  0.1250012E+03  0.7818608E-02  0.1235067E+00
          4   -1    0    0  501    0  0.00000000000E+00  0.00000000000E+00  0.18680973295E+03  0.18681404986E+03  0.12700000000E+01 0.  1.
         -4   -1    0    0    0  501 -0.00000000000E+00 -0.00000000000E+00 -0.20886880524E+02  0.20925455264E+02  0.12700000000E+01 0.  1.
         25    2    1    2    0    0  0.00000000000E+00  0.00000000000E+00  0.16592285243E+03  0.20773950512E+03  0.12500123612E+03 0.  0.
    9000005    1    3    3    0    0 -0.27179407370E+02  0.38113058594E+02  0.15176490965E+03  0.15882352855E+03  0.10000000000E+01 0.  0.
    9000005    1    3    3    0    0  0.27179407370E+02 -0.38113058594E+02  0.14157942775E+02  0.48915976572E+02  0.10000000000E+01 0.  0.
<mgrwt>
<rscale>  0 0.12500124E+03</rscale>
<asrwt>0</asrwt>
<pdfrwt beam="1">  1        4 0.28743258E-01 0.12500124E+03</pdfrwt>
<pdfrwt beam="2">  1       -4 0.32166656E-02 0.12500124E+03</pdfrwt>
<totfact> 0.88843928E+03</totfact>
</mgrwt>
</event>
<event>
 5    1  0.3308162E-002  0.1249959E+03  0.7818608E-02  0.1235076E+00
         -4   -1    0    0    0  501 -0.00000000000E+00  0.00000000000E+00  0.14739568788E+02  0.14794180885E+02  0.12700000000E+01 0.  1.
          4   -1    0    0  501    0  0.00000000000E+00 -0.00000000000E+00 -0.26445445151E+03  0.26445750098E+03  0.12700000000E+01 0.  1.
         25    2    1    2    0    0  0.00000000000E+00  0.00000000000E+00 -0.24971488272E+03  0.27925168186E+03  0.12499591661E+03 0.  0.
    9000005    1    3    3    0    0  0.27656978358E+02  0.37915582092E+02 -0.32676128060E+02  0.57194660260E+02  0.10000000000E+01 0.  0.
    9000005    1    3    3    0    0 -0.27656978358E+02 -0.37915582092E+02 -0.21703875466E+03  0.22205702160E+03  0.10000000000E+01 0.  0.
<mgrwt>
<rscale>  0 0.12499592E+03</rscale>
<asrwt>0</asrwt>
<pdfrwt beam="2">  1        4 0.40689732E-01 0.12499592E+03</pdfrwt>
<pdfrwt beam="1">  1       -4 0.22720617E-02 0.12499592E+03</pdfrwt>
<totfact> 0.78284539E+03</totfact>
</mgrwt>
</event>
<event>
 5    1  0.3308162E-002  0.1249956E+03  0.7818608E-02  0.1235076E+00
          4   -1    0    0  501    0  0.00000000000E+00  0.00000000000E+00  0.46260706789E+02  0.46278136226E+02  0.12700000000E+01 0.  1.
         -4   -1    0    0    0  501 -0.00000000000E+00 -0.00000000000E+00 -0.84395853490E+02  0.84405408514E+02  0.12700000000E+01 0.  1.
         25    2    1    2    0    0  0.00000000000E+00  0.00000000000E+00 -0.38135146702E+02  0.13068354474E+03  0.12499559773E+03 0.  0.
    9000005    1    3    3    0    0 -0.50119150252E+02 -0.16396204970E+02  0.15987423334E+02  0.55112271449E+02  0.10000000000E+01 0.  0.
    9000005    1    3    3    0    0  0.50119150252E+02  0.16396204970E+02 -0.54122570036E+02  0.75571273291E+02  0.10000000000E+01 0.  0.
<mgrwt>
<rscale>  0 0.12499560E+03</rscale>
<asrwt>0</asrwt>
<pdfrwt beam="1">  1        4 0.71191076E-02 0.12499560E+03</pdfrwt>
<pdfrwt beam="2">  1       -4 0.12986053E-01 0.12499560E+03</pdfrwt>
<totfact> 0.10330904E+04</totfact>
</mgrwt>
</event>
<event>
 5    1  0.3308162E-002  0.1249959E+03  0.7818608E-02  0.1235076E+00
         -4   -1    0    0    0  501 -0.00000000000E+00  0.00000000000E+00  0.78055727367E+02  0.78066058404E+02  0.12700000000E+01 0.  1.
          4   -1    0    0  501    0  0.00000000000E+00 -0.00000000000E+00 -0.50019427801E+02  0.50035547939E+02  0.12700000000E+01 0.  1.
         25    2    1    2    0    0  0.00000000000E+00  0.00000000000E+00  0.28036299566E+02  0.12810160634E+03  0.12499594975E+03 0.  0.
    9000005    1    3    3    0    0  0.36315290637E+02 -0.43445509263E+02  0.41107532750E+02  0.69979581721E+02  0.10000000000E+01 0.  0.
    9000005    1    3    3    0    0 -0.36315290637E+02  0.43445509263E+02 -0.13071233184E+02  0.58122024621E+02  0.10000000000E+01 0.  0.
<mgrwt>
<rscale>  0 0.12499595E+03</rscale>
<asrwt>0</asrwt>
<pdfrwt beam="2">  1        4 0.76973313E-02 0.12499595E+03</pdfrwt>
<pdfrwt beam="1">  1       -4 0.12010608E-01 0.12499595E+03</pdfrwt>
<totfact> 0.10386243E+04</totfact>
</mgrwt>
</event>
<event>
 5    1  0.3308162E-002  0.1249985E+03  0.7818608E-02  0.1235072E+00
          4   -1    0    0  501    0  0.00000000000E+00  0.00000000000E+00  0.59499393449E+03  0.59499528988E+03  0.12700000000E+01 0.  1.
         -4   -1    0    0    0  501 -0.00000000000E+00 -0.00000000000E+00 -0.65022447639E+01  0.66251103364E+01  0.12700000000E+01 0.  1.
         25    2    1    2    0    0  0.00000000000E+00  0.00000000000E+00  0.58849168973E+03  0.60162040022E+03  0.12499854831E+03 0.  0.
    9000005    1    3    3    0    0  0.37959033957E+02  0.35590170972E+02  0.46080765279E+03  0.46373725470E+03  0.10000000000E+01 0.  0.
    9000005    1    3    3    0    0 -0.37959033957E+02 -0.35590170972E+02  0.12768403694E+03  0.13788314552E+03  0.10000000000E+01 0.  0.
<mgrwt>
<rscale>  0 0.12499855E+03</rscale>
<asrwt>0</asrwt>
<pdfrwt beam="1">  1        4 0.91547076E-01 0.12499855E+03</pdfrwt>
<pdfrwt beam="2">  1       -4 0.10099009E-02 0.12499855E+03</pdfrwt>
<totfact> 0.48767041E+03</totfact>
</mgrwt>
</event>
<event>
 5    1  0.3308162E-002  0.1249986E+03  0.7818608E-02  0.1235071E+00
         -4   -1    0    0    0  501 -0.00000000000E+00  0.00000000000E+00  0.42850044292E+02  0.42868860445E+02  0.12700000000E+01 0. -1.
          4   -1    0    0  501    0  0.00000000000E+00 -0.00000000000E+00 -0.91115703406E+02  0.91124553811E+02  0.12700000000E+01 0. -1.
         25    2    1    2    0    0  0.00000000000E+00  0.00000000000E+00 -0.48265659114E+02  0.13399341426E+03  0.12499864485E+03 0.  0.
    9000005    1    3    3    0    0 -0.18816139354E+02  0.33574606331E+02 -0.76908319540E+02  0.86006923587E+02  0.10000000000E+01 0.  0.
    9000005    1    3    3    0    0  0.18816139354E+02 -0.33574606331E+02  0.28642660426E+02  0.47986490669E+02  0.10000000000E+01 0.  0.
<mgrwt>
<rscale>  0 0.12499864E+03</rscale>
<asrwt>0</asrwt>
<pdfrwt beam="2">  1        4 0.14019929E-01 0.12499864E+03</pdfrwt>
<pdfrwt beam="1">  1       -4 0.65944427E-02 0.12499864E+03</pdfrwt>
<totfact> 0.10259644E+04</totfact>
</mgrwt>
</event>
<event>
 5    1  0.3308162E-002  0.1249992E+03  0.7818608E-02  0.1235071E+00
          4   -1    0    0  501    0  0.00000000000E+00  0.00000000000E+00  0.46125898181E+02  0.46143378539E+02  0.12700000000E+01 0. -1.
         -4   -1    0    0    0  501 -0.00000000000E+00 -0.00000000000E+00 -0.84647285699E+02  0.84656812344E+02  0.12700000000E+01 0. -1.
         25    2    1    2    0    0  0.00000000000E+00  0.00000000000E+00 -0.38521387518E+02  0.13080019088E+03  0.12499917055E+03 0.  0.
    9000005    1    3    3    0    0  0.11449585354E+02  0.50958631303E+02 -0.55165209213E+02  0.75974175985E+02  0.10000000000E+01 0.  0.
    9000005    1    3    3    0    0 -0.11449585354E+02 -0.50958631303E+02  0.16643821695E+02  0.54826014898E+02  0.10000000000E+01 0.  0.
<mgrwt>
<rscale>  0 0.12499917E+03</rscale>
<asrwt>0</asrwt>
<pdfrwt beam="1">  1        4 0.70983695E-02 0.12499917E+03</pdfrwt>
<pdfrwt beam="2">  1       -4 0.13024737E-01 0.12499917E+03</pdfrwt>
<totfact> 0.10327568E+04</totfact>
</mgrwt>
</event>
<event>
 5    1  0.3308162E-002  0.1249997E+03  0.7818608E-02  0.1235070E+00
         -4   -1    0    0    0  501 -0.00000000000E+00  0.00000000000E+00  0.13317787025E+03  0.13318392554E+03  0.12700000000E+01 0. -1.
          4   -1    0    0  501    0  0.00000000000E+00 -0.00000000000E+00 -0.29310438285E+02  0.29337939472E+02  0.12700000000E+01 0. -1.
         25    2    1    2    0    0  0.00000000000E+00  0.00000000000E+00  0.10386743196E+03  0.16252186502E+03  0.12499965274E+03 0.  0.
    9000005    1    3    3    0    0  0.16308050049E+02  0.53700109901E+02  0.87672641586E+02  0.10410161566E+03  0.10000000000E+01 0.  0.
    9000005    1    3    3    0    0 -0.16308050049E+02 -0.53700109901E+02  0.16194790375E+02  0.58420249358E+02  0.10000000000E+01 0.  0.
<mgrwt>
<rscale>  0 0.12499965E+03</rscale>
<asrwt>0</asrwt>
<pdfrwt beam="2">  1        4 0.45118796E-02 0.12499965E+03</pdfrwt>
<pdfrwt beam="1">  1       -4 0.20491484E-01 0.12499965E+03</pdfrwt>
<totfact> 0.96859537E+03</totfact>
</mgrwt>
</event>
<event>
 5    1  0.3308162E-002  0.1250002E+03  0.7818608E-02  0.1235069E+00
         -4   -1    0    0    0  501 -0.00000000000E+00  0.00000000000E+00  0.78772460872E+01  0.79789664693E+01  0.12700000000E+01 0.  1.
          4   -1    0    0  501    0  0.00000000000E+00 -0.00000000000E+00 -0.49260814835E+03  0.49260978544E+03  0.12700000000E+01 0.  1.
         25    2    1    2    0    0  0.00000000000E+00  0.00000000000E+00 -0.48473090226E+03  0.50058875191E+03  0.12500020376E+03 0.  0.
    9000005    1    3    3    0    0  0.21067261950E+02 -0.33556770211E+02 -0.43589567895E+03  0.43769387622E+03  0.10000000000E+01 0.  0.
    9000005    1    3    3    0    0 -0.21067261950E+02  0.33556770211E+02 -0.48835223308E+02  0.62894875694E+02  0.10000000000E+01 0.  0.
<mgrwt>
<rscale>  0 0.12500020E+03</rscale>
<asrwt>0</asrwt>
<pdfrwt beam="2">  1        4 0.75793795E-01 0.12500020E+03</pdfrwt>
<pdfrwt beam="1">  1       -4 0.12198350E-02 0.12500020E+03</pdfrwt>
<totfact> 0.55818476E+03</totfact>
</mgrwt>
</event>
<event>
 5    1  0.3308162E-002  0.1250403E+03  0.7818608E-02  0.1235006E+00
         -4   -1    0    0    0  501 -0.00000000000E+00  0.00000000000E+00  0.17720061323E+02  0.17765513594E+02  0.12700000000E+01 0. -1.
          4   -1    0    0  501    0  0.00000000000E+00 -0.00000000000E+00 -0.22025444488E+03  0.22025810630E+03  0.12700000000E+01 0. -1.
         25    2    1    2    0    0  0.00000000000E+00  0.00000000000E+00 -0.20253438356E+03  0.23802361989E+03  0.12504026193E+03 0.  0.
    9000005    1    3    3    0    0  0.34704214293E+02 -0.85001764805E+01 -0.36241184828E+01  0.35927283848E+02  0.10000000000E+01 0.  0.
    9000005    1    3    3    0    0 -0.34704214293E+02  0.85001764805E+01 -0.19891026508E+03  0.20209633605E+03  0.10000000000E+01 0.  0.
<mgrwt>
<rscale>  0 0.12504026E+03</rscale>
<asrwt>0</asrwt>
<pdfrwt beam="2">  1        4 0.33889075E-01 0.12504026E+03</pdfrwt>
<pdfrwt beam="1">  1       -4 0.27299414E-02 0.12504026E+03</pdfrwt>
<totfact> 0.84017151E+03</totfact>
</mgrwt>
</event>
<event>
 5    1  0.3308162E-002  0.1250009E+03  0.7818608E-02  0.1235068E+00
          4   -1    0    0  501    0  0.00000000000E+00  0.00000000000E+00  0.61400720236E+02  0.61413853042E+02  0.12700000000E+01 0.  1.
         -4   -1    0    0    0  501 -0.00000000000E+00 -0.00000000000E+00 -0.63593596673E+02  0.63606276717E+02  0.12700000000E+01 0.  1.
         25    2    1    2    0    0  0.00000000000E+00  0.00000000000E+00 -0.21928764366E+01  0.12502012976E+03  0.12500089655E+03 0.  0.
    9000005    1    3    3    0    0 -0.26991927094E+02 -0.52532604997E+02 -0.21521806564E+02  0.62868329657E+02  0.10000000000E+01 0.  0.
    9000005    1    3    3    0    0  0.26991927094E+02  0.52532604997E+02  0.19328930128E+02  0.62151800102E+02  0.10000000000E+01 0.  0.
<mgrwt>
<rscale>  0 0.12500090E+03</rscale>
<asrwt>0</asrwt>
<pdfrwt beam="1">  1        4 0.94482502E-02 0.12500090E+03</pdfrwt>
<pdfrwt beam="2">  1       -4 0.97856159E-02 0.12500090E+03</pdfrwt>
<totfact> 0.10452214E+04</totfact>
</mgrwt>
</event>
<event>
 5    1  0.3308162E-002  0.1249993E+03  0.7818608E-02  0.1235070E+00
         -4   -1    0    0    0  501 -0.00000000000E+00  0.00000000000E+00  0.41835789728E+02  0.41855061847E+02  0.12700000000E+01 0. -1.
          4   -1    0    0  501    0  0.00000000000E+00 -0.00000000000E+00 -0.93324918767E+02  0.93333559682E+02  0.12700000000E+01 0. -1.
         25    2    1    2    0    0  0.00000000000E+00  0.00000000000E+00 -0.51489129039E+02  0.13518862153E+03  0.12499933192E+03 0.  0.
    9000005    1    3    3    0    0  0.11130231289E+02  0.55452096009E+02 -0.54489087234E+02  0.78542202846E+02  0.10000000000E+01 0.  0.
    9000005    1    3    3    0    0 -0.11130231289E+02 -0.55452096009E+02  0.29999581946E+01  0.56646418682E+02  0.10000000000E+01 0.  0.
<mgrwt>
<rscale>  0 0.12499933E+03</rscale>
<asrwt>0</asrwt>
<pdfrwt beam="2">  1        4 0.14359827E-01 0.12499933E+03</pdfrwt>
<pdfrwt beam="1">  1       -4 0.64384225E-02 0.12499933E+03</pdfrwt>
<totfact> 0.10234251E+04</totfact>
</mgrwt>
</event>
<event>
 5    1  0.3308162E-002  0.1249864E+03  0.7818608E-02  0.1235090E+00
         -4   -1    0    0    0  501 -0.00000000000E+00  0.00000000000E+00  0.66191908379E+02  0.66204090771E+02  0.12700000000E+01 0. -1.
          4   -1    0    0  501    0  0.00000000000E+00 -0.00000000000E+00 -0.58976762717E+02  0.58990435162E+02  0.12700000000E+01 0. -1.
         25    2    1    2    0    0  0.00000000000E+00  0.00000000000E+00  0.72151456617E+01  0.12519452593E+03  0.12498644325E+03 0.  0.
    9000005    1    3    3    0    0 -0.25248968002E+02 -0.57102864375E+02  0.60926797402E+01  0.62740483353E+02  0.10000000000E+01 0.  0.
    9000005    1    3    3    0    0  0.25248968002E+02  0.57102864375E+02  0.11224659216E+01  0.62454042581E+02  0.10000000000E+01 0.  0.
<mgrwt>
<rscale>  0 0.12498644E+03</rscale>
<asrwt>0</asrwt>
<pdfrwt beam="2">  1        4 0.90753370E-02 0.12498644E+03</pdfrwt>
<pdfrwt beam="1">  1       -4 0.10185359E-01 0.12498644E+03</pdfrwt>
<totfact> 0.10451841E+04</totfact>
</mgrwt>
</event>
<event>
 5    1  0.3308162E-002  0.1249973E+03  0.7818608E-02  0.1235074E+00
          4   -1    0    0  501    0  0.00000000000E+00  0.00000000000E+00  0.47135458998E+02  0.47152565094E+02  0.12700000000E+01 0.  1.
         -4   -1    0    0    0  501 -0.00000000000E+00 -0.00000000000E+00 -0.82832202825E+02  0.82841938201E+02  0.12700000000E+01 0.  1.
         25    2    1    2    0    0  0.00000000000E+00  0.00000000000E+00 -0.35696743827E+02  0.12999450329E+03  0.12499725344E+03 0.  0.
    9000005    1    3    3    0    0  0.60996967150E+02  0.85280329054E+01 -0.28840756541E+02  0.68015781879E+02  0.10000000000E+01 0.  0.
    9000005    1    3    3    0    0 -0.60996967150E+02 -0.85280329054E+01 -0.68559872853E+01  0.61978721416E+02  0.10000000000E+01 0.  0.
<mgrwt>
<rscale>  0 0.12499725E+03</rscale>
<asrwt>0</asrwt>
<pdfrwt beam="1">  1        4 0.72536738E-02 0.12499725E+03</pdfrwt>
<pdfrwt beam="2">  1       -4 0.12745481E-01 0.12499725E+03</pdfrwt>
<totfact> 0.10345266E+04</totfact>
</mgrwt>
</event>
<event>
 5    1  0.3308162E-002  0.1249990E+03  0.7818608E-02  0.1235071E+00
         -4   -1    0    0    0  501 -0.00000000000E+00  0.00000000000E+00  0.43399854984E+03  0.43400040802E+03  0.12700000000E+01 0.  1.
          4   -1    0    0  501    0  0.00000000000E+00 -0.00000000000E+00 -0.89537805849E+01  0.90434001770E+01  0.12700000000E+01 0.  1.
         25    2    1    2    0    0  0.00000000000E+00  0.00000000000E+00  0.42504476925E+03  0.44304380820E+03  0.12499904045E+03 0.  0.
    9000005    1    3    3    0    0 -0.10501135019E+02  0.51109344597E+02  0.33441760309E+03  0.33846502359E+03  0.10000000000E+01 0.  0.
    9000005    1    3    3    0    0  0.10501135019E+02 -0.51109344597E+02  0.90627166165E+02  0.10457878460E+03  0.10000000000E+01 0.  0.
<mgrwt>
<rscale>  0 0.12499904E+03</rscale>
<asrwt>0</asrwt>
<pdfrwt beam="2">  1        4 0.13845420E-02 0.12499904E+03</pdfrwt>
<pdfrwt beam="1">  1       -4 0.66776020E-01 0.12499904E+03</pdfrwt>
<totfact> 0.60572475E+03</totfact>
</mgrwt>
</event>
<event>
 5    1  0.3308162E-002  0.1249867E+03  0.7818608E-02  0.1235090E+00
          4   -1    0    0  501    0  0.00000000000E+00  0.00000000000E+00  0.27683715481E+02  0.27712831014E+02  0.12700000000E+01 0. -1.
         -4   -1    0    0    0  501 -0.00000000000E+00 -0.00000000000E+00 -0.14096671035E+03  0.14097243109E+03  0.12700000000E+01 0. -1.
         25    2    1    2    0    0  0.00000000000E+00  0.00000000000E+00 -0.11328299487E+03  0.16868526210E+03  0.12498672219E+03 0.  0.
    9000005    1    3    3    0    0 -0.27519303677E+01  0.99463735440E+01  0.26532194576E+02  0.28486151310E+02  0.10000000000E+01 0.  0.
    9000005    1    3    3    0    0  0.27519303677E+01 -0.99463735440E+01 -0.13981518944E+03  0.14019911079E+03  0.10000000000E+01 0.  0.
<mgrwt>
<rscale>  0 0.12498672E+03</rscale>
<asrwt>0</asrwt>
<pdfrwt beam="1">  1        4 0.42617129E-02 0.12498672E+03</pdfrwt>
<pdfrwt beam="2">  1       -4 0.21689866E-01 0.12498672E+03</pdfrwt>
<totfact> 0.95722516E+03</totfact>
</mgrwt>
</event>
<event>
 5    1  0.3308162E-002  0.1250039E+03  0.7818608E-02  0.1235063E+00
         -4   -1    0    0    0  501 -0.00000000000E+00  0.00000000000E+00  0.75891230460E+02  0.75901856108E+02  0.12700000000E+01 0.  1.
          4   -1    0    0  501    0  0.00000000000E+00 -0.00000000000E+00 -0.51452854769E+02  0.51468525954E+02  0.12700000000E+01 0.  1.
         25    2    1    2    0    0  0.00000000000E+00  0.00000000000E+00  0.24438375691E+02  0.12737038206E+03  0.12500392002E+03 0.  0.
    9000005    1    3    3    0    0  0.45999719757E+02  0.12163689727E+02 -0.29064065932E+02  0.55764231313E+02  0.10000000000E+01 0.  0.
    9000005    1    3    3    0    0 -0.45999719757E+02 -0.12163689727E+02  0.53502441623E+02  0.71606150749E+02  0.10000000000E+01 0.  0.
<mgrwt>
<rscale>  0 0.12500392E+03</rscale>
<asrwt>0</asrwt>
<pdfrwt beam="2">  1        4 0.79178467E-02 0.12500392E+03</pdfrwt>
<pdfrwt beam="1">  1       -4 0.11677597E-01 0.12500392E+03</pdfrwt>
<totfact> 0.10400188E+04</totfact>
</mgrwt>
</event>
<event>
 5    1  0.3308162E-002  0.1250018E+03  0.7818608E-02  0.1235066E+00
          4   -1    0    0  501    0  0.00000000000E+00  0.00000000000E+00  0.64138990335E+03  0.64139116069E+03  0.12700000000E+01 0. -1.
         -4   -1    0    0    0  501 -0.00000000000E+00 -0.00000000000E+00 -0.60229839877E+01  0.61554233092E+01  0.12700000000E+01 0. -1.
         25    2    1    2    0    0  0.00000000000E+00  0.00000000000E+00  0.63536691936E+03  0.64754658400E+03  0.12500182494E+03 0.  0.
    9000005    1    3    3    0    0  0.61009289120E+02 -0.13439051789E+02  0.30929427719E+03  0.31554190114E+03  0.10000000000E+01 0.  0.
    9000005    1    3    3    0    0 -0.61009289120E+02  0.13439051789E+02  0.32607264217E+03  0.33200468286E+03  0.10000000000E+01 0.  0.
<mgrwt>
<rscale>  0 0.12500182E+03</rscale>
<asrwt>0</asrwt>
<pdfrwt beam="1">  1        4 0.98685538E-01 0.12500182E+03</pdfrwt>
<pdfrwt beam="2">  1       -4 0.93689838E-03 0.12500182E+03</pdfrwt>
<totfact> 0.45995645E+03</totfact>
</mgrwt>
</event>
<event>
 5    1  0.3308162E-002  0.1249978E+03  0.7818608E-02  0.1235073E+00
         -4   -1    0    0    0  501 -0.00000000000E+00  0.00000000000E+00  0.53655072234E+02  0.53670100396E+02  0.12700000000E+01 0.  1.
          4   -1    0    0  501    0  0.00000000000E+00 -0.00000000000E+00 -0.72769717475E+02  0.72780798851E+02  0.12700000000E+01 0.  1.
         25    2    1    2    0    0  0.00000000000E+00  0.00000000000E+00 -0.19114645240E+02  0.12645089925E+03  0.12499784101E+03 0.  0.
    9000005    1    3    3    0    0  0.53937905909E+02  0.68889665220E+01  0.21596110444E+02  0.58516216043E+02  0.10000000000E+01 0.  0.
    9000005    1    3    3    0    0 -0.53937905909E+02 -0.68889665220E+01 -0.40710755684E+02  0.67934683204E+02  0.10000000000E+01 0.  0.
<mgrwt>
<rscale>  0 0.12499784E+03</rscale>
<asrwt>0</asrwt>
<pdfrwt beam="2">  1        4 0.11197350E-01 0.12499784E+03</pdfrwt>
<pdfrwt beam="1">  1       -4 0.82566348E-02 0.12499784E+03</pdfrwt>
<totfact> 0.10421607E+04</totfact>
</mgrwt>
</event>
<event>
 5    1  0.3308162E-002  0.1250022E+03  0.7818608E-02  0.1235066E+00
          4   -1    0    0  501    0  0.00000000000E+00  0.00000000000E+00  0.48543370368E+02  0.48559980506E+02  0.12700000000E+01 0.  1.
         -4   -1    0    0    0  501 -0.00000000000E+00 -0.00000000000E+00 -0.80436762815E+02  0.80446788078E+02  0.12700000000E+01 0.  1.
         25    2    1    2    0    0  0.00000000000E+00  0.00000000000E+00 -0.31893392446E+02  0.12900676858E+03  0.12500223141E+03 0.  0.
    9000005    1    3    3    0    0 -0.19524771926E+02  0.41690505068E+02 -0.59562564279E+02  0.75286213845E+02  0.10000000000E+01 0.  0.
    9000005    1    3    3    0    0  0.19524771926E+02 -0.41690505068E+02  0.27669171832E+02  0.53720554739E+02  0.10000000000E+01 0.  0.
<mgrwt>
<rscale>  0 0.12500223E+03</rscale>
<asrwt>0</asrwt>
<pdfrwt beam="1">  1        4 0.74702597E-02 0.12500223E+03</pdfrwt>
<pdfrwt beam="2">  1       -4 0.12376935E-01 0.12500223E+03</pdfrwt>
<totfact> 0.10365279E+04</totfact>
</mgrwt>
</event>
<event>
 5    1  0.3308162E-002  0.1249958E+03  0.7818608E-02  0.1235076E+00
         -4   -1    0    0    0  501 -0.00000000000E+00  0.00000000000E+00  0.15866820789E+03  0.15867329043E+03  0.12700000000E+01 0.  1.
          4   -1    0    0  501    0  0.00000000000E+00 -0.00000000000E+00 -0.24595463223E+02  0.24628229964E+02  0.12700000000E+01 0.  1.
         25    2    1    2    0    0  0.00000000000E+00  0.00000000000E+00  0.13407274467E+03  0.18330152039E+03  0.12499578599E+03 0.  0.
    9000005    1    3    3    0    0 -0.54037933486E+02  0.19401996845E+02  0.30863461201E+02  0.65192706450E+02  0.10000000000E+01 0.  0.
    9000005    1    3    3    0    0  0.54037933486E+02 -0.19401996845E+02  0.10320928347E+03  0.11810881394E+03  0.10000000000E+01 0.  0.
<mgrwt>
<rscale>  0 0.12499579E+03</rscale>
<asrwt>0</asrwt>
<pdfrwt beam="2">  1        4 0.37868288E-02 0.12499579E+03</pdfrwt>
<pdfrwt beam="1">  1       -4 0.24413406E-01 0.12499579E+03</pdfrwt>
<totfact> 0.93034858E+03</totfact>
</mgrwt>
</event>
<event>
 5    1  0.3308162E-002  0.1250008E+03  0.7818608E-02  0.1235068E+00
          4   -1    0    0  501    0  0.00000000000E+00  0.00000000000E+00  0.37189441260E+02  0.37211119860E+02  0.12700000000E+01 0.  1.
         -4   -1    0    0    0  501 -0.00000000000E+00 -0.00000000000E+00 -0.10498171227E+03  0.10498939380E+03  0.12700000000E+01 0.  1.
         25    2    1    2    0    0  0.00000000000E+00  0.00000000000E+00 -0.67792271007E+02  0.14220051366E+03  0.12500077631E+03 0.  0.
    9000005    1    3    3    0    0 -0.23505525036E+02  0.38987169588E+02  0.14805633845E+02  0.47882312948E+02  0.10000000000E+01 0.  0.
    9000005    1    3    3    0    0  0.23505525036E+02 -0.38987169588E+02 -0.82597904851E+02  0.94318200712E+02  0.10000000000E+01 0.  0.
<mgrwt>
<rscale>  0 0.12500078E+03</rscale>
<asrwt>0</asrwt>
<pdfrwt beam="1">  1        4 0.57237110E-02 0.12500078E+03</pdfrwt>
<pdfrwt beam="2">  1       -4 0.16153291E-01 0.12500078E+03</pdfrwt>
<totfact> 0.10088005E+04</totfact>
</mgrwt>
</event>
<event>
 5    1  0.3308162E-002  0.1249991E+03  0.7818608E-02  0.1235071E+00
         -4   -1    0    0    0  501 -0.00000000000E+00  0.00000000000E+00  0.48054916219E+02  0.48071695132E+02  0.12700000000E+01 0.  1.
          4   -1    0    0  501    0  0.00000000000E+00 -0.00000000000E+00 -0.81250139123E+02  0.81260064038E+02  0.12700000000E+01 0.  1.
         25    2    1    2    0    0  0.00000000000E+00  0.00000000000E+00 -0.33195222904E+02  0.12933175917E+03  0.12499912442E+03 0.  0.
    9000005    1    3    3    0    0 -0.24266829177E+02  0.17351678079E+02  0.40216842383E+02  0.50083471742E+02  0.10000000000E+01 0.  0.
    9000005    1    3    3    0    0  0.24266829177E+02 -0.17351678079E+02 -0.73412065287E+02  0.79248287428E+02  0.10000000000E+01 0.  0.
<mgrwt>
<rscale>  0 0.12499912E+03</rscale>
<asrwt>0</asrwt>
<pdfrwt beam="2">  1        4 0.12502076E-01 0.12499912E+03</pdfrwt>
<pdfrwt beam="1">  1       -4 0.73951182E-02 0.12499912E+03</pdfrwt>
<totfact> 0.10359028E+04</totfact>
</mgrwt>
</event>
<event>
 5    1  0.3308162E-002  0.1250034E+03  0.7818608E-02  0.1235064E+00
          4   -1    0    0  501    0  0.00000000000E+00  0.00000000000E+00  0.17648890181E+03  0.17649347116E+03  0.12700000000E+01 0.  1.
         -4   -1    0    0    0  501 -0.00000000000E+00 -0.00000000000E+00 -0.22111229796E+02  0.22147672182E+02  0.12700000000E+01 0.  1.
         25    2    1    2    0    0  0.00000000000E+00  0.00000000000E+00  0.15437767202E+03  0.19864114335E+03  0.12500335280E+03 0.  0.
    9000005    1    3    3    0    0 -0.26180952817E+02  0.36999595974E+02  0.88202990395E+01  0.46186687127E+02  0.10000000000E+01 0.  0.
    9000005    1    3    3    0    0  0.26180952817E+02 -0.36999595974E+02  0.14555737298E+03  0.15245445622E+03  0.10000000000E+01 0.  0.
<mgrwt>
<rscale>  0 0.12500335E+03</rscale>
<asrwt>0</asrwt>
<pdfrwt beam="1">  1        4 0.27155294E-01 0.12500335E+03</pdfrwt>
<pdfrwt beam="2">  1       -4 0.34048824E-02 0.12500335E+03</pdfrwt>
<totfact> 0.90358361E+03</totfact>
</mgrwt>
</event>
<event>
 5    1  0.3308162E-002  0.1250038E+03  0.7818608E-02  0.1235063E+00
         -4   -1    0    0    0  501 -0.00000000000E+00  0.00000000000E+00  0.22108915463E+02  0.22145361657E+02  0.12700000000E+01 0. -1.
          4   -1    0    0  501    0  0.00000000000E+00 -0.00000000000E+00 -0.17650853252E+03  0.17651310136E+03  0.12700000000E+01 0. -1.
         25    2    1    2    0    0  0.00000000000E+00  0.00000000000E+00 -0.15439961705E+03  0.19865846301E+03  0.12500377267E+03 0.  0.
    9000005    1    3    3    0    0  0.62375331138E+02 -0.42572420314E+00 -0.83276910746E+02  0.10405242447E+03  0.10000000000E+01 0.  0.
    9000005    1    3    3    0    0 -0.62375331138E+02  0.42572420314E+00 -0.71122706307E+02  0.94606038539E+02  0.10000000000E+01 0.  0.
<mgrwt>
<rscale>  0 0.12500377E+03</rscale>
<asrwt>0</asrwt>
<pdfrwt beam="2">  1        4 0.27158313E-01 0.12500377E+03</pdfrwt>
<pdfrwt beam="1">  1       -4 0.34045267E-02 0.12500377E+03</pdfrwt>
<totfact> 0.90354585E+03</totfact>
</mgrwt>
</event>
<event>
 5    1  0.3308162E-002  0.1250015E+03  0.7818608E-02  0.1235067E+00
          4   -1    0    0  501    0  0.00000000000E+00  0.00000000000E+00  0.25727212247E+02  0.25758539361E+02  0.12700000000E+01 0. -1.
         -4   -1    0    0    0  501 -0.00000000000E+00 -0.00000000000E+00 -0.15171066531E+03  0.15171598092E+03  0.12700000000E+01 0. -1.
         25    2    1    2    0    0  0.00000000000E+00  0.00000000000E+00 -0.12598345306E+03  0.17747452028E+03  0.12500149961E+03 0.  0.
    9000005    1    3    3    0    0  0.59785879707E+02  0.44275591219E+01 -0.37937993511E+02  0.70952420985E+02  0.10000000000E+01 0.  0.
    9000005    1    3    3    0    0 -0.59785879707E+02 -0.44275591219E+01 -0.88045459548E+02  0.10652209930E+03  0.10000000000E+01 0.  0.
<mgrwt>
<rscale>  0 0.12500150E+03</rscale>
<asrwt>0</asrwt>
<pdfrwt beam="1">  1        4 0.39608514E-02 0.12500150E+03</pdfrwt>
<pdfrwt beam="2">  1       -4 0.23342921E-01 0.12500150E+03</pdfrwt>
<totfact> 0.94070419E+03</totfact>
</mgrwt>
</event>
<event>
 5    1  0.3308162E-002  0.1250024E+03  0.7818608E-02  0.1235066E+00
         -4   -1    0    0    0  501 -0.00000000000E+00  0.00000000000E+00  0.24960184388E+03  0.24960507481E+03  0.12700000000E+01 0. -1.
          4   -1    0    0  501    0  0.00000000000E+00 -0.00000000000E+00 -0.15621413763E+02  0.15672953390E+02  0.12700000000E+01 0. -1.
         25    2    1    2    0    0  0.00000000000E+00  0.00000000000E+00  0.23398043012E+03  0.26527802820E+03  0.12500236224E+03 0.  0.
    9000005    1    3    3    0    0 -0.36122012660E+02 -0.25209113039E+02  0.21106542984E+03  0.21561520089E+03  0.10000000000E+01 0.  0.
    9000005    1    3    3    0    0  0.36122012660E+02  0.25209113039E+02  0.22915000277E+02  0.49662827311E+02  0.10000000000E+01 0.  0.
<mgrwt>
<rscale>  0 0.12500236E+03</rscale>
<asrwt>0</asrwt>
<pdfrwt beam="2">  1        4 0.24075077E-02 0.12500236E+03</pdfrwt>
<pdfrwt beam="1">  1       -4 0.38404494E-01 0.12500236E+03</pdfrwt>
<totfact> 0.80166811E+03</totfact>
</mgrwt>
</event>
<event>
 5    1  0.3308162E-002  0.1250002E+03  0.7818608E-02  0.1235069E+00
         -4   -1    0    0    0  501 -0.00000000000E+00  0.00000000000E+00  0.16106173449E+01  0.20510943985E+01  0.12700000000E+01 0. -1.
          4   -1    0    0  501    0  0.00000000000E+00 -0.00000000000E+00 -0.21331321817E+04  0.21331325597E+04  0.12700000000E+01 0. -1.
         25    2    1    2    0    0  0.00000000000E+00  0.00000000000E+00 -0.21315215643E+04  0.21351836541E+04  0.12500023068E+03 0.  0.
    9000005    1    3    3    0    0  0.48946252227E+01  0.38417938663E+02 -0.22800915331E+03  0.23127704028E+03  0.10000000000E+01 0.  0.
    9000005    1    3    3    0    0 -0.48946252227E+01 -0.38417938663E+02 -0.19035124110E+04  0.19039066139E+04  0.10000000000E+01 0.  0.
<mgrwt>
<rscale>  0 0.12500023E+03</rscale>
<asrwt>0</asrwt>
<pdfrwt beam="2">  1        4 0.32820611E+00 0.12500023E+03</pdfrwt>
<pdfrwt beam="1">  1       -4 0.28170092E-03 0.12500023E+03</pdfrwt>
<totfact> 0.81984697E+02</totfact>
</mgrwt>
</event>
<event>
 5    1  0.3308162E-002  0.1250088E+03  0.7818608E-02  0.1235056E+00
         -4   -1    0    0    0  501 -0.00000000000E+00  0.00000000000E+00  0.54040457846E+03  0.54040607076E+03  0.12700000000E+01 0.  1.
          4   -1    0    0  501    0  0.00000000000E+00 -0.00000000000E+00 -0.71721066456E+01  0.72836813313E+01  0.12700000000E+01 0.  1.
         25    2    1    2    0    0  0.00000000000E+00  0.00000000000E+00  0.53323247181E+03  0.54768975210E+03  0.12500878191E+03 0.  0.
    9000005    1    3    3    0    0 -0.37835718834E+02 -0.47231016706E+02  0.33498113339E+03  0.34040515608E+03  0.10000000000E+01 0.  0.
    9000005    1    3    3    0    0  0.37835718834E+02  0.47231016706E+02  0.19825133842E+03  0.20728459601E+03  0.10000000000E+01 0.  0.
<mgrwt>
<rscale>  0 0.12500878E+03</rscale>
<asrwt>0</asrwt>
<pdfrwt beam="2">  1        4 0.11120984E-02 0.12500878E+03</pdfrwt>
<pdfrwt beam="1">  1       -4 0.83147868E-01 0.12500878E+03</pdfrwt>
<totfact> 0.52335240E+03</totfact>
</mgrwt>
</event>
<event>
 5    1  0.3308162E-002  0.1250407E+03  0.7818608E-02  0.1235006E+00
         -4   -1    0    0    0  501 -0.00000000000E+00  0.00000000000E+00  0.11250988987E+02  0.11322440248E+02  0.12700000000E+01 0. -1.
          4   -1    0    0  501    0  0.00000000000E+00 -0.00000000000E+00 -0.34624575609E+03  0.34624808521E+03  0.12700000000E+01 0. -1.
         25    2    1    2    0    0  0.00000000000E+00  0.00000000000E+00 -0.33499476710E+03  0.35757052546E+03  0.12504074012E+03 0.  0.
    9000005    1    3    3    0    0  0.48235050262E+02  0.20901769341E+02 -0.70763476580E+02  0.88158797933E+02  0.10000000000E+01 0.  0.
    9000005    1    3    3    0    0 -0.48235050262E+02 -0.20901769341E+02 -0.26423129052E+03  0.26941172752E+03  0.10000000000E+01 0.  0.
<mgrwt>
<rscale>  0 0.12504074E+03</rscale>
<asrwt>0</asrwt>
<pdfrwt beam="2">  1        4 0.53274245E-01 0.12504074E+03</pdfrwt>
<pdfrwt beam="1">  1       -4 0.17365971E-02 0.12504074E+03</pdfrwt>
<totfact> 0.68837603E+03</totfact>
</mgrwt>
</event>
<event>
 5    1  0.3308162E-002  0.1249981E+03  0.7818608E-02  0.1235072E+00
          4   -1    0    0  501    0  0.00000000000E+00  0.00000000000E+00  0.81713095389E+02  0.81722964080E+02  0.12700000000E+01 0.  1.
         -4   -1    0    0    0  501 -0.00000000000E+00 -0.00000000000E+00 -0.47781786500E+02  0.47798661290E+02  0.12700000000E+01 0.  1.
         25    2    1    2    0    0  0.00000000000E+00  0.00000000000E+00  0.33931308889E+02  0.12952162537E+03  0.12499807085E+03 0.  0.
    9000005    1    3    3    0    0  0.42993451554E+01 -0.31077527013E+02 -0.39034895536E+02  0.50090120019E+02  0.10000000000E+01 0.  0.
    9000005    1    3    3    0    0 -0.42993451554E+01  0.31077527013E+02  0.72966204426E+02  0.79431505351E+02  0.10000000000E+01 0.  0.
<mgrwt>
<rscale>  0 0.12499807E+03</rscale>
<asrwt>0</asrwt>
<pdfrwt beam="1">  1        4 0.12573303E-01 0.12499807E+03</pdfrwt>
<pdfrwt beam="2">  1       -4 0.73531013E-02 0.12499807E+03</pdfrwt>
<totfact> 0.10355202E+04</totfact>
</mgrwt>
</event>
<event>
 5    1  0.3308162E-002  0.1250108E+03  0.7818608E-02  0.1235052E+00
         -4   -1    0    0    0  501 -0.00000000000E+00  0.00000000000E+00  0.55179542533E+02  0.55194155616E+02  0.12700000000E+01 0. -1.
          4   -1    0    0  501    0  0.00000000000E+00 -0.00000000000E+00 -0.70774196525E+02  0.70785590297E+02  0.12700000000E+01 0. -1.
         25    2    1    2    0    0  0.00000000000E+00  0.00000000000E+00 -0.15594653992E+02  0.12597974591E+03  0.12501081212E+03 0.  0.
    9000005    1    3    3    0    0  0.60872763074E+02 -0.55740924375E+01  0.53174567382E+01  0.61366433308E+02  0.10000000000E+01 0.  0.
    9000005    1    3    3    0    0 -0.60872763074E+02  0.55740924375E+01 -0.20912110730E+02  0.64613312606E+02  0.10000000000E+01 0.  0.
<mgrwt>
<rscale>  0 0.12501081E+03</rscale>
<asrwt>0</asrwt>
<pdfrwt beam="2">  1        4 0.10890338E-01 0.12501081E+03</pdfrwt>
<pdfrwt beam="1">  1       -4 0.84911609E-02 0.12501081E+03</pdfrwt>
<totfact> 0.10428856E+04</totfact>
</mgrwt>
</event>
<event>
 5    1  0.3308162E-002  0.1249998E+03  0.7818608E-02  0.1235070E+00
          4   -1    0    0  501    0  0.00000000000E+00  0.00000000000E+00  0.75563837034E+02  0.75574508714E+02  0.12700000000E+01 0. -1.
         -4   -1    0    0    0  501 -0.00000000000E+00 -0.00000000000E+00 -0.51672430792E+02  0.51688035404E+02  0.12700000000E+01 0. -1.
         25    2    1    2    0    0  0.00000000000E+00  0.00000000000E+00  0.23891406242E+02  0.12726254412E+03  0.12499982337E+03 0.  0.
    9000005    1    3    3    0    0 -0.36483462292E+02 -0.44156742403E+02 -0.13494174151E+02  0.58855362172E+02  0.10000000000E+01 0.  0.
    9000005    1    3    3    0    0  0.36483462292E+02  0.44156742403E+02  0.37385580393E+02  0.68407181946E+02  0.10000000000E+01 0.  0.
<mgrwt>
<rscale>  0 0.12499982E+03</rscale>
<asrwt>0</asrwt>
<pdfrwt beam="1">  1        4 0.11627227E-01 0.12499982E+03</pdfrwt>
<pdfrwt beam="2">  1       -4 0.79516259E-02 0.12499982E+03</pdfrwt>
<totfact> 0.10403488E+04</totfact>
</mgrwt>
</event>
<event>
 5    1  0.3308162E-002  0.1249982E+03  0.7818608E-02  0.1235072E+00
          4   -1    0    0  501    0  0.00000000000E+00  0.00000000000E+00  0.72436759301E+01  0.73541648731E+01  0.12700000000E+01 0. -1.
         -4   -1    0    0    0  501 -0.00000000000E+00 -0.00000000000E+00 -0.53505548893E+03  0.53505699616E+03  0.12700000000E+01 0. -1.
         25    2    1    2    0    0  0.00000000000E+00  0.00000000000E+00 -0.52781181300E+03  0.54241116103E+03  0.12499823065E+03 0.  0.
    9000005    1    3    3    0    0 -0.25396555852E+02  0.44631899746E+01 -0.16896803053E+02  0.30844887215E+02  0.10000000000E+01 0.  0.
    9000005    1    3    3    0    0  0.25396555852E+02 -0.44631899746E+01 -0.51091500995E+03  0.51156627382E+03  0.10000000000E+01 0.  0.
<mgrwt>
<rscale>  0 0.12499823E+03</rscale>
<asrwt>0</asrwt>
<pdfrwt beam="1">  1        4 0.11230272E-02 0.12499823E+03</pdfrwt>
<pdfrwt beam="2">  1       -4 0.82324813E-01 0.12499823E+03</pdfrwt>
<totfact> 0.52719726E+03</totfact>
</mgrwt>
</event>
<event>
 5    1  0.3308162E-002  0.1249912E+03  0.7818608E-02  0.1235083E+00
          4   -1    0    0  501    0  0.00000000000E+00  0.00000000000E+00  0.40523546416E+03  0.40523745423E+03  0.12700000000E+01 0. -1.
         -4   -1    0    0    0  501 -0.00000000000E+00 -0.00000000000E+00 -0.95942360097E+01  0.96779266690E+01  0.12700000000E+01 0. -1.
         25    2    1    2    0    0  0.00000000000E+00  0.00000000000E+00  0.39564122815E+03  0.41491538090E+03  0.12499116727E+03 0.  0.
    9000005    1    3    3    0    0 -0.19305256443E+02 -0.48251771777E+02  0.31299403093E+03  0.31728093199E+03  0.10000000000E+01 0.  0.
    9000005    1    3    3    0    0  0.19305256443E+02  0.48251771777E+02  0.82647197213E+02  0.97634448906E+02  0.10000000000E+01 0.  0.
<mgrwt>
<rscale>  0 0.12499117E+03</rscale>
<asrwt>0</asrwt>
<pdfrwt beam="1">  1        4 0.62350499E-01 0.12499117E+03</pdfrwt>
<pdfrwt beam="2">  1       -4 0.14826274E-02 0.12499117E+03</pdfrwt>
<totfact> 0.63139843E+03</totfact>
</mgrwt>
</event>
<event>
 5    1  0.3308162E-002  0.1249996E+03  0.7818608E-02  0.1235070E+00
          4   -1    0    0  501    0  0.00000000000E+00  0.00000000000E+00  0.26058242898E+02  0.26089172523E+02  0.12700000000E+01 0.  1.
         -4   -1    0    0    0  501 -0.00000000000E+00 -0.00000000000E+00 -0.14978110340E+03  0.14978648749E+03  0.12700000000E+01 0.  1.
         25    2    1    2    0    0  0.00000000000E+00  0.00000000000E+00 -0.12372286050E+03  0.17587566001E+03  0.12499960630E+03 0.  0.
    9000005    1    3    3    0    0  0.27869483954E+02  0.33503941877E+01  0.16695742643E+02  0.32675389814E+02  0.10000000000E+01 0.  0.
    9000005    1    3    3    0    0 -0.27869483954E+02 -0.33503941877E+01 -0.14041860314E+03  0.14320027020E+03  0.10000000000E+01 0.  0.
<mgrwt>
<rscale>  0 0.12499961E+03</rscale>
<asrwt>0</asrwt>
<pdfrwt beam="1">  1        4 0.40117539E-02 0.12499961E+03</pdfrwt>
<pdfrwt beam="2">  1       -4 0.23046040E-01 0.12499961E+03</pdfrwt>
<totfact> 0.94365543E+03</totfact>
</mgrwt>
</event>
<event>
 5    1  0.3308162E-002  0.1249970E+03  0.7818608E-02  0.1235074E+00
          4   -1    0    0  501    0  0.00000000000E+00  0.00000000000E+00  0.12661964791E+02  0.12725496154E+02  0.12700000000E+01 0.  1.
         -4   -1    0    0    0  501 -0.00000000000E+00 -0.00000000000E+00 -0.30765081518E+03  0.30765343649E+03  0.12700000000E+01 0.  1.
         25    2    1    2    0    0  0.00000000000E+00  0.00000000000E+00 -0.29498885039E+03  0.32037893264E+03  0.12499695446E+03 0.  0.
    9000005    1    3    3    0    0  0.46950219011E+02 -0.10994052246E+02 -0.24937111803E+03  0.25399241476E+03  0.10000000000E+01 0.  0.
    9000005    1    3    3    0    0 -0.46950219011E+02  0.10994052246E+02 -0.45617732361E+02  0.66386517876E+02  0.10000000000E+01 0.  0.
<mgrwt>
<rscale>  0 0.12499695E+03</rscale>
<asrwt>0</asrwt>
<pdfrwt beam="1">  1        4 0.19530835E-02 0.12499695E+03</pdfrwt>
<pdfrwt beam="2">  1       -4 0.47335977E-01 0.12499695E+03</pdfrwt>
<totfact> 0.73116017E+03</totfact>
</mgrwt>
</event>
<event>
 5    1  0.3308162E-002  0.1250000E+03  0.7818608E-02  0.1235069E+00
         -4   -1    0    0    0  501 -0.00000000000E+00  0.00000000000E+00  0.54358364308E+02  0.54373198087E+02  0.12700000000E+01 0. -1.
          4   -1    0    0  501    0  0.00000000000E+00 -0.00000000000E+00 -0.71830861587E+02  0.71842087778E+02  0.12700000000E+01 0. -1.
         25    2    1    2    0    0  0.00000000000E+00  0.00000000000E+00 -0.17472497279E+02  0.12621528587E+03  0.12500004090E+03 0.  0.
    9000005    1    3    3    0    0 -0.15090138686E+02 -0.50162733572E+01 -0.69758695233E+02  0.71555229330E+02  0.10000000000E+01 0.  0.
    9000005    1    3    3    0    0  0.15090138686E+02  0.50162733572E+01  0.52286197954E+02  0.54660056535E+02  0.10000000000E+01 0.  0.
<mgrwt>
<rscale>  0 0.12500004E+03</rscale>
<asrwt>0</asrwt>
<pdfrwt beam="2">  1        4 0.11052906E-01 0.12500004E+03</pdfrwt>
<pdfrwt beam="1">  1       -4 0.83648299E-02 0.12500004E+03</pdfrwt>
<totfact> 0.10426235E+04</totfact>
</mgrwt>
</event>
<event>
 5    1  0.3308162E-002  0.1250010E+03  0.7818608E-02  0.1235068E+00
          4   -1    0    0  501    0  0.00000000000E+00  0.00000000000E+00  0.27928971338E+02  0.27957831461E+02  0.12700000000E+01 0. -1.
         -4   -1    0    0    0  501 -0.00000000000E+00 -0.00000000000E+00 -0.13976188896E+03  0.13976765902E+03  0.12700000000E+01 0. -1.
         25    2    1    2    0    0  0.00000000000E+00  0.00000000000E+00 -0.11183291763E+03  0.16772549048E+03  0.12500095476E+03 0.  0.
    9000005    1    3    3    0    0 -0.21582829883E+02  0.42090513792E+02 -0.11180293510E+01  0.47325256329E+02  0.10000000000E+01 0.  0.
    9000005    1    3    3    0    0  0.21582829883E+02 -0.42090513792E+02 -0.11071488827E+03  0.12040023415E+03  0.10000000000E+01 0.  0.
<mgrwt>
<rscale>  0 0.12500095E+03</rscale>
<asrwt>0</asrwt>
<pdfrwt beam="1">  1        4 0.42994288E-02 0.12500095E+03</pdfrwt>
<pdfrwt beam="2">  1       -4 0.21504493E-01 0.12500095E+03</pdfrwt>
<totfact> 0.95871648E+03</totfact>
</mgrwt>
</event>
<event>
 5    1  0.3308162E-002  0.1250018E+03  0.7818608E-02  0.1235066E+00
         -4   -1    0    0    0  501 -0.00000000000E+00  0.00000000000E+00  0.10926465835E+03  0.10927203880E+03  0.12700000000E+01 0.  1.
          4   -1    0    0  501    0  0.00000000000E+00 -0.00000000000E+00 -0.35731511739E+02  0.35754074329E+02  0.12700000000E+01 0.  1.
         25    2    1    2    0    0  0.00000000000E+00  0.00000000000E+00  0.73533146609E+02  0.14502611313E+03  0.12500179935E+03 0.  0.
    9000005    1    3    3    0    0 -0.76945205414E+01  0.62001686748E+02  0.38385718660E+02  0.73334018048E+02  0.10000000000E+01 0.  0.
    9000005    1    3    3    0    0  0.76945205414E+01 -0.62001686748E+02  0.35147427949E+02  0.71692095083E+02  0.10000000000E+01 0.  0.
<mgrwt>
<rscale>  0 0.12500180E+03</rscale>
<asrwt>0</asrwt>
<pdfrwt beam="2">  1        4 0.54994590E-02 0.12500180E+03</pdfrwt>
<pdfrwt beam="1">  1       -4 0.16812251E-01 0.12500180E+03</pdfrwt>
<totfact> 0.10030052E+04</totfact>
</mgrwt>
</event>
<event>
 5    1  0.3308162E-002  0.1250024E+03  0.7818608E-02  0.1235066E+00
          4   -1    0    0  501    0  0.00000000000E+00  0.00000000000E+00  0.17892760650E+02  0.17937775326E+02  0.12700000000E+01 0. -1.
         -4   -1    0    0    0  501 -0.00000000000E+00 -0.00000000000E+00 -0.21800184354E+03  0.21800554279E+03  0.12700000000E+01 0. -1.
         25    2    1    2    0    0  0.00000000000E+00  0.00000000000E+00 -0.20010908289E+03  0.23594331811E+03  0.12500241721E+03 0.  0.
    9000005    1    3    3    0    0 -0.33072455945E+02 -0.21699029662E+02 -0.19137503659E+03  0.19542272094E+03  0.10000000000E+01 0.  0.
    9000005    1    3    3    0    0  0.33072455945E+02  0.21699029662E+02 -0.87340463000E+01  0.40520597173E+02  0.10000000000E+01 0.  0.
<mgrwt>
<rscale>  0 0.12500242E+03</rscale>
<asrwt>0</asrwt>
<pdfrwt beam="1">  1        4 0.27564798E-02 0.12500242E+03</pdfrwt>
<pdfrwt beam="2">  1       -4 0.33542490E-01 0.12500242E+03</pdfrwt>
<totfact> 0.84400723E+03</totfact>
</mgrwt>
</event>
<event>
 5    1  0.3308162E-002  0.1249946E+03  0.7818608E-02  0.1235078E+00
          4   -1    0    0  501    0  0.00000000000E+00  0.00000000000E+00  0.30190300663E+03  0.30190567784E+03  0.12700000000E+01 0. -1.
         -4   -1    0    0    0  501 -0.00000000000E+00 -0.00000000000E+00 -0.12903729958E+02  0.12966076770E+02  0.12700000000E+01 0. -1.
         25    2    1    2    0    0  0.00000000000E+00  0.00000000000E+00  0.28899927667E+03  0.31487175461E+03  0.12499455962E+03 0.  0.
    9000005    1    3    3    0    0  0.15387328239E+02 -0.59095255687E+02  0.11109057959E+03  0.12677198424E+03  0.10000000000E+01 0.  0.
    9000005    1    3    3    0    0 -0.15387328239E+02  0.59095255687E+02  0.17790869708E+03  0.18809977037E+03  0.10000000000E+01 0.  0.
<mgrwt>
<rscale>  0 0.12499456E+03</rscale>
<asrwt>0</asrwt>
<pdfrwt beam="1">  1        4 0.46451616E-01 0.12499456E+03</pdfrwt>
<pdfrwt beam="2">  1       -4 0.19901907E-02 0.12499456E+03</pdfrwt>
<totfact> 0.73779141E+03</totfact>
</mgrwt>
</event>
<event>
 5    1  0.3308162E-002  0.1250491E+03  0.7818608E-02  0.1234993E+00
         -4   -1    0    0    0  501 -0.00000000000E+00  0.00000000000E+00  0.27336609953E+03  0.27336904959E+03  0.12700000000E+01 0. -1.
          4   -1    0    0  501    0  0.00000000000E+00 -0.00000000000E+00 -0.14269439431E+02  0.14325843838E+02  0.12700000000E+01 0. -1.
         25    2    1    2    0    0  0.00000000000E+00  0.00000000000E+00  0.25909666010E+03  0.28769489343E+03  0.12504908008E+03 0.  0.
    9000005    1    3    3    0    0 -0.50479021826E+01 -0.50687712507E+02  0.21293219037E+03  0.21894255688E+03  0.10000000000E+01 0.  0.
    9000005    1    3    3    0    0  0.50479021826E+01  0.50687712507E+02  0.46164469730E+02  0.68752336550E+02  0.10000000000E+01 0.  0.
<mgrwt>
<rscale>  0 0.12504908E+03</rscale>
<asrwt>0</asrwt>
<pdfrwt beam="2">  1        4 0.21998640E-02 0.12504908E+03</pdfrwt>
<pdfrwt beam="1">  1       -4 0.42060890E-01 0.12504908E+03</pdfrwt>
<totfact> 0.77084669E+03</totfact>
</mgrwt>
</event>
<event>
 5    1  0.3308162E-002  0.1249897E+03  0.7818608E-02  0.1235085E+00
         -4   -1    0    0    0  501 -0.00000000000E+00  0.00000000000E+00  0.18560506368E+03  0.18560940861E+03  0.12700000000E+01 0.  1.
          4   -1    0    0  501    0  0.00000000000E+00 -0.00000000000E+00 -0.21018809652E+02  0.21057142712E+02  0.12700000000E+01 0.  1.
         25    2    1    2    0    0  0.00000000000E+00  0.00000000000E+00  0.16458625403E+03  0.20666655132E+03  0.12498971325E+03 0.  0.
    9000005    1    3    3    0    0 -0.41132030346E+02  0.39425510293E+02  0.12471973387E+03  0.13712121207E+03  0.10000000000E+01 0.  0.
    9000005    1    3    3    0    0  0.41132030346E+02 -0.39425510293E+02  0.39866520159E+02  0.69545339253E+02  0.10000000000E+01 0.  0.
<mgrwt>
<rscale>  0 0.12498971E+03</rscale>
<asrwt>0</asrwt>
<pdfrwt beam="2">  1        4 0.32369461E-02 0.12498971E+03</pdfrwt>
<pdfrwt beam="1">  1       -4 0.28557907E-01 0.12498971E+03</pdfrwt>
<totfact> 0.89043670E+03</totfact>
</mgrwt>
</event>
<event>
 5    1  0.3308162E-002  0.1249991E+03  0.7818608E-02  0.1235071E+00
         -4   -1    0    0    0  501 -0.00000000000E+00  0.00000000000E+00  0.62785812569E+02  0.62798655718E+02  0.12700000000E+01 0. -1.
          4   -1    0    0  501    0  0.00000000000E+00 -0.00000000000E+00 -0.62188868902E+02  0.62201835305E+02  0.12700000000E+01 0. -1.
         25    2    1    2    0    0  0.00000000000E+00  0.00000000000E+00  0.59694366715E+00  0.12500049102E+03  0.12499906565E+03 0.  0.
    9000005    1    3    3    0    0  0.35001177801E+02  0.33898404978E+02 -0.38830062672E+02  0.62313385999E+02  0.10000000000E+01 0.  0.
    9000005    1    3    3    0    0 -0.35001177801E+02 -0.33898404978E+02  0.39427006339E+02  0.62687105025E+02  0.10000000000E+01 0.  0.
<mgrwt>
<rscale>  0 0.12499907E+03</rscale>
<asrwt>0</asrwt>
<pdfrwt beam="2">  1        4 0.95695037E-02 0.12499907E+03</pdfrwt>
<pdfrwt beam="1">  1       -4 0.96613411E-02 0.12499907E+03</pdfrwt>
<totfact> 0.10453073E+04</totfact>
</mgrwt>
</event>
<event>
 5    1  0.3308162E-002  0.1250004E+03  0.7818608E-02  0.1235069E+00
          4   -1    0    0  501    0  0.00000000000E+00  0.00000000000E+00  0.69465417022E+01  0.70616812177E+01  0.12700000000E+01 0. -1.
         -4   -1    0    0    0  501 -0.00000000000E+00 -0.00000000000E+00 -0.55759552593E+03  0.55759697222E+03  0.12700000000E+01 0. -1.
         25    2    1    2    0    0  0.00000000000E+00  0.00000000000E+00 -0.55064898422E+03  0.56465865344E+03  0.12500036432E+03 0.  0.
    9000005    1    3    3    0    0  0.31642454331E+02 -0.30369006658E+02 -0.47641857134E+03  0.47843408804E+03  0.10000000000E+01 0.  0.
    9000005    1    3    3    0    0 -0.31642454331E+02  0.30369006658E+02 -0.74230412880E+02  0.86224565396E+02  0.10000000000E+01 0.  0.
<mgrwt>
<rscale>  0 0.12500036E+03</rscale>
<asrwt>0</asrwt>
<pdfrwt beam="1">  1        4 0.10776673E-02 0.12500036E+03</pdfrwt>
<pdfrwt beam="2">  1       -4 0.85792861E-01 0.12500036E+03</pdfrwt>
<totfact> 0.51176859E+03</totfact>
</mgrwt>
</event>
<event>
 5    1  0.3308162E-002  0.1250022E+03  0.7818608E-02  0.1235066E+00
         -4   -1    0    0    0  501 -0.00000000000E+00  0.00000000000E+00  0.46854590752E+02  0.46871799352E+02  0.12700000000E+01 0.  1.
          4   -1    0    0  501    0  0.00000000000E+00 -0.00000000000E+00 -0.83335155287E+02  0.83344831914E+02  0.12700000000E+01 0.  1.
         25    2    1    2    0    0  0.00000000000E+00  0.00000000000E+00 -0.36480564536E+02  0.13021663127E+03  0.12500215786E+03 0.  0.
    9000005    1    3    3    0    0 -0.43963038031E+02  0.10978802422E+02  0.26591024920E+02  0.52548695720E+02  0.10000000000E+01 0.  0.
    9000005    1    3    3    0    0  0.43963038031E+02 -0.10978802422E+02 -0.63071589456E+02  0.77667935547E+02  0.10000000000E+01 0.  0.
<mgrwt>
<rscale>  0 0.12500216E+03</rscale>
<asrwt>0</asrwt>
<pdfrwt beam="2">  1        4 0.12822861E-01 0.12500216E+03</pdfrwt>
<pdfrwt beam="1">  1       -4 0.72104667E-02 0.12500216E+03</pdfrwt>
<totfact> 0.10339372E+04</totfact>
</mgrwt>
</event>
<event>
 5    1  0.3308162E-002  0.1249997E+03  0.7818608E-02  0.1235070E+00
          4   -1    0    0  501    0  0.00000000000E+00  0.00000000000E+00  0.20428590971E+03  0.20428985732E+03  0.12700000000E+01 0. -1.
         -4   -1    0    0    0  501 -0.00000000000E+00 -0.00000000000E+00 -0.19096159370E+02  0.19138343781E+02  0.12700000000E+01 0. -1.
         25    2    1    2    0    0  0.00000000000E+00  0.00000000000E+00  0.18518975034E+03  0.22342820111E+03  0.12499966967E+03 0.  0.
    9000005    1    3    3    0    0 -0.19666158760E+02 -0.59034925007E+02  0.82272688057E+02  0.10315849636E+03  0.10000000000E+01 0.  0.
    9000005    1    3    3    0    0  0.19666158760E+02  0.59034925007E+02  0.10291706228E+03  0.12026970475E+03  0.10000000000E+01 0.  0.
<mgrwt>
<rscale>  0 0.12499967E+03</rscale>
<asrwt>0</asrwt>
<pdfrwt beam="1">  1        4 0.31432151E-01 0.12499967E+03</pdfrwt>
<pdfrwt beam="2">  1       -4 0.29414192E-02 0.12499967E+03</pdfrwt>
<totfact> 0.86329407E+03</totfact>
</mgrwt>
</event>
<event>
 5    1  0.3308162E-002  0.1249993E+03  0.7818608E-02  0.1235070E+00
          4   -1    0    0  501    0  0.00000000000E+00  0.00000000000E+00  0.23556466250E+02  0.23590676170E+02  0.12700000000E+01 0. -1.
         -4   -1    0    0    0  501 -0.00000000000E+00 -0.00000000000E+00 -0.16566621241E+03  0.16567108026E+03  0.12700000000E+01 0. -1.
         25    2    1    2    0    0  0.00000000000E+00  0.00000000000E+00 -0.14210974616E+03  0.18926175643E+03  0.12499932997E+03 0.  0.
    9000005    1    3    3    0    0 -0.47735040266E+02 -0.12073220769E+02 -0.12931951140E+03  0.13837966888E+03  0.10000000000E+01 0.  0.
    9000005    1    3    3    0    0  0.47735040266E+02  0.12073220769E+02 -0.12790234763E+02  0.50882087558E+02  0.10000000000E+01 0.  0.
<mgrwt>
<rscale>  0 0.12499933E+03</rscale>
<asrwt>0</asrwt>
<pdfrwt beam="1">  1        4 0.36270778E-02 0.12499933E+03</pdfrwt>
<pdfrwt beam="2">  1       -4 0.25490115E-01 0.12499933E+03</pdfrwt>
<totfact> 0.91977306E+03</totfact>
</mgrwt>
</event>
<event>
 5    1  0.3308162E-002  0.1250397E+03  0.7818608E-02  0.1235007E+00
         -4   -1    0    0    0  501 -0.00000000000E+00  0.00000000000E+00  0.80716485234E+01  0.81709491423E+01  0.12700000000E+01 0. -1.
          4   -1    0    0  501    0  0.00000000000E+00 -0.00000000000E+00 -0.48119406621E+03  0.48119574214E+03  0.12700000000E+01 0. -1.
         25    2    1    2    0    0  0.00000000000E+00  0.00000000000E+00 -0.47312241768E+03  0.48936669128E+03  0.12503973937E+03 0.  0.
    9000005    1    3    3    0    0 -0.32902379913E+02  0.46679629325E+02 -0.13707497198E+03  0.14849950283E+03  0.10000000000E+01 0.  0.
    9000005    1    3    3    0    0  0.32902379913E+02 -0.46679629325E+02 -0.33604744570E+03  0.34086718845E+03  0.10000000000E+01 0.  0.
<mgrwt>
<rscale>  0 0.12503974E+03</rscale>
<asrwt>0</asrwt>
<pdfrwt beam="2">  1        4 0.74037601E-01 0.12503974E+03</pdfrwt>
<pdfrwt beam="1">  1       -4 0.12495599E-02 0.12503974E+03</pdfrwt>
<totfact> 0.56649400E+03</totfact>
</mgrwt>
</event>
<event>
 5    1  0.3308162E-002  0.1249995E+03  0.7818608E-02  0.1235070E+00
          4   -1    0    0  501    0  0.00000000000E+00  0.00000000000E+00  0.58126774440E+02  0.58140646770E+02  0.12700000000E+01 0.  1.
         -4   -1    0    0    0  501 -0.00000000000E+00 -0.00000000000E+00 -0.67173804140E+02  0.67185808492E+02  0.12700000000E+01 0.  1.
         25    2    1    2    0    0  0.00000000000E+00  0.00000000000E+00 -0.90470297004E+01  0.12532645526E+03  0.12499948657E+03 0.  0.
    9000005    1    3    3    0    0 -0.37022572584E+02  0.35445063373E+02  0.31321849687E+02  0.60075632881E+02  0.10000000000E+01 0.  0.
    9000005    1    3    3    0    0  0.37022572584E+02 -0.35445063373E+02 -0.40368879388E+02  0.65250822380E+02  0.10000000000E+01 0.  0.
<mgrwt>
<rscale>  0 0.12499949E+03</rscale>
<asrwt>0</asrwt>
<pdfrwt beam="1">  1        4 0.89445712E-02 0.12499949E+03</pdfrwt>
<pdfrwt beam="2">  1       -4 0.10336422E-01 0.12499949E+03</pdfrwt>
<totfact> 0.10445897E+04</totfact>
</mgrwt>
</event>
<event>
 5    1  0.3308162E-002  0.1249919E+03  0.7818608E-02  0.1235082E+00
          4   -1    0    0  501    0  0.00000000000E+00  0.00000000000E+00  0.27335860501E+03  0.27336155515E+03  0.12700000000E+01 0.  1.
         -4   -1    0    0    0  501 -0.00000000000E+00 -0.00000000000E+00 -0.14256725921E+02  0.14313180429E+02  0.12700000000E+01 0.  1.
         25    2    1    2    0    0  0.00000000000E+00  0.00000000000E+00  0.25910187909E+03  0.28767473558E+03  0.12499187870E+03 0.  0.
    9000005    1    3    3    0    0  0.40039659163E+02  0.12566004412E+01  0.23992901418E+03  0.24325230769E+03  0.10000000000E+01 0.  0.
    9000005    1    3    3    0    0 -0.40039659163E+02 -0.12566004412E+01  0.19172864906E+02  0.44422427886E+02  0.10000000000E+01 0.  0.
<mgrwt>
<rscale>  0 0.12499188E+03</rscale>
<asrwt>0</asrwt>
<pdfrwt beam="1">  1        4 0.42059736E-01 0.12499188E+03</pdfrwt>
<pdfrwt beam="2">  1       -4 0.21979122E-02 0.12499188E+03</pdfrwt>
<totfact> 0.77185300E+03</totfact>
</mgrwt>
</event>
<event>
 5    1  0.3308162E-002  0.1250051E+03  0.7818608E-02  0.1235061E+00
         -4   -1    0    0    0  501 -0.00000000000E+00  0.00000000000E+00  0.64176705126E+01  0.65421246403E+01  0.12700000000E+01 0.  1.
          4   -1    0    0  501    0  0.00000000000E+00 -0.00000000000E+00 -0.60275038492E+03  0.60275172287E+03  0.12700000000E+01 0.  1.
         25    2    1    2    0    0  0.00000000000E+00  0.00000000000E+00 -0.59633271441E+03  0.60929384751E+03  0.12500514525E+03 0.  0.
    9000005    1    3    3    0    0  0.10295744048E+02 -0.54981280923E+02 -0.16233331664E+03  0.17170337588E+03  0.10000000000E+01 0.  0.
    9000005    1    3    3    0    0 -0.10295744048E+02  0.54981280923E+02 -0.43399939777E+03  0.43759047163E+03  0.10000000000E+01 0.  0.
<mgrwt>
<rscale>  0 0.12500515E+03</rscale>
<asrwt>0</asrwt>
<pdfrwt beam="2">  1        4 0.92740460E-01 0.12500515E+03</pdfrwt>
<pdfrwt beam="1">  1       -4 0.99701072E-03 0.12500515E+03</pdfrwt>
<totfact> 0.48280733E+03</totfact>
</mgrwt>
</event>
<event>
 5    1  0.3308162E-002  0.1249986E+03  0.7818608E-02  0.1235072E+00
          4   -1    0    0  501    0  0.00000000000E+00  0.00000000000E+00  0.58153206337E+02  0.58167072363E+02  0.12700000000E+01 0.  1.
         -4   -1    0    0    0  501 -0.00000000000E+00 -0.00000000000E+00 -0.67142275402E+02  0.67154285389E+02  0.12700000000E+01 0.  1.
         25    2    1    2    0    0  0.00000000000E+00  0.00000000000E+00 -0.89890690649E+01  0.12532135775E+03  0.12499855738E+03 0.  0.
    9000005    1    3    3    0    0 -0.56559600433E+01 -0.54294909707E+02 -0.34990724548E+02  0.64848114148E+02  0.10000000000E+01 0.  0.
    9000005    1    3    3    0    0  0.56559600433E+01  0.54294909707E+02  0.26001655483E+02  0.60473243604E+02  0.10000000000E+01 0.  0.
<mgrwt>
<rscale>  0 0.12499856E+03</rscale>
<asrwt>0</asrwt>
<pdfrwt beam="1">  1        4 0.89486376E-02 0.12499856E+03</pdfrwt>
<pdfrwt beam="2">  1       -4 0.10331571E-01 0.12499856E+03</pdfrwt>
<totfact> 0.10446227E+04</totfact>
</mgrwt>
</event>
<event>
 5    1  0.3308162E-002  0.1250032E+03  0.7818608E-02  0.1235064E+00
         -4   -1    0    0    0  501 -0.00000000000E+00  0.00000000000E+00  0.22060120809E+03  0.22060486375E+03  0.12700000000E+01 0.  1.
          4   -1    0    0  501    0  0.00000000000E+00 -0.00000000000E+00 -0.17681634214E+02  0.17727185013E+02  0.12700000000E+01 0.  1.
         25    2    1    2    0    0  0.00000000000E+00  0.00000000000E+00  0.20291957387E+03  0.23833204876E+03  0.12500324798E+03 0.  0.
    9000005    1    3    3    0    0 -0.21608907631E+02  0.37733485786E+01 -0.10109625600E+02  0.24174109668E+02  0.10000000000E+01 0.  0.
    9000005    1    3    3    0    0  0.21608907631E+02 -0.37733485786E+01  0.21302919947E+03  0.21415793909E+03  0.10000000000E+01 0.  0.
<mgrwt>
<rscale>  0 0.12500325E+03</rscale>
<asrwt>0</asrwt>
<pdfrwt beam="2">  1        4 0.27240365E-02 0.12500325E+03</pdfrwt>
<pdfrwt beam="1">  1       -4 0.33942432E-01 0.12500325E+03</pdfrwt>
<totfact> 0.84040321E+03</totfact>
</mgrwt>
</event>
<event>
 5    1  0.3308162E-002  0.1249995E+03  0.7818608E-02  0.1235070E+00
         -4   -1    0    0    0  501 -0.00000000000E+00  0.00000000000E+00  0.42518234991E+01  0.44374433030E+01  0.12700000000E+01 0.  1.
          4   -1    0    0  501    0  0.00000000000E+00 -0.00000000000E+00 -0.89890472332E+03  0.89890562047E+03  0.12700000000E+01 0.  1.
         25    2    1    2    0    0  0.00000000000E+00  0.00000000000E+00 -0.89465289982E+03  0.90334306377E+03  0.12499951881E+03 0.  0.
    9000005    1    3    3    0    0 -0.29141753379E+02 -0.16893618627E+02 -0.66935639001E+02  0.74940082124E+02  0.10000000000E+01 0.  0.
    9000005    1    3    3    0    0  0.29141753379E+02  0.16893618627E+02 -0.82771726082E+03  0.82840298165E+03  0.10000000000E+01 0.  0.
<mgrwt>
<rscale>  0 0.12499952E+03</rscale>
<asrwt>0</asrwt>
<pdfrwt beam="2">  1        4 0.13830723E+00 0.12499952E+03</pdfrwt>
<pdfrwt beam="1">  1       -4 0.66847487E-03 0.12499952E+03</pdfrwt>
<totfact> 0.34032623E+03</totfact>
</mgrwt>
</event>
<event>
 5    1  0.3308162E-002  0.1249977E+03  0.7818608E-02  0.1235073E+00
         -4   -1    0    0    0  501 -0.00000000000E+00  0.00000000000E+00  0.14839155051E+03  0.14839698502E+03  0.12700000000E+01 0. -1.
          4   -1    0    0  501    0  0.00000000000E+00 -0.00000000000E+00 -0.26301726021E+02  0.26332369655E+02  0.12700000000E+01 0. -1.
         25    2    1    2    0    0  0.00000000000E+00  0.00000000000E+00  0.12208982449E+03  0.17472935467E+03  0.12499768854E+03 0.  0.
    9000005    1    3    3    0    0 -0.27686312852E+02 -0.14748810317E+02  0.13659467494E+03  0.14015407432E+03  0.10000000000E+01 0.  0.
    9000005    1    3    3    0    0  0.27686312852E+02  0.14748810317E+02 -0.14504850453E+02  0.34575280357E+02  0.10000000000E+01 0.  0.
<mgrwt>
<rscale>  0 0.12499769E+03</rscale>
<asrwt>0</asrwt>
<pdfrwt beam="2">  1        4 0.40491946E-02 0.12499769E+03</pdfrwt>
<pdfrwt beam="1">  1       -4 0.22832245E-01 0.12499769E+03</pdfrwt>
<totfact> 0.94579336E+03</totfact>
</mgrwt>
</event>
<event>
 5    1  0.3308162E-002  0.1249894E+03  0.7818608E-02  0.1235086E+00
          4   -1    0    0  501    0  0.00000000000E+00  0.00000000000E+00  0.56451952609E+02  0.56466236402E+02  0.12700000000E+01 0. -1.
         -4   -1    0    0    0  501 -0.00000000000E+00 -0.00000000000E+00 -0.69155432754E+02  0.69167093183E+02  0.12700000000E+01 0. -1.
         25    2    1    2    0    0  0.00000000000E+00  0.00000000000E+00 -0.12703480144E+02  0.12563332958E+03  0.12498941993E+03 0.  0.
    9000005    1    3    3    0    0  0.39394381450E+02 -0.35173526430E+02  0.27219341882E+02  0.59422107198E+02  0.10000000000E+01 0.  0.
    9000005    1    3    3    0    0 -0.39394381450E+02  0.35173526430E+02 -0.39922822027E+02  0.66211222387E+02  0.10000000000E+01 0.  0.
<mgrwt>
<rscale>  0 0.12498942E+03</rscale>
<asrwt>0</asrwt>
<pdfrwt beam="1">  1        4 0.86869116E-02 0.12498942E+03</pdfrwt>
<pdfrwt beam="2">  1       -4 0.10641293E-01 0.12498942E+03</pdfrwt>
<totfact> 0.10441504E+04</totfact>
</mgrwt>
</event>
<event>
 5    1  0.3308162E-002  0.1249644E+03  0.7818608E-02  0.1235125E+00
          4   -1    0    0  501    0  0.00000000000E+00  0.00000000000E+00  0.10484667149E+02  0.10561304144E+02  0.12700000000E+01 0.  1.
         -4   -1    0    0    0  501 -0.00000000000E+00 -0.00000000000E+00 -0.37092194847E+03  0.37092412264E+03  0.12700000000E+01 0.  1.
         25    2    1    2    0    0  0.00000000000E+00  0.00000000000E+00 -0.36043728133E+03  0.38148542679E+03  0.12496438326E+03 0.  0.
    9000005    1    3    3    0    0 -0.42477456639E+02  0.45601277280E+02 -0.19359982265E+03  0.20338559965E+03  0.10000000000E+01 0.  0.
    9000005    1    3    3    0    0  0.42477456639E+02 -0.45601277280E+02 -0.16683745867E+03  0.17809982714E+03  0.10000000000E+01 0.  0.
<mgrwt>
<rscale>  0 0.12496438E+03</rscale>
<asrwt>0</asrwt>
<pdfrwt beam="1">  1        4 0.16190884E-02 0.12496438E+03</pdfrwt>
<pdfrwt beam="2">  1       -4 0.57070968E-01 0.12496438E+03</pdfrwt>
<totfact> 0.66446503E+03</totfact>
</mgrwt>
</event>
<event>
 5    1  0.3308162E-002  0.1249986E+03  0.7818608E-02  0.1235072E+00
         -4   -1    0    0    0  501 -0.00000000000E+00  0.00000000000E+00  0.61193384854E+02  0.61206562147E+02  0.12700000000E+01 0. -1.
          4   -1    0    0  501    0  0.00000000000E+00 -0.00000000000E+00 -0.63806674176E+02  0.63819311885E+02  0.12700000000E+01 0. -1.
         25    2    1    2    0    0  0.00000000000E+00  0.00000000000E+00 -0.26132893222E+01  0.12502587403E+03  0.12499855958E+03 0.  0.
    9000005    1    3    3    0    0 -0.12560013444E+02  0.51865417359E+02  0.31217910439E+02  0.61833109155E+02  0.10000000000E+01 0.  0.
    9000005    1    3    3    0    0  0.12560013444E+02 -0.51865417359E+02 -0.33831199761E+02  0.63192764877E+02  0.10000000000E+01 0.  0.
<mgrwt>
<rscale>  0 0.12499856E+03</rscale>
<asrwt>0</asrwt>
<pdfrwt beam="2">  1        4 0.98183971E-02 0.12499856E+03</pdfrwt>
<pdfrwt beam="1">  1       -4 0.94163527E-02 0.12499856E+03</pdfrwt>
<totfact> 0.10452641E+04</totfact>
</mgrwt>
</event>
<event>
 5    1  0.3308162E-002  0.1249992E+03  0.7818608E-02  0.1235071E+00
         -4   -1    0    0    0  501 -0.00000000000E+00  0.00000000000E+00  0.75980396846E+01  0.77034477378E+01  0.12700000000E+01 0.  1.
          4   -1    0    0  501    0  0.00000000000E+00 -0.00000000000E+00 -0.51045851416E+03  0.51046009401E+03  0.12700000000E+01 0.  1.
         25    2    1    2    0    0  0.00000000000E+00  0.00000000000E+00 -0.50286047448E+03  0.51816354175E+03  0.12499919683E+03 0.  0.
    9000005    1    3    3    0    0  0.47251239194E+02  0.38957299161E+02 -0.19984637130E+03  0.20902134552E+03  0.10000000000E+01 0.  0.
    9000005    1    3    3    0    0 -0.47251239194E+02 -0.38957299161E+02 -0.30301410318E+03  0.30914219623E+03  0.10000000000E+01 0.  0.
<mgrwt>
<rscale>  0 0.12499920E+03</rscale>
<asrwt>0</asrwt>
<pdfrwt beam="2">  1        4 0.78540282E-01 0.12499920E+03</pdfrwt>
<pdfrwt beam="1">  1       -4 0.11771594E-02 0.12499920E+03</pdfrwt>
<totfact> 0.54483107E+03</totfact>
</mgrwt>
</event>
<event>
 5    1  0.3308162E-002  0.1249996E+03  0.7818608E-02  0.1235070E+00
          4   -1    0    0  501    0  0.00000000000E+00  0.00000000000E+00  0.77782074341E+02  0.77792441720E+02  0.12700000000E+01 0.  1.
         -4   -1    0    0    0  501 -0.00000000000E+00 -0.00000000000E+00 -0.50198348861E+02  0.50214411561E+02  0.12700000000E+01 0.  1.
         25    2    1    2    0    0  0.00000000000E+00  0.00000000000E+00  0.27583725480E+02  0.12800685328E+03  0.12499957030E+03 0.  0.
    9000005    1    3    3    0    0 -0.27806532116E+02  0.39119496011E+02 -0.27192034002E+02  0.55171957638E+02  0.10000000000E+01 0.  0.
    9000005    1    3    3    0    0  0.27806532116E+02 -0.39119496011E+02  0.54775759482E+02  0.72834895643E+02  0.10000000000E+01 0.  0.
<mgrwt>
<rscale>  0 0.12499957E+03</rscale>
<asrwt>0</asrwt>
<pdfrwt beam="1">  1        4 0.11968506E-01 0.12499957E+03</pdfrwt>
<pdfrwt beam="2">  1       -4 0.77248560E-02 0.12499957E+03</pdfrwt>
<totfact> 0.10387440E+04</totfact>
</mgrwt>
</event>
<event>
 5    1  0.3308162E-002  0.1250007E+03  0.7818608E-02  0.1235068E+00
         -4   -1    0    0    0  501 -0.00000000000E+00  0.00000000000E+00  0.60793455982E+01  0.62105831371E+01  0.12700000000E+01 0.  1.
          4   -1    0    0  501    0  0.00000000000E+00 -0.00000000000E+00 -0.63555861328E+03  0.63555988216E+03  0.12700000000E+01 0.  1.
         25    2    1    2    0    0  0.00000000000E+00  0.00000000000E+00 -0.62947926768E+03  0.64177046530E+03  0.12500072676E+03 0.  0.
    9000005    1    3    3    0    0  0.48435285343E+01 -0.51950891274E+02 -0.13815673249E+03  0.14768424969E+03  0.10000000000E+01 0.  0.
    9000005    1    3    3    0    0 -0.48435285343E+01  0.51950891274E+02 -0.49132253519E+03  0.49408621561E+03  0.10000000000E+01 0.  0.
<mgrwt>
<rscale>  0 0.12500073E+03</rscale>
<asrwt>0</asrwt>
<pdfrwt beam="2">  1        4 0.97788389E-01 0.12500073E+03</pdfrwt>
<pdfrwt beam="1">  1       -4 0.94547724E-03 0.12500073E+03</pdfrwt>
<totfact> 0.46332011E+03</totfact>
</mgrwt>
</event>
<event>
 5    1  0.3308162E-002  0.1250008E+03  0.7818608E-02  0.1235068E+00
          4   -1    0    0  501    0  0.00000000000E+00  0.00000000000E+00  0.91820139202E+03  0.91820227031E+03  0.12700000000E+01 0.  1.
         -4   -1    0    0    0  501 -0.00000000000E+00 -0.00000000000E+00 -0.41586153812E+01  0.43482159432E+01  0.12700000000E+01 0.  1.
         25    2    1    2    0    0  0.00000000000E+00  0.00000000000E+00  0.91404277664E+03  0.92255048626E+03  0.12500080866E+03 0.  0.
    9000005    1    3    3    0    0  0.55861730181E+02 -0.26238971727E+02  0.38460207652E+03  0.38952377822E+03  0.10000000000E+01 0.  0.
    9000005    1    3    3    0    0 -0.55861730181E+02  0.26238971727E+02  0.52944070012E+03  0.53302670804E+03  0.10000000000E+01 0.  0.
<mgrwt>
<rscale>  0 0.12500081E+03</rscale>
<asrwt>0</asrwt>
<pdfrwt beam="1">  1        4 0.14127632E+00 0.12500081E+03</pdfrwt>
<pdfrwt beam="2">  1       -4 0.65443958E-03 0.12500081E+03</pdfrwt>
<totfact> 0.33310435E+03</totfact>
</mgrwt>
</event>
<event>
 5    1  0.3308162E-002  0.1249979E+03  0.7818608E-02  0.1235073E+00
          4   -1    0    0  501    0  0.00000000000E+00  0.00000000000E+00  0.33524821658E+02  0.33548868344E+02  0.12700000000E+01 0. -1.
         -4   -1    0    0    0  501 -0.00000000000E+00 -0.00000000000E+00 -0.11644501036E+03  0.11645193574E+03  0.12700000000E+01 0. -1.
         25    2    1    2    0    0  0.00000000000E+00  0.00000000000E+00 -0.82920188700E+02  0.15000080408E+03  0.12499793411E+03 0.  0.
    9000005    1    3    3    0    0 -0.34639048130E+02  0.14597449683E+02 -0.10136739220E+03  0.10811705413E+03  0.10000000000E+01 0.  0.
    9000005    1    3    3    0    0  0.34639048130E+02 -0.14597449683E+02  0.18447203503E+02  0.41883749948E+02  0.10000000000E+01 0.  0.
<mgrwt>
<rscale>  0 0.12499793E+03</rscale>
<asrwt>0</asrwt>
<pdfrwt beam="1">  1        4 0.51600474E-02 0.12499793E+03</pdfrwt>
<pdfrwt beam="2">  1       -4 0.17916999E-01 0.12499793E+03</pdfrwt>
<totfact> 0.99308155E+03</totfact>
</mgrwt>
</event>
<event>
 5    1  0.3308162E-002  0.1249953E+03  0.7818608E-02  0.1235077E+00
          4   -1    0    0  501    0  0.00000000000E+00  0.00000000000E+00  0.57187290305E+02  0.57201390476E+02  0.12700000000E+01 0. -1.
         -4   -1    0    0    0  501 -0.00000000000E+00 -0.00000000000E+00 -0.68272729038E+02  0.68284540200E+02  0.12700000000E+01 0. -1.
         25    2    1    2    0    0  0.00000000000E+00  0.00000000000E+00 -0.11085438733E+02  0.12548593068E+03  0.12499532730E+03 0.  0.
    9000005    1    3    3    0    0  0.28321405305E+02 -0.25815035590E+02 -0.55096764209E+02  0.67120574247E+02  0.10000000000E+01 0.  0.
    9000005    1    3    3    0    0 -0.28321405305E+02  0.25815035590E+02  0.44011325476E+02  0.58365356429E+02  0.10000000000E+01 0.  0.
<mgrwt>
<rscale>  0 0.12499533E+03</rscale>
<asrwt>0</asrwt>
<pdfrwt beam="1">  1        4 0.88000379E-02 0.12499533E+03</pdfrwt>
<pdfrwt beam="2">  1       -4 0.10505490E-01 0.12499533E+03</pdfrwt>
<totfact> 0.10443366E+04</totfact>
</mgrwt>
</event>
<event>
 5    1  0.3308162E-002  0.1250013E+03  0.7818608E-02  0.1235067E+00
          4   -1    0    0  501    0  0.00000000000E+00  0.00000000000E+00  0.45581020986E+02  0.45598710224E+02  0.12700000000E+01 0. -1.
         -4   -1    0    0    0  501 -0.00000000000E+00 -0.00000000000E+00 -0.85661804322E+02  0.85671218153E+02  0.12700000000E+01 0. -1.
         25    2    1    2    0    0  0.00000000000E+00  0.00000000000E+00 -0.40080783336E+02  0.13126992838E+03  0.12500129961E+03 0.  0.
    9000005    1    3    3    0    0 -0.65312625177E+01  0.54648086935E+02 -0.51126569006E+02  0.75126538946E+02  0.10000000000E+01 0.  0.
    9000005    1    3    3    0    0  0.65312625177E+01 -0.54648086935E+02  0.11045785670E+02  0.56143389431E+02  0.10000000000E+01 0.  0.
<mgrwt>
<rscale>  0 0.12500130E+03</rscale>
<asrwt>0</asrwt>
<pdfrwt beam="1">  1        4 0.70145497E-02 0.12500130E+03</pdfrwt>
<pdfrwt beam="2">  1       -4 0.13180824E-01 0.12500130E+03</pdfrwt>
<totfact> 0.10317003E+04</totfact>
</mgrwt>
</event>
<event>
 5    1  0.3308162E-002  0.1250011E+03  0.7818608E-02  0.1235068E+00
          4   -1    0    0  501    0  0.00000000000E+00  0.00000000000E+00  0.14218568587E+02  0.14275173997E+02  0.12700000000E+01 0. -1.
         -4   -1    0    0    0  501 -0.00000000000E+00 -0.00000000000E+00 -0.27412959413E+03  0.27413253598E+03  0.12700000000E+01 0. -1.
         25    2    1    2    0    0  0.00000000000E+00  0.00000000000E+00 -0.25991102555E+03  0.28840770997E+03  0.12500106388E+03 0.  0.
    9000005    1    3    3    0    0 -0.27965460160E+02  0.42225599120E+02 -0.45488761481E+02  0.68083005252E+02  0.10000000000E+01 0.  0.
    9000005    1    3    3    0    0  0.27965460160E+02 -0.42225599120E+02 -0.21442226407E+03  0.22032470472E+03  0.10000000000E+01 0.  0.
<mgrwt>
<rscale>  0 0.12500106E+03</rscale>
<asrwt>0</asrwt>
<pdfrwt beam="1">  1        4 0.21920528E-02 0.12500106E+03</pdfrwt>
<pdfrwt beam="2">  1       -4 0.42178360E-01 0.12500106E+03</pdfrwt>
<totfact> 0.77074530E+03</totfact>
</mgrwt>
</event>
<event>
 5    1  0.3308162E-002  0.1249954E+03  0.7818608E-02  0.1235076E+00
          4   -1    0    0  501    0  0.00000000000E+00  0.00000000000E+00  0.40967686025E+02  0.40987366325E+02  0.12700000000E+01 0. -1.
         -4   -1    0    0    0  501 -0.00000000000E+00 -0.00000000000E+00 -0.95295730909E+02  0.95304193137E+02  0.12700000000E+01 0. -1.
         25    2    1    2    0    0  0.00000000000E+00  0.00000000000E+00 -0.54328044884E+02  0.13629155946E+03  0.12499541079E+03 0.  0.
    9000005    1    3    3    0    0  0.60565435345E+02  0.14363578352E+02 -0.33183712039E+02  0.70545326467E+02  0.10000000000E+01 0.  0.
    9000005    1    3    3    0    0 -0.60565435345E+02 -0.14363578352E+02 -0.21144332844E+02  0.65746232995E+02  0.10000000000E+01 0.  0.
<mgrwt>
<rscale>  0 0.12499541E+03</rscale>
<asrwt>0</asrwt>
<pdfrwt beam="1">  1        4 0.63048858E-02 0.12499541E+03</pdfrwt>
<pdfrwt beam="2">  1       -4 0.14663046E-01 0.12499541E+03</pdfrwt>
<totfact> 0.10211976E+04</totfact>
</mgrwt>
</event>
<event>
 5    1  0.3308162E-002  0.1249998E+03  0.7818608E-02  0.1235070E+00
         -4   -1    0    0    0  501 -0.00000000000E+00  0.00000000000E+00  0.52978716505E+03  0.52978868726E+03  0.12700000000E+01 0.  1.
          4   -1    0    0  501    0  0.00000000000E+00 -0.00000000000E+00 -0.73169932135E+01  0.74263914310E+01  0.12700000000E+01 0.  1.
         25    2    1    2    0    0  0.00000000000E+00  0.00000000000E+00  0.52247017184E+03  0.53721507869E+03  0.12499984127E+03 0.  0.
    9000005    1    3    3    0    0  0.30013198686E+02  0.32157600395E+02  0.70465578563E+02  0.83074070087E+02  0.10000000000E+01 0.  0.
    9000005    1    3    3    0    0 -0.30013198686E+02 -0.32157600395E+02  0.45200459327E+03  0.45414100861E+03  0.10000000000E+01 0.  0.
<mgrwt>
<rscale>  0 0.12499984E+03</rscale>
<asrwt>0</asrwt>
<pdfrwt beam="2">  1        4 0.11342236E-02 0.12499984E+03</pdfrwt>
<pdfrwt beam="1">  1       -4 0.81514247E-01 0.12499984E+03</pdfrwt>
<totfact> 0.53088473E+03</totfact>
</mgrwt>
</event>
<event>
 5    1  0.3308162E-002  0.1249991E+03  0.7818608E-02  0.1235071E+00
          4   -1    0    0  501    0  0.00000000000E+00  0.00000000000E+00  0.24332709358E+03  0.24333040782E+03  0.12700000000E+01 0. -1.
         -4   -1    0    0    0  501 -0.00000000000E+00 -0.00000000000E+00 -0.16024705414E+02  0.16074952056E+02  0.12700000000E+01 0. -1.
         25    2    1    2    0    0  0.00000000000E+00  0.00000000000E+00  0.22730238817E+03  0.25940535988E+03  0.12499906026E+03 0.  0.
    9000005    1    3    3    0    0  0.26524619372E+02  0.56511278808E+02  0.10774082245E+03  0.12452375230E+03  0.10000000000E+01 0.  0.
    9000005    1    3    3    0    0 -0.26524619372E+02 -0.56511278808E+02  0.11956156572E+03  0.13488160758E+03  0.10000000000E+01 0.  0.
<mgrwt>
<rscale>  0 0.12499906E+03</rscale>
<asrwt>0</asrwt>
<pdfrwt beam="1">  1        4 0.37439055E-01 0.12499906E+03</pdfrwt>
<pdfrwt beam="2">  1       -4 0.24694595E-02 0.12499906E+03</pdfrwt>
<totfact> 0.80991278E+03</totfact>
</mgrwt>
</event>
<event>
 5    1  0.3308162E-002  0.1249979E+03  0.7818608E-02  0.1235073E+00
          4   -1    0    0  501    0  0.00000000000E+00  0.00000000000E+00  0.60001335006E+03  0.60001469411E+03  0.12700000000E+01 0.  1.
         -4   -1    0    0    0  501 -0.00000000000E+00 -0.00000000000E+00 -0.64467534266E+01  0.65706567208E+01  0.12700000000E+01 0.  1.
         25    2    1    2    0    0  0.00000000000E+00  0.00000000000E+00  0.59356659663E+03  0.60658535083E+03  0.12499793281E+03 0.  0.
    9000005    1    3    3    0    0 -0.53364702350E+02 -0.22182064584E+02  0.41216128444E+03  0.41619437747E+03  0.10000000000E+01 0.  0.
    9000005    1    3    3    0    0  0.53364702350E+02  0.22182064584E+02  0.18140531219E+03  0.19039097336E+03  0.10000000000E+01 0.  0.
<mgrwt>
<rscale>  0 0.12499793E+03</rscale>
<asrwt>0</asrwt>
<pdfrwt beam="1">  1        4 0.92319396E-01 0.12499793E+03</pdfrwt>
<pdfrwt beam="2">  1       -4 0.10014425E-02 0.12499793E+03</pdfrwt>
<totfact> 0.48456735E+03</totfact>
</mgrwt>
</event>
<event>
 5    1  0.3308162E-002  0.1249974E+03  0.7818608E-02  0.1235073E+00
          4   -1    0    0  501    0  0.00000000000E+00  0.00000000000E+00  0.49419699357E+03  0.49419862541E+03  0.12700000000E+01 0.  1.
         -4   -1    0    0    0  501 -0.00000000000E+00 -0.00000000000E+00 -0.78512389875E+01  0.79532920001E+01  0.12700000000E+01 0.  1.
         25    2    1    2    0    0  0.00000000000E+00  0.00000000000E+00  0.48634575459E+03  0.50215191741E+03  0.12499742059E+03 0.  0.
    9000005    1    3    3    0    0 -0.22349918071E+02 -0.14290035262E+02  0.15871713238E+02  0.30929520311E+02  0.10000000000E+01 0.  0.
    9000005    1    3    3    0    0  0.22349918071E+02  0.14290035262E+02  0.47047404135E+03  0.47122239710E+03  0.10000000000E+01 0.  0.
<mgrwt>
<rscale>  0 0.12499742E+03</rscale>
<asrwt>0</asrwt>
<pdfrwt beam="1">  1        4 0.76038292E-01 0.12499742E+03</pdfrwt>
<pdfrwt beam="2">  1       -4 0.12158585E-02 0.12499742E+03</pdfrwt>
<totfact> 0.55700943E+03</totfact>
</mgrwt>
</event>
<event>
 5    1  0.3308162E-002  0.1250002E+03  0.7818608E-02  0.1235069E+00
         -4   -1    0    0    0  501 -0.00000000000E+00  0.00000000000E+00  0.21037277895E+02  0.21075577364E+02  0.12700000000E+01 0.  1.
          4   -1    0    0  501    0  0.00000000000E+00 -0.00000000000E+00 -0.18547362232E+03  0.18547797032E+03  0.12700000000E+01 0.  1.
         25    2    1    2    0    0  0.00000000000E+00  0.00000000000E+00 -0.16443634442E+03  0.20655354769E+03  0.12500022678E+03 0.  0.
    9000005    1    3    3    0    0  0.38765947211E+02  0.28228979563E+02 -0.16005789710E+02  0.50565395822E+02  0.10000000000E+01 0.  0.
    9000005    1    3    3    0    0 -0.38765947211E+02 -0.28228979563E+02 -0.14843055471E+03  0.15598815187E+03  0.10000000000E+01 0.  0.
<mgrwt>
<rscale>  0 0.12500023E+03</rscale>
<asrwt>0</asrwt>
<pdfrwt beam="2">  1        4 0.28537683E-01 0.12500023E+03</pdfrwt>
<pdfrwt beam="1">  1       -4 0.32397850E-02 0.12500023E+03</pdfrwt>
<totfact> 0.89041392E+03</totfact>
</mgrwt>
</event>
<event>
 5    1  0.3308162E-002  0.1250111E+03  0.7818608E-02  0.1235052E+00
         -4   -1    0    0    0  501 -0.00000000000E+00  0.00000000000E+00  0.14288566820E+03  0.14289131211E+03  0.12700000000E+01 0. -1.
          4   -1    0    0  501    0  0.00000000000E+00 -0.00000000000E+00 -0.27322198647E+02  0.27351699013E+02  0.12700000000E+01 0. -1.
         25    2    1    2    0    0  0.00000000000E+00  0.00000000000E+00  0.11556346955E+03  0.17024301113E+03  0.12501106888E+03 0.  0.
    9000005    1    3    3    0    0 -0.50785666536E+02  0.64344628879E+01  0.89578344697E+01  0.51979121160E+02  0.10000000000E+01 0.  0.
    9000005    1    3    3    0    0  0.50785666536E+02 -0.64344628879E+01  0.10660563508E+03  0.11826388997E+03  0.10000000000E+01 0.  0.
<mgrwt>
<rscale>  0 0.12501107E+03</rscale>
<asrwt>0</asrwt>
<pdfrwt beam="2">  1        4 0.42061185E-02 0.12501107E+03</pdfrwt>
<pdfrwt beam="1">  1       -4 0.21985114E-01 0.12501107E+03</pdfrwt>
<totfact> 0.95379664E+03</totfact>
</mgrwt>
</event>
<event>
 5    1  0.3308162E-002  0.1250000E+03  0.7818608E-02  0.1235069E+00
         -4   -1    0    0    0  501 -0.00000000000E+00  0.00000000000E+00  0.33543154339E+02  0.33567187892E+02  0.12700000000E+01 0.  1.
          4   -1    0    0  501    0  0.00000000000E+00 -0.00000000000E+00 -0.11638524648E+03  0.11639217542E+03  0.12700000000E+01 0.  1.
         25    2    1    2    0    0  0.00000000000E+00  0.00000000000E+00 -0.82842092141E+02  0.14995936331E+03  0.12499999365E+03 0.  0.
    9000005    1    3    3    0    0  0.51665387344E+01  0.17237513577E+02  0.30373508181E+02  0.35318196387E+02  0.10000000000E+01 0.  0.
    9000005    1    3    3    0    0 -0.51665387344E+01 -0.17237513577E+02 -0.11321560032E+03  0.11464116692E+03  0.10000000000E+01 0.  0.
<mgrwt>
<rscale>  0 0.12499999E+03</rscale>
<asrwt>0</asrwt>
<pdfrwt beam="2">  1        4 0.17907804E-01 0.12499999E+03</pdfrwt>
<pdfrwt beam="1">  1       -4 0.51628671E-02 0.12499999E+03</pdfrwt>
<totfact> 0.99311813E+03</totfact>
</mgrwt>
</event>
<event>
 5    1  0.3308162E-002  0.1249954E+03  0.7818608E-02  0.1235076E+00
          4   -1    0    0  501    0  0.00000000000E+00  0.00000000000E+00  0.14554223790E+03  0.14554777880E+03  0.12700000000E+01 0.  1.
         -4   -1    0    0    0  501 -0.00000000000E+00 -0.00000000000E+00 -0.26816224089E+02  0.26846280458E+02  0.12700000000E+01 0.  1.
         25    2    1    2    0    0  0.00000000000E+00  0.00000000000E+00  0.11872601382E+03  0.17239405926E+03  0.12499538116E+03 0.  0.
    9000005    1    3    3    0    0 -0.96309356747E+01  0.44884248103E+02  0.88720984402E+00  0.45925350201E+02  0.10000000000E+01 0.  0.
    9000005    1    3    3    0    0  0.96309356747E+01 -0.44884248103E+02  0.11783880397E+03  0.12646870906E+03  0.10000000000E+01 0.  0.
<mgrwt>
<rscale>  0 0.12499538E+03</rscale>
<asrwt>0</asrwt>
<pdfrwt beam="1">  1        4 0.22393852E-01 0.12499538E+03</pdfrwt>
<pdfrwt beam="2">  1       -4 0.41283112E-02 0.12499538E+03</pdfrwt>
<totfact> 0.95014138E+03</totfact>
</mgrwt>
</event>
<event>
 5    1  0.3308162E-002  0.1250140E+03  0.7818608E-02  0.1235047E+00
         -4   -1    0    0    0  501 -0.00000000000E+00  0.00000000000E+00  0.45623755880E+02  0.45641428556E+02  0.12700000000E+01 0.  1.
          4   -1    0    0  501    0  0.00000000000E+00 -0.00000000000E+00 -0.85598935381E+02  0.85608356125E+02  0.12700000000E+01 0.  1.
         25    2    1    2    0    0  0.00000000000E+00  0.00000000000E+00 -0.39975179501E+02  0.13124978468E+03  0.12501396323E+03 0.  0.
    9000005    1    3    3    0    0 -0.19906250621E+02  0.16882579707E+01 -0.82161589721E+02  0.84561432428E+02  0.10000000000E+01 0.  0.
    9000005    1    3    3    0    0  0.19906250621E+02 -0.16882579707E+01  0.42186410221E+02  0.46688352252E+02  0.10000000000E+01 0.  0.
<mgrwt>
<rscale>  0 0.12501396E+03</rscale>
<asrwt>0</asrwt>
<pdfrwt beam="2">  1        4 0.13171151E-01 0.12501396E+03</pdfrwt>
<pdfrwt beam="1">  1       -4 0.70211235E-02 0.12501396E+03</pdfrwt>
<totfact> 0.10314488E+04</totfact>
</mgrwt>
</event>
<event>
 5    1  0.3308162E-002  0.1250005E+03  0.7818608E-02  0.1235068E+00
          4   -1    0    0  501    0  0.00000000000E+00  0.00000000000E+00  0.20486863961E+03  0.20487257600E+03  0.12700000000E+01 0.  1.
         -4   -1    0    0    0  501 -0.00000000000E+00 -0.00000000000E+00 -0.19041986192E+02  0.19084290349E+02  0.12700000000E+01 0.  1.
         25    2    1    2    0    0  0.00000000000E+00  0.00000000000E+00  0.18582665342E+03  0.22395686635E+03  0.12500053145E+03 0.  0.
    9000005    1    3    3    0    0  0.53429528600E+02 -0.30884072652E+02  0.75291061724E+02  0.97356481271E+02  0.10000000000E+01 0.  0.
    9000005    1    3    3    0    0 -0.53429528600E+02  0.30884072652E+02  0.11053559170E+03  0.12660038508E+03  0.10000000000E+01 0.  0.
<mgrwt>
<rscale>  0 0.12500053E+03</rscale>
<asrwt>0</asrwt>
<pdfrwt beam="1">  1        4 0.31521809E-01 0.12500053E+03</pdfrwt>
<pdfrwt beam="2">  1       -4 0.29330933E-02 0.12500053E+03</pdfrwt>
<totfact> 0.86245050E+03</totfact>
</mgrwt>
</event>
<event>
 5    1  0.3308162E-002  0.1250024E+03  0.7818608E-02  0.1235066E+00
         -4   -1    0    0    0  501 -0.00000000000E+00  0.00000000000E+00  0.37815057378E+02  0.37836377528E+02  0.12700000000E+01 0. -1.
          4   -1    0    0  501    0  0.00000000000E+00 -0.00000000000E+00 -0.10324841745E+03  0.10325622793E+03  0.12700000000E+01 0. -1.
         25    2    1    2    0    0  0.00000000000E+00  0.00000000000E+00 -0.65433360071E+02  0.14109260546E+03  0.12500239479E+03 0.  0.
    9000005    1    3    3    0    0 -0.19714513440E+02  0.57937042540E+02 -0.46995613330E+02  0.77168326473E+02  0.10000000000E+01 0.  0.
    9000005    1    3    3    0    0  0.19714513440E+02 -0.57937042540E+02 -0.18437746741E+02  0.63924278982E+02  0.10000000000E+01 0.  0.
<mgrwt>
<rscale>  0 0.12500239E+03</rscale>
<asrwt>0</asrwt>
<pdfrwt beam="2">  1        4 0.15886613E-01 0.12500239E+03</pdfrwt>
<pdfrwt beam="1">  1       -4 0.58199420E-02 0.12500239E+03</pdfrwt>
<totfact> 0.10110446E+04</totfact>
</mgrwt>
</event>
<event>
 5    1  0.3308162E-002  0.1249992E+03  0.7818608E-02  0.1235070E+00
          4   -1    0    0  501    0  0.00000000000E+00  0.00000000000E+00  0.16522303928E+03  0.16522792019E+03  0.12700000000E+01 0. -1.
         -4   -1    0    0    0  501 -0.00000000000E+00 -0.00000000000E+00 -0.23619701473E+02  0.23653819938E+02  0.12700000000E+01 0. -1.
         25    2    1    2    0    0  0.00000000000E+00  0.00000000000E+00  0.14160333781E+03  0.18888174013E+03  0.12499922589E+03 0.  0.
    9000005    1    3    3    0    0 -0.15771433399E+02  0.61648549614E+01 -0.20094258259E+02  0.26296820400E+02  0.10000000000E+01 0.  0.
    9000005    1    3    3    0    0  0.15771433399E+02 -0.61648549614E+01  0.16169759607E+03  0.16258491973E+03  0.10000000000E+01 0.  0.
<mgrwt>
<rscale>  0 0.12499923E+03</rscale>
<asrwt>0</asrwt>
<pdfrwt beam="1">  1        4 0.25421929E-01 0.12499923E+03</pdfrwt>
<pdfrwt beam="2">  1       -4 0.36368002E-02 0.12499923E+03</pdfrwt>
<totfact> 0.92043848E+03</totfact>
</mgrwt>
</event>
<event>
 5    1  0.3308162E-002  0.1250029E+03  0.7818608E-02  0.1235065E+00
         -4   -1    0    0    0  501 -0.00000000000E+00  0.00000000000E+00  0.83726260933E+02  0.83735892363E+02  0.12700000000E+01 0.  1.
          4   -1    0    0  501    0  0.00000000000E+00 -0.00000000000E+00 -0.46636213472E+02  0.46653502623E+02  0.12700000000E+01 0.  1.
         25    2    1    2    0    0  0.00000000000E+00  0.00000000000E+00  0.37090047461E+02  0.13038939499E+03  0.12500289078E+03 0.  0.
    9000005    1    3    3    0    0 -0.33399040640E+02 -0.52543569705E+02  0.24172694954E+02  0.66795522412E+02  0.10000000000E+01 0.  0.
    9000005    1    3    3    0    0  0.33399040640E+02  0.52543569705E+02  0.12917352507E+02  0.63593872573E+02  0.10000000000E+01 0.  0.
<mgrwt>
<rscale>  0 0.12500289E+03</rscale>
<asrwt>0</asrwt>
<pdfrwt beam="2">  1        4 0.71768730E-02 0.12500289E+03</pdfrwt>
<pdfrwt beam="1">  1       -4 0.12883034E-01 0.12500289E+03</pdfrwt>
<totfact> 0.10335510E+04</totfact>
</mgrwt>
</event>
<event>
 5    1  0.3308162E-002  0.1249991E+03  0.7818608E-02  0.1235071E+00
          4   -1    0    0  501    0  0.00000000000E+00  0.00000000000E+00  0.66319868913E+02  0.66332027804E+02  0.12700000000E+01 0. -1.
         -4   -1    0    0    0  501 -0.00000000000E+00 -0.00000000000E+00 -0.58874871844E+02  0.58888567946E+02  0.12700000000E+01 0. -1.
         25    2    1    2    0    0  0.00000000000E+00  0.00000000000E+00  0.74449970684E+01  0.12522059575E+03  0.12499907847E+03 0.  0.
    9000005    1    3    3    0    0 -0.34255317855E+02  0.51297741237E+02  0.13755602831E+02  0.63206816615E+02  0.10000000000E+01 0.  0.
    9000005    1    3    3    0    0  0.34255317855E+02 -0.51297741237E+02 -0.63106057628E+01  0.62013779134E+02  0.10000000000E+01 0.  0.
<mgrwt>
<rscale>  0 0.12499908E+03</rscale>
<asrwt>0</asrwt>
<pdfrwt beam="1">  1        4 0.10205046E-01 0.12499908E+03</pdfrwt>
<pdfrwt beam="2">  1       -4 0.90596614E-02 0.12499908E+03</pdfrwt>
<totfact> 0.10448291E+04</totfact>
</mgrwt>
</event>
<event>
 5    1  0.3308162E-002  0.1249998E+03  0.7818608E-02  0.1235070E+00
          4   -1    0    0  501    0  0.00000000000E+00  0.00000000000E+00  0.59911901363E+03  0.59912035969E+03  0.12700000000E+01 0. -1.
         -4   -1    0    0    0  501 -0.00000000000E+00 -0.00000000000E+00 -0.64567555792E+01  0.65804705462E+01  0.12700000000E+01 0. -1.
         25    2    1    2    0    0  0.00000000000E+00  0.00000000000E+00  0.59266225805E+03  0.60570083024E+03  0.12499977452E+03 0.  0.
    9000005    1    3    3    0    0 -0.33182499565E+02 -0.12032048847E+02  0.54621587470E+03  0.54735603609E+03  0.10000000000E+01 0.  0.
    9000005    1    3    3    0    0  0.33182499565E+02  0.12032048847E+02  0.46446383358E+02  0.58344794146E+02  0.10000000000E+01 0.  0.
<mgrwt>
<rscale>  0 0.12499977E+03</rscale>
<asrwt>0</asrwt>
<pdfrwt beam="1">  1        4 0.92181811E-01 0.12499977E+03</pdfrwt>
<pdfrwt beam="2">  1       -4 0.10029667E-02 0.12499977E+03</pdfrwt>
<totfact> 0.48509949E+03</totfact>
</mgrwt>
</event>
<event>
 5    1  0.3308162E-002  0.1249805E+03  0.7818608E-02  0.1235100E+00
         -4   -1    0    0    0  501 -0.00000000000E+00  0.00000000000E+00  0.39546135780E+02  0.39566523162E+02  0.12700000000E+01 0. -1.
          4   -1    0    0  501    0  0.00000000000E+00 -0.00000000000E+00 -0.98696245619E+02  0.98704416311E+02  0.12700000000E+01 0. -1.
         25    2    1    2    0    0  0.00000000000E+00  0.00000000000E+00 -0.59150109840E+02  0.13827093947E+03  0.12498046731E+03 0.  0.
    9000005    1    3    3    0    0  0.58398341265E+02 -0.39895437471E+01 -0.53756795793E+02  0.79480034069E+02  0.10000000000E+01 0.  0.
    9000005    1    3    3    0    0 -0.58398341265E+02  0.39895437471E+01 -0.53933140471E+01  0.58790905404E+02  0.10000000000E+01 0.  0.
<mgrwt>
<rscale>  0 0.12498047E+03</rscale>
<asrwt>0</asrwt>
<pdfrwt beam="2">  1        4 0.15186235E-01 0.12498047E+03</pdfrwt>
<pdfrwt beam="1">  1       -4 0.60862177E-02 0.12498047E+03</pdfrwt>
<totfact> 0.10174025E+04</totfact>
</mgrwt>
</event>
<event>
 5    1  0.3308162E-002  0.1250009E+03  0.7818608E-02  0.1235068E+00
         -4   -1    0    0    0  501 -0.00000000000E+00  0.00000000000E+00  0.29671089014E+02  0.29698256233E+02  0.12700000000E+01 0.  1.
          4   -1    0    0  501    0  0.00000000000E+00 -0.00000000000E+00 -0.13156309040E+03  0.13156922001E+03  0.12700000000E+01 0.  1.
         25    2    1    2    0    0  0.00000000000E+00  0.00000000000E+00 -0.10189200138E+03  0.16126747624E+03  0.12500087579E+03 0.  0.
    9000005    1    3    3    0    0 -0.48666131172E+02 -0.22683512645E+02 -0.96946736513E+01  0.54570328626E+02  0.10000000000E+01 0.  0.
    9000005    1    3    3    0    0  0.48666131172E+02  0.22683512645E+02 -0.92197327730E+02  0.10669714762E+03  0.10000000000E+01 0.  0.
<mgrwt>
<rscale>  0 0.12500088E+03</rscale>
<asrwt>0</asrwt>
<pdfrwt beam="2">  1        4 0.20243036E-01 0.12500088E+03</pdfrwt>
<pdfrwt beam="1">  1       -4 0.45673443E-02 0.12500088E+03</pdfrwt>
<totfact> 0.97097070E+03</totfact>
</mgrwt>
</event>
<event>
 5    1  0.3308162E-002  0.1249975E+03  0.7818608E-02  0.1235073E+00
          4   -1    0    0  501    0  0.00000000000E+00  0.00000000000E+00  0.14529308300E+03  0.14529863340E+03  0.12700000000E+01 0.  1.
         -4   -1    0    0    0  501 -0.00000000000E+00 -0.00000000000E+00 -0.26863181801E+02  0.26893185689E+02  0.12700000000E+01 0.  1.
         25    2    1    2    0    0  0.00000000000E+00  0.00000000000E+00  0.11842990120E+03  0.17219181909E+03  0.12499752423E+03 0.  0.
    9000005    1    3    3    0    0 -0.54399331003E+02 -0.83800070571E+01  0.18452536586E+02  0.58060380970E+02  0.10000000000E+01 0.  0.
    9000005    1    3    3    0    0  0.54399331003E+02  0.83800070571E+01  0.99977364611E+02  0.11413143812E+03  0.10000000000E+01 0.  0.
<mgrwt>
<rscale>  0 0.12499752E+03</rscale>
<asrwt>0</asrwt>
<pdfrwt beam="1">  1        4 0.22355517E-01 0.12499752E+03</pdfrwt>
<pdfrwt beam="2">  1       -4 0.41355322E-02 0.12499752E+03</pdfrwt>
<totfact> 0.95046963E+03</totfact>
</mgrwt>
</event>
<event>
 5    1  0.3308162E-002  0.1249979E+03  0.7818608E-02  0.1235073E+00
         -4   -1    0    0    0  501 -0.00000000000E+00  0.00000000000E+00  0.52808162680E+02  0.52823431786E+02  0.12700000000E+01 0.  1.
          4   -1    0    0  501    0  0.00000000000E+00 -0.00000000000E+00 -0.73936650385E+02  0.73947556891E+02  0.12700000000E+01 0.  1.
         25    2    1    2    0    0  0.00000000000E+00  0.00000000000E+00 -0.21128487704E+02  0.12677098868E+03  0.12499788229E+03 0.  0.
    9000005    1    3    3    0    0  0.23419853236E+02  0.57452145171E+02 -0.29829722559E+01  0.62121949695E+02  0.10000000000E+01 0.  0.
    9000005    1    3    3    0    0 -0.23419853236E+02 -0.57452145171E+02 -0.18145515448E+02  0.64649038982E+02  0.10000000000E+01 0.  0.
<mgrwt>
<rscale>  0 0.12499788E+03</rscale>
<asrwt>0</asrwt>
<pdfrwt beam="2">  1        4 0.11376883E-01 0.12499788E+03</pdfrwt>
<pdfrwt beam="1">  1       -4 0.81263462E-02 0.12499788E+03</pdfrwt>
<totfact> 0.10414623E+04</totfact>
</mgrwt>
</event>
<event>
 5    1  0.3308162E-002  0.1249963E+03  0.7818608E-02  0.1235075E+00
         -4   -1    0    0    0  501 -0.00000000000E+00  0.00000000000E+00  0.61222228019E+01  0.62525604384E+01  0.12700000000E+01 0.  1.
          4   -1    0    0  501    0  0.00000000000E+00 -0.00000000000E+00 -0.63115602498E+03  0.63115730271E+03  0.12700000000E+01 0.  1.
         25    2    1    2    0    0  0.00000000000E+00  0.00000000000E+00 -0.62503380218E+03  0.63740986315E+03  0.12499631906E+03 0.  0.
    9000005    1    3    3    0    0 -0.61444709895E+02  0.10306502801E+01 -0.25470967543E+03  0.26202010109E+03  0.10000000000E+01 0.  0.
    9000005    1    3    3    0    0  0.61444709895E+02 -0.10306502801E+01 -0.37032412674E+03  0.37538976206E+03  0.10000000000E+01 0.  0.
<mgrwt>
<rscale>  0 0.12499632E+03</rscale>
<asrwt>0</asrwt>
<pdfrwt beam="2">  1        4 0.97111000E-01 0.12499632E+03</pdfrwt>
<pdfrwt beam="1">  1       -4 0.95200519E-03 0.12499632E+03</pdfrwt>
<totfact> 0.46592003E+03</totfact>
</mgrwt>
</event>
<event>
 5    1  0.3308162E-002  0.1250022E+03  0.7818608E-02  0.1235066E+00
         -4   -1    0    0    0  501 -0.00000000000E+00  0.00000000000E+00  0.19103923793E+02  0.19146091096E+02  0.12700000000E+01 0.  1.
          4   -1    0    0  501    0  0.00000000000E+00 -0.00000000000E+00 -0.20421144084E+03  0.20421538989E+03  0.12700000000E+01 0.  1.
         25    2    1    2    0    0  0.00000000000E+00  0.00000000000E+00 -0.18510751705E+03  0.22336148099E+03  0.12500223327E+03 0.  0.
    9000005    1    3    3    0    0  0.15747810449E+02 -0.43884181288E+02 -0.16690892010E+03  0.17330147867E+03  0.10000000000E+01 0.  0.
    9000005    1    3    3    0    0 -0.15747810449E+02  0.43884181288E+02 -0.18198596947E+02  0.50060002318E+02  0.10000000000E+01 0.  0.
<mgrwt>
<rscale>  0 0.12500223E+03</rscale>
<asrwt>0</asrwt>
<pdfrwt beam="2">  1        4 0.31420691E-01 0.12500223E+03</pdfrwt>
<pdfrwt beam="1">  1       -4 0.29426128E-02 0.12500223E+03</pdfrwt>
<totfact> 0.86334913E+03</totfact>
</mgrwt>
</event>
<event>
 5    1  0.3308162E-002  0.1249998E+03  0.7818608E-02  0.1235070E+00
         -4   -1    0    0    0  501 -0.00000000000E+00  0.00000000000E+00  0.39647891864E+02  0.39668226949E+02  0.12700000000E+01 0. -1.
          4   -1    0    0  501    0  0.00000000000E+00 -0.00000000000E+00 -0.98473576365E+02  0.98481765531E+02  0.12700000000E+01 0. -1.
         25    2    1    2    0    0  0.00000000000E+00  0.00000000000E+00 -0.58825684501E+02  0.13814999248E+03  0.12499983706E+03 0.  0.
    9000005    1    3    3    0    0  0.28022227531E+02  0.47525549156E+02 -0.61848511798E+02  0.82886437190E+02  0.10000000000E+01 0.  0.
    9000005    1    3    3    0    0 -0.28022227531E+02 -0.47525549156E+02  0.30228272967E+01  0.55263555290E+02  0.10000000000E+01 0.  0.
<mgrwt>
<rscale>  0 0.12499984E+03</rscale>
<asrwt>0</asrwt>
<pdfrwt beam="2">  1        4 0.15151975E-01 0.12499984E+03</pdfrwt>
<pdfrwt beam="1">  1       -4 0.61018699E-02 0.12499984E+03</pdfrwt>
<totfact> 0.10172110E+04</totfact>
</mgrwt>
</event>
<event>
 5    1  0.3308162E-002  0.1249971E+03  0.7818608E-02  0.1235074E+00
         -4   -1    0    0    0  501 -0.00000000000E+00  0.00000000000E+00  0.31416781753E+02  0.31442440677E+02  0.12700000000E+01 0. -1.
          4   -1    0    0  501    0  0.00000000000E+00 -0.00000000000E+00 -0.12425089174E+03  0.12425738207E+03  0.12700000000E+01 0. -1.
         25    2    1    2    0    0  0.00000000000E+00  0.00000000000E+00 -0.92834109985E+02  0.15569982274E+03  0.12499705127E+03 0.  0.
    9000005    1    3    3    0    0  0.53654225277E+02 -0.29447523131E+02 -0.62130403578E+02  0.87218802775E+02  0.10000000000E+01 0.  0.
    9000005    1    3    3    0    0 -0.53654225277E+02  0.29447523131E+02 -0.30703706407E+02  0.68481019968E+02  0.10000000000E+01 0.  0.
<mgrwt>
<rscale>  0 0.12499705E+03</rscale>
<asrwt>0</asrwt>
<pdfrwt beam="2">  1        4 0.19117994E-01 0.12499705E+03</pdfrwt>
<pdfrwt beam="1">  1       -4 0.48358241E-02 0.12499705E+03</pdfrwt>
<totfact> 0.98184801E+03</totfact>
</mgrwt>
</event>
<event>
 5    1  0.3308162E-002  0.1250061E+03  0.7818608E-02  0.1235060E+00
         -4   -1    0    0    0  501 -0.00000000000E+00  0.00000000000E+00  0.18417838773E+03  0.18418276632E+03  0.12700000000E+01 0.  1.
          4   -1    0    0  501    0  0.00000000000E+00 -0.00000000000E+00 -0.21187496812E+02  0.21225525227E+02  0.12700000000E+01 0.  1.
         25    2    1    2    0    0  0.00000000000E+00  0.00000000000E+00  0.16299089092E+03  0.20540829154E+03  0.12500614270E+03 0.  0.
    9000005    1    3    3    0    0 -0.28237515448E+01 -0.48391978293E+02  0.16680640663E+02  0.51273783835E+02  0.10000000000E+01 0.  0.
    9000005    1    3    3    0    0  0.28237515448E+01  0.48391978293E+02  0.14631025026E+03  0.15413450771E+03  0.10000000000E+01 0.  0.
<mgrwt>
<rscale>  0 0.12500614E+03</rscale>
<asrwt>0</asrwt>
<pdfrwt beam="2">  1        4 0.32628769E-02 0.12500614E+03</pdfrwt>
<pdfrwt beam="1">  1       -4 0.28338399E-01 0.12500614E+03</pdfrwt>
<totfact> 0.89219041E+03</totfact>
</mgrwt>
</event>
<event>
 5    1  0.3308162E-002  0.1250013E+03  0.7818608E-02  0.1235067E+00
          4   -1    0    0  501    0  0.00000000000E+00  0.00000000000E+00  0.17247818754E+03  0.17248286314E+03  0.12700000000E+01 0. -1.
         -4   -1    0    0    0  501 -0.00000000000E+00 -0.00000000000E+00 -0.22625462664E+02  0.22661078102E+02  0.12700000000E+01 0. -1.
         25    2    1    2    0    0  0.00000000000E+00  0.00000000000E+00  0.14985272488E+03  0.19514394125E+03  0.12500127460E+03 0.  0.
    9000005    1    3    3    0    0  0.34837952164E+02  0.20623069256E+02  0.60686624337E+00  0.40501384954E+02  0.10000000000E+01 0.  0.
    9000005    1    3    3    0    0 -0.34837952164E+02 -0.20623069256E+02  0.14924585864E+03  0.15464255629E+03  0.10000000000E+01 0.  0.
<mgrwt>
<rscale>  0 0.12500127E+03</rscale>
<asrwt>0</asrwt>
<pdfrwt beam="1">  1        4 0.26538205E-01 0.12500127E+03</pdfrwt>
<pdfrwt beam="2">  1       -4 0.34839397E-02 0.12500127E+03</pdfrwt>
<totfact> 0.90957313E+03</totfact>
</mgrwt>
</event>
<event>
 5    1  0.3308162E-002  0.1249968E+03  0.7818608E-02  0.1235074E+00
          4   -1    0    0  501    0  0.00000000000E+00  0.00000000000E+00  0.22751386628E+02  0.22786805250E+02  0.12700000000E+01 0.  1.
         -4   -1    0    0    0  501 -0.00000000000E+00 -0.00000000000E+00 -0.17151270726E+03  0.17151740918E+03  0.12700000000E+01 0.  1.
         25    2    1    2    0    0  0.00000000000E+00  0.00000000000E+00 -0.14876132064E+03  0.19430421443E+03  0.12499678888E+03 0.  0.
    9000005    1    3    3    0    0  0.98221973253E+01 -0.45645404033E+02 -0.13894412544E+03  0.14658256535E+03  0.10000000000E+01 0.  0.
    9000005    1    3    3    0    0 -0.98221973253E+01  0.45645404033E+02 -0.98171951907E+01  0.47721649081E+02  0.10000000000E+01 0.  0.
<mgrwt>
<rscale>  0 0.12499679E+03</rscale>
<asrwt>0</asrwt>
<pdfrwt beam="1">  1        4 0.35032996E-02 0.12499679E+03</pdfrwt>
<pdfrwt beam="2">  1       -4 0.26389656E-01 0.12499679E+03</pdfrwt>
<totfact> 0.91110293E+03</totfact>
</mgrwt>
</event>
<event>
 5    1  0.3308162E-002  0.1249913E+03  0.7818608E-02  0.1235083E+00
         -4   -1    0    0    0  501 -0.00000000000E+00  0.00000000000E+00  0.75215270958E+03  0.75215378177E+03  0.12700000000E+01 0.  1.
          4   -1    0    0  501    0  0.00000000000E+00 -0.00000000000E+00 -0.51139572952E+01  0.52692939961E+01  0.12700000000E+01 0.  1.
         25    2    1    2    0    0  0.00000000000E+00  0.00000000000E+00  0.74703875229E+03  0.75742307577E+03  0.12499127284E+03 0.  0.
    9000005    1    3    3    0    0 -0.57333443522E+01 -0.32422577861E+02  0.51686545384E+02  0.61291057801E+02  0.10000000000E+01 0.  0.
    9000005    1    3    3    0    0  0.57333443522E+01  0.32422577861E+02  0.69535220690E+03  0.69613201797E+03  0.10000000000E+01 0.  0.
<mgrwt>
<rscale>  0 0.12499127E+03</rscale>
<asrwt>0</asrwt>
<pdfrwt beam="2">  1        4 0.79879494E-03 0.12499127E+03</pdfrwt>
<pdfrwt beam="1">  1       -4 0.11572771E+00 0.12499127E+03</pdfrwt>
<totfact> 0.40229294E+03</totfact>
</mgrwt>
</event>
<event>
 5    1  0.3308162E-002  0.1249992E+03  0.7818608E-02  0.1235070E+00
         -4   -1    0    0    0  501 -0.00000000000E+00  0.00000000000E+00  0.12582939661E+03  0.12583580552E+03  0.12700000000E+01 0. -1.
          4   -1    0    0  501    0  0.00000000000E+00 -0.00000000000E+00 -0.31023442676E+02  0.31049426653E+02  0.12700000000E+01 0. -1.
         25    2    1    2    0    0  0.00000000000E+00  0.00000000000E+00  0.94805953930E+02  0.15688523217E+03  0.12499922869E+03 0.  0.
    9000005    1    3    3    0    0 -0.58748240424E+02 -0.39505831971E+00  0.74136384576E+02  0.94597649770E+02  0.10000000000E+01 0.  0.
    9000005    1    3    3    0    0  0.58748240424E+02  0.39505831971E+00  0.20669569354E+02  0.62287582401E+02  0.10000000000E+01 0.  0.
<mgrwt>
<rscale>  0 0.12499923E+03</rscale>
<asrwt>0</asrwt>
<pdfrwt beam="2">  1        4 0.47753290E-02 0.12499923E+03</pdfrwt>
<pdfrwt beam="1">  1       -4 0.19360861E-01 0.12499923E+03</pdfrwt>
<totfact> 0.97948369E+03</totfact>
</mgrwt>
</event>
<event>
 5    1  0.3308162E-002  0.1250019E+03  0.7818608E-02  0.1235066E+00
         -4   -1    0    0    0  501 -0.00000000000E+00  0.00000000000E+00  0.24545005129E+01  0.27635977941E+01  0.12700000000E+01 0. -1.
          4   -1    0    0  501    0  0.00000000000E+00 -0.00000000000E+00 -0.14969295153E+04  0.14969300541E+04  0.12700000000E+01 0. -1.
         25    2    1    2    0    0  0.00000000000E+00  0.00000000000E+00 -0.14944750148E+04  0.14996936519E+04  0.12500191805E+03 0.  0.
    9000005    1    3    3    0    0 -0.16245165456E+02  0.28496677140E+02 -0.10907196948E+03  0.11390197775E+03  0.10000000000E+01 0.  0.
    9000005    1    3    3    0    0  0.16245165456E+02 -0.28496677140E+02 -0.13854030453E+04  0.13857916741E+04  0.10000000000E+01 0.  0.
<mgrwt>
<rscale>  0 0.12500192E+03</rscale>
<asrwt>0</asrwt>
<pdfrwt beam="2">  1        4 0.23031998E+00 0.12500192E+03</pdfrwt>
<pdfrwt beam="1">  1       -4 0.40143481E-03 0.12500192E+03</pdfrwt>
<totfact> 0.17935801E+03</totfact>
</mgrwt>
</event>
<event>
 5    1  0.3308162E-002  0.1249978E+03  0.7818608E-02  0.1235073E+00
         -4   -1    0    0    0  501 -0.00000000000E+00  0.00000000000E+00  0.24749918622E+03  0.24750244460E+03  0.12700000000E+01 0.  1.
          4   -1    0    0  501    0  0.00000000000E+00 -0.00000000000E+00 -0.15753406038E+02  0.15804515235E+02  0.12700000000E+01 0.  1.
         25    2    1    2    0    0  0.00000000000E+00  0.00000000000E+00  0.23174578018E+03  0.26330695983E+03  0.12499779383E+03 0.  0.
    9000005    1    3    3    0    0  0.32253959864E+02  0.29735622023E+02  0.22125982703E+02  0.49143506739E+02  0.10000000000E+01 0.  0.
    9000005    1    3    3    0    0 -0.32253959864E+02 -0.29735622023E+02  0.20961979748E+03  0.21416345309E+03  0.10000000000E+01 0.  0.
<mgrwt>
<rscale>  0 0.12499779E+03</rscale>
<asrwt>0</asrwt>
<pdfrwt beam="2">  1        4 0.24277830E-02 0.12499779E+03</pdfrwt>
<pdfrwt beam="1">  1       -4 0.38080981E-01 0.12499779E+03</pdfrwt>
<totfact> 0.80448152E+03</totfact>
</mgrwt>
</event>
<event>
 5    1  0.3308162E-002  0.1249983E+03  0.7818608E-02  0.1235072E+00
         -4   -1    0    0    0  501 -0.00000000000E+00  0.00000000000E+00  0.44021897470E+03  0.44022080663E+03  0.12700000000E+01 0. -1.
          4   -1    0    0  501    0  0.00000000000E+00 -0.00000000000E+00 -0.88258812390E+01  0.89167863967E+01  0.12700000000E+01 0. -1.
         25    2    1    2    0    0  0.00000000000E+00  0.00000000000E+00  0.43139309346E+03  0.44913759302E+03  0.12499830551E+03 0.  0.
    9000005    1    3    3    0    0 -0.21153542023E+02 -0.52063289604E+02  0.11748546984E+03  0.13023783662E+03  0.10000000000E+01 0.  0.
    9000005    1    3    3    0    0  0.21153542023E+02  0.52063289604E+02  0.31390762362E+03  0.31889975640E+03  0.10000000000E+01 0.  0.
<mgrwt>
<rscale>  0 0.12499831E+03</rscale>
<asrwt>0</asrwt>
<pdfrwt beam="2">  1        4 0.13649616E-02 0.12499831E+03</pdfrwt>
<pdfrwt beam="1">  1       -4 0.67733126E-01 0.12499831E+03</pdfrwt>
<totfact> 0.60040819E+03</totfact>
</mgrwt>
</event>
<event>
 5    1  0.3308162E-002  0.1250008E+03  0.7818608E-02  0.1235068E+00
          4   -1    0    0  501    0  0.00000000000E+00  0.00000000000E+00  0.95919828578E+02  0.95928235751E+02  0.12700000000E+01 0.  1.
         -4   -1    0    0    0  501 -0.00000000000E+00 -0.00000000000E+00 -0.40704517008E+02  0.40724324487E+02  0.12700000000E+01 0.  1.
         25    2    1    2    0    0  0.00000000000E+00  0.00000000000E+00  0.55215311569E+02  0.13665256024E+03  0.12500076635E+03 0.  0.
    9000005    1    3    3    0    0 -0.45391696491E+02 -0.42066929192E+02  0.18123419483E+02  0.64494115822E+02  0.10000000000E+01 0.  0.
    9000005    1    3    3    0    0  0.45391696491E+02  0.42066929192E+02  0.37091892086E+02  0.72158444416E+02  0.10000000000E+01 0.  0.
<mgrwt>
<rscale>  0 0.12500077E+03</rscale>
<asrwt>0</asrwt>
<pdfrwt beam="1">  1        4 0.14759067E-01 0.12500077E+03</pdfrwt>
<pdfrwt beam="2">  1       -4 0.62644037E-02 0.12500077E+03</pdfrwt>
<totfact> 0.10203179E+04</totfact>
</mgrwt>
</event>
<event>
 5    1  0.3308162E-002  0.1249947E+03  0.7818608E-02  0.1235078E+00
         -4   -1    0    0    0  501 -0.00000000000E+00  0.00000000000E+00  0.40941076473E+03  0.40941273451E+03  0.12700000000E+01 0.  1.
          4   -1    0    0  501    0  0.00000000000E+00 -0.00000000000E+00 -0.94960713676E+01  0.95806195738E+01  0.12700000000E+01 0.  1.
         25    2    1    2    0    0  0.00000000000E+00  0.00000000000E+00  0.39991469337E+03  0.41899335409E+03  0.12499467508E+03 0.  0.
    9000005    1    3    3    0    0  0.48819244558E+02  0.55697958100E+01  0.32937474804E+03  0.33302111931E+03  0.10000000000E+01 0.  0.
    9000005    1    3    3    0    0 -0.48819244558E+02 -0.55697958100E+01  0.70539945331E+02  0.85972234773E+02  0.10000000000E+01 0.  0.
<mgrwt>
<rscale>  0 0.12499468E+03</rscale>
<asrwt>0</asrwt>
<pdfrwt beam="2">  1        4 0.14675891E-02 0.12499468E+03</pdfrwt>
<pdfrwt beam="1">  1       -4 0.62992935E-01 0.12499468E+03</pdfrwt>
<totfact> 0.62753872E+03</totfact>
</mgrwt>
</event>
<event>
 5    1  0.3308162E-002  0.1249944E+03  0.7818608E-02  0.1235078E+00
         -4   -1    0    0    0  501 -0.00000000000E+00  0.00000000000E+00  0.58640013437E+01  0.59999509797E+01  0.12700000000E+01 0. -1.
          4   -1    0    0  501    0  0.00000000000E+00 -0.00000000000E+00 -0.65831128015E+03  0.65831250517E+03  0.12700000000E+01 0. -1.
         25    2    1    2    0    0  0.00000000000E+00  0.00000000000E+00 -0.65244727880E+03  0.66431245615E+03  0.12499435101E+03 0.  0.
    9000005    1    3    3    0    0 -0.54063861950E+02  0.28931584598E+02 -0.26223470382E+03  0.26931018852E+03  0.10000000000E+01 0.  0.
    9000005    1    3    3    0    0  0.54063861950E+02 -0.28931584598E+02 -0.39021257499E+03  0.39500226763E+03  0.10000000000E+01 0.  0.
<mgrwt>
<rscale>  0 0.12499435E+03</rscale>
<asrwt>0</asrwt>
<pdfrwt beam="2">  1        4 0.10128915E+00 0.12499435E+03</pdfrwt>
<pdfrwt beam="1">  1       -4 0.91270647E-03 0.12499435E+03</pdfrwt>
<totfact> 0.45044239E+03</totfact>
</mgrwt>
</event>
<event>
 5    1  0.3308162E-002  0.1250014E+03  0.7818608E-02  0.1235067E+00
         -4   -1    0    0    0  501 -0.00000000000E+00  0.00000000000E+00  0.26203516839E+01  0.29118967954E+01  0.12700000000E+01 0. -1.
          4   -1    0    0  501    0  0.00000000000E+00 -0.00000000000E+00 -0.14119136520E+04  0.14119142232E+04  0.12700000000E+01 0. -1.
         25    2    1    2    0    0  0.00000000000E+00  0.00000000000E+00 -0.14092933004E+04  0.14148261200E+04  0.12500137373E+03 0.  0.
    9000005    1    3    3    0    0  0.35986222323E+02 -0.78289372654E+00 -0.12643771001E+03  0.13146526398E+03  0.10000000000E+01 0.  0.
    9000005    1    3    3    0    0 -0.35986222323E+02  0.78289372654E+00 -0.12828555903E+04  0.12833608560E+04  0.10000000000E+01 0.  0.
<mgrwt>
<rscale>  0 0.12500137E+03</rscale>
<asrwt>0</asrwt>
<pdfrwt beam="2">  1        4 0.21723938E+00 0.12500137E+03</pdfrwt>
<pdfrwt beam="1">  1       -4 0.42560264E-03 0.12500137E+03</pdfrwt>
<totfact> 0.19664472E+03</totfact>
</mgrwt>
</event>
<event>
 5    1  0.3308162E-002  0.1250003E+03  0.7818608E-02  0.1235069E+00
         -4   -1    0    0    0  501 -0.00000000000E+00  0.00000000000E+00  0.38703712893E+02  0.38724543789E+02  0.12700000000E+01 0. -1.
          4   -1    0    0  501    0  0.00000000000E+00 -0.00000000000E+00 -0.10087550438E+03  0.10088349857E+03  0.12700000000E+01 0. -1.
         25    2    1    2    0    0  0.00000000000E+00  0.00000000000E+00 -0.62171791488E+02  0.13960804236E+03  0.12500029534E+03 0.  0.
    9000005    1    3    3    0    0  0.33642943943E+02  0.22216123011E+02  0.22241936667E+02  0.46055483338E+02  0.10000000000E+01 0.  0.
    9000005    1    3    3    0    0 -0.33642943943E+02 -0.22216123011E+02 -0.84413728156E+02  0.93552559024E+02  0.10000000000E+01 0.  0.
<mgrwt>
<rscale>  0 0.12500030E+03</rscale>
<asrwt>0</asrwt>
<pdfrwt beam="2">  1        4 0.15521526E-01 0.12500030E+03</pdfrwt>
<pdfrwt beam="1">  1       -4 0.59566347E-02 0.12500030E+03</pdfrwt>
<totfact> 0.10141648E+04</totfact>
</mgrwt>
</event>
<event>
 5    1  0.3308162E-002  0.1250141E+03  0.7818608E-02  0.1235047E+00
         -4   -1    0    0    0  501 -0.00000000000E+00  0.00000000000E+00  0.11761681391E+04  0.11761688248E+04  0.12700000000E+01 0. -1.
          4   -1    0    0  501    0  0.00000000000E+00 -0.00000000000E+00 -0.31998219094E+01  0.34426385596E+01  0.12700000000E+01 0. -1.
         25    2    1    2    0    0  0.00000000000E+00  0.00000000000E+00  0.11729683172E+04  0.11796114633E+04  0.12501412424E+03 0.  0.
    9000005    1    3    3    0    0  0.31187730668E+02 -0.54159748199E+02  0.58248148265E+03  0.58582559734E+03  0.10000000000E+01 0.  0.
    9000005    1    3    3    0    0 -0.31187730668E+02  0.54159748199E+02  0.59048683457E+03  0.59378586600E+03  0.10000000000E+01 0.  0.
<mgrwt>
<rscale>  0 0.12501412E+03</rscale>
<asrwt>0</asrwt>
<pdfrwt beam="2">  1        4 0.51101183E-03 0.12501412E+03</pdfrwt>
<pdfrwt beam="1">  1       -4 0.18096747E+00 0.12501412E+03</pdfrwt>
<totfact> 0.25244999E+03</totfact>
</mgrwt>
</event>
<event>
 5    1  0.3308162E-002  0.1250115E+03  0.7818608E-02  0.1235051E+00
          4   -1    0    0  501    0  0.00000000000E+00  0.00000000000E+00  0.12492158239E+02  0.12556548788E+02  0.12700000000E+01 0. -1.
         -4   -1    0    0    0  501 -0.00000000000E+00 -0.00000000000E+00 -0.31188398596E+03  0.31188657169E+03  0.12700000000E+01 0. -1.
         25    2    1    2    0    0  0.00000000000E+00  0.00000000000E+00 -0.29939182772E+03  0.32444312047E+03  0.12501148714E+03 0.  0.
    9000005    1    3    3    0    0 -0.20752500733E+02  0.54165259214E+02 -0.89306841705E+02  0.10649532181E+03  0.10000000000E+01 0.  0.
    9000005    1    3    3    0    0  0.20752500733E+02 -0.54165259214E+02 -0.21008498602E+03  0.21794779866E+03  0.10000000000E+01 0.  0.
<mgrwt>
<rscale>  0 0.12501149E+03</rscale>
<asrwt>0</asrwt>
<pdfrwt beam="1">  1        4 0.19270228E-02 0.12501149E+03</pdfrwt>
<pdfrwt beam="2">  1       -4 0.47987298E-01 0.12501149E+03</pdfrwt>
<totfact> 0.72612289E+03</totfact>
</mgrwt>
</event>
<event>
 5    1  0.3308162E-002  0.1250007E+03  0.7818608E-02  0.1235068E+00
          4   -1    0    0  501    0  0.00000000000E+00  0.00000000000E+00  0.85346625833E+01  0.86286363587E+01  0.12700000000E+01 0. -1.
         -4   -1    0    0    0  501 -0.00000000000E+00 -0.00000000000E+00 -0.45509692726E+03  0.45509869930E+03  0.12700000000E+01 0. -1.
         25    2    1    2    0    0  0.00000000000E+00  0.00000000000E+00 -0.44656226468E+03  0.46372733566E+03  0.12500074240E+03 0.  0.
    9000005    1    3    3    0    0  0.48399899906E+02  0.33436120844E+02 -0.30151931998E+03  0.30720583459E+03  0.10000000000E+01 0.  0.
    9000005    1    3    3    0    0 -0.48399899906E+02 -0.33436120844E+02 -0.14504294470E+03  0.15652150107E+03  0.10000000000E+01 0.  0.
<mgrwt>
<rscale>  0 0.12500074E+03</rscale>
<asrwt>0</asrwt>
<pdfrwt beam="1">  1        4 0.13203904E-02 0.12500074E+03</pdfrwt>
<pdfrwt beam="2">  1       -4 0.70022258E-01 0.12500074E+03</pdfrwt>
<totfact> 0.58791821E+03</totfact>
</mgrwt>
</event>
<event>
 5    1  0.3308162E-002  0.1250062E+03  0.7818608E-02  0.1235060E+00
         -4   -1    0    0    0  501 -0.00000000000E+00  0.00000000000E+00  0.12035725280E+02  0.12102544485E+02  0.12700000000E+01 0.  1.
          4   -1    0    0  501    0  0.00000000000E+00 -0.00000000000E+00 -0.32362001712E+03  0.32362250908E+03  0.12700000000E+01 0.  1.
         25    2    1    2    0    0  0.00000000000E+00  0.00000000000E+00 -0.31158429184E+03  0.33572505357E+03  0.12500616252E+03 0.  0.
    9000005    1    3    3    0    0  0.50128501914E+02  0.35298827160E+02 -0.12325660362E+03  0.13766649643E+03  0.10000000000E+01 0.  0.
    9000005    1    3    3    0    0 -0.50128501914E+02 -0.35298827160E+02 -0.18832768823E+03  0.19805855714E+03  0.10000000000E+01 0.  0.
<mgrwt>
<rscale>  0 0.12500616E+03</rscale>
<asrwt>0</asrwt>
<pdfrwt beam="2">  1        4 0.49793020E-01 0.12500616E+03</pdfrwt>
<pdfrwt beam="1">  1       -4 0.18569819E-02 0.12500616E+03</pdfrwt>
<totfact> 0.71314331E+03</totfact>
</mgrwt>
</event>
<event>
 4    1  0.3308162E-002  0.1249193E+03  0.7818608E-02  0.1235195E+00
         -4   -1    0    0    0  501 -0.00000000000E+00  0.00000000000E+00  0.55940655472E+01  0.57364160716E+01  0.12700000000E+01 0.  1.
          4   -1    0    0  501    0  0.00000000000E+00 -0.00000000000E+00 -0.68847930574E+03  0.68848047709E+03  0.12700000000E+01 0.  1.
    9000005    1    1    2    0    0 -0.35581354799E-02 -0.62443549406E+02 -0.34703869001E+03  0.35261317224E+03  0.10000000000E+01 0.  0.
    9000005    1    1    2    0    0  0.35581354799E-02  0.62443549406E+02 -0.33584655019E+03  0.34160372092E+03  0.10000000000E+01 0.  0.
<mgrwt>
<rscale>  0 0.12491935E+03</rscale>
<asrwt>0</asrwt>
<pdfrwt beam="2">  1        4 0.10593087E+00 0.12491935E+03</pdfrwt>
<pdfrwt beam="1">  1       -4 0.87166616E-03 0.12491935E+03</pdfrwt>
<totfact> 0.43470423E+03</totfact>
</mgrwt>
</event>
<event>
 5    1  0.3308162E-002  0.1249973E+03  0.7818608E-02  0.1235073E+00
          4   -1    0    0  501    0  0.00000000000E+00  0.00000000000E+00  0.12707681571E+03  0.12708316171E+03  0.12700000000E+01 0.  1.
         -4   -1    0    0    0  501 -0.00000000000E+00 -0.00000000000E+00 -0.30717724198E+02  0.30743966561E+02  0.12700000000E+01 0.  1.
         25    2    1    2    0    0  0.00000000000E+00  0.00000000000E+00  0.96359091510E+02  0.15782712827E+03  0.12499731158E+03 0.  0.
    9000005    1    3    3    0    0  0.37619128043E+02 -0.45854500945E+02  0.23332455868E+02  0.63743529463E+02  0.10000000000E+01 0.  0.
    9000005    1    3    3    0    0 -0.37619128043E+02  0.45854500945E+02  0.73026635642E+02  0.94083598809E+02  0.10000000000E+01 0.  0.
<mgrwt>
<rscale>  0 0.12499731E+03</rscale>
<asrwt>0</asrwt>
<pdfrwt beam="1">  1        4 0.19552787E-01 0.12499731E+03</pdfrwt>
<pdfrwt beam="2">  1       -4 0.47283104E-02 0.12499731E+03</pdfrwt>
<totfact> 0.97769249E+03</totfact>
</mgrwt>
</event>
<event>
 5    1  0.3308162E-002  0.1250002E+03  0.7818608E-02  0.1235069E+00
         -4   -1    0    0    0  501 -0.00000000000E+00  0.00000000000E+00  0.39318571569E+03  0.39318776675E+03  0.12700000000E+01 0. -1.
          4   -1    0    0  501    0  0.00000000000E+00 -0.00000000000E+00 -0.98922262017E+01  0.99734166275E+01  0.12700000000E+01 0. -1.
         25    2    1    2    0    0  0.00000000000E+00  0.00000000000E+00  0.38329348948E+03  0.40316118337E+03  0.12500016280E+03 0.  0.
    9000005    1    3    3    0    0 -0.16125367745E+02 -0.21280524201E+02  0.94146456353E+01  0.28328850093E+02  0.10000000000E+01 0.  0.
    9000005    1    3    3    0    0  0.16125367745E+02  0.21280524201E+02  0.37387884385E+03  0.37483233328E+03  0.10000000000E+01 0.  0.
<mgrwt>
<rscale>  0 0.12500016E+03</rscale>
<asrwt>0</asrwt>
<pdfrwt beam="2">  1        4 0.15282845E-02 0.12500016E+03</pdfrwt>
<pdfrwt beam="1">  1       -4 0.60496498E-01 0.12500016E+03</pdfrwt>
<totfact> 0.64246270E+03</totfact>
</mgrwt>
</event>
<event>
 5    1  0.3308162E-002  0.1250004E+03  0.7818608E-02  0.1235069E+00
          4   -1    0    0  501    0  0.00000000000E+00  0.00000000000E+00  0.15620160582E+03  0.15620676862E+03  0.12700000000E+01 0.  1.
         -4   -1    0    0    0  501 -0.00000000000E+00 -0.00000000000E+00 -0.24986194790E+02  0.25018449794E+02  0.12700000000E+01 0.  1.
         25    2    1    2    0    0  0.00000000000E+00  0.00000000000E+00  0.13121541103E+03  0.18122521841E+03  0.12500038278E+03 0.  0.
    9000005    1    3    3    0    0 -0.26347837401E+02  0.37807826006E+02  0.12680278399E+03  0.13492066658E+03  0.10000000000E+01 0.  0.
    9000005    1    3    3    0    0  0.26347837401E+02 -0.37807826006E+02  0.44126270473E+01  0.46304551834E+02  0.10000000000E+01 0.  0.
<mgrwt>
<rscale>  0 0.12500038E+03</rscale>
<asrwt>0</asrwt>
<pdfrwt beam="1">  1        4 0.24033895E-01 0.12500038E+03</pdfrwt>
<pdfrwt beam="2">  1       -4 0.38469083E-02 0.12500038E+03</pdfrwt>
<totfact> 0.93396122E+03</totfact>
</mgrwt>
</event>
<event>
 5    1  0.3308162E-002  0.1249980E+03  0.7818608E-02  0.1235072E+00
         -4   -1    0    0    0  501 -0.00000000000E+00  0.00000000000E+00  0.61631891981E+02  0.61644975539E+02  0.12700000000E+01 0. -1.
          4   -1    0    0  501    0  0.00000000000E+00 -0.00000000000E+00 -0.63352091989E+02  0.63364820361E+02  0.12700000000E+01 0. -1.
         25    2    1    2    0    0  0.00000000000E+00  0.00000000000E+00 -0.17202000082E+01  0.12500979590E+03  0.12499795991E+03 0.  0.
    9000005    1    3    3    0    0 -0.42529075572E+02 -0.40890366675E+02  0.19742290924E+02  0.62221398303E+02  0.10000000000E+01 0.  0.
    9000005    1    3    3    0    0  0.42529075572E+02  0.40890366675E+02 -0.21462490932E+02  0.62788397597E+02  0.10000000000E+01 0.  0.
<mgrwt>
<rscale>  0 0.12499796E+03</rscale>
<asrwt>0</asrwt>
<pdfrwt beam="2">  1        4 0.97484612E-02 0.12499796E+03</pdfrwt>
<pdfrwt beam="1">  1       -4 0.94838151E-02 0.12499796E+03</pdfrwt>
<totfact> 0.10453132E+04</totfact>
</mgrwt>
</event>
<event>
 5    1  0.3308162E-002  0.1250006E+03  0.7818608E-02  0.1235068E+00
         -4   -1    0    0    0  501 -0.00000000000E+00  0.00000000000E+00  0.67416124520E+03  0.67416244142E+03  0.12700000000E+01 0. -1.
          4   -1    0    0  501    0  0.00000000000E+00 -0.00000000000E+00 -0.57234901480E+01  0.58626989923E+01  0.12700000000E+01 0. -1.
         25    2    1    2    0    0  0.00000000000E+00  0.00000000000E+00  0.66843775505E+03  0.68002514042E+03  0.12500063689E+03 0.  0.
    9000005    1    3    3    0    0 -0.16040256536E+02  0.49017933280E+02  0.52619165874E+03  0.52871420383E+03  0.10000000000E+01 0.  0.
    9000005    1    3    3    0    0  0.16040256536E+02 -0.49017933280E+02  0.14224609631E+03  0.15131093658E+03  0.10000000000E+01 0.  0.
<mgrwt>
<rscale>  0 0.12500064E+03</rscale>
<asrwt>0</asrwt>
<pdfrwt beam="2">  1        4 0.89133803E-03 0.12500064E+03</pdfrwt>
<pdfrwt beam="1">  1       -4 0.10372783E+00 0.12500064E+03</pdfrwt>
<totfact> 0.44161740E+03</totfact>
</mgrwt>
</event>
<event>
 5    1  0.3308162E-002  0.1249992E+03  0.7818608E-02  0.1235071E+00
         -4   -1    0    0    0  501 -0.00000000000E+00  0.00000000000E+00  0.55057864872E+01  0.56503614789E+01  0.12700000000E+01 0. -1.
          4   -1    0    0  501    0  0.00000000000E+00 -0.00000000000E+00 -0.70013223737E+03  0.70013338922E+03  0.12700000000E+01 0. -1.
         25    2    1    2    0    0  0.00000000000E+00  0.00000000000E+00 -0.69462645088E+03  0.70578375070E+03  0.12499918595E+03 0.  0.
    9000005    1    3    3    0    0  0.11276296531E+02 -0.74206461521E+00 -0.28376965086E+00  0.11348394096E+02  0.10000000000E+01 0.  0.
    9000005    1    3    3    0    0 -0.11276296531E+02  0.74206461521E+00 -0.69434268123E+03  0.69443535661E+03  0.10000000000E+01 0.  0.
<mgrwt>
<rscale>  0 0.12499919E+03</rscale>
<asrwt>0</asrwt>
<pdfrwt beam="2">  1        4 0.10772379E+00 0.12499919E+03</pdfrwt>
<pdfrwt beam="1">  1       -4 0.85825438E-03 0.12499919E+03</pdfrwt>
<totfact> 0.42783917E+03</totfact>
</mgrwt>
</event>
<event>
 5    1  0.3308162E-002  0.1249978E+03  0.7818608E-02  0.1235073E+00
         -4   -1    0    0    0  501 -0.00000000000E+00  0.00000000000E+00  0.19587459992E+02  0.19628588562E+02  0.12700000000E+01 0. -1.
          4   -1    0    0  501    0  0.00000000000E+00 -0.00000000000E+00 -0.19916677954E+03  0.19917082862E+03  0.12700000000E+01 0. -1.
         25    2    1    2    0    0  0.00000000000E+00  0.00000000000E+00 -0.17957931955E+03  0.21879941718E+03  0.12499781178E+03 0.  0.
    9000005    1    3    3    0    0 -0.55534632800E+02 -0.18659274406E+02 -0.51726475754E+02  0.78159402861E+02  0.10000000000E+01 0.  0.
    9000005    1    3    3    0    0  0.55534632800E+02  0.18659274406E+02 -0.12785284380E+03  0.14064001432E+03  0.10000000000E+01 0.  0.
<mgrwt>
<rscale>  0 0.12499781E+03</rscale>
<asrwt>0</asrwt>
<pdfrwt beam="2">  1        4 0.30644517E-01 0.12499781E+03</pdfrwt>
<pdfrwt beam="1">  1       -4 0.30169307E-02 0.12499781E+03</pdfrwt>
<totfact> 0.87062940E+03</totfact>
</mgrwt>
</event>
<event>
 5    1  0.3308162E-002  0.1250011E+03  0.7818608E-02  0.1235068E+00
         -4   -1    0    0    0  501 -0.00000000000E+00  0.00000000000E+00  0.13833999238E+03  0.13834582173E+03  0.12700000000E+01 0.  1.
          4   -1    0    0  501    0  0.00000000000E+00 -0.00000000000E+00 -0.28216361295E+02  0.28244927770E+02  0.12700000000E+01 0.  1.
         25    2    1    2    0    0  0.00000000000E+00  0.00000000000E+00  0.11012363108E+03  0.16659074950E+03  0.12500105478E+03 0.  0.
    9000005    1    3    3    0    0 -0.45581856131E+02 -0.91570349697E+01 -0.59014118846E+00  0.46507044245E+02  0.10000000000E+01 0.  0.
    9000005    1    3    3    0    0  0.45581856131E+02  0.91570349697E+01  0.11071377227E+03  0.12008370526E+03  0.10000000000E+01 0.  0.
<mgrwt>
<rscale>  0 0.12500105E+03</rscale>
<asrwt>0</asrwt>
<pdfrwt beam="2">  1        4 0.43436245E-02 0.12500105E+03</pdfrwt>
<pdfrwt beam="1">  1       -4 0.21285722E-01 0.12500105E+03</pdfrwt>
<totfact> 0.96084699E+03</totfact>
</mgrwt>
</event>
<event>
 5    1  0.3308162E-002  0.1249994E+03  0.7818608E-02  0.1235070E+00
         -4   -1    0    0    0  501 -0.00000000000E+00  0.00000000000E+00  0.81186018114E+01  0.82173350529E+01  0.12700000000E+01 0. -1.
          4   -1    0    0  501    0  0.00000000000E+00 -0.00000000000E+00 -0.47813611305E+03  0.47813779970E+03  0.12700000000E+01 0. -1.
         25    2    1    2    0    0  0.00000000000E+00  0.00000000000E+00 -0.47001751124E+03  0.48635513476E+03  0.12499942492E+03 0.  0.
    9000005    1    3    3    0    0 -0.17563861121E+02 -0.21135955993E+02 -0.16634968619E+02  0.32139384471E+02  0.10000000000E+01 0.  0.
    9000005    1    3    3    0    0  0.17563861121E+02  0.21135955993E+02 -0.45338254262E+03  0.45421575029E+03  0.10000000000E+01 0.  0.
<mgrwt>
<rscale>  0 0.12499942E+03</rscale>
<asrwt>0</asrwt>
<pdfrwt beam="2">  1        4 0.73567105E-01 0.12499942E+03</pdfrwt>
<pdfrwt beam="1">  1       -4 0.12567406E-02 0.12499942E+03</pdfrwt>
<totfact> 0.56939532E+03</totfact>
</mgrwt>
</event>
<event>
 5    1  0.3308162E-002  0.1250035E+03  0.7818608E-02  0.1235064E+00
         -4   -1    0    0    0  501 -0.00000000000E+00  0.00000000000E+00  0.17404695811E+03  0.17405159157E+03  0.12700000000E+01 0.  1.
          4   -1    0    0  501    0  0.00000000000E+00 -0.00000000000E+00 -0.22421994807E+02  0.22457932922E+02  0.12700000000E+01 0.  1.
         25    2    1    2    0    0  0.00000000000E+00  0.00000000000E+00  0.15162496330E+03  0.19650952449E+03  0.12500345482E+03 0.  0.
    9000005    1    3    3    0    0  0.38262997274E+00  0.38566072163E+02  0.15311394679E+03  0.15789987026E+03  0.10000000000E+01 0.  0.
    9000005    1    3    3    0    0 -0.38262997274E+00 -0.38566072163E+02 -0.14889834846E+01  0.38609654228E+02  0.10000000000E+01 0.  0.
<mgrwt>
<rscale>  0 0.12500345E+03</rscale>
<asrwt>0</asrwt>
<pdfrwt beam="2">  1        4 0.34526587E-02 0.12500345E+03</pdfrwt>
<pdfrwt beam="1">  1       -4 0.26779575E-01 0.12500345E+03</pdfrwt>
<totfact> 0.90719836E+03</totfact>
</mgrwt>
</event>
<event>
 5    1  0.3308162E-002  0.1249971E+03  0.7818608E-02  0.1235074E+00
          4   -1    0    0  501    0  0.00000000000E+00  0.00000000000E+00  0.31330469726E+03  0.31330727126E+03  0.12700000000E+01 0.  1.
         -4   -1    0    0    0  501 -0.00000000000E+00 -0.00000000000E+00 -0.12432345015E+02  0.12497043753E+02  0.12700000000E+01 0.  1.
         25    2    1    2    0    0  0.00000000000E+00  0.00000000000E+00  0.30087235225E+03  0.32580431502E+03  0.12499711731E+03 0.  0.
    9000005    1    3    3    0    0  0.32726710008E+02 -0.67647661063E+01  0.12802640941E+02  0.35800938864E+02  0.10000000000E+01 0.  0.
    9000005    1    3    3    0    0 -0.32726710008E+02  0.67647661063E+01  0.28806971131E+03  0.29000337615E+03  0.10000000000E+01 0.  0.
<mgrwt>
<rscale>  0 0.12499712E+03</rscale>
<asrwt>0</asrwt>
<pdfrwt beam="1">  1        4 0.48205899E-01 0.12499712E+03</pdfrwt>
<pdfrwt beam="2">  1       -4 0.19178432E-02 0.12499712E+03</pdfrwt>
<totfact> 0.72475683E+03</totfact>
</mgrwt>
</event>
<event>
 4    1  0.3308162E-002  0.1248693E+03  0.7818608E-02  0.1235274E+00
          4   -1    0    0  501    0  0.00000000000E+00  0.00000000000E+00  0.25773332817E+02  0.25804603940E+02  0.12700000000E+01 0. -1.
         -4   -1    0    0    0  501 -0.00000000000E+00 -0.00000000000E+00 -0.15111918612E+03  0.15112452254E+03  0.12700000000E+01 0. -1.
    9000005    1    1    2    0    0 -0.15368379669E+02 -0.52005276815E+02 -0.10649083107E+03  0.11950746007E+03  0.10000000000E+01 0.  0.
    9000005    1    1    2    0    0  0.15368379669E+02  0.52005276815E+02 -0.18855022235E+02  0.57421666414E+02  0.10000000000E+01 0.  0.
<mgrwt>
<rscale>  0 0.12486926E+03</rscale>
<asrwt>0</asrwt>
<pdfrwt beam="1">  1        4 0.39679442E-02 0.12486926E+03</pdfrwt>
<pdfrwt beam="2">  1       -4 0.23251921E-01 0.12486926E+03</pdfrwt>
<totfact> 0.94449383E+03</totfact>
</mgrwt>
</event>
<event>
 5    1  0.3308162E-002  0.1249945E+03  0.7818608E-02  0.1235078E+00
          4   -1    0    0  501    0  0.00000000000E+00  0.00000000000E+00  0.11770625323E+03  0.11771310441E+03  0.12700000000E+01 0. -1.
         -4   -1    0    0    0  501 -0.00000000000E+00 -0.00000000000E+00 -0.33163552024E+02  0.33187860474E+02  0.12700000000E+01 0. -1.
         25    2    1    2    0    0  0.00000000000E+00  0.00000000000E+00  0.84542701210E+02  0.15090096489E+03  0.12499453138E+03 0.  0.
    9000005    1    3    3    0    0  0.45333198159E+02  0.21218623476E+02 -0.28934161751E+01  0.50146791470E+02  0.10000000000E+01 0.  0.
    9000005    1    3    3    0    0 -0.45333198159E+02 -0.21218623476E+02  0.87436117385E+02  0.10075417342E+03  0.10000000000E+01 0.  0.
<mgrwt>
<rscale>  0 0.12499453E+03</rscale>
<asrwt>0</asrwt>
<pdfrwt beam="1">  1        4 0.18111051E-01 0.12499453E+03</pdfrwt>
<pdfrwt beam="2">  1       -4 0.51044818E-02 0.12499453E+03</pdfrwt>
<totfact> 0.99136606E+03</totfact>
</mgrwt>
</event>
<event>
 5    1  0.3308162E-002  0.1249990E+03  0.7818608E-02  0.1235071E+00
          4   -1    0    0  501    0  0.00000000000E+00  0.00000000000E+00  0.14234144485E+03  0.14234711034E+03  0.12700000000E+01 0. -1.
         -4   -1    0    0    0  501 -0.00000000000E+00 -0.00000000000E+00 -0.27421473789E+02  0.27450867468E+02  0.12700000000E+01 0. -1.
         25    2    1    2    0    0  0.00000000000E+00  0.00000000000E+00  0.11491997106E+03  0.16979797781E+03  0.12499901407E+03 0.  0.
    9000005    1    3    3    0    0  0.15415472670E+02  0.44730275817E+02  0.20023077345E+01  0.47365004049E+02  0.10000000000E+01 0.  0.
    9000005    1    3    3    0    0 -0.15415472670E+02 -0.44730275817E+02  0.11291766333E+03  0.12243297376E+03  0.10000000000E+01 0.  0.
<mgrwt>
<rscale>  0 0.12499901E+03</rscale>
<asrwt>0</asrwt>
<pdfrwt beam="1">  1        4 0.21901381E-01 0.12499901E+03</pdfrwt>
<pdfrwt beam="2">  1       -4 0.42213851E-02 0.12499901E+03</pdfrwt>
<totfact> 0.95488416E+03</totfact>
</mgrwt>
</event>
<event>
 5    1  0.3308162E-002  0.1250255E+03  0.7818608E-02  0.1235030E+00
          4   -1    0    0  501    0  0.00000000000E+00  0.00000000000E+00  0.21979728510E+03  0.21980095414E+03  0.12700000000E+01 0.  1.
         -4   -1    0    0    0  501 -0.00000000000E+00 -0.00000000000E+00 -0.17752793485E+02  0.17798162167E+02  0.12700000000E+01 0.  1.
         25    2    1    2    0    0  0.00000000000E+00  0.00000000000E+00  0.20204449162E+03  0.23759911630E+03  0.12502545131E+03 0.  0.
    9000005    1    3    3    0    0 -0.15347074648E+02 -0.57966348586E+02  0.13454761589E+03  0.14730815052E+03  0.10000000000E+01 0.  0.
    9000005    1    3    3    0    0  0.15347074648E+02  0.57966348586E+02  0.67496875733E+02  0.90290965785E+02  0.10000000000E+01 0.  0.
<mgrwt>
<rscale>  0 0.12502545E+03</rscale>
<asrwt>0</asrwt>
<pdfrwt beam="1">  1        4 0.33818739E-01 0.12502545E+03</pdfrwt>
<pdfrwt beam="2">  1       -4 0.27349711E-02 0.12502545E+03</pdfrwt>
<totfact> 0.84108498E+03</totfact>
</mgrwt>
</event>
<event>
 5    1  0.3308162E-002  0.1250004E+03  0.7818608E-02  0.1235069E+00
         -4   -1    0    0    0  501 -0.00000000000E+00  0.00000000000E+00  0.25843131687E+01  0.28795094294E+01  0.12700000000E+01 0. -1.
          4   -1    0    0  501    0  0.00000000000E+00 -0.00000000000E+00 -0.14295725392E+04  0.14295731034E+04  0.12700000000E+01 0. -1.
         25    2    1    2    0    0  0.00000000000E+00  0.00000000000E+00 -0.14269882261E+04  0.14324526128E+04  0.12500036216E+03 0.  0.
    9000005    1    3    3    0    0  0.13647945620E+02 -0.23191167082E+02 -0.13598368013E+04  0.13601033868E+04  0.10000000000E+01 0.  0.
    9000005    1    3    3    0    0 -0.13647945620E+02  0.23191167082E+02 -0.67151424746E+02  0.72349225950E+02  0.10000000000E+01 0.  0.
<mgrwt>
<rscale>  0 0.12500036E+03</rscale>
<asrwt>0</asrwt>
<pdfrwt beam="2">  1        4 0.21995639E+00 0.12500036E+03</pdfrwt>
<pdfrwt beam="1">  1       -4 0.42033858E-03 0.12500036E+03</pdfrwt>
<totfact> 0.19294973E+03</totfact>
</mgrwt>
</event>
<event>
 5    1  0.3308162E-002  0.1250016E+03  0.7818608E-02  0.1235067E+00
          4   -1    0    0  501    0  0.00000000000E+00  0.00000000000E+00  0.26121331479E+01  0.29045033280E+01  0.12700000000E+01 0. -1.
         -4   -1    0    0    0  501 -0.00000000000E+00 -0.00000000000E+00 -0.14159155259E+04  0.14159160954E+04  0.12700000000E+01 0. -1.
         25    2    1    2    0    0  0.00000000000E+00  0.00000000000E+00 -0.14133033927E+04  0.14188205987E+04  0.12500164632E+03 0.  0.
    9000005    1    3    3    0    0  0.57108932368E+02 -0.19927999038E+02 -0.88496437025E+03  0.88702958908E+03  0.10000000000E+01 0.  0.
    9000005    1    3    3    0    0 -0.57108932368E+02  0.19927999038E+02 -0.52833902246E+03  0.53179100966E+03  0.10000000000E+01 0.  0.
<mgrwt>
<rscale>  0 0.12500165E+03</rscale>
<asrwt>0</asrwt>
<pdfrwt beam="1">  1        4 0.42440160E-03 0.12500165E+03</pdfrwt>
<pdfrwt beam="2">  1       -4 0.21785511E+00 0.12500165E+03</pdfrwt>
<totfact> 0.19579988E+03</totfact>
</mgrwt>
</event>
<event>
 5    1  0.3308162E-002  0.1249964E+03  0.7818608E-02  0.1235075E+00
          4   -1    0    0  501    0  0.00000000000E+00  0.00000000000E+00  0.29695422419E+01  0.32297184284E+01  0.12700000000E+01 0.  1.
         -4   -1    0    0    0  501 -0.00000000000E+00 -0.00000000000E+00 -0.12598969622E+04  0.12598976023E+04  0.12700000000E+01 0.  1.
         25    2    1    2    0    0  0.00000000000E+00  0.00000000000E+00 -0.12569274200E+04  0.12631273207E+04  0.12499635718E+03 0.  0.
    9000005    1    3    3    0    0 -0.10540853040E+02  0.60280553979E+02 -0.75635384527E+03  0.75882606309E+03  0.10000000000E+01 0.  0.
    9000005    1    3    3    0    0  0.10540853040E+02 -0.60280553979E+02 -0.50057357470E+03  0.50430125764E+03  0.10000000000E+01 0.  0.
<mgrwt>
<rscale>  0 0.12499636E+03</rscale>
<asrwt>0</asrwt>
<pdfrwt beam="1">  1        4 0.47691645E-03 0.12499636E+03</pdfrwt>
<pdfrwt beam="2">  1       -4 0.19384996E+00 0.12499636E+03</pdfrwt>
<totfact> 0.23117750E+03</totfact>
</mgrwt>
</event>
<event>
 5    1  0.3308162E-002  0.1250012E+03  0.7818608E-02  0.1235067E+00
          4   -1    0    0  501    0  0.00000000000E+00  0.00000000000E+00  0.62931170092E+02  0.62943983582E+02  0.12700000000E+01 0.  1.
         -4   -1    0    0    0  501 -0.00000000000E+00 -0.00000000000E+00 -0.62047353319E+02  0.62060349289E+02  0.12700000000E+01 0.  1.
         25    2    1    2    0    0  0.00000000000E+00  0.00000000000E+00  0.88381677330E+00  0.12500433287E+03  0.12500120841E+03 0.  0.
    9000005    1    3    3    0    0  0.60670497918E+02  0.12880200824E+02 -0.72078994889E+01  0.62448080082E+02  0.10000000000E+01 0.  0.
    9000005    1    3    3    0    0 -0.60670497918E+02 -0.12880200824E+02  0.80917162622E+01  0.62556252789E+02  0.10000000000E+01 0.  0.
<mgrwt>
<rscale>  0 0.12500121E+03</rscale>
<asrwt>0</asrwt>
<pdfrwt beam="1">  1        4 0.96837038E-02 0.12500121E+03</pdfrwt>
<pdfrwt beam="2">  1       -4 0.95477320E-02 0.12500121E+03</pdfrwt>
<totfact> 0.10452483E+04</totfact>
</mgrwt>
</event>
<event>
 5    1  0.3308162E-002  0.1249967E+03  0.7818608E-02  0.1235075E+00
          4   -1    0    0  501    0  0.00000000000E+00  0.00000000000E+00  0.18104953947E+02  0.18149442345E+02  0.12700000000E+01 0. -1.
         -4   -1    0    0    0  501 -0.00000000000E+00 -0.00000000000E+00 -0.21543319627E+03  0.21543693962E+03  0.12700000000E+01 0. -1.
         25    2    1    2    0    0  0.00000000000E+00  0.00000000000E+00 -0.19732824232E+03  0.23358638197E+03  0.12499665045E+03 0.  0.
    9000005    1    3    3    0    0 -0.26639839002E+02  0.56260414364E+02 -0.10892100940E+03  0.12545796721E+03  0.10000000000E+01 0.  0.
    9000005    1    3    3    0    0  0.26639839002E+02 -0.56260414364E+02 -0.88407232916E+02  0.10812841476E+03  0.10000000000E+01 0.  0.
<mgrwt>
<rscale>  0 0.12499665E+03</rscale>
<asrwt>0</asrwt>
<pdfrwt beam="1">  1        4 0.27890878E-02 0.12499665E+03</pdfrwt>
<pdfrwt beam="2">  1       -4 0.33147277E-01 0.12499665E+03</pdfrwt>
<totfact> 0.84768264E+03</totfact>
</mgrwt>
</event>
<event>
 5    1  0.3308162E-002  0.1249896E+03  0.7818608E-02  0.1235086E+00
          4   -1    0    0  501    0  0.00000000000E+00  0.00000000000E+00  0.11290803758E+02  0.11362004643E+02  0.12700000000E+01 0. -1.
         -4   -1    0    0    0  501 -0.00000000000E+00 -0.00000000000E+00 -0.34475002629E+03  0.34475236552E+03  0.12700000000E+01 0. -1.
         25    2    1    2    0    0  0.00000000000E+00  0.00000000000E+00 -0.33345922253E+03  0.35611437016E+03  0.12498956573E+03 0.  0.
    9000005    1    3    3    0    0 -0.18742134314E+02 -0.57669935058E+02 -0.20970451505E+03  0.21829812789E+03  0.10000000000E+01 0.  0.
    9000005    1    3    3    0    0  0.18742134314E+02  0.57669935058E+02 -0.12375470748E+03  0.13781624227E+03  0.10000000000E+01 0.  0.
<mgrwt>
<rscale>  0 0.12498957E+03</rscale>
<asrwt>0</asrwt>
<pdfrwt beam="1">  1        4 0.17427039E-02 0.12498957E+03</pdfrwt>
<pdfrwt beam="2">  1       -4 0.53044115E-01 0.12498957E+03</pdfrwt>
<totfact> 0.69073044E+03</totfact>
</mgrwt>
</event>
<event>
 5    1  0.3308162E-002  0.1249548E+03  0.7818608E-02  0.1235140E+00
         -4   -1    0    0    0  501 -0.00000000000E+00  0.00000000000E+00  0.17994154331E+02  0.18038915990E+02  0.12700000000E+01 0. -1.
          4   -1    0    0  501    0  0.00000000000E+00 -0.00000000000E+00 -0.21661132149E+03  0.21661504448E+03  0.12700000000E+01 0. -1.
         25    2    1    2    0    0  0.00000000000E+00  0.00000000000E+00 -0.19861716715E+03  0.23465396047E+03  0.12495480014E+03 0.  0.
    9000005    1    3    3    0    0 -0.35451846421E+01 -0.27551856660E+02  0.57663935369E+01  0.28388808252E+02  0.10000000000E+01 0.  0.
    9000005    1    3    3    0    0  0.35451846421E+01  0.27551856660E+02 -0.20438356069E+03  0.20626515222E+03  0.10000000000E+01 0.  0.
<mgrwt>
<rscale>  0 0.12495480E+03</rscale>
<asrwt>0</asrwt>
<pdfrwt beam="2">  1        4 0.33328546E-01 0.12495480E+03</pdfrwt>
<pdfrwt beam="1">  1       -4 0.27720612E-02 0.12495480E+03</pdfrwt>
<totfact> 0.84685405E+03</totfact>
</mgrwt>
</event>
<event>
 5    1  0.3308162E-002  0.1250009E+03  0.7818608E-02  0.1235068E+00
         -4   -1    0    0    0  501 -0.00000000000E+00  0.00000000000E+00  0.35316903971E+01  0.37530969960E+01  0.12700000000E+01 0.  1.
          4   -1    0    0  501    0  0.00000000000E+00 -0.00000000000E+00 -0.10722340586E+04  0.10722348108E+04  0.12700000000E+01 0.  1.
         25    2    1    2    0    0  0.00000000000E+00  0.00000000000E+00 -0.10687023683E+04  0.10759879078E+04  0.12500090300E+03 0.  0.
    9000005    1    3    3    0    0 -0.32623122734E+02 -0.37665398135E+02 -0.20971389158E+03  0.21555478811E+03  0.10000000000E+01 0.  0.
    9000005    1    3    3    0    0  0.32623122734E+02  0.37665398135E+02 -0.85898847667E+03  0.86043311966E+03  0.10000000000E+01 0.  0.
<mgrwt>
<rscale>  0 0.12500090E+03</rscale>
<asrwt>0</asrwt>
<pdfrwt beam="2">  1        4 0.16497592E+00 0.12500090E+03</pdfrwt>
<pdfrwt beam="1">  1       -4 0.56042697E-03 0.12500090E+03</pdfrwt>
<totfact> 0.28196493E+03</totfact>
</mgrwt>
</event>
<event>
 5    1  0.3308162E-002  0.1250032E+03  0.7818608E-02  0.1235064E+00
          4   -1    0    0  501    0  0.00000000000E+00  0.00000000000E+00  0.24289501424E+02  0.24322680350E+02  0.12700000000E+01 0.  1.
         -4   -1    0    0    0  501 -0.00000000000E+00 -0.00000000000E+00 -0.16068326353E+03  0.16068828233E+03  0.12700000000E+01 0.  1.
         25    2    1    2    0    0  0.00000000000E+00  0.00000000000E+00 -0.13639376210E+03  0.18501096268E+03  0.12500319184E+03 0.  0.
    9000005    1    3    3    0    0 -0.24289631170E+02 -0.31142552034E+02 -0.13987783525E+03  0.14535010672E+03  0.10000000000E+01 0.  0.
    9000005    1    3    3    0    0  0.24289631170E+02  0.31142552034E+02  0.34840731468E+01  0.39660855957E+02  0.10000000000E+01 0.  0.
<mgrwt>
<rscale>  0 0.12500319E+03</rscale>
<asrwt>0</asrwt>
<pdfrwt beam="1">  1        4 0.37397848E-02 0.12500319E+03</pdfrwt>
<pdfrwt beam="2">  1       -4 0.24723440E-01 0.12500319E+03</pdfrwt>
<totfact> 0.92716079E+03</totfact>
</mgrwt>
</event>
<event>
 5    1  0.3308162E-002  0.1249990E+03  0.7818608E-02  0.1235071E+00
         -4   -1    0    0    0  501 -0.00000000000E+00  0.00000000000E+00  0.36644338577E+03  0.36644558651E+03  0.12700000000E+01 0.  1.
          4   -1    0    0  501    0  0.00000000000E+00 -0.00000000000E+00 -0.10619664464E+02  0.10695334185E+02  0.12700000000E+01 0.  1.
         25    2    1    2    0    0  0.00000000000E+00  0.00000000000E+00  0.35582372130E+03  0.37714092070E+03  0.12499901368E+03 0.  0.
    9000005    1    3    3    0    0  0.15870061497E+02 -0.56971813218E+02  0.23882111151E+03  0.24603692742E+03  0.10000000000E+01 0.  0.
    9000005    1    3    3    0    0 -0.15870061497E+02  0.56971813218E+02  0.11700260979E+03  0.13110399327E+03  0.10000000000E+01 0.  0.
<mgrwt>
<rscale>  0 0.12499901E+03</rscale>
<asrwt>0</asrwt>
<pdfrwt beam="2">  1        4 0.16397846E-02 0.12499901E+03</pdfrwt>
<pdfrwt beam="1">  1       -4 0.56381893E-01 0.12499901E+03</pdfrwt>
<totfact> 0.66839878E+03</totfact>
</mgrwt>
</event>
<event>
 5    1  0.3308162E-002  0.1250001E+03  0.7818608E-02  0.1235069E+00
          4   -1    0    0  501    0  0.00000000000E+00  0.00000000000E+00  0.96181763939E+02  0.96190148219E+02  0.12700000000E+01 0.  1.
         -4   -1    0    0    0  501 -0.00000000000E+00 -0.00000000000E+00 -0.40593162120E+02  0.40613023908E+02  0.12700000000E+01 0.  1.
         25    2    1    2    0    0  0.00000000000E+00  0.00000000000E+00  0.55588601819E+02  0.13680317213E+03  0.12500006101E+03 0.  0.
    9000005    1    3    3    0    0  0.13528631683E+01 -0.59722030529E+02  0.77121971845E+01  0.60241423910E+02  0.10000000000E+01 0.  0.
    9000005    1    3    3    0    0 -0.13528631683E+01  0.59722030529E+02  0.47876404634E+02  0.76561748217E+02  0.10000000000E+01 0.  0.
<mgrwt>
<rscale>  0 0.12500006E+03</rscale>
<asrwt>0</asrwt>
<pdfrwt beam="1">  1        4 0.14799367E-01 0.12500006E+03</pdfrwt>
<pdfrwt beam="2">  1       -4 0.62472746E-02 0.12500006E+03</pdfrwt>
<totfact> 0.10200189E+04</totfact>
</mgrwt>
</event>
<event>
 5    1  0.3308162E-002  0.1250032E+03  0.7818608E-02  0.1235064E+00
         -4   -1    0    0    0  501 -0.00000000000E+00  0.00000000000E+00  0.82285382519E+02  0.82295182582E+02  0.12700000000E+01 0.  1.
          4   -1    0    0  501    0  0.00000000000E+00 -0.00000000000E+00 -0.47453301335E+02  0.47470292896E+02  0.12700000000E+01 0.  1.
         25    2    1    2    0    0  0.00000000000E+00  0.00000000000E+00  0.34832081183E+02  0.12976547548E+03  0.12500321894E+03 0.  0.
    9000005    1    3    3    0    0  0.13216527711E+02  0.60597452889E+02  0.94609864865E+01  0.62747415618E+02  0.10000000000E+01 0.  0.
    9000005    1    3    3    0    0 -0.13216527711E+02 -0.60597452889E+02  0.25371094697E+02  0.67018059861E+02  0.10000000000E+01 0.  0.
<mgrwt>
<rscale>  0 0.12500322E+03</rscale>
<asrwt>0</asrwt>
<pdfrwt beam="2">  1        4 0.73025689E-02 0.12500322E+03</pdfrwt>
<pdfrwt beam="1">  1       -4 0.12661350E-01 0.12500322E+03</pdfrwt>
<totfact> 0.10348775E+04</totfact>
</mgrwt>
</event>
<event>
 5    1  0.3308162E-002  0.1250003E+03  0.7818608E-02  0.1235069E+00
          4   -1    0    0  501    0  0.00000000000E+00  0.00000000000E+00  0.18828199260E+03  0.18828627576E+03  0.12700000000E+01 0. -1.
         -4   -1    0    0    0  501 -0.00000000000E+00 -0.00000000000E+00 -0.20722947082E+02  0.20761826407E+02  0.12700000000E+01 0. -1.
         25    2    1    2    0    0  0.00000000000E+00  0.00000000000E+00  0.16755904552E+03  0.20904810217E+03  0.12500030113E+03 0.  0.
    9000005    1    3    3    0    0 -0.54411059346E+02  0.79101660729E+01  0.34108554449E+02  0.64711108730E+02  0.10000000000E+01 0.  0.
    9000005    1    3    3    0    0  0.54411059346E+02 -0.79101660729E+01  0.13345049107E+03  0.14433699344E+03  0.10000000000E+01 0.  0.
<mgrwt>
<rscale>  0 0.12500030E+03</rscale>
<asrwt>0</asrwt>
<pdfrwt beam="1">  1        4 0.28969781E-01 0.12500030E+03</pdfrwt>
<pdfrwt beam="2">  1       -4 0.31914659E-02 0.12500030E+03</pdfrwt>
<totfact> 0.88630977E+03</totfact>
</mgrwt>
</event>
<event>
 5    1  0.3308162E-002  0.1250045E+03  0.7818608E-02  0.1235062E+00
          4   -1    0    0  501    0  0.00000000000E+00  0.00000000000E+00  0.11000930783E+03  0.11001663833E+03  0.12700000000E+01 0. -1.
         -4   -1    0    0    0  501 -0.00000000000E+00 -0.00000000000E+00 -0.35491053164E+02  0.35513768523E+02  0.12700000000E+01 0. -1.
         25    2    1    2    0    0  0.00000000000E+00  0.00000000000E+00  0.74518254669E+02  0.14553040686E+03  0.12500451608E+03 0.  0.
    9000005    1    3    3    0    0 -0.52058930554E+02  0.33221050721E+02  0.26106967140E+02  0.67054785025E+02  0.10000000000E+01 0.  0.
    9000005    1    3    3    0    0  0.52058930554E+02 -0.33221050721E+02  0.48411287529E+02  0.78475621831E+02  0.10000000000E+01 0.  0.
<mgrwt>
<rscale>  0 0.12500452E+03</rscale>
<asrwt>0</asrwt>
<pdfrwt beam="1">  1        4 0.16926820E-01 0.12500452E+03</pdfrwt>
<pdfrwt beam="2">  1       -4 0.54624734E-02 0.12500452E+03</pdfrwt>
<totfact> 0.10019204E+04</totfact>
</mgrwt>
</event>
<event>
 5    1  0.3308162E-002  0.1250009E+03  0.7818608E-02  0.1235068E+00
         -4   -1    0    0    0  501 -0.00000000000E+00  0.00000000000E+00  0.17811603860E+04  0.17811608388E+04  0.12700000000E+01 0. -1.
          4   -1    0    0  501    0  0.00000000000E+00 -0.00000000000E+00 -0.20087743806E+01  0.23765678009E+01  0.12700000000E+01 0. -1.
         25    2    1    2    0    0  0.00000000000E+00  0.00000000000E+00  0.17791516117E+04  0.17835374066E+04  0.12500089399E+03 0.  0.
    9000005    1    3    3    0    0 -0.35582532022E+02 -0.21572406122E+02  0.15548197835E+04  0.15553768175E+04  0.10000000000E+01 0.  0.
    9000005    1    3    3    0    0  0.35582532022E+02  0.21572406122E+02  0.22433182815E+03  0.22816058908E+03  0.10000000000E+01 0.  0.
<mgrwt>
<rscale>  0 0.12500089E+03</rscale>
<asrwt>0</asrwt>
<pdfrwt beam="2">  1        4 0.33736736E-03 0.12500089E+03</pdfrwt>
<pdfrwt beam="1">  1       -4 0.27405420E+00 0.12500089E+03</pdfrwt>
<totfact> 0.12958456E+03</totfact>
</mgrwt>
</event>
<event>
 5    1  0.3308162E-002  0.1249970E+03  0.7818608E-02  0.1235074E+00
         -4   -1    0    0    0  501 -0.00000000000E+00  0.00000000000E+00  0.16573378779E+03  0.16573865365E+03  0.12700000000E+01 0.  1.
          4   -1    0    0  501    0  0.00000000000E+00 -0.00000000000E+00 -0.23545960427E+02  0.23580185589E+02  0.12700000000E+01 0.  1.
         25    2    1    2    0    0  0.00000000000E+00  0.00000000000E+00  0.14218782736E+03  0.18931883924E+03  0.12499697853E+03 0.  0.
    9000005    1    3    3    0    0  0.26349320540E+02 -0.47876964989E+02  0.25189905327E+02  0.60183235206E+02  0.10000000000E+01 0.  0.
    9000005    1    3    3    0    0 -0.26349320540E+02  0.47876964989E+02  0.11699792203E+03  0.12913560403E+03  0.10000000000E+01 0.  0.
<mgrwt>
<rscale>  0 0.12499698E+03</rscale>
<asrwt>0</asrwt>
<pdfrwt beam="2">  1        4 0.36254624E-02 0.12499698E+03</pdfrwt>
<pdfrwt beam="1">  1       -4 0.25500513E-01 0.12499698E+03</pdfrwt>
<totfact> 0.91972194E+03</totfact>
</mgrwt>
</event>
<event>
 5    1  0.3308162E-002  0.1249998E+03  0.7818608E-02  0.1235070E+00
          4   -1    0    0  501    0  0.00000000000E+00  0.00000000000E+00  0.34891739920E+03  0.34891971048E+03  0.12700000000E+01 0.  1.
         -4   -1    0    0    0  501 -0.00000000000E+00 -0.00000000000E+00 -0.11156937260E+02  0.11228986999E+02  0.12700000000E+01 0.  1.
         25    2    1    2    0    0  0.00000000000E+00  0.00000000000E+00  0.33776046194E+03  0.36014869748E+03  0.12499981860E+03 0.  0.
    9000005    1    3    3    0    0 -0.42313947934E+02 -0.15850952032E+02  0.29325692371E+03  0.29671930536E+03  0.10000000000E+01 0.  0.
    9000005    1    3    3    0    0  0.42313947934E+02  0.15850952032E+02  0.44503538229E+02  0.63429392122E+02  0.10000000000E+01 0.  0.
<mgrwt>
<rscale>  0 0.12499982E+03</rscale>
<asrwt>0</asrwt>
<pdfrwt beam="1">  1        4 0.53685311E-01 0.12499982E+03</pdfrwt>
<pdfrwt beam="2">  1       -4 0.17221722E-02 0.12499982E+03</pdfrwt>
<totfact> 0.68622597E+03</totfact>
</mgrwt>
</event>
<event>
 5    1  0.3308162E-002  0.1250002E+03  0.7818608E-02  0.1235069E+00
          4   -1    0    0  501    0  0.00000000000E+00  0.00000000000E+00  0.90096829575E+03  0.90096919084E+03  0.12700000000E+01 0. -1.
         -4   -1    0    0    0  501 -0.00000000000E+00 -0.00000000000E+00 -0.42417090722E+01  0.44277529124E+01  0.12700000000E+01 0. -1.
         25    2    1    2    0    0  0.00000000000E+00  0.00000000000E+00  0.89672658668E+03  0.90539694375E+03  0.12500021802E+03 0.  0.
    9000005    1    3    3    0    0 -0.43799014030E+02  0.58380475108E+01  0.76844448936E+03  0.76971447281E+03  0.10000000000E+01 0.  0.
    9000005    1    3    3    0    0  0.43799014030E+02 -0.58380475108E+01  0.12828209732E+03  0.13568247094E+03  0.10000000000E+01 0.  0.
<mgrwt>
<rscale>  0 0.12500022E+03</rscale>
<asrwt>0</asrwt>
<pdfrwt beam="1">  1        4 0.13862483E+00 0.12500022E+03</pdfrwt>
<pdfrwt beam="2">  1       -4 0.66695082E-03 0.12500022E+03</pdfrwt>
<totfact> 0.33953956E+03</totfact>
</mgrwt>
</event>
<event>
 5    1  0.3308162E-002  0.1250012E+03  0.7818608E-02  0.1235067E+00
          4   -1    0    0  501    0  0.00000000000E+00  0.00000000000E+00  0.30903352798E+02  0.30929437663E+02  0.12700000000E+01 0.  1.
         -4   -1    0    0    0  501 -0.00000000000E+00 -0.00000000000E+00 -0.12632189271E+03  0.12632827663E+03  0.12700000000E+01 0.  1.
         25    2    1    2    0    0  0.00000000000E+00  0.00000000000E+00 -0.95418539909E+02  0.15725771430E+03  0.12500116378E+03 0.  0.
    9000005    1    3    3    0    0 -0.60631924071E+02  0.23441582679E+00 -0.28669957295E+02  0.67076460987E+02  0.10000000000E+01 0.  0.
    9000005    1    3    3    0    0  0.60631924071E+02 -0.23441582679E+00 -0.66748582614E+02  0.90181253309E+02  0.10000000000E+01 0.  0.
<mgrwt>
<rscale>  0 0.12500116E+03</rscale>
<asrwt>0</asrwt>
<pdfrwt beam="1">  1        4 0.47568596E-02 0.12500116E+03</pdfrwt>
<pdfrwt beam="2">  1       -4 0.19436635E-01 0.12500116E+03</pdfrwt>
<totfact> 0.97871535E+03</totfact>
</mgrwt>
</event>
<event>
 5    1  0.3308162E-002  0.1249989E+03  0.7818608E-02  0.1235071E+00
         -4   -1    0    0    0  501 -0.00000000000E+00  0.00000000000E+00  0.13776720224E+03  0.13777305583E+03  0.12700000000E+01 0. -1.
          4   -1    0    0  501    0  0.00000000000E+00 -0.00000000000E+00 -0.28332826945E+02  0.28361276112E+02  0.12700000000E+01 0. -1.
         25    2    1    2    0    0  0.00000000000E+00  0.00000000000E+00  0.10943437529E+03  0.16613433194E+03  0.12499893501E+03 0.  0.
    9000005    1    3    3    0    0  0.52838581519E+02  0.29623957691E+02  0.34312844636E+02  0.69626617563E+02  0.10000000000E+01 0.  0.
    9000005    1    3    3    0    0 -0.52838581519E+02 -0.29623957691E+02  0.75121530658E+02  0.96507714379E+02  0.10000000000E+01 0.  0.
<mgrwt>
<rscale>  0 0.12499894E+03</rscale>
<asrwt>0</asrwt>
<pdfrwt beam="2">  1        4 0.43615351E-02 0.12499894E+03</pdfrwt>
<pdfrwt beam="1">  1       -4 0.21197593E-01 0.12499894E+03</pdfrwt>
<totfact> 0.96175299E+03</totfact>
</mgrwt>
</event>
<event>
 5    1  0.3308162E-002  0.1249914E+03  0.7818608E-02  0.1235083E+00
          4   -1    0    0  501    0  0.00000000000E+00  0.00000000000E+00  0.58281289214E+01  0.59648962040E+01  0.12700000000E+01 0. -1.
         -4   -1    0    0    0  501 -0.00000000000E+00 -0.00000000000E+00 -0.66223955318E+03  0.66224077094E+03  0.12700000000E+01 0. -1.
         25    2    1    2    0    0  0.00000000000E+00  0.00000000000E+00 -0.65641142426E+03  0.66820566715E+03  0.12499142253E+03 0.  0.
    9000005    1    3    3    0    0  0.53335017865E+02 -0.31939618126E+02 -0.36199597285E+03  0.36729667531E+03  0.10000000000E+01 0.  0.
    9000005    1    3    3    0    0 -0.53335017865E+02  0.31939618126E+02 -0.29441545142E+03  0.30090899184E+03  0.10000000000E+01 0.  0.
<mgrwt>
<rscale>  0 0.12499142E+03</rscale>
<asrwt>0</asrwt>
<pdfrwt beam="1">  1        4 0.90724998E-03 0.12499142E+03</pdfrwt>
<pdfrwt beam="2">  1       -4 0.10189356E+00 0.12499142E+03</pdfrwt>
<totfact> 0.44827457E+03</totfact>
</mgrwt>
</event>
<event>
 5    1  0.3308162E-002  0.1250007E+03  0.7818608E-02  0.1235068E+00
         -4   -1    0    0    0  501 -0.00000000000E+00  0.00000000000E+00  0.67340425664E+02  0.67352400319E+02  0.12700000000E+01 0. -1.
          4   -1    0    0  501    0  0.00000000000E+00 -0.00000000000E+00 -0.57984068278E+02  0.57997974741E+02  0.12700000000E+01 0. -1.
         25    2    1    2    0    0  0.00000000000E+00  0.00000000000E+00  0.93563573860E+01  0.12535037506E+03  0.12500070041E+03 0.  0.
    9000005    1    3    3    0    0 -0.50456535466E+02 -0.10297252125E+02 -0.30824225152E+02  0.60025229935E+02  0.10000000000E+01 0.  0.
    9000005    1    3    3    0    0  0.50456535466E+02  0.10297252125E+02  0.40180582538E+02  0.65325145125E+02  0.10000000000E+01 0.  0.
<mgrwt>
<rscale>  0 0.12500070E+03</rscale>
<asrwt>0</asrwt>
<pdfrwt beam="2">  1        4 0.89226168E-02 0.12500070E+03</pdfrwt>
<pdfrwt beam="1">  1       -4 0.10362056E-01 0.12500070E+03</pdfrwt>
<totfact> 0.10445092E+04</totfact>
</mgrwt>
</event>
<event>
 5    1  0.3308162E-002  0.1249950E+03  0.7818608E-02  0.1235077E+00
         -4   -1    0    0    0  501 -0.00000000000E+00  0.00000000000E+00  0.59809004770E+03  0.59809139607E+03  0.12700000000E+01 0. -1.
          4   -1    0    0  501    0  0.00000000000E+00 -0.00000000000E+00 -0.64675742908E+01  0.65910861933E+01  0.12700000000E+01 0. -1.
         25    2    1    2    0    0  0.00000000000E+00  0.00000000000E+00  0.59162247341E+03  0.60468248226E+03  0.12499501317E+03 0.  0.
    9000005    1    3    3    0    0  0.13252800633E+02  0.16077026350E+01  0.59113466532E+03  0.59128623693E+03  0.10000000000E+01 0.  0.
    9000005    1    3    3    0    0 -0.13252800633E+02 -0.16077026350E+01  0.48780808210E+00  0.13396245337E+02  0.10000000000E+01 0.  0.
<mgrwt>
<rscale>  0 0.12499501E+03</rscale>
<asrwt>0</asrwt>
<pdfrwt beam="2">  1        4 0.10046158E-02 0.12499501E+03</pdfrwt>
<pdfrwt beam="1">  1       -4 0.92023480E-01 0.12499501E+03</pdfrwt>
<totfact> 0.48578668E+03</totfact>
</mgrwt>
</event>
<event>
 5    1  0.3308162E-002  0.1250024E+03  0.7818608E-02  0.1235066E+00
          4   -1    0    0  501    0  0.00000000000E+00  0.00000000000E+00  0.37314426652E+02  0.37336032681E+02  0.12700000000E+01 0.  1.
         -4   -1    0    0    0  501 -0.00000000000E+00 -0.00000000000E+00 -0.10463292866E+03  0.10464063580E+03  0.12700000000E+01 0.  1.
         25    2    1    2    0    0  0.00000000000E+00  0.00000000000E+00 -0.67318502011E+02  0.14197666848E+03  0.12500237470E+03 0.  0.
    9000005    1    3    3    0    0 -0.47853321481E+02 -0.60586821120E+01  0.11469722620E+02  0.49590347273E+02  0.10000000000E+01 0.  0.
    9000005    1    3    3    0    0  0.47853321481E+02  0.60586821120E+01 -0.78788224631E+02  0.92386321208E+02  0.10000000000E+01 0.  0.
<mgrwt>
<rscale>  0 0.12500237E+03</rscale>
<asrwt>0</asrwt>
<pdfrwt beam="1">  1        4 0.57429359E-02 0.12500237E+03</pdfrwt>
<pdfrwt beam="2">  1       -4 0.16099628E-01 0.12500237E+03</pdfrwt>
<totfact> 0.10092242E+04</totfact>
</mgrwt>
</event>
<event>
 5    1  0.3308162E-002  0.1249997E+03  0.7818608E-02  0.1235070E+00
         -4   -1    0    0    0  501 -0.00000000000E+00  0.00000000000E+00  0.56642741599E+01  0.58049032514E+01  0.12700000000E+01 0.  1.
          4   -1    0    0  501    0  0.00000000000E+00 -0.00000000000E+00 -0.68102873070E+03  0.68102991486E+03  0.12700000000E+01 0.  1.
         25    2    1    2    0    0  0.00000000000E+00  0.00000000000E+00 -0.67536445654E+03  0.68683481811E+03  0.12499967287E+03 0.  0.
    9000005    1    3    3    0    0 -0.54816147939E+01  0.17067333473E+02 -0.66662520314E+03  0.66686693083E+03  0.10000000000E+01 0.  0.
    9000005    1    3    3    0    0  0.54816147939E+01 -0.17067333473E+02 -0.87392533994E+01  0.19967887284E+02  0.10000000000E+01 0.  0.
<mgrwt>
<rscale>  0 0.12499967E+03</rscale>
<asrwt>0</asrwt>
<pdfrwt beam="2">  1        4 0.10478450E+00 0.12499967E+03</pdfrwt>
<pdfrwt beam="1">  1       -4 0.88233604E-03 0.12499967E+03</pdfrwt>
<totfact> 0.43791172E+03</totfact>
</mgrwt>
</event>
<event>
 5    1  0.3308162E-002  0.1250013E+03  0.7818608E-02  0.1235067E+00
          4   -1    0    0  501    0  0.00000000000E+00  0.00000000000E+00  0.44771510786E+02  0.44789519735E+02  0.12700000000E+01 0. -1.
         -4   -1    0    0    0  501 -0.00000000000E+00 -0.00000000000E+00 -0.87210149951E+02  0.87219396664E+02  0.12700000000E+01 0. -1.
         25    2    1    2    0    0  0.00000000000E+00  0.00000000000E+00 -0.42438639165E+02  0.13200891640E+03  0.12500126365E+03 0.  0.
    9000005    1    3    3    0    0  0.25207700323E+02 -0.28588036511E+02 -0.73519650579E+02  0.82818132123E+02  0.10000000000E+01 0.  0.
    9000005    1    3    3    0    0 -0.25207700323E+02  0.28588036511E+02  0.31081011414E+02  0.49190784276E+02  0.10000000000E+01 0.  0.
<mgrwt>
<rscale>  0 0.12500126E+03</rscale>
<asrwt>0</asrwt>
<pdfrwt beam="1">  1        4 0.68900213E-02 0.12500126E+03</pdfrwt>
<pdfrwt beam="2">  1       -4 0.13419043E-01 0.12500126E+03</pdfrwt>
<totfact> 0.10301214E+04</totfact>
</mgrwt>
</event>
<event>
 5    1  0.3308162E-002  0.1249697E+03  0.7818608E-02  0.1235117E+00
          4   -1    0    0  501    0  0.00000000000E+00  0.00000000000E+00  0.28373982343E+02  0.28402390287E+02  0.12700000000E+01 0. -1.
         -4   -1    0    0    0  501 -0.00000000000E+00 -0.00000000000E+00 -0.13750323891E+03  0.13750910374E+03  0.12700000000E+01 0. -1.
         25    2    1    2    0    0  0.00000000000E+00  0.00000000000E+00 -0.10912925657E+03  0.16591149402E+03  0.12496971317E+03 0.  0.
    9000005    1    3    3    0    0  0.56655079389E+02  0.25285181780E+02 -0.64340306776E+02  0.89385756775E+02  0.10000000000E+01 0.  0.
    9000005    1    3    3    0    0 -0.56655079389E+02 -0.25285181780E+02 -0.44788949789E+02  0.76525737249E+02  0.10000000000E+01 0.  0.
<mgrwt>
<rscale>  0 0.12496971E+03</rscale>
<asrwt>0</asrwt>
<pdfrwt beam="1">  1        4 0.43678645E-02 0.12496971E+03</pdfrwt>
<pdfrwt beam="2">  1       -4 0.21156981E-01 0.12496971E+03</pdfrwt>
<totfact> 0.96280534E+03</totfact>
</mgrwt>
</event>
<event>
 5    1  0.3308162E-002  0.1250045E+03  0.7818608E-02  0.1235062E+00
         -4   -1    0    0    0  501 -0.00000000000E+00  0.00000000000E+00  0.18291413044E+02  0.18335449030E+02  0.12700000000E+01 0. -1.
          4   -1    0    0  501    0  0.00000000000E+00 -0.00000000000E+00 -0.21326910328E+03  0.21327288462E+03  0.12700000000E+01 0. -1.
         25    2    1    2    0    0  0.00000000000E+00  0.00000000000E+00 -0.19497769024E+03  0.23160833365E+03  0.12500448202E+03 0.  0.
    9000005    1    3    3    0    0 -0.34183626024E+02 -0.51148590342E+02 -0.11785545615E+03  0.13294964132E+03  0.10000000000E+01 0.  0.
    9000005    1    3    3    0    0  0.34183626024E+02  0.51148590342E+02 -0.77122234083E+02  0.98658692329E+02  0.10000000000E+01 0.  0.
<mgrwt>
<rscale>  0 0.12500448E+03</rscale>
<asrwt>0</asrwt>
<pdfrwt beam="2">  1        4 0.32814308E-01 0.12500448E+03</pdfrwt>
<pdfrwt beam="1">  1       -4 0.28177419E-02 0.12500448E+03</pdfrwt>
<totfact> 0.85054742E+03</totfact>
</mgrwt>
</event>
<event>
 5    1  0.3308162E-002  0.1249976E+03  0.7818608E-02  0.1235073E+00
         -4   -1    0    0    0  501 -0.00000000000E+00  0.00000000000E+00  0.78607466982E+01  0.79626778569E+01  0.12700000000E+01 0. -1.
          4   -1    0    0  501    0  0.00000000000E+00 -0.00000000000E+00 -0.49360851423E+03  0.49361014801E+03  0.12700000000E+01 0. -1.
         25    2    1    2    0    0  0.00000000000E+00  0.00000000000E+00 -0.48574776753E+03  0.50157282587E+03  0.12499762393E+03 0.  0.
    9000005    1    3    3    0    0  0.62280705210E+01  0.36433394169E+02 -0.44506254019E+03  0.44659584162E+03  0.10000000000E+01 0.  0.
    9000005    1    3    3    0    0 -0.62280705210E+01 -0.36433394169E+02 -0.40685227340E+02  0.54976984246E+02  0.10000000000E+01 0.  0.
<mgrwt>
<rscale>  0 0.12499762E+03</rscale>
<asrwt>0</asrwt>
<pdfrwt beam="2">  1        4 0.75947714E-01 0.12499762E+03</pdfrwt>
<pdfrwt beam="1">  1       -4 0.12173126E-02 0.12499762E+03</pdfrwt>
<totfact> 0.55745463E+03</totfact>
</mgrwt>
</event>
<event>
 5    1  0.3308162E-002  0.1249991E+03  0.7818608E-02  0.1235071E+00
          4   -1    0    0  501    0  0.00000000000E+00  0.00000000000E+00  0.22135538487E+03  0.22135902808E+03  0.12700000000E+01 0. -1.
         -4   -1    0    0    0  501 -0.00000000000E+00 -0.00000000000E+00 -0.17620072818E+02  0.17665782352E+02  0.12700000000E+01 0. -1.
         25    2    1    2    0    0  0.00000000000E+00  0.00000000000E+00  0.20373531206E+03  0.23902481043E+03  0.12499913049E+03 0.  0.
    9000005    1    3    3    0    0 -0.23525611526E+02 -0.31244058102E+02  0.86671894163E+01  0.40072006897E+02  0.10000000000E+01 0.  0.
    9000005    1    3    3    0    0  0.23525611526E+02  0.31244058102E+02  0.19506812264E+03  0.19895280354E+03  0.10000000000E+01 0.  0.
<mgrwt>
<rscale>  0 0.12499913E+03</rscale>
<asrwt>0</asrwt>
<pdfrwt beam="1">  1        4 0.34058469E-01 0.12499913E+03</pdfrwt>
<pdfrwt beam="2">  1       -4 0.27145770E-02 0.12499913E+03</pdfrwt>
<totfact> 0.83944448E+03</totfact>
</mgrwt>
</event>
<event>
 5    1  0.3308162E-002  0.1250003E+03  0.7818608E-02  0.1235069E+00
          4   -1    0    0  501    0  0.00000000000E+00  0.00000000000E+00  0.99180364268E+02  0.99188495081E+02  0.12700000000E+01 0.  1.
         -4   -1    0    0    0  501 -0.00000000000E+00 -0.00000000000E+00 -0.39365504318E+02  0.39385985201E+02  0.12700000000E+01 0.  1.
         25    2    1    2    0    0  0.00000000000E+00  0.00000000000E+00  0.59814859950E+02  0.13857448028E+03  0.12500027646E+03 0.  0.
    9000005    1    3    3    0    0  0.17925470249E+02 -0.58255060286E+02  0.14614756995E+02  0.62686247731E+02  0.10000000000E+01 0.  0.
    9000005    1    3    3    0    0 -0.17925470249E+02  0.58255060286E+02  0.45200102954E+02  0.75888232550E+02  0.10000000000E+01 0.  0.
<mgrwt>
<rscale>  0 0.12500028E+03</rscale>
<asrwt>0</asrwt>
<pdfrwt beam="1">  1        4 0.15260718E-01 0.12500028E+03</pdfrwt>
<pdfrwt beam="2">  1       -4 0.60584323E-02 0.12500028E+03</pdfrwt>
<totfact> 0.10163153E+04</totfact>
</mgrwt>
</event>
<event>
 5    1  0.3308162E-002  0.1249965E+03  0.7818608E-02  0.1235075E+00
          4   -1    0    0  501    0  0.00000000000E+00  0.00000000000E+00  0.66955972511E+01  0.68149778099E+01  0.12700000000E+01 0.  1.
         -4   -1    0    0    0  501 -0.00000000000E+00 -0.00000000000E+00 -0.57809817865E+03  0.57809957365E+03  0.12700000000E+01 0.  1.
         25    2    1    2    0    0  0.00000000000E+00  0.00000000000E+00 -0.57140258140E+03  0.58491455146E+03  0.12499648989E+03 0.  0.
    9000005    1    3    3    0    0  0.33351803729E+02  0.52311872063E+02 -0.32076776577E+03  0.32671368861E+03  0.10000000000E+01 0.  0.
    9000005    1    3    3    0    0 -0.33351803729E+02 -0.52311872063E+02 -0.25063481563E+03  0.25820086285E+03  0.10000000000E+01 0.  0.
<mgrwt>
<rscale>  0 0.12499649E+03</rscale>
<asrwt>0</asrwt>
<pdfrwt beam="1">  1        4 0.10393828E-02 0.12499649E+03</pdfrwt>
<pdfrwt beam="2">  1       -4 0.88947433E-01 0.12499649E+03</pdfrwt>
<totfact> 0.49837759E+03</totfact>
</mgrwt>
</event>
<event>
 5    1  0.3308162E-002  0.1249990E+03  0.7818608E-02  0.1235071E+00
          4   -1    0    0  501    0  0.00000000000E+00  0.00000000000E+00  0.17328685080E+03  0.17329150459E+03  0.12700000000E+01 0. -1.
         -4   -1    0    0    0  501 -0.00000000000E+00 -0.00000000000E+00 -0.22518902647E+02  0.22554686352E+02  0.12700000000E+01 0. -1.
         25    2    1    2    0    0  0.00000000000E+00  0.00000000000E+00  0.15076794816E+03  0.19584619094E+03  0.12499902525E+03 0.  0.
    9000005    1    3    3    0    0  0.79508768789E+00  0.62484180476E+02  0.76219091018E+02  0.98565992157E+02  0.10000000000E+01 0.  0.
    9000005    1    3    3    0    0 -0.79508768789E+00 -0.62484180476E+02  0.74548857139E+02  0.97280198781E+02  0.10000000000E+01 0.  0.
<mgrwt>
<rscale>  0 0.12499903E+03</rscale>
<asrwt>0</asrwt>
<pdfrwt beam="1">  1        4 0.26662625E-01 0.12499903E+03</pdfrwt>
<pdfrwt beam="2">  1       -4 0.34675572E-02 0.12499903E+03</pdfrwt>
<totfact> 0.90841912E+03</totfact>
</mgrwt>
</event>
<event>
 5    1  0.3308162E-002  0.1249994E+03  0.7818608E-02  0.1235070E+00
         -4   -1    0    0    0  501 -0.00000000000E+00  0.00000000000E+00  0.28916750750E+02  0.28944625995E+02  0.12700000000E+01 0.  1.
          4   -1    0    0  501    0  0.00000000000E+00 -0.00000000000E+00 -0.13498891371E+03  0.13499488777E+03  0.12700000000E+01 0.  1.
         25    2    1    2    0    0  0.00000000000E+00  0.00000000000E+00 -0.10607216296E+03  0.16393951376E+03  0.12499944167E+03 0.  0.
    9000005    1    3    3    0    0 -0.38907266636E+02  0.22464713973E+02 -0.11000471200E+03  0.11882960672E+03  0.10000000000E+01 0.  0.
    9000005    1    3    3    0    0  0.38907266636E+02 -0.22464713973E+02  0.39325490489E+01  0.45109907039E+02  0.10000000000E+01 0.  0.
<mgrwt>
<rscale>  0 0.12499944E+03</rscale>
<asrwt>0</asrwt>
<pdfrwt beam="2">  1        4 0.20770129E-01 0.12499944E+03</pdfrwt>
<pdfrwt beam="1">  1       -4 0.44513348E-02 0.12499944E+03</pdfrwt>
<totfact> 0.96589821E+03</totfact>
</mgrwt>
</event>
<event>
 5    1  0.3308162E-002  0.1250115E+03  0.7818608E-02  0.1235051E+00
         -4   -1    0    0    0  501 -0.00000000000E+00  0.00000000000E+00  0.15054588392E+02  0.15108061810E+02  0.12700000000E+01 0. -1.
          4   -1    0    0  501    0  0.00000000000E+00 -0.00000000000E+00 -0.25900491007E+03  0.25900802369E+03  0.12700000000E+01 0. -1.
         25    2    1    2    0    0  0.00000000000E+00  0.00000000000E+00 -0.24395032167E+03  0.27411608550E+03  0.12501147502E+03 0.  0.
    9000005    1    3    3    0    0 -0.11544806225E+02  0.31150423497E+02 -0.58985475869E+01  0.33755359551E+02  0.10000000000E+01 0.  0.
    9000005    1    3    3    0    0  0.11544806225E+02 -0.31150423497E+02 -0.23805177409E+03  0.24036072595E+03  0.10000000000E+01 0.  0.
<mgrwt>
<rscale>  0 0.12501148E+03</rscale>
<asrwt>0</asrwt>
<pdfrwt beam="2">  1        4 0.39851259E-01 0.12501148E+03</pdfrwt>
<pdfrwt beam="1">  1       -4 0.23204436E-02 0.12501148E+03</pdfrwt>
<totfact> 0.78944649E+03</totfact>
</mgrwt>
</event>
<event>
 5    1  0.3308162E-002  0.1249994E+03  0.7818608E-02  0.1235070E+00
         -4   -1    0    0    0  501 -0.00000000000E+00  0.00000000000E+00  0.10868538161E+04  0.10868545581E+04  0.12700000000E+01 0. -1.
          4   -1    0    0  501    0  0.00000000000E+00 -0.00000000000E+00 -0.34810952727E+01  0.37055261836E+01  0.12700000000E+01 0. -1.
         25    2    1    2    0    0  0.00000000000E+00  0.00000000000E+00  0.10833727208E+04  0.10905600843E+04  0.12499938083E+03 0.  0.
    9000005    1    3    3    0    0  0.24033700486E+02 -0.80114342304E+01  0.10400857716E+04  0.10403947396E+04  0.10000000000E+01 0.  0.
    9000005    1    3    3    0    0 -0.24033700486E+02  0.80114342304E+01  0.43286949236E+02  0.50165344727E+02  0.10000000000E+01 0.  0.
<mgrwt>
<rscale>  0 0.12499938E+03</rscale>
<asrwt>0</asrwt>
<pdfrwt beam="2">  1        4 0.55287458E-03 0.12499938E+03</pdfrwt>
<pdfrwt beam="1">  1       -4 0.16722546E+00 0.12499938E+03</pdfrwt>
<totfact> 0.27761721E+03</totfact>
</mgrwt>
</event>
<event>
 5    1  0.3308162E-002  0.1249972E+03  0.7818608E-02  0.1235074E+00
         -4   -1    0    0    0  501 -0.00000000000E+00  0.00000000000E+00  0.38192453893E+03  0.38192665046E+03  0.12700000000E+01 0. -1.
          4   -1    0    0  501    0  0.00000000000E+00 -0.00000000000E+00 -0.10185777614E+02  0.10264646395E+02  0.12700000000E+01 0. -1.
         25    2    1    2    0    0  0.00000000000E+00  0.00000000000E+00  0.37173876131E+03  0.39219129686E+03  0.12499722665E+03 0.  0.
    9000005    1    3    3    0    0 -0.34387528947E+02  0.36600297722E+02  0.69186397799E+02  0.85497611550E+02  0.10000000000E+01 0.  0.
    9000005    1    3    3    0    0  0.34387528947E+02 -0.36600297722E+02  0.30255236351E+03  0.30669368531E+03  0.10000000000E+01 0.  0.
<mgrwt>
<rscale>  0 0.12499723E+03</rscale>
<asrwt>0</asrwt>
<pdfrwt beam="2">  1        4 0.15732720E-02 0.12499723E+03</pdfrwt>
<pdfrwt beam="1">  1       -4 0.58763848E-01 0.12499723E+03</pdfrwt>
<totfact> 0.65323407E+03</totfact>
</mgrwt>
</event>
<event>
 5    1  0.3308162E-002  0.1249896E+03  0.7818608E-02  0.1235085E+00
          4   -1    0    0  501    0  0.00000000000E+00  0.00000000000E+00  0.37244867324E+02  0.37266513681E+02  0.12700000000E+01 0.  1.
         -4   -1    0    0    0  501 -0.00000000000E+00 -0.00000000000E+00 -0.10480689532E+03  0.10481458966E+03  0.12700000000E+01 0.  1.
         25    2    1    2    0    0  0.00000000000E+00  0.00000000000E+00 -0.67562027993E+02  0.14208110334E+03  0.12498964877E+03 0.  0.
    9000005    1    3    3    0    0 -0.84061222597E+01 -0.14396594109E+02  0.34675816526E+02  0.38488141877E+02  0.10000000000E+01 0.  0.
    9000005    1    3    3    0    0  0.84061222597E+01  0.14396594109E+02 -0.10223784452E+03  0.10359296147E+03  0.10000000000E+01 0.  0.
<mgrwt>
<rscale>  0 0.12498965E+03</rscale>
<asrwt>0</asrwt>
<pdfrwt beam="1">  1        4 0.57322366E-02 0.12498965E+03</pdfrwt>
<pdfrwt beam="2">  1       -4 0.16126395E-01 0.12498965E+03</pdfrwt>
<totfact> 0.10092988E+04</totfact>
</mgrwt>
</event>
<event>
 5    1  0.3308162E-002  0.1249970E+03  0.7818608E-02  0.1235074E+00
          4   -1    0    0  501    0  0.00000000000E+00  0.00000000000E+00  0.17856678325E+03  0.17857129944E+03  0.12700000000E+01 0.  1.
         -4   -1    0    0    0  501 -0.00000000000E+00 -0.00000000000E+00 -0.21851282710E+02  0.21888157896E+02  0.12700000000E+01 0.  1.
         25    2    1    2    0    0  0.00000000000E+00  0.00000000000E+00  0.15671550054E+03  0.20045945733E+03  0.12499698365E+03 0.  0.
    9000005    1    3    3    0    0  0.35696933588E+01 -0.49878201821E+02  0.13845925940E+03  0.14721597822E+03  0.10000000000E+01 0.  0.
    9000005    1    3    3    0    0 -0.35696933588E+01  0.49878201821E+02  0.18256241140E+02  0.53243479114E+02  0.10000000000E+01 0.  0.
<mgrwt>
<rscale>  0 0.12499698E+03</rscale>
<asrwt>0</asrwt>
<pdfrwt beam="1">  1        4 0.27474995E-01 0.12499698E+03</pdfrwt>
<pdfrwt beam="2">  1       -4 0.33649200E-02 0.12499698E+03</pdfrwt>
<totfact> 0.90064153E+03</totfact>
</mgrwt>
</event>
<event>
 5    1  0.3308162E-002  0.1250012E+03  0.7818608E-02  0.1235067E+00
         -4   -1    0    0    0  501 -0.00000000000E+00  0.00000000000E+00  0.23553749903E+03  0.23554092288E+03  0.12700000000E+01 0. -1.
          4   -1    0    0  501    0  0.00000000000E+00 -0.00000000000E+00 -0.16556863845E+02  0.16605500305E+02  0.12700000000E+01 0. -1.
         25    2    1    2    0    0  0.00000000000E+00  0.00000000000E+00  0.21898063519E+03  0.25214642318E+03  0.12500120054E+03 0.  0.
    9000005    1    3    3    0    0  0.15263830400E+02  0.60060334605E+02  0.12576521241E+03  0.14020740695E+03  0.10000000000E+01 0.  0.
    9000005    1    3    3    0    0 -0.15263830400E+02 -0.60060334605E+02  0.93215422779E+02  0.11193901623E+03  0.10000000000E+01 0.  0.
<mgrwt>
<rscale>  0 0.12500120E+03</rscale>
<asrwt>0</asrwt>
<pdfrwt beam="2">  1        4 0.25512143E-02 0.12500120E+03</pdfrwt>
<pdfrwt beam="1">  1       -4 0.36240545E-01 0.12500120E+03</pdfrwt>
<totfact> 0.82018794E+03</totfact>
</mgrwt>
</event>
<event>
 5    1  0.3308162E-002  0.1249989E+03  0.7818608E-02  0.1235071E+00
          4   -1    0    0  501    0  0.00000000000E+00  0.00000000000E+00  0.13529549426E+03  0.13530145479E+03  0.12700000000E+01 0. -1.
         -4   -1    0    0    0  501 -0.00000000000E+00 -0.00000000000E+00 -0.28850900959E+02  0.28878839765E+02  0.12700000000E+01 0. -1.
         25    2    1    2    0    0  0.00000000000E+00  0.00000000000E+00  0.10644459330E+03  0.16418029455E+03  0.12499887070E+03 0.  0.
    9000005    1    3    3    0    0 -0.30496518918E+01 -0.37240918748E+02 -0.12568427560E+02  0.39435412730E+02  0.10000000000E+01 0.  0.
    9000005    1    3    3    0    0  0.30496518918E+01  0.37240918748E+02  0.11901302086E+03  0.12474488182E+03  0.10000000000E+01 0.  0.
<mgrwt>
<rscale>  0 0.12499887E+03</rscale>
<asrwt>0</asrwt>
<pdfrwt beam="1">  1        4 0.20817299E-01 0.12499887E+03</pdfrwt>
<pdfrwt beam="2">  1       -4 0.44412079E-02 0.12499887E+03</pdfrwt>
<totfact> 0.96545307E+03</totfact>
</mgrwt>
</event>
<event>
 5    1  0.3308162E-002  0.1250034E+03  0.7818608E-02  0.1235064E+00
          4   -1    0    0  501    0  0.00000000000E+00  0.00000000000E+00  0.45993332792E+03  0.45993508133E+03  0.12700000000E+01 0. -1.
         -4   -1    0    0    0  501 -0.00000000000E+00 -0.00000000000E+00 -0.84442834425E+01  0.85392518910E+01  0.12700000000E+01 0. -1.
         25    2    1    2    0    0  0.00000000000E+00  0.00000000000E+00  0.45148904448E+03  0.46847433322E+03  0.12500337434E+03 0.  0.
    9000005    1    3    3    0    0 -0.39479861650E+02 -0.48437448939E+02  0.22868344928E+03  0.23706953813E+03  0.10000000000E+01 0.  0.
    9000005    1    3    3    0    0  0.39479861650E+02  0.48437448939E+02  0.22280559520E+03  0.23140479509E+03  0.10000000000E+01 0.  0.
<mgrwt>
<rscale>  0 0.12500337E+03</rscale>
<asrwt>0</asrwt>
<pdfrwt beam="1">  1        4 0.70766418E-01 0.12500337E+03</pdfrwt>
<pdfrwt beam="2">  1       -4 0.13065606E-02 0.12500337E+03</pdfrwt>
<totfact> 0.58391777E+03</totfact>
</mgrwt>
</event>
<event>
 5    1  0.3308162E-002  0.1250019E+03  0.7818608E-02  0.1235066E+00
          4   -1    0    0  501    0  0.00000000000E+00  0.00000000000E+00  0.87674877854E+02  0.87684075560E+02  0.12700000000E+01 0.  1.
         -4   -1    0    0    0  501 -0.00000000000E+00 -0.00000000000E+00 -0.44534599190E+02  0.44552703902E+02  0.12700000000E+01 0.  1.
         25    2    1    2    0    0  0.00000000000E+00  0.00000000000E+00  0.43140278664E+02  0.13223677946E+03  0.12500192878E+03 0.  0.
    9000005    1    3    3    0    0 -0.27252114914E+02 -0.32127289175E+02 -0.27259035354E+02  0.50188599158E+02  0.10000000000E+01 0.  0.
    9000005    1    3    3    0    0  0.27252114914E+02  0.32127289175E+02  0.70399314018E+02  0.82048180304E+02  0.10000000000E+01 0.  0.
<mgrwt>
<rscale>  0 0.12500193E+03</rscale>
<asrwt>0</asrwt>
<pdfrwt beam="1">  1        4 0.13490543E-01 0.12500193E+03</pdfrwt>
<pdfrwt beam="2">  1       -4 0.68535770E-02 0.12500193E+03</pdfrwt>
<totfact> 0.10296199E+04</totfact>
</mgrwt>
</event>
<event>
 5    1  0.3308162E-002  0.1250031E+03  0.7818608E-02  0.1235064E+00
          4   -1    0    0  501    0  0.00000000000E+00  0.00000000000E+00  0.29570787439E+01  0.32182626831E+01  0.12700000000E+01 0. -1.
         -4   -1    0    0    0  501 -0.00000000000E+00 -0.00000000000E+00 -0.12649130950E+04  0.12649137326E+04  0.12700000000E+01 0. -1.
         25    2    1    2    0    0  0.00000000000E+00  0.00000000000E+00 -0.12619560163E+04  0.12681319952E+04  0.12500308147E+03 0.  0.
    9000005    1    3    3    0    0 -0.14916157640E+02  0.54730695891E+02 -0.89697740329E+03  0.89876993877E+03  0.10000000000E+01 0.  0.
    9000005    1    3    3    0    0  0.14916157640E+02 -0.54730695891E+02 -0.36497861297E+03  0.36936205647E+03  0.10000000000E+01 0.  0.
<mgrwt>
<rscale>  0 0.12500308E+03</rscale>
<asrwt>0</asrwt>
<pdfrwt beam="1">  1        4 0.47507632E-03 0.12500308E+03</pdfrwt>
<pdfrwt beam="2">  1       -4 0.19462174E+00 0.12500308E+03</pdfrwt>
<totfact> 0.22991896E+03</totfact>
</mgrwt>
</event>
<event>
 5    1  0.3308162E-002  0.1250011E+03  0.7818608E-02  0.1235068E+00
          4   -1    0    0  501    0  0.00000000000E+00  0.00000000000E+00  0.28162940566E+03  0.28163226916E+03  0.12700000000E+01 0. -1.
         -4   -1    0    0    0  501 -0.00000000000E+00 -0.00000000000E+00 -0.13838403625E+02  0.13896557663E+02  0.12700000000E+01 0. -1.
         25    2    1    2    0    0  0.00000000000E+00  0.00000000000E+00  0.26779100203E+03  0.29552882682E+03  0.12500106685E+03 0.  0.
    9000005    1    3    3    0    0  0.19745766932E+02  0.59093993396E+02  0.12247822212E+03  0.13741874058E+03  0.10000000000E+01 0.  0.
    9000005    1    3    3    0    0 -0.19745766932E+02 -0.59093993396E+02  0.14531277991E+03  0.15811008625E+03  0.10000000000E+01 0.  0.
<mgrwt>
<rscale>  0 0.12500107E+03</rscale>
<asrwt>0</asrwt>
<pdfrwt beam="1">  1        4 0.43332292E-01 0.12500107E+03</pdfrwt>
<pdfrwt beam="2">  1       -4 0.21336790E-02 0.12500107E+03</pdfrwt>
<totfact> 0.76161335E+03</totfact>
</mgrwt>
</event>
<event>
 5    1  0.3308162E-002  0.1249984E+03  0.7818608E-02  0.1235072E+00
          4   -1    0    0  501    0  0.00000000000E+00  0.00000000000E+00  0.59425635584E+02  0.59439204777E+02  0.12700000000E+01 0. -1.
         -4   -1    0    0    0  501 -0.00000000000E+00 -0.00000000000E+00 -0.65704526626E+02  0.65716799368E+02  0.12700000000E+01 0. -1.
         25    2    1    2    0    0  0.00000000000E+00  0.00000000000E+00 -0.62788910423E+01  0.12515600414E+03  0.12499840359E+03 0.  0.
    9000005    1    3    3    0    0 -0.55626878356E+02 -0.28241626371E+02 -0.67787454969E+01  0.62760580353E+02  0.10000000000E+01 0.  0.
    9000005    1    3    3    0    0  0.55626878356E+02  0.28241626371E+02  0.49985445464E+00  0.62395423792E+02  0.10000000000E+01 0.  0.
<mgrwt>
<rscale>  0 0.12499840E+03</rscale>
<asrwt>0</asrwt>
<pdfrwt beam="1">  1        4 0.91443933E-02 0.12499840E+03</pdfrwt>
<pdfrwt beam="2">  1       -4 0.10110377E-01 0.12499840E+03</pdfrwt>
<totfact> 0.10449852E+04</totfact>
</mgrwt>
</event>
<event>
 5    1  0.3308162E-002  0.1249987E+03  0.7818608E-02  0.1235071E+00
          4   -1    0    0  501    0  0.00000000000E+00  0.00000000000E+00  0.26653320886E+03  0.26653623455E+03  0.12700000000E+01 0.  1.
         -4   -1    0    0    0  501 -0.00000000000E+00 -0.00000000000E+00 -0.14624842472E+02  0.14679881380E+02  0.12700000000E+01 0.  1.
         25    2    1    2    0    0  0.00000000000E+00  0.00000000000E+00  0.25190836639E+03  0.28121611593E+03  0.12499871519E+03 0.  0.
    9000005    1    3    3    0    0 -0.48788526091E+02  0.36168418225E+02  0.15907179770E+03  0.17027422464E+03  0.10000000000E+01 0.  0.
    9000005    1    3    3    0    0  0.48788526091E+02 -0.36168418225E+02  0.92836568693E+02  0.11094189128E+03  0.10000000000E+01 0.  0.
<mgrwt>
<rscale>  0 0.12499872E+03</rscale>
<asrwt>0</asrwt>
<pdfrwt beam="1">  1        4 0.41009573E-01 0.12499872E+03</pdfrwt>
<pdfrwt beam="2">  1       -4 0.22544424E-02 0.12499872E+03</pdfrwt>
<totfact> 0.78019362E+03</totfact>
</mgrwt>
</event>
<event>
 5    1  0.3308162E-002  0.1250000E+03  0.7818608E-02  0.1235069E+00
         -4   -1    0    0    0  501 -0.00000000000E+00  0.00000000000E+00  0.18927810640E+03  0.18928236701E+03  0.12700000000E+01 0. -1.
          4   -1    0    0  501    0  0.00000000000E+00 -0.00000000000E+00 -0.20613587230E+02  0.20652672430E+02  0.12700000000E+01 0. -1.
         25    2    1    2    0    0  0.00000000000E+00  0.00000000000E+00  0.16866451917E+03  0.20993503944E+03  0.12500000304E+03 0.  0.
    9000005    1    3    3    0    0  0.31351791808E+01 -0.34938429209E+02  0.17119122233E+03  0.17475113100E+03  0.10000000000E+01 0.  0.
    9000005    1    3    3    0    0 -0.31351791808E+01  0.34938429209E+02 -0.25267031626E+01  0.35183908437E+02  0.10000000000E+01 0.  0.
<mgrwt>
<rscale>  0 0.12500000E+03</rscale>
<asrwt>0</asrwt>
<pdfrwt beam="2">  1        4 0.31746553E-02 0.12500000E+03</pdfrwt>
<pdfrwt beam="1">  1       -4 0.29123044E-01 0.12500000E+03</pdfrwt>
<totfact> 0.88486483E+03</totfact>
</mgrwt>
</event>
<event>
 5    1  0.3308162E-002  0.1250012E+03  0.7818608E-02  0.1235067E+00
          4   -1    0    0  501    0  0.00000000000E+00  0.00000000000E+00  0.48183374629E+03  0.48183542000E+03  0.12700000000E+01 0. -1.
         -4   -1    0    0    0  501 -0.00000000000E+00 -0.00000000000E+00 -0.80557665183E+01  0.81552605230E+01  0.12700000000E+01 0. -1.
         25    2    1    2    0    0  0.00000000000E+00  0.00000000000E+00  0.47377797977E+03  0.48999068052E+03  0.12500117152E+03 0.  0.
    9000005    1    3    3    0    0  0.22034912134E+02  0.58305154987E+02  0.25454797726E+03  0.26207003105E+03  0.10000000000E+01 0.  0.
    9000005    1    3    3    0    0 -0.22034912134E+02 -0.58305154987E+02  0.21923000252E+03  0.22792064947E+03  0.10000000000E+01 0.  0.
<mgrwt>
<rscale>  0 0.12500117E+03</rscale>
<asrwt>0</asrwt>
<pdfrwt beam="1">  1        4 0.74136065E-01 0.12500117E+03</pdfrwt>
<pdfrwt beam="2">  1       -4 0.12471306E-02 0.12500117E+03</pdfrwt>
<totfact> 0.56647948E+03</totfact>
</mgrwt>
</event>
<event>
 5    1  0.3308162E-002  0.1250566E+03  0.7818608E-02  0.1234981E+00
         -4   -1    0    0    0  501 -0.00000000000E+00  0.00000000000E+00  0.27760746661E+03  0.27761037159E+03  0.12700000000E+01 0. -1.
          4   -1    0    0  501    0  0.00000000000E+00 -0.00000000000E+00 -0.14052250678E+02  0.14109523348E+02  0.12700000000E+01 0. -1.
         25    2    1    2    0    0  0.00000000000E+00  0.00000000000E+00  0.26355521593E+03  0.29171989494E+03  0.12505656824E+03 0.  0.
    9000005    1    3    3    0    0  0.24046190661E+01 -0.62176200926E+02  0.14599067696E+03  0.15870078737E+03  0.10000000000E+01 0.  0.
    9000005    1    3    3    0    0 -0.24046190661E+01  0.62176200926E+02  0.11756453897E+03  0.13301910757E+03  0.10000000000E+01 0.  0.
<mgrwt>
<rscale>  0 0.12505657E+03</rscale>
<asrwt>0</asrwt>
<pdfrwt beam="2">  1        4 0.21665139E-02 0.12505657E+03</pdfrwt>
<pdfrwt beam="1">  1       -4 0.42713468E-01 0.12505657E+03</pdfrwt>
<totfact> 0.76553133E+03</totfact>
</mgrwt>
</event>
<event>
 5    1  0.3308162E-002  0.1250044E+03  0.7818608E-02  0.1235062E+00
          4   -1    0    0  501    0  0.00000000000E+00  0.00000000000E+00  0.22388639180E+02  0.22424630751E+02  0.12700000000E+01 0.  1.
         -4   -1    0    0    0  501 -0.00000000000E+00 -0.00000000000E+00 -0.17430848769E+03  0.17431311419E+03  0.12700000000E+01 0.  1.
         25    2    1    2    0    0  0.00000000000E+00  0.00000000000E+00 -0.15191984851E+03  0.19673774494E+03  0.12500439958E+03 0.  0.
    9000005    1    3    3    0    0  0.29003578862E+02 -0.33073013377E+02 -0.14582334695E+03  0.15231703883E+03  0.10000000000E+01 0.  0.
    9000005    1    3    3    0    0 -0.29003578862E+02  0.33073013377E+02 -0.60965015525E+01  0.44420706115E+02  0.10000000000E+01 0.  0.
<mgrwt>
<rscale>  0 0.12500440E+03</rscale>
<asrwt>0</asrwt>
<pdfrwt beam="1">  1        4 0.34475306E-02 0.12500440E+03</pdfrwt>
<pdfrwt beam="2">  1       -4 0.26819814E-01 0.12500440E+03</pdfrwt>
<totfact> 0.90679075E+03</totfact>
</mgrwt>
</event>
<event>
 5    1  0.3308162E-002  0.1250023E+03  0.7818608E-02  0.1235066E+00
          4   -1    0    0  501    0  0.00000000000E+00  0.00000000000E+00  0.24390630633E+03  0.24390961270E+03  0.12700000000E+01 0.  1.
         -4   -1    0    0    0  501 -0.00000000000E+00 -0.00000000000E+00 -0.15987372484E+02  0.16037736091E+02  0.12700000000E+01 0.  1.
         25    2    1    2    0    0  0.00000000000E+00  0.00000000000E+00  0.22791893385E+03  0.25994734879E+03  0.12500233493E+03 0.  0.
    9000005    1    3    3    0    0  0.16574508679E+02 -0.57150212690E+02  0.15366369491E+03  0.16478589831E+03  0.10000000000E+01 0.  0.
    9000005    1    3    3    0    0 -0.16574508679E+02  0.57150212690E+02  0.74255238938E+02  0.95161450483E+02  0.10000000000E+01 0.  0.
<mgrwt>
<rscale>  0 0.12500233E+03</rscale>
<asrwt>0</asrwt>
<pdfrwt beam="1">  1        4 0.37528174E-01 0.12500233E+03</pdfrwt>
<pdfrwt beam="2">  1       -4 0.24637243E-02 0.12500233E+03</pdfrwt>
<totfact> 0.80909245E+03</totfact>
</mgrwt>
</event>
<event>
 5    1  0.3308162E-002  0.1250007E+03  0.7818608E-02  0.1235068E+00
          4   -1    0    0  501    0  0.00000000000E+00  0.00000000000E+00  0.21581795476E+02  0.21619130324E+02  0.12700000000E+01 0. -1.
         -4   -1    0    0    0  501 -0.00000000000E+00 -0.00000000000E+00 -0.18080348028E+03  0.18080794059E+03  0.12700000000E+01 0. -1.
         25    2    1    2    0    0  0.00000000000E+00  0.00000000000E+00 -0.15922168480E+03  0.20242707091E+03  0.12500069651E+03 0.  0.
    9000005    1    3    3    0    0  0.34402316275E+02 -0.52164972057E+02 -0.78367102531E+02  0.10023525544E+03  0.10000000000E+01 0.  0.
    9000005    1    3    3    0    0 -0.34402316275E+02  0.52164972057E+02 -0.80854582269E+02  0.10219181547E+03  0.10000000000E+01 0.  0.
<mgrwt>
<rscale>  0 0.12500070E+03</rscale>
<asrwt>0</asrwt>
<pdfrwt beam="1">  1        4 0.33234913E-02 0.12500070E+03</pdfrwt>
<pdfrwt beam="2">  1       -4 0.27819134E-01 0.12500070E+03</pdfrwt>
<totfact> 0.89726372E+03</totfact>
</mgrwt>
</event>
<event>
 5    1  0.3308162E-002  0.1249978E+03  0.7818608E-02  0.1235073E+00
          4   -1    0    0  501    0  0.00000000000E+00  0.00000000000E+00  0.11343636048E+02  0.11414507383E+02  0.12700000000E+01 0. -1.
         -4   -1    0    0    0  501 -0.00000000000E+00 -0.00000000000E+00 -0.34319975654E+03  0.34320210633E+03  0.12700000000E+01 0. -1.
         25    2    1    2    0    0  0.00000000000E+00  0.00000000000E+00 -0.33185612049E+03  0.35461661371E+03  0.12499783203E+03 0.  0.
    9000005    1    3    3    0    0  0.39502517254E+02 -0.48249013702E+02 -0.15433513954E+03  0.16645945899E+03  0.10000000000E+01 0.  0.
    9000005    1    3    3    0    0 -0.39502517254E+02  0.48249013702E+02 -0.17752098095E+03  0.18815715472E+03  0.10000000000E+01 0.  0.
<mgrwt>
<rscale>  0 0.12499783E+03</rscale>
<asrwt>0</asrwt>
<pdfrwt beam="1">  1        4 0.17508074E-02 0.12499783E+03</pdfrwt>
<pdfrwt beam="2">  1       -4 0.52805587E-01 0.12499783E+03</pdfrwt>
<totfact> 0.69222964E+03</totfact>
</mgrwt>
</event>
<event>
 5    1  0.3308162E-002  0.1250005E+03  0.7818608E-02  0.1235068E+00
          4   -1    0    0  501    0  0.00000000000E+00  0.00000000000E+00  0.21229953513E+02  0.21267906012E+02  0.12700000000E+01 0.  1.
         -4   -1    0    0    0  501 -0.00000000000E+00 -0.00000000000E+00 -0.18379424858E+03  0.18379863631E+03  0.12700000000E+01 0.  1.
         25    2    1    2    0    0  0.00000000000E+00  0.00000000000E+00 -0.16256429506E+03  0.20506654232E+03  0.12500054700E+03 0.  0.
    9000005    1    3    3    0    0  0.52332239878E+02 -0.34134289802E+02 -0.83271933996E+02  0.10411065297E+03  0.10000000000E+01 0.  0.
    9000005    1    3    3    0    0 -0.52332239878E+02  0.34134289802E+02 -0.79292361069E+02  0.10095588935E+03  0.10000000000E+01 0.  0.
<mgrwt>
<rscale>  0 0.12500055E+03</rscale>
<asrwt>0</asrwt>
<pdfrwt beam="1">  1        4 0.32694038E-02 0.12500055E+03</pdfrwt>
<pdfrwt beam="2">  1       -4 0.28279294E-01 0.12500055E+03</pdfrwt>
<totfact> 0.89286879E+03</totfact>
</mgrwt>
</event>
<event>
 5    1  0.3308162E-002  0.1250004E+03  0.7818608E-02  0.1235069E+00
          4   -1    0    0  501    0  0.00000000000E+00  0.00000000000E+00  0.98106766412E+01  0.98925363865E+01  0.12700000000E+01 0. -1.
         -4   -1    0    0    0  501 -0.00000000000E+00 -0.00000000000E+00 -0.39642871372E+03  0.39643074800E+03  0.12700000000E+01 0. -1.
         25    2    1    2    0    0  0.00000000000E+00  0.00000000000E+00 -0.38661803708E+03  0.40632328439E+03  0.12500041937E+03 0.  0.
    9000005    1    3    3    0    0 -0.12827265065E+02 -0.62484559322E+01  0.44610273042E+01  0.14982746584E+02  0.10000000000E+01 0.  0.
    9000005    1    3    3    0    0  0.12827265065E+02  0.62484559322E+01 -0.39107906438E+03  0.39134053780E+03  0.10000000000E+01 0.  0.
<mgrwt>
<rscale>  0 0.12500042E+03</rscale>
<asrwt>0</asrwt>
<pdfrwt beam="1">  1        4 0.15157886E-02 0.12500042E+03</pdfrwt>
<pdfrwt beam="2">  1       -4 0.60995474E-01 0.12500042E+03</pdfrwt>
<totfact> 0.63941820E+03</totfact>
</mgrwt>
</event>
<event>
 5    1  0.3308162E-002  0.1250036E+03  0.7818608E-02  0.1235064E+00
          4   -1    0    0  501    0  0.00000000000E+00  0.00000000000E+00  0.86732816970E+02  0.86742114567E+02  0.12700000000E+01 0. -1.
         -4   -1    0    0    0  501 -0.00000000000E+00 -0.00000000000E+00 -0.45019651812E+02  0.45037561538E+02  0.12700000000E+01 0. -1.
         25    2    1    2    0    0  0.00000000000E+00  0.00000000000E+00  0.41713165158E+02  0.13177967610E+03  0.12500357950E+03 0.  0.
    9000005    1    3    3    0    0  0.54201956149E+02  0.28418582122E+02  0.34191610603E+02  0.70110870026E+02  0.10000000000E+01 0.  0.
    9000005    1    3    3    0    0 -0.54201956149E+02 -0.28418582122E+02  0.75215545555E+01  0.61668806078E+02  0.10000000000E+01 0.  0.
<mgrwt>
<rscale>  0 0.12500358E+03</rscale>
<asrwt>0</asrwt>
<pdfrwt beam="1">  1        4 0.13345603E-01 0.12500358E+03</pdfrwt>
<pdfrwt beam="2">  1       -4 0.69281932E-02 0.12500358E+03</pdfrwt>
<totfact> 0.10305571E+04</totfact>
</mgrwt>
</event>
<event>
 5    1  0.3308162E-002  0.1249971E+03  0.7818608E-02  0.1235074E+00
         -4   -1    0    0    0  501 -0.00000000000E+00  0.00000000000E+00  0.18092051795E+03  0.18092497538E+03  0.12700000000E+01 0. -1.
          4   -1    0    0  501    0  0.00000000000E+00 -0.00000000000E+00 -0.21566565980E+02  0.21603927147E+02  0.12700000000E+01 0. -1.
         25    2    1    2    0    0  0.00000000000E+00  0.00000000000E+00  0.15935395197E+03  0.20252890253E+03  0.12499709736E+03 0.  0.
    9000005    1    3    3    0    0 -0.51193170086E+01 -0.62278521797E+02  0.78871874301E+02  0.10063098052E+03  0.10000000000E+01 0.  0.
    9000005    1    3    3    0    0  0.51193170086E+01  0.62278521797E+02  0.80482077669E+02  0.10189792201E+03  0.10000000000E+01 0.  0.
<mgrwt>
<rscale>  0 0.12499710E+03</rscale>
<asrwt>0</asrwt>
<pdfrwt beam="2">  1        4 0.33211499E-02 0.12499710E+03</pdfrwt>
<pdfrwt beam="1">  1       -4 0.27837144E-01 0.12499710E+03</pdfrwt>
<totfact> 0.89716556E+03</totfact>
</mgrwt>
</event>
<event>
 5    1  0.3308162E-002  0.1249936E+03  0.7818608E-02  0.1235079E+00
         -4   -1    0    0    0  501 -0.00000000000E+00  0.00000000000E+00  0.55303558577E+01  0.56743048837E+01  0.12700000000E+01 0. -1.
          4   -1    0    0  501    0  0.00000000000E+00 -0.00000000000E+00 -0.69703904632E+03  0.69704020328E+03  0.12700000000E+01 0. -1.
         25    2    1    2    0    0  0.00000000000E+00  0.00000000000E+00 -0.69150869046E+03  0.70271450817E+03  0.12499364386E+03 0.  0.
    9000005    1    3    3    0    0 -0.24501714323E+02  0.22009763500E+02 -0.64430800739E+03  0.64515003843E+03  0.10000000000E+01 0.  0.
    9000005    1    3    3    0    0  0.24501714323E+02 -0.22009763500E+02 -0.47200683068E+02  0.57564469737E+02  0.10000000000E+01 0.  0.
<mgrwt>
<rscale>  0 0.12499364E+03</rscale>
<asrwt>0</asrwt>
<pdfrwt beam="2">  1        4 0.10724787E+00 0.12499364E+03</pdfrwt>
<pdfrwt beam="1">  1       -4 0.86198653E-03 0.12499364E+03</pdfrwt>
<totfact> 0.42949779E+03</totfact>
</mgrwt>
</event>
<event>
 5    1  0.3308162E-002  0.1250002E+03  0.7818608E-02  0.1235069E+00
         -4   -1    0    0    0  501 -0.00000000000E+00  0.00000000000E+00  0.29041708277E+03  0.29041985962E+03  0.12700000000E+01 0. -1.
          4   -1    0    0  501    0  0.00000000000E+00 -0.00000000000E+00 -0.13417697587E+02  0.13477667029E+02  0.12700000000E+01 0. -1.
         25    2    1    2    0    0  0.00000000000E+00  0.00000000000E+00  0.27699938518E+03  0.30389752665E+03  0.12500018926E+03 0.  0.
    9000005    1    3    3    0    0 -0.73046965146E+01 -0.60313527519E+02  0.10291955604E+03  0.11951784473E+03  0.10000000000E+01 0.  0.
    9000005    1    3    3    0    0  0.73046965146E+01  0.60313527519E+02  0.17407982914E+03  0.18437968193E+03  0.10000000000E+01 0.  0.
<mgrwt>
<rscale>  0 0.12500019E+03</rscale>
<asrwt>0</asrwt>
<pdfrwt beam="2">  1        4 0.20690879E-02 0.12500019E+03</pdfrwt>
<pdfrwt beam="1">  1       -4 0.44684377E-01 0.12500019E+03</pdfrwt>
<totfact> 0.75112211E+03</totfact>
</mgrwt>
</event>
<event>
 5    1  0.3308162E-002  0.1249986E+03  0.7818608E-02  0.1235072E+00
         -4   -1    0    0    0  501 -0.00000000000E+00  0.00000000000E+00  0.86834590774E+01  0.87758396493E+01  0.12700000000E+01 0.  1.
          4   -1    0    0  501    0  0.00000000000E+00 -0.00000000000E+00 -0.44736569183E+03  0.44736749449E+03  0.12700000000E+01 0.  1.
         25    2    1    2    0    0  0.00000000000E+00  0.00000000000E+00 -0.43868223275E+03  0.45614333414E+03  0.12499855978E+03 0.  0.
    9000005    1    3    3    0    0  0.44445715262E+02 -0.40634626695E+02 -0.28024710316E+03  0.28664618142E+03  0.10000000000E+01 0.  0.
    9000005    1    3    3    0    0 -0.44445715262E+02  0.40634626695E+02 -0.15843512959E+03  0.16949715272E+03  0.10000000000E+01 0.  0.
<mgrwt>
<rscale>  0 0.12499856E+03</rscale>
<asrwt>0</asrwt>
<pdfrwt beam="2">  1        4 0.68832718E-01 0.12499856E+03</pdfrwt>
<pdfrwt beam="1">  1       -4 0.13431620E-02 0.12499856E+03</pdfrwt>
<totfact> 0.59437162E+03</totfact>
</mgrwt>
</event>
<event>
 5    1  0.3308162E-002  0.1250024E+03  0.7818608E-02  0.1235066E+00
          4   -1    0    0  501    0  0.00000000000E+00  0.00000000000E+00  0.17567754515E+02  0.17613599822E+02  0.12700000000E+01 0. -1.
         -4   -1    0    0    0  501 -0.00000000000E+00 -0.00000000000E+00 -0.22202440303E+03  0.22202803526E+03  0.12700000000E+01 0. -1.
         25    2    1    2    0    0  0.00000000000E+00  0.00000000000E+00 -0.20445664851E+03  0.23964163508E+03  0.12500236855E+03 0.  0.
    9000005    1    3    3    0    0 -0.40218990330E+02  0.47611306106E+02 -0.93444258207E+02  0.11232645745E+03  0.10000000000E+01 0.  0.
    9000005    1    3    3    0    0  0.40218990330E+02 -0.47611306106E+02 -0.11101239031E+03  0.12731517763E+03  0.10000000000E+01 0.  0.
<mgrwt>
<rscale>  0 0.12500237E+03</rscale>
<asrwt>0</asrwt>
<pdfrwt beam="1">  1        4 0.27065376E-02 0.12500237E+03</pdfrwt>
<pdfrwt beam="2">  1       -4 0.34161404E-01 0.12500237E+03</pdfrwt>
<totfact> 0.83846342E+03</totfact>
</mgrwt>
</event>
<event>
 5    1  0.3308162E-002  0.1250058E+03  0.7818608E-02  0.1235060E+00
          4   -1    0    0  501    0  0.00000000000E+00  0.00000000000E+00  0.50306915156E+01  0.51885216704E+01  0.12700000000E+01 0.  1.
         -4   -1    0    0    0  501 -0.00000000000E+00 -0.00000000000E+00 -0.76440340895E+03  0.76440446396E+03  0.12700000000E+01 0.  1.
         25    2    1    2    0    0  0.00000000000E+00  0.00000000000E+00 -0.75937271744E+03  0.76959298563E+03  0.12500575803E+03 0.  0.
    9000005    1    3    3    0    0 -0.31200084211E+02 -0.44500045228E+02 -0.18974079040E+03  0.19737341975E+03  0.10000000000E+01 0.  0.
    9000005    1    3    3    0    0  0.31200084211E+02  0.44500045228E+02 -0.56963192703E+03  0.57221956588E+03  0.10000000000E+01 0.  0.
<mgrwt>
<rscale>  0 0.12500576E+03</rscale>
<asrwt>0</asrwt>
<pdfrwt beam="1">  1        4 0.78617508E-03 0.12500576E+03</pdfrwt>
<pdfrwt beam="2">  1       -4 0.11761266E+00 0.12500576E+03</pdfrwt>
<totfact> 0.39649106E+03</totfact>
</mgrwt>
</event>
<event>
 5    1  0.3308162E-002  0.1249980E+03  0.7818608E-02  0.1235072E+00
         -4   -1    0    0    0  501 -0.00000000000E+00  0.00000000000E+00  0.23563715832E+02  0.23597915243E+02  0.12700000000E+01 0. -1.
          4   -1    0    0  501    0  0.00000000000E+00 -0.00000000000E+00 -0.16561184411E+03  0.16561671356E+03  0.12700000000E+01 0. -1.
         25    2    1    2    0    0  0.00000000000E+00  0.00000000000E+00 -0.14204812828E+03  0.18921462880E+03  0.12499802000E+03 0.  0.
    9000005    1    3    3    0    0 -0.50286413309E+02  0.19707175177E+02 -0.23442723812E+02  0.58886818700E+02  0.10000000000E+01 0.  0.
    9000005    1    3    3    0    0  0.50286413309E+02 -0.19707175177E+02 -0.11860540447E+03  0.13032781010E+03  0.10000000000E+01 0.  0.
<mgrwt>
<rscale>  0 0.12499802E+03</rscale>
<asrwt>0</asrwt>
<pdfrwt beam="2">  1        4 0.25481750E-01 0.12499802E+03</pdfrwt>
<pdfrwt beam="1">  1       -4 0.36281925E-02 0.12499802E+03</pdfrwt>
<totfact> 0.91988227E+03</totfact>
</mgrwt>
</event>
<event>
 5    1  0.3308162E-002  0.1249990E+03  0.7818608E-02  0.1235071E+00
         -4   -1    0    0    0  501 -0.00000000000E+00  0.00000000000E+00  0.11087716620E+02  0.11160213252E+02  0.12700000000E+01 0.  1.
          4   -1    0    0  501    0  0.00000000000E+00 -0.00000000000E+00 -0.35107673507E+03  0.35107903214E+03  0.12700000000E+01 0.  1.
         25    2    1    2    0    0  0.00000000000E+00  0.00000000000E+00 -0.33998901845E+03  0.36223924539E+03  0.12499895293E+03 0.  0.
    9000005    1    3    3    0    0  0.49316090192E+02 -0.36882491927E+02 -0.20077132226E+03  0.21000599706E+03  0.10000000000E+01 0.  0.
    9000005    1    3    3    0    0 -0.49316090192E+02  0.36882491927E+02 -0.13921769619E+03  0.15223324833E+03  0.10000000000E+01 0.  0.
<mgrwt>
<rscale>  0 0.12499895E+03</rscale>
<asrwt>0</asrwt>
<pdfrwt beam="2">  1        4 0.54017550E-01 0.12499895E+03</pdfrwt>
<pdfrwt beam="1">  1       -4 0.17115562E-02 0.12499895E+03</pdfrwt>
<totfact> 0.68400337E+03</totfact>
</mgrwt>
</event>
<event>
 5    1  0.3308162E-002  0.1250021E+03  0.7818608E-02  0.1235066E+00
          4   -1    0    0  501    0  0.00000000000E+00  0.00000000000E+00  0.12368321139E+03  0.12368973150E+03  0.12700000000E+01 0.  1.
         -4   -1    0    0    0  501 -0.00000000000E+00 -0.00000000000E+00 -0.31563636798E+02  0.31589176436E+02  0.12700000000E+01 0.  1.
         25    2    1    2    0    0  0.00000000000E+00  0.00000000000E+00  0.92119574589E+02  0.15527890794E+03  0.12500209289E+03 0.  0.
    9000005    1    3    3    0    0  0.23874278775E+02 -0.31763190006E+02  0.10597631737E+03  0.11318507529E+03  0.10000000000E+01 0.  0.
    9000005    1    3    3    0    0 -0.23874278775E+02  0.31763190006E+02 -0.13856742777E+02  0.42093832645E+02  0.10000000000E+01 0.  0.
<mgrwt>
<rscale>  0 0.12500209E+03</rscale>
<asrwt>0</asrwt>
<pdfrwt beam="1">  1        4 0.19030652E-01 0.12500209E+03</pdfrwt>
<pdfrwt beam="2">  1       -4 0.48584104E-02 0.12500209E+03</pdfrwt>
<totfact> 0.98256149E+03</totfact>
</mgrwt>
</event>
<event>
 5    1  0.3308162E-002  0.1249923E+03  0.7818608E-02  0.1235081E+00
         -4   -1    0    0    0  501 -0.00000000000E+00  0.00000000000E+00  0.86053520161E+03  0.86053613876E+03  0.12700000000E+01 0. -1.
          4   -1    0    0  501    0  0.00000000000E+00 -0.00000000000E+00 -0.44489661589E+01  0.46266834647E+01  0.12700000000E+01 0. -1.
         25    2    1    2    0    0  0.00000000000E+00  0.00000000000E+00  0.85608623545E+03  0.86516282222E+03  0.12499226548E+03 0.  0.
    9000005    1    3    3    0    0 -0.25045343292E+02 -0.18434525954E+02  0.52883667505E+02  0.61357829628E+02  0.10000000000E+01 0.  0.
    9000005    1    3    3    0    0  0.25045343292E+02  0.18434525954E+02  0.80320256795E+03  0.80380499260E+03  0.10000000000E+01 0.  0.
<mgrwt>
<rscale>  0 0.12499227E+03</rscale>
<asrwt>0</asrwt>
<pdfrwt beam="2">  1        4 0.69819930E-03 0.12499227E+03</pdfrwt>
<pdfrwt beam="1">  1       -4 0.13240371E+00 0.12499227E+03</pdfrwt>
<totfact> 0.35520770E+03</totfact>
</mgrwt>
</event>
<event>
 5    1  0.3308162E-002  0.1250015E+03  0.7818608E-02  0.1235067E+00
         -4   -1    0    0    0  501 -0.00000000000E+00  0.00000000000E+00  0.18827211748E+02  0.18869997408E+02  0.12700000000E+01 0.  1.
          4   -1    0    0  501    0  0.00000000000E+00 -0.00000000000E+00 -0.20720366856E+03  0.20720756059E+03  0.12700000000E+01 0.  1.
         25    2    1    2    0    0  0.00000000000E+00  0.00000000000E+00 -0.18837645682E+03  0.22607755800E+03  0.12500149099E+03 0.  0.
    9000005    1    3    3    0    0 -0.44768322114E+02 -0.24938990821E+02 -0.15887408340E+03  0.16693750418E+03  0.10000000000E+01 0.  0.
    9000005    1    3    3    0    0  0.44768322114E+02  0.24938990821E+02 -0.29502373421E+02  0.59140053817E+02  0.10000000000E+01 0.  0.
<mgrwt>
<rscale>  0 0.12500149E+03</rscale>
<asrwt>0</asrwt>
<pdfrwt beam="2">  1        4 0.31881077E-01 0.12500149E+03</pdfrwt>
<pdfrwt beam="1">  1       -4 0.29000848E-02 0.12500149E+03</pdfrwt>
<totfact> 0.85912695E+03</totfact>
</mgrwt>
</event>
<event>
 5    1  0.3308162E-002  0.1250092E+03  0.7818608E-02  0.1235055E+00
         -4   -1    0    0    0  501 -0.00000000000E+00  0.00000000000E+00  0.16680231253E+02  0.16728509039E+02  0.12700000000E+01 0.  1.
          4   -1    0    0  501    0  0.00000000000E+00 -0.00000000000E+00 -0.23383048749E+03  0.23383393633E+03  0.12700000000E+01 0.  1.
         25    2    1    2    0    0  0.00000000000E+00  0.00000000000E+00 -0.21715025623E+03  0.25056244537E+03  0.12500922064E+03 0.  0.
    9000005    1    3    3    0    0  0.10572039575E+02  0.54699415034E+02 -0.51811537820E+02  0.76086986254E+02  0.10000000000E+01 0.  0.
    9000005    1    3    3    0    0 -0.10572039575E+02 -0.54699415034E+02 -0.16533871841E+03  0.17447545911E+03  0.10000000000E+01 0.  0.
<mgrwt>
<rscale>  0 0.12500922E+03</rscale>
<asrwt>0</asrwt>
<pdfrwt beam="2">  1        4 0.35977898E-01 0.12500922E+03</pdfrwt>
<pdfrwt beam="1">  1       -4 0.25701686E-02 0.12500922E+03</pdfrwt>
<totfact> 0.82232115E+03</totfact>
</mgrwt>
</event>
<event>
 5    1  0.3308162E-002  0.1249992E+03  0.7818608E-02  0.1235071E+00
          4   -1    0    0  501    0  0.00000000000E+00  0.00000000000E+00  0.72669426454E+02  0.72680523121E+02  0.12700000000E+01 0. -1.
         -4   -1    0    0    0  501 -0.00000000000E+00 -0.00000000000E+00 -0.53730288731E+02  0.53745295861E+02  0.12700000000E+01 0. -1.
         25    2    1    2    0    0  0.00000000000E+00  0.00000000000E+00  0.18939137723E+02  0.12642581898E+03  0.12499918707E+03 0.  0.
    9000005    1    3    3    0    0  0.42073272268E+01 -0.68701722873E+01 -0.53207844950E+02  0.53823560212E+02  0.10000000000E+01 0.  0.
    9000005    1    3    3    0    0 -0.42073272268E+01  0.68701722873E+01  0.72146982673E+02  0.72602258770E+02  0.10000000000E+01 0.  0.
<mgrwt>
<rscale>  0 0.12499919E+03</rscale>
<asrwt>0</asrwt>
<pdfrwt beam="1">  1        4 0.11181920E-01 0.12499919E+03</pdfrwt>
<pdfrwt beam="2">  1       -4 0.82682063E-02 0.12499919E+03</pdfrwt>
<totfact> 0.10421837E+04</totfact>
</mgrwt>
</event>
<event>
 5    1  0.3308162E-002  0.1249964E+03  0.7818608E-02  0.1235075E+00
         -4   -1    0    0    0  501 -0.00000000000E+00  0.00000000000E+00  0.16140536908E+03  0.16141036543E+03  0.12700000000E+01 0. -1.
          4   -1    0    0  501    0  0.00000000000E+00 -0.00000000000E+00 -0.24178071872E+02  0.24211403500E+02  0.12700000000E+01 0. -1.
         25    2    1    2    0    0  0.00000000000E+00  0.00000000000E+00  0.13722729721E+03  0.18562176893E+03  0.12499643995E+03 0.  0.
    9000005    1    3    3    0    0 -0.30978012320E+02 -0.53952982130E+02  0.59895454572E+02  0.86365658722E+02  0.10000000000E+01 0.  0.
    9000005    1    3    3    0    0  0.30978012320E+02  0.53952982130E+02  0.77331842638E+02  0.99256110209E+02  0.10000000000E+01 0.  0.
<mgrwt>
<rscale>  0 0.12499644E+03</rscale>
<asrwt>0</asrwt>
<pdfrwt beam="2">  1        4 0.37226517E-02 0.12499644E+03</pdfrwt>
<pdfrwt beam="1">  1       -4 0.24834543E-01 0.12499644E+03</pdfrwt>
<totfact> 0.92622132E+03</totfact>
</mgrwt>
</event>
<event>
 5    1  0.3308162E-002  0.1250010E+03  0.7818608E-02  0.1235068E+00
         -4   -1    0    0    0  501 -0.00000000000E+00  0.00000000000E+00  0.45267747250E+02  0.45285558858E+02  0.12700000000E+01 0. -1.
          4   -1    0    0  501    0  0.00000000000E+00 -0.00000000000E+00 -0.86254061952E+02  0.86263411149E+02  0.12700000000E+01 0. -1.
         25    2    1    2    0    0  0.00000000000E+00  0.00000000000E+00 -0.40986314701E+02  0.13154897001E+03  0.12500101407E+03 0.  0.
    9000005    1    3    3    0    0  0.49731461575E+02  0.32939164480E+02 -0.40099894278E+02  0.71883296726E+02  0.10000000000E+01 0.  0.
    9000005    1    3    3    0    0 -0.49731461575E+02 -0.32939164480E+02 -0.88642042341E+00  0.59665673282E+02  0.10000000000E+01 0.  0.
<mgrwt>
<rscale>  0 0.12500101E+03</rscale>
<asrwt>0</asrwt>
<pdfrwt beam="2">  1        4 0.13271945E-01 0.12500101E+03</pdfrwt>
<pdfrwt beam="1">  1       -4 0.69663581E-02 0.12500101E+03</pdfrwt>
<totfact> 0.10311099E+04</totfact>
</mgrwt>
</event>
<event>
 5    1  0.3308162E-002  0.1249978E+03  0.7818608E-02  0.1235073E+00
         -4   -1    0    0    0  501 -0.00000000000E+00  0.00000000000E+00  0.30540131274E+02  0.30566526106E+02  0.12700000000E+01 0. -1.
          4   -1    0    0  501    0  0.00000000000E+00 -0.00000000000E+00 -0.12781625543E+03  0.12782256473E+03  0.12700000000E+01 0. -1.
         25    2    1    2    0    0  0.00000000000E+00  0.00000000000E+00 -0.97276124160E+02  0.15838909083E+03  0.12499783903E+03 0.  0.
    9000005    1    3    3    0    0 -0.80397123728E+01 -0.51858993197E+02 -0.56464641859E+01  0.52790858188E+02  0.10000000000E+01 0.  0.
    9000005    1    3    3    0    0  0.80397123728E+01  0.51858993197E+02 -0.91629659974E+02  0.10559823264E+03  0.10000000000E+01 0.  0.
<mgrwt>
<rscale>  0 0.12499784E+03</rscale>
<asrwt>0</asrwt>
<pdfrwt beam="2">  1        4 0.19666555E-01 0.12499784E+03</pdfrwt>
<pdfrwt beam="1">  1       -4 0.47009975E-02 0.12499784E+03</pdfrwt>
<totfact> 0.97659002E+03</totfact>
</mgrwt>
</event>
<event>
 5    1  0.3308162E-002  0.1250020E+03  0.7818608E-02  0.1235066E+00
         -4   -1    0    0    0  501 -0.00000000000E+00  0.00000000000E+00  0.15751099581E+02  0.15802216238E+02  0.12700000000E+01 0. -1.
          4   -1    0    0  501    0  0.00000000000E+00 -0.00000000000E+00 -0.24755197643E+03  0.24755523411E+03  0.12700000000E+01 0. -1.
         25    2    1    2    0    0  0.00000000000E+00  0.00000000000E+00 -0.23180087685E+03  0.26335745035E+03  0.12500200056E+03 0.  0.
    9000005    1    3    3    0    0 -0.32456541437E+02  0.35318427988E+02 -0.20029338797E+03  0.20595936420E+03  0.10000000000E+01 0.  0.
    9000005    1    3    3    0    0  0.32456541437E+02 -0.35318427988E+02 -0.31507488877E+02  0.57398086143E+02  0.10000000000E+01 0.  0.
<mgrwt>
<rscale>  0 0.12500200E+03</rscale>
<asrwt>0</asrwt>
<pdfrwt beam="2">  1        4 0.38089099E-01 0.12500200E+03</pdfrwt>
<pdfrwt beam="1">  1       -4 0.24274289E-02 0.12500200E+03</pdfrwt>
<totfact> 0.80433607E+03</totfact>
</mgrwt>
</event>
<event>
 5    1  0.3308162E-002  0.1249990E+03  0.7818608E-02  0.1235071E+00
         -4   -1    0    0    0  501 -0.00000000000E+00  0.00000000000E+00  0.10562162356E+03  0.10562925856E+03  0.12700000000E+01 0.  1.
          4   -1    0    0  501    0  0.00000000000E+00 -0.00000000000E+00 -0.36962935709E+02  0.36984747076E+02  0.12700000000E+01 0.  1.
         25    2    1    2    0    0  0.00000000000E+00  0.00000000000E+00  0.68658687850E+02  0.14261400563E+03  0.12499895674E+03 0.  0.
    9000005    1    3    3    0    0  0.12025523964E+02 -0.60043247488E+02  0.20107583788E+02  0.64460218129E+02  0.10000000000E+01 0.  0.
    9000005    1    3    3    0    0 -0.12025523964E+02  0.60043247488E+02  0.48551104062E+02  0.78153787503E+02  0.10000000000E+01 0.  0.
<mgrwt>
<rscale>  0 0.12499896E+03</rscale>
<asrwt>0</asrwt>
<pdfrwt beam="2">  1        4 0.56888707E-02 0.12499896E+03</pdfrwt>
<pdfrwt beam="1">  1       -4 0.16251745E-01 0.12499896E+03</pdfrwt>
<totfact> 0.10079930E+04</totfact>
</mgrwt>
</event>
<event>
 5    1  0.3308162E-002  0.1249885E+03  0.7818608E-02  0.1235087E+00
          4   -1    0    0  501    0  0.00000000000E+00  0.00000000000E+00  0.16396020558E+03  0.16396512408E+03  0.12700000000E+01 0. -1.
         -4   -1    0    0    0  501 -0.00000000000E+00 -0.00000000000E+00 -0.23797795065E+02  0.23831658565E+02  0.12700000000E+01 0. -1.
         25    2    1    2    0    0  0.00000000000E+00  0.00000000000E+00  0.14016241052E+03  0.18779678265E+03  0.12498852047E+03 0.  0.
    9000005    1    3    3    0    0  0.38075636053E+02 -0.32259171868E+02  0.13579465837E+02  0.51728233325E+02  0.10000000000E+01 0.  0.
    9000005    1    3    3    0    0 -0.38075636053E+02  0.32259171868E+02  0.12658294468E+03  0.13606854932E+03  0.10000000000E+01 0.  0.
<mgrwt>
<rscale>  0 0.12498852E+03</rscale>
<asrwt>0</asrwt>
<pdfrwt beam="1">  1        4 0.25227630E-01 0.12498852E+03</pdfrwt>
<pdfrwt beam="2">  1       -4 0.36641825E-02 0.12498852E+03</pdfrwt>
<totfact> 0.92255811E+03</totfact>
</mgrwt>
</event>
<event>
 5    1  0.3308162E-002  0.1250006E+03  0.7818608E-02  0.1235068E+00
          4   -1    0    0  501    0  0.00000000000E+00  0.00000000000E+00  0.24276747758E+02  0.24309944091E+02  0.12700000000E+01 0.  1.
         -4   -1    0    0    0  501 -0.00000000000E+00 -0.00000000000E+00 -0.16076094222E+03  0.16076595860E+03  0.12700000000E+01 0.  1.
         25    2    1    2    0    0  0.00000000000E+00  0.00000000000E+00 -0.13648419447E+03  0.18507590269E+03  0.12500061767E+03 0.  0.
    9000005    1    3    3    0    0  0.53378207227E+02 -0.48481652918E+01 -0.11581870245E+03  0.12762331116E+03  0.10000000000E+01 0.  0.
    9000005    1    3    3    0    0 -0.53378207227E+02  0.48481652918E+01 -0.20665492011E+02  0.57452591530E+02  0.10000000000E+01 0.  0.
<mgrwt>
<rscale>  0 0.12500062E+03</rscale>
<asrwt>0</asrwt>
<pdfrwt beam="1">  1        4 0.37378238E-02 0.12500062E+03</pdfrwt>
<pdfrwt beam="2">  1       -4 0.24735391E-01 0.12500062E+03</pdfrwt>
<totfact> 0.92709938E+03</totfact>
</mgrwt>
</event>
<event>
 5    1  0.3308162E-002  0.1249945E+03  0.7818608E-02  0.1235078E+00
         -4   -1    0    0    0  501 -0.00000000000E+00  0.00000000000E+00  0.54320702235E+02  0.54335546296E+02  0.12700000000E+01 0. -1.
          4   -1    0    0  501    0  0.00000000000E+00 -0.00000000000E+00 -0.71874231555E+02  0.71885450973E+02  0.12700000000E+01 0. -1.
         25    2    1    2    0    0  0.00000000000E+00  0.00000000000E+00 -0.17553529320E+02  0.12622099727E+03  0.12499445492E+03 0.  0.
    9000005    1    3    3    0    0  0.27952025253E+02  0.46107943870E+01 -0.65021870384E+02  0.70932494450E+02  0.10000000000E+01 0.  0.
    9000005    1    3    3    0    0 -0.27952025253E+02 -0.46107943870E+01  0.47468341064E+02  0.55288502819E+02  0.10000000000E+01 0.  0.
<mgrwt>
<rscale>  0 0.12499445E+03</rscale>
<asrwt>0</asrwt>
<pdfrwt beam="2">  1        4 0.11059579E-01 0.12499445E+03</pdfrwt>
<pdfrwt beam="1">  1       -4 0.83590360E-02 0.12499445E+03</pdfrwt>
<totfact> 0.10427425E+04</totfact>
</mgrwt>
</event>
<event>
 5    1  0.3308162E-002  0.1249998E+03  0.7818608E-02  0.1235070E+00
          4   -1    0    0  501    0  0.00000000000E+00  0.00000000000E+00  0.36408090273E+01  0.38559551830E+01  0.12700000000E+01 0. -1.
         -4   -1    0    0    0  501 -0.00000000000E+00 -0.00000000000E+00 -0.10418977018E+04  0.10418984759E+04  0.12700000000E+01 0. -1.
         25    2    1    2    0    0  0.00000000000E+00  0.00000000000E+00 -0.10382568928E+04  0.10457544311E+04  0.12499981829E+03 0.  0.
    9000005    1    3    3    0    0 -0.36938497997E+02  0.78406239013E+01 -0.93569634803E+03  0.93645853284E+03  0.10000000000E+01 0.  0.
    9000005    1    3    3    0    0  0.36938497997E+02 -0.78406239013E+01 -0.10256054479E+03  0.10929589821E+03  0.10000000000E+01 0.  0.
<mgrwt>
<rscale>  0 0.12499982E+03</rscale>
<asrwt>0</asrwt>
<pdfrwt beam="1">  1        4 0.57673454E-03 0.12499982E+03</pdfrwt>
<pdfrwt beam="2">  1       -4 0.16030833E+00 0.12499982E+03</pdfrwt>
<totfact> 0.29127863E+03</totfact>
</mgrwt>
</event>
<event>
 5    1  0.3308162E-002  0.1250081E+03  0.7818608E-02  0.1235057E+00
         -4   -1    0    0    0  501 -0.00000000000E+00  0.00000000000E+00  0.27408076424E+02  0.27437484456E+02  0.12700000000E+01 0.  1.
          4   -1    0    0  501    0  0.00000000000E+00 -0.00000000000E+00 -0.14243162387E+03  0.14243728577E+03  0.12700000000E+01 0.  1.
         25    2    1    2    0    0  0.00000000000E+00  0.00000000000E+00 -0.11502354744E+03  0.16987477023E+03  0.12500808411E+03 0.  0.
    9000005    1    3    3    0    0 -0.66963136327E+01 -0.61331115433E+02 -0.43962890565E+02  0.75763329410E+02  0.10000000000E+01 0.  0.
    9000005    1    3    3    0    0  0.66963136327E+01  0.61331115433E+02 -0.71060656880E+02  0.94111440817E+02  0.10000000000E+01 0.  0.
<mgrwt>
<rscale>  0 0.12500808E+03</rscale>
<asrwt>0</asrwt>
<pdfrwt beam="2">  1        4 0.21915255E-01 0.12500808E+03</pdfrwt>
<pdfrwt beam="1">  1       -4 0.42193249E-02 0.12500808E+03</pdfrwt>
<totfact> 0.95454661E+03</totfact>
</mgrwt>
</event>
<event>
 5    1  0.3308162E-002  0.1249995E+03  0.7818608E-02  0.1235070E+00
         -4   -1    0    0    0  501 -0.00000000000E+00  0.00000000000E+00  0.94264155207E+01  0.95115829160E+01  0.12700000000E+01 0. -1.
          4   -1    0    0  501    0  0.00000000000E+00 -0.00000000000E+00 -0.41244065114E+03  0.41244260645E+03  0.12700000000E+01 0. -1.
         25    2    1    2    0    0  0.00000000000E+00  0.00000000000E+00 -0.40301423562E+03  0.42195418937E+03  0.12499945524E+03 0.  0.
    9000005    1    3    3    0    0 -0.31885374154E+01 -0.46459810742E+02 -0.60837931853E+02  0.76622025144E+02  0.10000000000E+01 0.  0.
    9000005    1    3    3    0    0  0.31885374154E+01  0.46459810742E+02 -0.34217630377E+03  0.34533216422E+03  0.10000000000E+01 0.  0.
<mgrwt>
<rscale>  0 0.12499946E+03</rscale>
<asrwt>0</asrwt>
<pdfrwt beam="2">  1        4 0.63459096E-01 0.12499946E+03</pdfrwt>
<pdfrwt beam="1">  1       -4 0.14569198E-02 0.12499946E+03</pdfrwt>
<totfact> 0.62472885E+03</totfact>
</mgrwt>
</event>
<event>
 5    1  0.3308162E-002  0.1249994E+03  0.7818608E-02  0.1235070E+00
          4   -1    0    0  501    0  0.00000000000E+00  0.00000000000E+00  0.41382270155E+03  0.41382465032E+03  0.12700000000E+01 0. -1.
         -4   -1    0    0    0  501 -0.00000000000E+00 -0.00000000000E+00 -0.93946463628E+01  0.94800991705E+01  0.12700000000E+01 0. -1.
         25    2    1    2    0    0  0.00000000000E+00  0.00000000000E+00  0.40442805519E+03  0.42330474950E+03  0.12499943650E+03 0.  0.
    9000005    1    3    3    0    0 -0.47677304804E+02 -0.27255969602E+02  0.30319630980E+03  0.30813149068E+03  0.10000000000E+01 0.  0.
    9000005    1    3    3    0    0  0.47677304804E+02  0.27255969602E+02  0.10123174538E+03  0.11517325881E+03  0.10000000000E+01 0.  0.
<mgrwt>
<rscale>  0 0.12499944E+03</rscale>
<asrwt>0</asrwt>
<pdfrwt beam="1">  1        4 0.63671743E-01 0.12499944E+03</pdfrwt>
<pdfrwt beam="2">  1       -4 0.14520537E-02 0.12499944E+03</pdfrwt>
<totfact> 0.62348378E+03</totfact>
</mgrwt>
</event>
<event>
 5    1  0.3308162E-002  0.1250003E+03  0.7818608E-02  0.1235069E+00
         -4   -1    0    0    0  501 -0.00000000000E+00  0.00000000000E+00  0.77359238519E+02  0.77369662557E+02  0.12700000000E+01 0.  1.
          4   -1    0    0  501    0  0.00000000000E+00 -0.00000000000E+00 -0.50473358047E+02  0.50489333255E+02  0.12700000000E+01 0.  1.
         25    2    1    2    0    0  0.00000000000E+00  0.00000000000E+00  0.26885880472E+02  0.12785899581E+03  0.12500028897E+03 0.  0.
    9000005    1    3    3    0    0  0.54539049597E+02 -0.24498714676E+02  0.32040417358E+02  0.67840130426E+02  0.10000000000E+01 0.  0.
    9000005    1    3    3    0    0 -0.54539049597E+02  0.24498714676E+02 -0.51545368864E+01  0.60018865386E+02  0.10000000000E+01 0.  0.
<mgrwt>
<rscale>  0 0.12500029E+03</rscale>
<asrwt>0</asrwt>
<pdfrwt beam="2">  1        4 0.77671627E-02 0.12500029E+03</pdfrwt>
<pdfrwt beam="1">  1       -4 0.11903452E-01 0.12500029E+03</pdfrwt>
<totfact> 0.10390466E+04</totfact>
</mgrwt>
</event>
<event>
 5    1  0.3308162E-002  0.1250164E+03  0.7818608E-02  0.1235044E+00
          4   -1    0    0  501    0  0.00000000000E+00  0.00000000000E+00  0.23383598722E+02  0.23418061175E+02  0.12700000000E+01 0.  1.
         -4   -1    0    0    0  501 -0.00000000000E+00 -0.00000000000E+00 -0.16693469051E+03  0.16693952137E+03  0.12700000000E+01 0.  1.
         25    2    1    2    0    0  0.00000000000E+00  0.00000000000E+00 -0.14355109179E+03  0.19035758255E+03  0.12501637204E+03 0.  0.
    9000005    1    3    3    0    0 -0.31360449166E+02 -0.47899828719E+01 -0.15377126459E+03  0.15701281324E+03  0.10000000000E+01 0.  0.
    9000005    1    3    3    0    0  0.31360449166E+02  0.47899828719E+01  0.10220172804E+02  0.33344769304E+02  0.10000000000E+01 0.  0.
<mgrwt>
<rscale>  0 0.12501637E+03</rscale>
<asrwt>0</asrwt>
<pdfrwt beam="1">  1        4 0.36004994E-02 0.12501637E+03</pdfrwt>
<pdfrwt beam="2">  1       -4 0.25685282E-01 0.12501637E+03</pdfrwt>
<totfact> 0.91751483E+03</totfact>
</mgrwt>
</event>
<event>
 5    1  0.3308162E-002  0.1250002E+03  0.7818608E-02  0.1235069E+00
         -4   -1    0    0    0  501 -0.00000000000E+00  0.00000000000E+00  0.64593031810E+02  0.64605515696E+02  0.12700000000E+01 0. -1.
          4   -1    0    0  501    0  0.00000000000E+00 -0.00000000000E+00 -0.60449992069E+02  0.60463331376E+02  0.12700000000E+01 0. -1.
         25    2    1    2    0    0  0.00000000000E+00  0.00000000000E+00  0.41430397407E+01  0.12506884707E+03  0.12500020692E+03 0.  0.
    9000005    1    3    3    0    0  0.35756174810E+02  0.18547141866E+02 -0.45732979235E+02  0.60950848216E+02  0.10000000000E+01 0.  0.
    9000005    1    3    3    0    0 -0.35756174810E+02 -0.18547141866E+02  0.49876018976E+02  0.64117998857E+02  0.10000000000E+01 0.  0.
<mgrwt>
<rscale>  0 0.12500021E+03</rscale>
<asrwt>0</asrwt>
<pdfrwt beam="2">  1        4 0.93019852E-02 0.12500021E+03</pdfrwt>
<pdfrwt beam="1">  1       -4 0.99393759E-02 0.12500021E+03</pdfrwt>
<totfact> 0.10451319E+04</totfact>
</mgrwt>
</event>
<event>
 5    1  0.3308162E-002  0.1249984E+03  0.7818608E-02  0.1235072E+00
         -4   -1    0    0    0  501 -0.00000000000E+00  0.00000000000E+00  0.10114825135E+02  0.10194242861E+02  0.12700000000E+01 0.  1.
          4   -1    0    0  501    0  0.00000000000E+00 -0.00000000000E+00 -0.38459029608E+03  0.38459239299E+03  0.12700000000E+01 0.  1.
         25    2    1    2    0    0  0.00000000000E+00  0.00000000000E+00 -0.37447547095E+03  0.39478663585E+03  0.12499843799E+03 0.  0.
    9000005    1    3    3    0    0  0.53310211221E+01 -0.41812449281E+02 -0.41527602769E+02  0.59179747320E+02  0.10000000000E+01 0.  0.
    9000005    1    3    3    0    0 -0.53310211221E+01  0.41812449281E+02 -0.33294786818E+03  0.33560688853E+03  0.10000000000E+01 0.  0.
<mgrwt>
<rscale>  0 0.12499844E+03</rscale>
<asrwt>0</asrwt>
<pdfrwt beam="2">  1        4 0.59173997E-01 0.12499844E+03</pdfrwt>
<pdfrwt beam="1">  1       -4 0.15623976E-02 0.12499844E+03</pdfrwt>
<totfact> 0.65065262E+03</totfact>
</mgrwt>
</event>
<event>
 5    1  0.3308162E-002  0.1249617E+03  0.7818608E-02  0.1235129E+00
         -4   -1    0    0    0  501 -0.00000000000E+00  0.00000000000E+00  0.18881009950E+02  0.18923673976E+02  0.12700000000E+01 0. -1.
          4   -1    0    0  501    0  0.00000000000E+00 -0.00000000000E+00 -0.20648293677E+03  0.20648684238E+03  0.12700000000E+01 0. -1.
         25    2    1    2    0    0  0.00000000000E+00  0.00000000000E+00 -0.18760192682E+03  0.22541051636E+03  0.12496166588E+03 0.  0.
    9000005    1    3    3    0    0 -0.38615380836E+02 -0.49107041598E+02 -0.92983618100E+02  0.11202500795E+03  0.10000000000E+01 0.  0.
    9000005    1    3    3    0    0  0.38615380836E+02  0.49107041598E+02 -0.94618308721E+02  0.11338550841E+03  0.10000000000E+01 0.  0.
<mgrwt>
<rscale>  0 0.12496167E+03</rscale>
<asrwt>0</asrwt>
<pdfrwt beam="2">  1        4 0.31770186E-01 0.12496167E+03</pdfrwt>
<pdfrwt beam="1">  1       -4 0.29083532E-02 0.12496167E+03</pdfrwt>
<totfact> 0.86092978E+03</totfact>
</mgrwt>
</event>
<event>
 5    1  0.3308162E-002  0.1249991E+03  0.7818608E-02  0.1235071E+00
         -4   -1    0    0    0  501 -0.00000000000E+00  0.00000000000E+00  0.29020857707E+02  0.29048633049E+02  0.12700000000E+01 0. -1.
          4   -1    0    0  501    0  0.00000000000E+00 -0.00000000000E+00 -0.13450428088E+03  0.13451027647E+03  0.12700000000E+01 0. -1.
         25    2    1    2    0    0  0.00000000000E+00  0.00000000000E+00 -0.10548342318E+03  0.16355890952E+03  0.12499905727E+03 0.  0.
    9000005    1    3    3    0    0 -0.25263693334E+01  0.37580207647E+02  0.12505940858E+02  0.39699535332E+02  0.10000000000E+01 0.  0.
    9000005    1    3    3    0    0  0.25263693334E+01 -0.37580207647E+02 -0.11798936403E+03  0.12385937419E+03  0.10000000000E+01 0.  0.
<mgrwt>
<rscale>  0 0.12499906E+03</rscale>
<asrwt>0</asrwt>
<pdfrwt beam="2">  1        4 0.20695564E-01 0.12499906E+03</pdfrwt>
<pdfrwt beam="1">  1       -4 0.44673452E-02 0.12499906E+03</pdfrwt>
<totfact> 0.96663057E+03</totfact>
</mgrwt>
</event>
<event>
 5    1  0.3308162E-002  0.1249868E+03  0.7818608E-02  0.1235090E+00
          4   -1    0    0  501    0  0.00000000000E+00  0.00000000000E+00  0.12017945124E+02  0.12084862639E+02  0.12700000000E+01 0.  1.
         -4   -1    0    0    0  501 -0.00000000000E+00 -0.00000000000E+00 -0.32399570470E+03  0.32399819377E+03  0.12700000000E+01 0.  1.
         25    2    1    2    0    0  0.00000000000E+00  0.00000000000E+00 -0.31197775958E+03  0.33608305641E+03  0.12498679264E+03 0.  0.
    9000005    1    3    3    0    0  0.15289543951E+02  0.87903224787E+01 -0.31717748947E+03  0.31766900974E+03  0.10000000000E+01 0.  0.
    9000005    1    3    3    0    0 -0.15289543951E+02 -0.87903224787E+01  0.51997298962E+01  0.18414046663E+02  0.10000000000E+01 0.  0.
<mgrwt>
<rscale>  0 0.12498679E+03</rscale>
<asrwt>0</asrwt>
<pdfrwt beam="1">  1        4 0.18542539E-02 0.12498679E+03</pdfrwt>
<pdfrwt beam="2">  1       -4 0.49850825E-01 0.12498679E+03</pdfrwt>
<totfact> 0.71304081E+03</totfact>
</mgrwt>
</event>
<event>
 5    1  0.3308162E-002  0.1249946E+03  0.7818608E-02  0.1235078E+00
          4   -1    0    0  501    0  0.00000000000E+00  0.00000000000E+00  0.28116482069E+02  0.28145149918E+02  0.12700000000E+01 0. -1.
         -4   -1    0    0    0  501 -0.00000000000E+00 -0.00000000000E+00 -0.13881667577E+03  0.13882248511E+03  0.12700000000E+01 0. -1.
         25    2    1    2    0    0  0.00000000000E+00  0.00000000000E+00 -0.11070019370E+03  0.16696763503E+03  0.12499463293E+03 0.  0.
    9000005    1    3    3    0    0  0.54114894712E+02 -0.29606542170E+02 -0.41995759974E+02  0.74629840042E+02  0.10000000000E+01 0.  0.
    9000005    1    3    3    0    0 -0.54114894712E+02  0.29606542170E+02 -0.68704433726E+02  0.92337794984E+02  0.10000000000E+01 0.  0.
<mgrwt>
<rscale>  0 0.12499463E+03</rscale>
<asrwt>0</asrwt>
<pdfrwt beam="1">  1        4 0.43282648E-02 0.12499463E+03</pdfrwt>
<pdfrwt beam="2">  1       -4 0.21359063E-01 0.12499463E+03</pdfrwt>
<totfact> 0.96027621E+03</totfact>
</mgrwt>
</event>
<event>
 4    1  0.3308162E-002  0.1249003E+03  0.7818608E-02  0.1235225E+00
         -4   -1    0    0    0  501 -0.00000000000E+00  0.00000000000E+00  0.35625104189E+03  0.35625330559E+03  0.12700000000E+01 0. -1.
          4   -1    0    0  501    0  0.00000000000E+00 -0.00000000000E+00 -0.10908257387E+02  0.10981938773E+02  0.12700000000E+01 0. -1.
    9000005    1    1    2    0    0 -0.51446408231E+02  0.35220046074E+02  0.16255559728E+03  0.17410487292E+03  0.10000000000E+01 0.  0.
    9000005    1    1    2    0    0  0.51446408231E+02 -0.35220046074E+02  0.18278718722E+03  0.19313037145E+03  0.10000000000E+01 0.  0.
<mgrwt>
<rscale>  0 0.12490030E+03</rscale>
<asrwt>0</asrwt>
<pdfrwt beam="2">  1        4 0.16840355E-02 0.12490030E+03</pdfrwt>
<pdfrwt beam="1">  1       -4 0.54813690E-01 0.12490030E+03</pdfrwt>
<totfact> 0.68019005E+03</totfact>
</mgrwt>
</event>
<event>
 5    1  0.3308162E-002  0.1249998E+03  0.7818608E-02  0.1235070E+00
          4   -1    0    0  501    0  0.00000000000E+00  0.00000000000E+00  0.72752762270E+02  0.72763846229E+02  0.12700000000E+01 0.  1.
         -4   -1    0    0    0  501 -0.00000000000E+00 -0.00000000000E+00 -0.53669231762E+02  0.53684255960E+02  0.12700000000E+01 0.  1.
         25    2    1    2    0    0  0.00000000000E+00  0.00000000000E+00  0.19083530508E+02  0.12644810219E+03  0.12499976564E+03 0.  0.
    9000005    1    3    3    0    0 -0.54368304789E+02  0.28703620512E+02  0.20870857064E+02  0.64933836100E+02  0.10000000000E+01 0.  0.
    9000005    1    3    3    0    0  0.54368304789E+02 -0.28703620512E+02 -0.17873265554E+01  0.61514266088E+02  0.10000000000E+01 0.  0.
<mgrwt>
<rscale>  0 0.12499977E+03</rscale>
<asrwt>0</asrwt>
<pdfrwt beam="1">  1        4 0.11194741E-01 0.12499977E+03</pdfrwt>
<pdfrwt beam="2">  1       -4 0.82588132E-02 0.12499977E+03</pdfrwt>
<totfact> 0.10421215E+04</totfact>
</mgrwt>
</event>
<event>
 5    1  0.3308162E-002  0.1249990E+03  0.7818608E-02  0.1235071E+00
          4   -1    0    0  501    0  0.00000000000E+00  0.00000000000E+00  0.83094760458E+02  0.83104465076E+02  0.12700000000E+01 0.  1.
         -4   -1    0    0    0  501 -0.00000000000E+00 -0.00000000000E+00 -0.46987803306E+02  0.47004963137E+02  0.12700000000E+01 0.  1.
         25    2    1    2    0    0  0.00000000000E+00  0.00000000000E+00  0.36106957152E+02  0.13010942821E+03  0.12499900382E+03 0.  0.
    9000005    1    3    3    0    0  0.16318435016E+02  0.37596279854E+02  0.67156456904E+02  0.78681390965E+02  0.10000000000E+01 0.  0.
    9000005    1    3    3    0    0 -0.16318435016E+02 -0.37596279854E+02 -0.31049499752E+02  0.51428037248E+02  0.10000000000E+01 0.  0.
<mgrwt>
<rscale>  0 0.12499900E+03</rscale>
<asrwt>0</asrwt>
<pdfrwt beam="1">  1        4 0.12785876E-01 0.12499900E+03</pdfrwt>
<pdfrwt beam="2">  1       -4 0.72309593E-02 0.12499900E+03</pdfrwt>
<totfact> 0.10342400E+04</totfact>
</mgrwt>
</event>
<event>
 5    1  0.3308162E-002  0.1249920E+03  0.7818608E-02  0.1235082E+00
          4   -1    0    0  501    0  0.00000000000E+00  0.00000000000E+00  0.66539773245E+03  0.66539894443E+03  0.12700000000E+01 0.  1.
         -4   -1    0    0    0  501 -0.00000000000E+00 -0.00000000000E+00 -0.57998680451E+01  0.59372863617E+01  0.12700000000E+01 0.  1.
         25    2    1    2    0    0  0.00000000000E+00  0.00000000000E+00  0.65959786441E+03  0.67133623079E+03  0.12499196793E+03 0.  0.
    9000005    1    3    3    0    0  0.30218218948E+02  0.48828957263E+02  0.46216418391E+03  0.46571895034E+03  0.10000000000E+01 0.  0.
    9000005    1    3    3    0    0 -0.30218218948E+02 -0.48828957263E+02  0.19743368050E+03  0.20561728045E+03  0.10000000000E+01 0.  0.
<mgrwt>
<rscale>  0 0.12499197E+03</rscale>
<asrwt>0</asrwt>
<pdfrwt beam="1">  1        4 0.10237958E+00 0.12499197E+03</pdfrwt>
<pdfrwt beam="2">  1       -4 0.90295097E-03 0.12499197E+03</pdfrwt>
<totfact> 0.44651448E+03</totfact>
</mgrwt>
</event>
<event>
 5    1  0.3308162E-002  0.1249896E+03  0.7818608E-02  0.1235085E+00
          4   -1    0    0  501    0  0.00000000000E+00  0.00000000000E+00  0.31444828945E+03  0.31445085409E+03  0.12700000000E+01 0.  1.
         -4   -1    0    0    0  501 -0.00000000000E+00 -0.00000000000E+00 -0.12385403718E+02  0.12450346391E+02  0.12700000000E+01 0.  1.
         25    2    1    2    0    0  0.00000000000E+00  0.00000000000E+00  0.30206288573E+03  0.32690120048E+03  0.12498963133E+03 0.  0.
    9000005    1    3    3    0    0  0.40160625164E+02  0.16353067287E+02  0.26870539144E+03  0.27218355206E+03  0.10000000000E+01 0.  0.
    9000005    1    3    3    0    0 -0.40160625164E+02 -0.16353067287E+02  0.33357494290E+02  0.54717648419E+02  0.10000000000E+01 0.  0.
<mgrwt>
<rscale>  0 0.12498963E+03</rscale>
<asrwt>0</asrwt>
<pdfrwt beam="1">  1        4 0.48381855E-01 0.12498963E+03</pdfrwt>
<pdfrwt beam="2">  1       -4 0.19106395E-02 0.12498963E+03</pdfrwt>
<totfact> 0.72359388E+03</totfact>
</mgrwt>
</event>
<event>
 5    1  0.3308162E-002  0.1249982E+03  0.7818608E-02  0.1235072E+00
          4   -1    0    0  501    0  0.00000000000E+00  0.00000000000E+00  0.47039704026E+03  0.47039875466E+03  0.12700000000E+01 0.  1.
         -4   -1    0    0    0  501 -0.00000000000E+00 -0.00000000000E+00 -0.82536143567E+01  0.83507514601E+01  0.12700000000E+01 0.  1.
         25    2    1    2    0    0  0.00000000000E+00  0.00000000000E+00  0.46214342590E+03  0.47874950612E+03  0.12499817400E+03 0.  0.
    9000005    1    3    3    0    0 -0.61318647690E+02  0.35714147015E+01  0.18700042472E+03  0.19683213763E+03  0.10000000000E+01 0.  0.
    9000005    1    3    3    0    0  0.61318647690E+02 -0.35714147015E+01  0.27514300118E+03  0.28191736849E+03  0.10000000000E+01 0.  0.
<mgrwt>
<rscale>  0 0.12499817E+03</rscale>
<asrwt>0</asrwt>
<pdfrwt beam="1">  1        4 0.72376391E-01 0.12499817E+03</pdfrwt>
<pdfrwt beam="2">  1       -4 0.12773906E-02 0.12499817E+03</pdfrwt>
<totfact> 0.57553986E+03</totfact>
</mgrwt>
</event>
<event>
 5    1  0.3308162E-002  0.1249996E+03  0.7818608E-02  0.1235070E+00
         -4   -1    0    0    0  501 -0.00000000000E+00  0.00000000000E+00  0.11470014587E+02  0.11540109819E+02  0.12700000000E+01 0. -1.
          4   -1    0    0  501    0  0.00000000000E+00 -0.00000000000E+00 -0.33945122531E+03  0.33945360104E+03  0.12700000000E+01 0. -1.
         25    2    1    2    0    0  0.00000000000E+00  0.00000000000E+00 -0.32798121072E+03  0.35099371086E+03  0.12499964192E+03 0.  0.
    9000005    1    3    3    0    0  0.26651680467E+02  0.40229290976E+02 -0.52499488413E+02  0.71315525713E+02  0.10000000000E+01 0.  0.
    9000005    1    3    3    0    0 -0.26651680467E+02 -0.40229290976E+02 -0.27548172231E+03  0.27967818515E+03  0.10000000000E+01 0.  0.
<mgrwt>
<rscale>  0 0.12499964E+03</rscale>
<asrwt>0</asrwt>
<pdfrwt beam="2">  1        4 0.52228833E-01 0.12499964E+03</pdfrwt>
<pdfrwt beam="1">  1       -4 0.17701926E-02 0.12499964E+03</pdfrwt>
<totfact> 0.69615929E+03</totfact>
</mgrwt>
</event>
<event>
 5    1  0.3308162E-002  0.1250001E+03  0.7818608E-02  0.1235069E+00
         -4   -1    0    0    0  501 -0.00000000000E+00  0.00000000000E+00  0.32883308346E+03  0.32883553591E+03  0.12700000000E+01 0. -1.
          4   -1    0    0  501    0  0.00000000000E+00 -0.00000000000E+00 -0.11842689485E+02  0.11910591683E+02  0.12700000000E+01 0. -1.
         25    2    1    2    0    0  0.00000000000E+00  0.00000000000E+00  0.31699039397E+03  0.34074612759E+03  0.12500005439E+03 0.  0.
    9000005    1    3    3    0    0  0.74266060027E+01 -0.13649504145E+02 -0.65055882721E+01  0.16875607216E+02  0.10000000000E+01 0.  0.
    9000005    1    3    3    0    0 -0.74266060027E+01  0.13649504145E+02  0.32349598224E+03  0.32387052038E+03  0.10000000000E+01 0.  0.
<mgrwt>
<rscale>  0 0.12500005E+03</rscale>
<asrwt>0</asrwt>
<pdfrwt beam="2">  1        4 0.18273642E-02 0.12500005E+03</pdfrwt>
<pdfrwt beam="1">  1       -4 0.50595115E-01 0.12500005E+03</pdfrwt>
<totfact> 0.70754652E+03</totfact>
</mgrwt>
</event>
<event>
 5    1  0.3308162E-002  0.1249925E+03  0.7818608E-02  0.1235081E+00
          4   -1    0    0  501    0  0.00000000000E+00  0.00000000000E+00  0.17807896597E+03  0.17808349452E+03  0.12700000000E+01 0.  1.
         -4   -1    0    0    0  501 -0.00000000000E+00 -0.00000000000E+00 -0.21909668778E+02  0.21946445862E+02  0.12700000000E+01 0.  1.
         25    2    1    2    0    0  0.00000000000E+00  0.00000000000E+00  0.15616929719E+03  0.20002994038E+03  0.12499251043E+03 0.  0.
    9000005    1    3    3    0    0  0.53748105927E+02 -0.17645219808E+02  0.35605788400E+02  0.66850466270E+02  0.10000000000E+01 0.  0.
    9000005    1    3    3    0    0 -0.53748105927E+02  0.17645219808E+02  0.12056350879E+03  0.13317947411E+03  0.10000000000E+01 0.  0.
<mgrwt>
<rscale>  0 0.12499251E+03</rscale>
<asrwt>0</asrwt>
<pdfrwt beam="1">  1        4 0.27399941E-01 0.12499251E+03</pdfrwt>
<pdfrwt beam="2">  1       -4 0.33738957E-02 0.12499251E+03</pdfrwt>
<totfact> 0.90145564E+03</totfact>
</mgrwt>
</event>
<event>
 5    1  0.3308162E-002  0.1249974E+03  0.7818608E-02  0.1235073E+00
         -4   -1    0    0    0  501 -0.00000000000E+00  0.00000000000E+00  0.36200247909E+01  0.38363367275E+01  0.12700000000E+01 0. -1.
          4   -1    0    0  501    0  0.00000000000E+00 -0.00000000000E+00 -0.10475019826E+04  0.10475027525E+04  0.12700000000E+01 0. -1.
         25    2    1    2    0    0  0.00000000000E+00  0.00000000000E+00 -0.10438819578E+04  0.10513390892E+04  0.12499735459E+03 0.  0.
    9000005    1    3    3    0    0 -0.39115069462E+02  0.11856867787E+02 -0.91952892447E+03  0.92043740521E+03  0.10000000000E+01 0.  0.
    9000005    1    3    3    0    0  0.39115069462E+02 -0.11856867787E+02 -0.12435303336E+03  0.13090168402E+03  0.10000000000E+01 0.  0.
<mgrwt>
<rscale>  0 0.12499735E+03</rscale>
<asrwt>0</asrwt>
<pdfrwt beam="2">  1        4 0.16117062E+00 0.12499735E+03</pdfrwt>
<pdfrwt beam="1">  1       -4 0.57362633E-03 0.12499735E+03</pdfrwt>
<totfact> 0.28954710E+03</totfact>
</mgrwt>
</event>
<event>
 5    1  0.3308162E-002  0.1249984E+03  0.7818608E-02  0.1235072E+00
         -4   -1    0    0    0  501 -0.00000000000E+00  0.00000000000E+00  0.65572123479E+01  0.66790668342E+01  0.12700000000E+01 0.  1.
          4   -1    0    0  501    0  0.00000000000E+00 -0.00000000000E+00 -0.59009610730E+03  0.59009747394E+03  0.12700000000E+01 0.  1.
         25    2    1    2    0    0  0.00000000000E+00  0.00000000000E+00 -0.58353889495E+03  0.59677654077E+03  0.12499839078E+03 0.  0.
    9000005    1    3    3    0    0  0.27565031803E+02 -0.29768830017E+02 -0.51869240361E+03  0.52027764105E+03  0.10000000000E+01 0.  0.
    9000005    1    3    3    0    0 -0.27565031803E+02  0.29768830017E+02 -0.64846491341E+02  0.76498899718E+02  0.10000000000E+01 0.  0.
<mgrwt>
<rscale>  0 0.12499839E+03</rscale>
<asrwt>0</asrwt>
<pdfrwt beam="2">  1        4 0.90793454E-01 0.12499839E+03</pdfrwt>
<pdfrwt beam="1">  1       -4 0.10182809E-02 0.12499839E+03</pdfrwt>
<totfact> 0.49073467E+03</totfact>
</mgrwt>
</event>
<event>
 5    1  0.3308162E-002  0.1250045E+03  0.7818608E-02  0.1235062E+00
          4   -1    0    0  501    0  0.00000000000E+00  0.00000000000E+00  0.25962658401E+02  0.25993701762E+02  0.12700000000E+01 0. -1.
         -4   -1    0    0    0  501 -0.00000000000E+00 -0.00000000000E+00 -0.15034375188E+03  0.15034911583E+03  0.12700000000E+01 0. -1.
         25    2    1    2    0    0  0.00000000000E+00  0.00000000000E+00 -0.12438109348E+03  0.17634281759E+03  0.12500453152E+03 0.  0.
    9000005    1    3    3    0    0 -0.31814944736E+02  0.18158992826E+02  0.92354976484E+01  0.37791985206E+02  0.10000000000E+01 0.  0.
    9000005    1    3    3    0    0  0.31814944736E+02 -0.18158992826E+02 -0.13361659113E+03  0.13855083238E+03  0.10000000000E+01 0.  0.
<mgrwt>
<rscale>  0 0.12500453E+03</rscale>
<asrwt>0</asrwt>
<pdfrwt beam="1">  1        4 0.39970558E-02 0.12500453E+03</pdfrwt>
<pdfrwt beam="2">  1       -4 0.23132608E-01 0.12500453E+03</pdfrwt>
<totfact> 0.94269899E+03</totfact>
</mgrwt>
</event>
<event>
 5    1  0.3308162E-002  0.1250083E+03  0.7818608E-02  0.1235056E+00
          4   -1    0    0  501    0  0.00000000000E+00  0.00000000000E+00  0.20842365586E+03  0.20842752510E+03  0.12700000000E+01 0. -1.
         -4   -1    0    0    0  501 -0.00000000000E+00 -0.00000000000E+00 -0.18718817831E+02  0.18761850681E+02  0.12700000000E+01 0. -1.
         25    2    1    2    0    0  0.00000000000E+00  0.00000000000E+00  0.18970483802E+03  0.22718937578E+03  0.12500834732E+03 0.  0.
    9000005    1    3    3    0    0 -0.14487313588E+01 -0.42589285019E+02  0.17793386334E+03  0.18296831897E+03  0.10000000000E+01 0.  0.
    9000005    1    3    3    0    0  0.14487313588E+01  0.42589285019E+02  0.11770974680E+02  0.44221056816E+02  0.10000000000E+01 0.  0.
<mgrwt>
<rscale>  0 0.12500835E+03</rscale>
<asrwt>0</asrwt>
<pdfrwt beam="1">  1        4 0.32068783E-01 0.12500835E+03</pdfrwt>
<pdfrwt beam="2">  1       -4 0.28834262E-02 0.12500835E+03</pdfrwt>
<totfact> 0.85727078E+03</totfact>
</mgrwt>
</event>
<event>
 5    1  0.3308162E-002  0.1250015E+03  0.7818608E-02  0.1235067E+00
         -4   -1    0    0    0  501 -0.00000000000E+00  0.00000000000E+00  0.20377445378E+02  0.20416982640E+02  0.12700000000E+01 0.  1.
          4   -1    0    0  501    0  0.00000000000E+00 -0.00000000000E+00 -0.19147193276E+03  0.19147614456E+03  0.12700000000E+01 0.  1.
         25    2    1    2    0    0  0.00000000000E+00  0.00000000000E+00 -0.17109448738E+03  0.21189312720E+03  0.12500149496E+03 0.  0.
    9000005    1    3    3    0    0 -0.58315016781E+02 -0.19994066463E+02 -0.10291210351E+03  0.11996793290E+03  0.10000000000E+01 0.  0.
    9000005    1    3    3    0    0  0.58315016781E+02  0.19994066463E+02 -0.68182383877E+02  0.91925194300E+02  0.10000000000E+01 0.  0.
<mgrwt>
<rscale>  0 0.12500149E+03</rscale>
<asrwt>0</asrwt>
<pdfrwt beam="2">  1        4 0.29460585E-01 0.12500149E+03</pdfrwt>
<pdfrwt beam="1">  1       -4 0.31383570E-02 0.12500149E+03</pdfrwt>
<totfact> 0.88164693E+03</totfact>
</mgrwt>
</event>
<event>
 5    1  0.3308162E-002  0.1249950E+03  0.7818608E-02  0.1235077E+00
         -4   -1    0    0    0  501 -0.00000000000E+00  0.00000000000E+00  0.97156185508E+01  0.97982724918E+01  0.12700000000E+01 0.  1.
          4   -1    0    0  501    0  0.00000000000E+00 -0.00000000000E+00 -0.40024017072E+03  0.40024218563E+03  0.12700000000E+01 0.  1.
         25    2    1    2    0    0  0.00000000000E+00  0.00000000000E+00 -0.39052455216E+03  0.41004045812E+03  0.12499500570E+03 0.  0.
    9000005    1    3    3    0    0 -0.60608737237E+02 -0.15673492544E+01 -0.14561324131E+03  0.15773424377E+03  0.10000000000E+01 0.  0.
    9000005    1    3    3    0    0  0.60608737237E+02  0.15673492544E+01 -0.24491131086E+03  0.25230621435E+03  0.10000000000E+01 0.  0.
<mgrwt>
<rscale>  0 0.12499501E+03</rscale>
<asrwt>0</asrwt>
<pdfrwt beam="2">  1        4 0.61581911E-01 0.12499501E+03</pdfrwt>
<pdfrwt beam="1">  1       -4 0.15012238E-02 0.12499501E+03</pdfrwt>
<totfact> 0.63594856E+03</totfact>
</mgrwt>
</event>
<event>
 5    1  0.3308162E-002  0.1250008E+03  0.7818608E-02  0.1235068E+00
          4   -1    0    0  501    0  0.00000000000E+00  0.00000000000E+00  0.37779281582E+03  0.37779495045E+03  0.12700000000E+01 0. -1.
         -4   -1    0    0    0  501 -0.00000000000E+00 -0.00000000000E+00 -0.10298619808E+02  0.10376630953E+02  0.12700000000E+01 0. -1.
         25    2    1    2    0    0  0.00000000000E+00  0.00000000000E+00  0.36749419601E+03  0.38817158140E+03  0.12500077002E+03 0.  0.
    9000005    1    3    3    0    0 -0.57859286775E+02  0.22913343456E+02  0.16602215136E+03  0.17730502846E+03  0.10000000000E+01 0.  0.
    9000005    1    3    3    0    0  0.57859286775E+02 -0.22913343456E+02  0.20147204465E+03  0.21086655294E+03  0.10000000000E+01 0.  0.
<mgrwt>
<rscale>  0 0.12500077E+03</rscale>
<asrwt>0</asrwt>
<pdfrwt beam="1">  1        4 0.58128133E-01 0.12500077E+03</pdfrwt>
<pdfrwt beam="2">  1       -4 0.15905682E-02 0.12500077E+03</pdfrwt>
<totfact> 0.65718580E+03</totfact>
</mgrwt>
</event>
<event>
 5    1  0.3308162E-002  0.1249851E+03  0.7818608E-02  0.1235093E+00
          4   -1    0    0  501    0  0.00000000000E+00  0.00000000000E+00  0.11736918051E+02  0.11805428639E+02  0.12700000000E+01 0.  1.
         -4   -1    0    0    0  501 -0.00000000000E+00 -0.00000000000E+00 -0.33170020422E+03  0.33170263547E+03  0.12700000000E+01 0.  1.
         25    2    1    2    0    0  0.00000000000E+00  0.00000000000E+00 -0.31996328617E+03  0.34350806411E+03  0.12498514157E+03 0.  0.
    9000005    1    3    3    0    0 -0.47537607848E+02  0.23564694071E+02 -0.69276303706E+02  0.87265830780E+02  0.10000000000E+01 0.  0.
    9000005    1    3    3    0    0  0.47537607848E+02 -0.23564694071E+02 -0.25068698246E+03  0.25624223333E+03  0.10000000000E+01 0.  0.
<mgrwt>
<rscale>  0 0.12498514E+03</rscale>
<asrwt>0</asrwt>
<pdfrwt beam="1">  1        4 0.18111370E-02 0.12498514E+03</pdfrwt>
<pdfrwt beam="2">  1       -4 0.51036250E-01 0.12498514E+03</pdfrwt>
<totfact> 0.70467882E+03</totfact>
</mgrwt>
</event>
<event>
 5    1  0.3308162E-002  0.1250035E+03  0.7818608E-02  0.1235064E+00
          4   -1    0    0  501    0  0.00000000000E+00  0.00000000000E+00  0.70025819400E+01  0.71168148653E+01  0.12700000000E+01 0.  1.
         -4   -1    0    0    0  501 -0.00000000000E+00 -0.00000000000E+00 -0.55323313031E+03  0.55323458801E+03  0.12700000000E+01 0.  1.
         25    2    1    2    0    0  0.00000000000E+00  0.00000000000E+00 -0.54623054837E+03  0.56035140288E+03  0.12500353089E+03 0.  0.
    9000005    1    3    3    0    0 -0.30541174148E+01 -0.95810547856E+01  0.33739516731E+01  0.10654003655E+02  0.10000000000E+01 0.  0.
    9000005    1    3    3    0    0  0.30541174148E+01  0.95810547856E+01 -0.54960450004E+03  0.54969739922E+03  0.10000000000E+01 0.  0.
<mgrwt>
<rscale>  0 0.12500353E+03</rscale>
<asrwt>0</asrwt>
<pdfrwt beam="1">  1        4 0.10862200E-02 0.12500353E+03</pdfrwt>
<pdfrwt beam="2">  1       -4 0.85121654E-01 0.12500353E+03</pdfrwt>
<totfact> 0.51465991E+03</totfact>
</mgrwt>
</event>
<event>
 5    1  0.3308162E-002  0.1249981E+03  0.7818608E-02  0.1235072E+00
         -4   -1    0    0    0  501 -0.00000000000E+00  0.00000000000E+00  0.16581150050E+03  0.16581636409E+03  0.12700000000E+01 0.  1.
          4   -1    0    0  501    0  0.00000000000E+00 -0.00000000000E+00 -0.23535322939E+02  0.23569563548E+02  0.12700000000E+01 0.  1.
         25    2    1    2    0    0  0.00000000000E+00  0.00000000000E+00  0.14227617756E+03  0.18938592763E+03  0.12499807552E+03 0.  0.
    9000005    1    3    3    0    0 -0.17586539065E+02  0.47083712082E+02  0.12740089399E+03  0.13696039606E+03  0.10000000000E+01 0.  0.
    9000005    1    3    3    0    0  0.17586539065E+02 -0.47083712082E+02  0.14875283578E+02  0.52425531577E+02  0.10000000000E+01 0.  0.
<mgrwt>
<rscale>  0 0.12499808E+03</rscale>
<asrwt>0</asrwt>
<pdfrwt beam="2">  1        4 0.36238270E-02 0.12499808E+03</pdfrwt>
<pdfrwt beam="1">  1       -4 0.25512469E-01 0.12499808E+03</pdfrwt>
<totfact> 0.91958235E+03</totfact>
</mgrwt>
</event>
<event>
 5    1  0.3308162E-002  0.1250029E+03  0.7818608E-02  0.1235065E+00
         -4   -1    0    0    0  501 -0.00000000000E+00  0.00000000000E+00  0.52608716475E+02  0.52624043451E+02  0.12700000000E+01 0.  1.
          4   -1    0    0  501    0  0.00000000000E+00 -0.00000000000E+00 -0.74222915079E+02  0.74233779527E+02  0.12700000000E+01 0.  1.
         25    2    1    2    0    0  0.00000000000E+00  0.00000000000E+00 -0.21614198604E+02  0.12685782298E+03  0.12500293464E+03 0.  0.
    9000005    1    3    3    0    0 -0.62848039950E+01 -0.48460671835E+02  0.28726021594E+02  0.56693207640E+02  0.10000000000E+01 0.  0.
    9000005    1    3    3    0    0  0.62848039950E+01  0.48460671835E+02 -0.50340220198E+02  0.70164615338E+02  0.10000000000E+01 0.  0.
<mgrwt>
<rscale>  0 0.12500293E+03</rscale>
<asrwt>0</asrwt>
<pdfrwt beam="2">  1        4 0.11420925E-01 0.12500293E+03</pdfrwt>
<pdfrwt beam="1">  1       -4 0.80956635E-02 0.12500293E+03</pdfrwt>
<totfact> 0.10411546E+04</totfact>
</mgrwt>
</event>
<event>
 5    1  0.3308162E-002  0.1249928E+03  0.7818608E-02  0.1235080E+00
          4   -1    0    0  501    0  0.00000000000E+00  0.00000000000E+00  0.33897917344E+02  0.33921699549E+02  0.12700000000E+01 0. -1.
         -4   -1    0    0    0  501 -0.00000000000E+00 -0.00000000000E+00 -0.11515479548E+03  0.11516179845E+03  0.12700000000E+01 0. -1.
         25    2    1    2    0    0  0.00000000000E+00  0.00000000000E+00 -0.81256878132E+02  0.14908349799E+03  0.12499283632E+03 0.  0.
    9000005    1    3    3    0    0 -0.51033642547E+02  0.22933457782E+02 -0.74363605761E+01  0.56450647614E+02  0.10000000000E+01 0.  0.
    9000005    1    3    3    0    0  0.51033642547E+02 -0.22933457782E+02 -0.73820517556E+02  0.92632850381E+02  0.10000000000E+01 0.  0.
<mgrwt>
<rscale>  0 0.12499284E+03</rscale>
<asrwt>0</asrwt>
<pdfrwt beam="1">  1        4 0.52174323E-02 0.12499284E+03</pdfrwt>
<pdfrwt beam="2">  1       -4 0.17718490E-01 0.12499284E+03</pdfrwt>
<totfact> 0.99502746E+03</totfact>
</mgrwt>
</event>
<event>
 5    1  0.3308162E-002  0.1249916E+03  0.7818608E-02  0.1235082E+00
         -4   -1    0    0    0  501 -0.00000000000E+00  0.00000000000E+00  0.42428330849E+02  0.42447333940E+02  0.12700000000E+01 0. -1.
          4   -1    0    0  501    0  0.00000000000E+00 -0.00000000000E+00 -0.92010619669E+02  0.92019384001E+02  0.12700000000E+01 0. -1.
         25    2    1    2    0    0  0.00000000000E+00  0.00000000000E+00 -0.49582288821E+02  0.13446671794E+03  0.12499157919E+03 0.  0.
    9000005    1    3    3    0    0 -0.12786847040E+02 -0.60459798689E+02 -0.14824219139E+02  0.63558226752E+02  0.10000000000E+01 0.  0.
    9000005    1    3    3    0    0  0.12786847040E+02  0.60459798689E+02 -0.34758069681E+02  0.70908491189E+02  0.10000000000E+01 0.  0.
<mgrwt>
<rscale>  0 0.12499158E+03</rscale>
<asrwt>0</asrwt>
<pdfrwt beam="2">  1        4 0.14157616E-01 0.12499158E+03</pdfrwt>
<pdfrwt beam="1">  1       -4 0.65295715E-02 0.12499158E+03</pdfrwt>
<totfact> 0.10251270E+04</totfact>
</mgrwt>
</event>
<event>
 5    1  0.3308162E-002  0.1249979E+03  0.7818608E-02  0.1235073E+00
          4   -1    0    0  501    0  0.00000000000E+00  0.00000000000E+00  0.11457571178E+02  0.11527742073E+02  0.12700000000E+01 0.  1.
         -4   -1    0    0    0  501 -0.00000000000E+00 -0.00000000000E+00 -0.33980825855E+03  0.33981063179E+03  0.12700000000E+01 0.  1.
         25    2    1    2    0    0  0.00000000000E+00  0.00000000000E+00 -0.32835068737E+03  0.35133837386E+03  0.12499791619E+03 0.  0.
    9000005    1    3    3    0    0  0.14527200317E+02  0.55889563380E+02 -0.23130688625E+03  0.23840838591E+03  0.10000000000E+01 0.  0.
    9000005    1    3    3    0    0 -0.14527200317E+02 -0.55889563380E+02 -0.97043801115E+02  0.11292998795E+03  0.10000000000E+01 0.  0.
<mgrwt>
<rscale>  0 0.12499792E+03</rscale>
<asrwt>0</asrwt>
<pdfrwt beam="1">  1        4 0.17682838E-02 0.12499792E+03</pdfrwt>
<pdfrwt beam="2">  1       -4 0.52283766E-01 0.12499792E+03</pdfrwt>
<totfact> 0.69580781E+03</totfact>
</mgrwt>
</event>
<event>
 5    1  0.3308162E-002  0.1249929E+03  0.7818608E-02  0.1235080E+00
         -4   -1    0    0    0  501 -0.00000000000E+00  0.00000000000E+00  0.33095172268E+02  0.33119530906E+02  0.12700000000E+01 0. -1.
          4   -1    0    0  501    0  0.00000000000E+00 -0.00000000000E+00 -0.11794620003E+03  0.11795303727E+03  0.12700000000E+01 0. -1.
         25    2    1    2    0    0  0.00000000000E+00  0.00000000000E+00 -0.84851027760E+02  0.15107256817E+03  0.12499289557E+03 0.  0.
    9000005    1    3    3    0    0 -0.19477862837E+02 -0.10332904417E+02 -0.11309429469E+03  0.11522792867E+03  0.10000000000E+01 0.  0.
    9000005    1    3    3    0    0  0.19477862837E+02  0.10332904417E+02  0.28243266929E+02  0.35844639505E+02  0.10000000000E+01 0.  0.
<mgrwt>
<rscale>  0 0.12499290E+03</rscale>
<asrwt>0</asrwt>
<pdfrwt beam="2">  1        4 0.18147969E-01 0.12499290E+03</pdfrwt>
<pdfrwt beam="1">  1       -4 0.50939647E-02 0.12499290E+03</pdfrwt>
<totfact> 0.99106169E+03</totfact>
</mgrwt>
</event>
<event>
 5    1  0.3308162E-002  0.1249984E+03  0.7818608E-02  0.1235072E+00
          4   -1    0    0  501    0  0.00000000000E+00  0.00000000000E+00  0.24917043304E+02  0.24949387709E+02  0.12700000000E+01 0. -1.
         -4   -1    0    0    0  501 -0.00000000000E+00 -0.00000000000E+00 -0.15662958809E+03  0.15663473677E+03  0.12700000000E+01 0. -1.
         25    2    1    2    0    0  0.00000000000E+00  0.00000000000E+00 -0.13171254478E+03  0.18158412448E+03  0.12499839923E+03 0.  0.
    9000005    1    3    3    0    0 -0.42499343704E+02  0.48138356819E+01  0.32945886960E+00  0.42784059794E+02  0.10000000000E+01 0.  0.
    9000005    1    3    3    0    0  0.42499343704E+02 -0.48138356819E+01 -0.13204200365E+03  0.13880006469E+03  0.10000000000E+01 0.  0.
<mgrwt>
<rscale>  0 0.12499840E+03</rscale>
<asrwt>0</asrwt>
<pdfrwt beam="1">  1        4 0.38362755E-02 0.12499840E+03</pdfrwt>
<pdfrwt beam="2">  1       -4 0.24099743E-01 0.12499840E+03</pdfrwt>
<totfact> 0.93335980E+03</totfact>
</mgrwt>
</event>
<event>
 5    1  0.3308162E-002  0.1249957E+03  0.7818608E-02  0.1235076E+00
          4   -1    0    0  501    0  0.00000000000E+00  0.00000000000E+00  0.36186374739E+03  0.36186597598E+03  0.12700000000E+01 0.  1.
         -4   -1    0    0    0  501 -0.00000000000E+00 -0.00000000000E+00 -0.10754446272E+02  0.10829174235E+02  0.12700000000E+01 0.  1.
         25    2    1    2    0    0  0.00000000000E+00  0.00000000000E+00  0.35110930112E+03  0.37269515022E+03  0.12499573459E+03 0.  0.
    9000005    1    3    3    0    0 -0.16969213981E+02 -0.24576541305E+02  0.33922113657E+03  0.34053478545E+03  0.10000000000E+01 0.  0.
    9000005    1    3    3    0    0  0.16969213981E+02  0.24576541305E+02  0.11888164544E+02  0.32160364766E+02  0.10000000000E+01 0.  0.
<mgrwt>
<rscale>  0 0.12499573E+03</rscale>
<asrwt>0</asrwt>
<pdfrwt beam="1">  1        4 0.55677260E-01 0.12499573E+03</pdfrwt>
<pdfrwt beam="2">  1       -4 0.16604501E-02 0.12499573E+03</pdfrwt>
<totfact> 0.67304261E+03</totfact>
</mgrwt>
</event>
<event>
 5    1  0.3308162E-002  0.1249975E+03  0.7818608E-02  0.1235073E+00
          4   -1    0    0  501    0  0.00000000000E+00  0.00000000000E+00  0.12343304711E+03  0.12343958044E+03  0.12700000000E+01 0.  1.
         -4   -1    0    0    0  501 -0.00000000000E+00 -0.00000000000E+00 -0.31625312167E+02  0.31650802038E+02  0.12700000000E+01 0.  1.
         25    2    1    2    0    0  0.00000000000E+00  0.00000000000E+00  0.91807734944E+02  0.15509038248E+03  0.12499746614E+03 0.  0.
    9000005    1    3    3    0    0  0.23856551187E+02 -0.45216661448E+02  0.13160975224E+01  0.51150890703E+02  0.10000000000E+01 0.  0.
    9000005    1    3    3    0    0 -0.23856551187E+02  0.45216661448E+02  0.90491637421E+02  0.10393949177E+03  0.10000000000E+01 0.  0.
<mgrwt>
<rscale>  0 0.12499747E+03</rscale>
<asrwt>0</asrwt>
<pdfrwt beam="1">  1        4 0.18992163E-01 0.12499747E+03</pdfrwt>
<pdfrwt beam="2">  1       -4 0.48678960E-02 0.12499747E+03</pdfrwt>
<totfact> 0.98303360E+03</totfact>
</mgrwt>
</event>
<event>
 5    1  0.3308162E-002  0.1250231E+03  0.7818608E-02  0.1235033E+00
          4   -1    0    0  501    0  0.00000000000E+00  0.00000000000E+00  0.23807915246E+01  0.26983454715E+01  0.12700000000E+01 0.  1.
         -4   -1    0    0    0  501 -0.00000000000E+00 -0.00000000000E+00 -0.15384049452E+04  0.15384054694E+04  0.12700000000E+01 0.  1.
         25    2    1    2    0    0  0.00000000000E+00  0.00000000000E+00 -0.15360241537E+04  0.15411038149E+04  0.12502306816E+03 0.  0.
    9000005    1    3    3    0    0  0.33161580299E+02 -0.43692852543E+02 -0.39863965731E+03  0.40239698328E+03  0.10000000000E+01 0.  0.
    9000005    1    3    3    0    0 -0.33161580299E+02  0.43692852543E+02 -0.11373844963E+04  0.11387068316E+04  0.10000000000E+01 0.  0.
<mgrwt>
<rscale>  0 0.12502307E+03</rscale>
<asrwt>0</asrwt>
<pdfrwt beam="1">  1        4 0.39074440E-03 0.12502307E+03</pdfrwt>
<pdfrwt beam="2">  1       -4 0.23670141E+00 0.12502307E+03</pdfrwt>
<totfact> 0.17127874E+03</totfact>
</mgrwt>
</event>
<event>
 5    1  0.3308162E-002  0.1249998E+03  0.7818608E-02  0.1235070E+00
          4   -1    0    0  501    0  0.00000000000E+00  0.00000000000E+00  0.77267152638E+01  0.78303913547E+01  0.12700000000E+01 0.  1.
         -4   -1    0    0    0  501 -0.00000000000E+00 -0.00000000000E+00 -0.50207629427E+03  0.50207790050E+03  0.12700000000E+01 0.  1.
         25    2    1    2    0    0  0.00000000000E+00  0.00000000000E+00 -0.49434957900E+03  0.50990829185E+03  0.12499983934E+03 0.  0.
    9000005    1    3    3    0    0  0.56605043038E+02 -0.15937101528E+02 -0.16091793302E+03  0.17132922480E+03  0.10000000000E+01 0.  0.
    9000005    1    3    3    0    0 -0.56605043038E+02  0.15937101528E+02 -0.33343164598E+03  0.33857906705E+03  0.10000000000E+01 0.  0.
<mgrwt>
<rscale>  0 0.12499984E+03</rscale>
<asrwt>0</asrwt>
<pdfrwt beam="1">  1        4 0.11968245E-02 0.12499984E+03</pdfrwt>
<pdfrwt beam="2">  1       -4 0.77250580E-01 0.12499984E+03</pdfrwt>
<totfact> 0.55103923E+03</totfact>
</mgrwt>
</event>
<event>
 5    1  0.3308162E-002  0.1249991E+03  0.7818608E-02  0.1235071E+00
         -4   -1    0    0    0  501 -0.00000000000E+00  0.00000000000E+00  0.42322532805E+03  0.42322723354E+03  0.12700000000E+01 0. -1.
          4   -1    0    0  501    0  0.00000000000E+00 -0.00000000000E+00 -0.91839597859E+01  0.92713546663E+01  0.12700000000E+01 0. -1.
         25    2    1    2    0    0  0.00000000000E+00  0.00000000000E+00  0.41404136827E+03  0.43249858820E+03  0.12499909663E+03 0.  0.
    9000005    1    3    3    0    0 -0.48885097139E+02 -0.32503924550E+02  0.28114381309E+03  0.28720915980E+03  0.10000000000E+01 0.  0.
    9000005    1    3    3    0    0  0.48885097139E+02  0.32503924550E+02  0.13289755518E+03  0.14528942840E+03  0.10000000000E+01 0.  0.
<mgrwt>
<rscale>  0 0.12499910E+03</rscale>
<asrwt>0</asrwt>
<pdfrwt beam="2">  1        4 0.14197862E-02 0.12499910E+03</pdfrwt>
<pdfrwt beam="1">  1       -4 0.65118455E-01 0.12499910E+03</pdfrwt>
<totfact> 0.61511386E+03</totfact>
</mgrwt>
</event>
<event>
 5    1  0.3308162E-002  0.1250021E+03  0.7818608E-02  0.1235066E+00
          4   -1    0    0  501    0  0.00000000000E+00  0.00000000000E+00  0.50771318876E+01  0.52335617131E+01  0.12700000000E+01 0.  1.
         -4   -1    0    0    0  501 -0.00000000000E+00 -0.00000000000E+00 -0.75757709249E+03  0.75757815700E+03  0.12700000000E+01 0.  1.
         25    2    1    2    0    0  0.00000000000E+00  0.00000000000E+00 -0.75249996060E+03  0.76281171871E+03  0.12500210999E+03 0.  0.
    9000005    1    3    3    0    0 -0.78585589594E-01 -0.41086465892E+02 -0.88900716743E+02  0.97941009248E+02  0.10000000000E+01 0.  0.
    9000005    1    3    3    0    0  0.78585589594E-01  0.41086465892E+02 -0.66359924386E+03  0.66487070946E+03  0.10000000000E+01 0.  0.
<mgrwt>
<rscale>  0 0.12500211E+03</rscale>
<asrwt>0</asrwt>
<pdfrwt beam="1">  1        4 0.79321276E-03 0.12500211E+03</pdfrwt>
<pdfrwt beam="2">  1       -4 0.11656235E+00 0.12500211E+03</pdfrwt>
<totfact> 0.39966905E+03</totfact>
</mgrwt>
</event>
<event>
 5    1  0.3308162E-002  0.1249974E+03  0.7818608E-02  0.1235073E+00
          4   -1    0    0  501    0  0.00000000000E+00  0.00000000000E+00  0.15114760772E+03  0.15115294314E+03  0.12700000000E+01 0.  1.
         -4   -1    0    0    0  501 -0.00000000000E+00 -0.00000000000E+00 -0.25821471570E+02  0.25852684465E+02  0.12700000000E+01 0.  1.
         25    2    1    2    0    0  0.00000000000E+00  0.00000000000E+00  0.12532613615E+03  0.17700562760E+03  0.12499740718E+03 0.  0.
    9000005    1    3    3    0    0 -0.55792687779E+02 -0.27801597138E+02  0.68889793274E+02  0.92911551652E+02  0.10000000000E+01 0.  0.
    9000005    1    3    3    0    0  0.55792687779E+02  0.27801597138E+02  0.56436342876E+02  0.84094075952E+02  0.10000000000E+01 0.  0.
<mgrwt>
<rscale>  0 0.12499741E+03</rscale>
<asrwt>0</asrwt>
<pdfrwt beam="1">  1        4 0.23256289E-01 0.12499741E+03</pdfrwt>
<pdfrwt beam="2">  1       -4 0.39753455E-02 0.12499741E+03</pdfrwt>
<totfact> 0.94164269E+03</totfact>
</mgrwt>
</event>
<event>
 5    1  0.3308162E-002  0.1250155E+03  0.7818608E-02  0.1235045E+00
         -4   -1    0    0    0  501 -0.00000000000E+00  0.00000000000E+00  0.11276485988E+04  0.11276493140E+04  0.12700000000E+01 0.  1.
          4   -1    0    0  501    0  0.00000000000E+00 -0.00000000000E+00 -0.33478144058E+01  0.35806090677E+01  0.12700000000E+01 0.  1.
         25    2    1    2    0    0  0.00000000000E+00  0.00000000000E+00  0.11243007844E+04  0.11312299230E+04  0.12501553890E+03 0.  0.
    9000005    1    3    3    0    0  0.54538628592E+02 -0.25884646660E+02  0.41575564182E+03  0.42011692497E+03  0.10000000000E+01 0.  0.
    9000005    1    3    3    0    0 -0.54538628592E+02  0.25884646660E+02  0.70854514259E+03  0.71111299807E+03  0.10000000000E+01 0.  0.
<mgrwt>
<rscale>  0 0.12501554E+03</rscale>
<asrwt>0</asrwt>
<pdfrwt beam="2">  1        4 0.53300993E-03 0.12501554E+03</pdfrwt>
<pdfrwt beam="1">  1       -4 0.17350260E+00 0.12501554E+03</pdfrwt>
<totfact> 0.26577771E+03</totfact>
</mgrwt>
</event>
<event>
 5    1  0.3308162E-002  0.1249987E+03  0.7818608E-02  0.1235071E+00
          4   -1    0    0  501    0  0.00000000000E+00  0.00000000000E+00  0.14737403204E+03  0.14737950407E+03  0.12700000000E+01 0.  1.
         -4   -1    0    0    0  501 -0.00000000000E+00 -0.00000000000E+00 -0.26483970784E+02  0.26514403793E+02  0.12700000000E+01 0.  1.
         25    2    1    2    0    0  0.00000000000E+00  0.00000000000E+00  0.12089006126E+03  0.17389390786E+03  0.12499873712E+03 0.  0.
    9000005    1    3    3    0    0  0.30647078163E+02  0.97367394718E+01  0.13498765604E+03  0.13876856553E+03  0.10000000000E+01 0.  0.
    9000005    1    3    3    0    0 -0.30647078163E+02 -0.97367394718E+01 -0.14097594784E+02  0.35125342335E+02  0.10000000000E+01 0.  0.
<mgrwt>
<rscale>  0 0.12499874E+03</rscale>
<asrwt>0</asrwt>
<pdfrwt beam="1">  1        4 0.22675690E-01 0.12499874E+03</pdfrwt>
<pdfrwt beam="2">  1       -4 0.40772189E-02 0.12499874E+03</pdfrwt>
<totfact> 0.94730493E+03</totfact>
</mgrwt>
</event>
<event>
 5    1  0.3308162E-002  0.1249982E+03  0.7818608E-02  0.1235072E+00
          4   -1    0    0  501    0  0.00000000000E+00  0.00000000000E+00  0.32682853437E+02  0.32707519148E+02  0.12700000000E+01 0.  1.
         -4   -1    0    0    0  501 -0.00000000000E+00 -0.00000000000E+00 -0.11944324115E+03  0.11944999270E+03  0.12700000000E+01 0.  1.
         25    2    1    2    0    0  0.00000000000E+00  0.00000000000E+00 -0.86760387711E+02  0.15215751185E+03  0.12499817413E+03 0.  0.
    9000005    1    3    3    0    0  0.55412148044E+02  0.25925882331E+02 -0.58896469637E+02  0.84926154164E+02  0.10000000000E+01 0.  0.
    9000005    1    3    3    0    0 -0.55412148044E+02 -0.25925882331E+02 -0.27863918074E+02  0.67231357683E+02  0.10000000000E+01 0.  0.
<mgrwt>
<rscale>  0 0.12499817E+03</rscale>
<asrwt>0</asrwt>
<pdfrwt beam="1">  1        4 0.50305481E-02 0.12499817E+03</pdfrwt>
<pdfrwt beam="2">  1       -4 0.18378300E-01 0.12499817E+03</pdfrwt>
<totfact> 0.98879419E+03</totfact>
</mgrwt>
</event>
<event>
 5    1  0.3308162E-002  0.1250003E+03  0.7818608E-02  0.1235069E+00
         -4   -1    0    0    0  501 -0.00000000000E+00  0.00000000000E+00  0.65812699419E+03  0.65812821957E+03  0.12700000000E+01 0.  1.
          4   -1    0    0  501    0  0.00000000000E+00 -0.00000000000E+00 -0.58662513250E+01  0.60021499988E+01  0.12700000000E+01 0.  1.
         25    2    1    2    0    0  0.00000000000E+00  0.00000000000E+00  0.65226074287E+03  0.66413036956E+03  0.12500028435E+03 0.  0.
    9000005    1    3    3    0    0  0.75620069032E+00  0.52352761183E+02  0.14487234390E+03  0.15404667951E+03  0.10000000000E+01 0.  0.
    9000005    1    3    3    0    0 -0.75620069032E+00 -0.52352761183E+02  0.50738839897E+03  0.51008369005E+03  0.10000000000E+01 0.  0.
<mgrwt>
<rscale>  0 0.12500028E+03</rscale>
<asrwt>0</asrwt>
<pdfrwt beam="2">  1        4 0.91304815E-03 0.12500028E+03</pdfrwt>
<pdfrwt beam="1">  1       -4 0.10126086E+00 0.12500028E+03</pdfrwt>
<totfact> 0.45048678E+03</totfact>
</mgrwt>
</event>
<event>
 5    1  0.3308162E-002  0.1249997E+03  0.7818608E-02  0.1235070E+00
         -4   -1    0    0    0  501 -0.00000000000E+00  0.00000000000E+00  0.64061726451E+01  0.65308458839E+01  0.12700000000E+01 0. -1.
          4   -1    0    0  501    0  0.00000000000E+00 -0.00000000000E+00 -0.60375931358E+03  0.60376064929E+03  0.12700000000E+01 0. -1.
         25    2    1    2    0    0  0.00000000000E+00  0.00000000000E+00 -0.59735314093E+03  0.61029149518E+03  0.12499973640E+03 0.  0.
    9000005    1    3    3    0    0 -0.47259119403E+02 -0.37929717947E+02 -0.22412755995E+03  0.23217719741E+03  0.10000000000E+01 0.  0.
    9000005    1    3    3    0    0  0.47259119403E+02  0.37929717947E+02 -0.37322558099E+03  0.37811429776E+03  0.10000000000E+01 0.  0.
<mgrwt>
<rscale>  0 0.12499974E+03</rscale>
<asrwt>0</asrwt>
<pdfrwt beam="2">  1        4 0.92895697E-01 0.12499974E+03</pdfrwt>
<pdfrwt beam="1">  1       -4 0.99525850E-03 0.12499974E+03</pdfrwt>
<totfact> 0.48224655E+03</totfact>
</mgrwt>
</event>
<event>
 5    1  0.3308162E-002  0.1249995E+03  0.7818608E-02  0.1235070E+00
          4   -1    0    0  501    0  0.00000000000E+00  0.00000000000E+00  0.10372326471E+04  0.10372334246E+04  0.12700000000E+01 0.  1.
         -4   -1    0    0    0  501 -0.00000000000E+00 -0.00000000000E+00 -0.36581296734E+01  0.38723136117E+01  0.12700000000E+01 0.  1.
         25    2    1    2    0    0  0.00000000000E+00  0.00000000000E+00  0.10335745175E+04  0.10411057382E+04  0.12499950027E+03 0.  0.
    9000005    1    3    3    0    0  0.60443359594E+02 -0.50343488353E+01  0.64212910936E+03  0.64498801344E+03  0.10000000000E+01 0.  0.
    9000005    1    3    3    0    0 -0.60443359594E+02  0.50343488353E+01  0.39144540810E+03  0.39611772481E+03  0.10000000000E+01 0.  0.
<mgrwt>
<rscale>  0 0.12499950E+03</rscale>
<asrwt>0</asrwt>
<pdfrwt beam="1">  1        4 0.15959107E+00 0.12499950E+03</pdfrwt>
<pdfrwt beam="2">  1       -4 0.57932364E-03 0.12499950E+03</pdfrwt>
<totfact> 0.29274374E+03</totfact>
</mgrwt>
</event>
<event>
 5    1  0.3308162E-002  0.1250039E+03  0.7818608E-02  0.1235063E+00
         -4   -1    0    0    0  501 -0.00000000000E+00  0.00000000000E+00  0.70499962294E+02  0.70511400380E+02  0.12700000000E+01 0.  1.
          4   -1    0    0  501    0  0.00000000000E+00 -0.00000000000E+00 -0.55388099223E+02  0.55402657296E+02  0.12700000000E+01 0.  1.
         25    2    1    2    0    0  0.00000000000E+00  0.00000000000E+00  0.15111863072E+02  0.12591405768E+03  0.12500392600E+03 0.  0.
    9000005    1    3    3    0    0 -0.33654081737E+02  0.11240781176E+02 -0.44263189699E+02  0.56737838709E+02  0.10000000000E+01 0.  0.
    9000005    1    3    3    0    0  0.33654081737E+02 -0.11240781176E+02  0.59375052771E+02  0.69176218967E+02  0.10000000000E+01 0.  0.
<mgrwt>
<rscale>  0 0.12500393E+03</rscale>
<asrwt>0</asrwt>
<pdfrwt beam="2">  1        4 0.85232458E-02 0.12500393E+03</pdfrwt>
<pdfrwt beam="1">  1       -4 0.10848148E-01 0.12500393E+03</pdfrwt>
<totfact> 0.10431917E+04</totfact>
</mgrwt>
</event>
<event>
 5    1  0.3308162E-002  0.1249947E+03  0.7818608E-02  0.1235078E+00
         -4   -1    0    0    0  501 -0.00000000000E+00  0.00000000000E+00  0.51272468266E+01  0.52821927285E+01  0.12700000000E+01 0. -1.
          4   -1    0    0  501    0  0.00000000000E+00 -0.00000000000E+00 -0.75030140937E+03  0.75030248420E+03  0.12700000000E+01 0. -1.
         25    2    1    2    0    0  0.00000000000E+00  0.00000000000E+00 -0.74517416254E+03  0.75558467693E+03  0.12499468586E+03 0.  0.
    9000005    1    3    3    0    0 -0.11193536614E+02  0.47623230653E+02 -0.60761382879E+03  0.60958086608E+03  0.10000000000E+01 0.  0.
    9000005    1    3    3    0    0  0.11193536614E+02 -0.47623230653E+02 -0.13756033375E+03  0.14600381085E+03  0.10000000000E+01 0.  0.
<mgrwt>
<rscale>  0 0.12499469E+03</rscale>
<asrwt>0</asrwt>
<pdfrwt beam="2">  1        4 0.11544290E+00 0.12499469E+03</pdfrwt>
<pdfrwt beam="1">  1       -4 0.80080939E-03 0.12499469E+03</pdfrwt>
<totfact> 0.40313144E+03</totfact>
</mgrwt>
</event>
<event>
 5    1  0.3308162E-002  0.1249990E+03  0.7818608E-02  0.1235071E+00
          4   -1    0    0  501    0  0.00000000000E+00  0.00000000000E+00  0.64846197359E+01  0.66078130360E+01  0.12700000000E+01 0. -1.
         -4   -1    0    0    0  501 -0.00000000000E+00 -0.00000000000E+00 -0.59658513946E+03  0.59658649124E+03  0.12700000000E+01 0. -1.
         25    2    1    2    0    0  0.00000000000E+00  0.00000000000E+00 -0.59010051972E+03  0.60319430427E+03  0.12499898130E+03 0.  0.
    9000005    1    3    3    0    0  0.11656717962E+02  0.10906747800E+02 -0.34969215682E+01  0.16372680956E+02  0.10000000000E+01 0.  0.
    9000005    1    3    3    0    0 -0.11656717962E+02 -0.10906747800E+02 -0.58660359816E+03  0.58682162332E+03  0.10000000000E+01 0.  0.
<mgrwt>
<rscale>  0 0.12499898E+03</rscale>
<asrwt>0</asrwt>
<pdfrwt beam="1">  1        4 0.10072147E-02 0.12499898E+03</pdfrwt>
<pdfrwt beam="2">  1       -4 0.91791867E-01 0.12499898E+03</pdfrwt>
<totfact> 0.48667699E+03</totfact>
</mgrwt>
</event>
<event>
 5    1  0.3308162E-002  0.1250012E+03  0.7818608E-02  0.1235067E+00
          4   -1    0    0  501    0  0.00000000000E+00  0.00000000000E+00  0.11971808120E+03  0.11972481726E+03  0.12700000000E+01 0. -1.
         -4   -1    0    0    0  501 -0.00000000000E+00 -0.00000000000E+00 -0.32609374045E+02  0.32634095293E+02  0.12700000000E+01 0. -1.
         25    2    1    2    0    0  0.00000000000E+00  0.00000000000E+00  0.87108707159E+02  0.15235891255E+03  0.12500124548E+03 0.  0.
    9000005    1    3    3    0    0  0.43858046880E+02 -0.13221321501E+02 -0.82578599395E+01  0.46556673733E+02  0.10000000000E+01 0.  0.
    9000005    1    3    3    0    0 -0.43858046880E+02  0.13221321501E+02  0.95366567099E+02  0.10580223882E+03  0.10000000000E+01 0.  0.
<mgrwt>
<rscale>  0 0.12500125E+03</rscale>
<asrwt>0</asrwt>
<pdfrwt beam="1">  1        4 0.18420586E-01 0.12500125E+03</pdfrwt>
<pdfrwt beam="2">  1       -4 0.50192466E-02 0.12500125E+03</pdfrwt>
<totfact> 0.98832776E+03</totfact>
</mgrwt>
</event>
<event>
 5    1  0.3308162E-002  0.1249996E+03  0.7818608E-02  0.1235070E+00
         -4   -1    0    0    0  501 -0.00000000000E+00  0.00000000000E+00  0.53882477816E+01  0.55358932573E+01  0.12700000000E+01 0. -1.
          4   -1    0    0  501    0  0.00000000000E+00 -0.00000000000E+00 -0.71500629683E+03  0.71500742472E+03  0.12700000000E+01 0. -1.
         25    2    1    2    0    0  0.00000000000E+00  0.00000000000E+00 -0.70961804905E+03  0.72054331798E+03  0.12499959019E+03 0.  0.
    9000005    1    3    3    0    0  0.22297573754E+02  0.54822855966E+02 -0.23916242703E+03  0.24637855799E+03  0.10000000000E+01 0.  0.
    9000005    1    3    3    0    0 -0.22297573754E+02 -0.54822855966E+02 -0.47045562202E+03  0.47416475999E+03  0.10000000000E+01 0.  0.
<mgrwt>
<rscale>  0 0.12499959E+03</rscale>
<asrwt>0</asrwt>
<pdfrwt beam="2">  1        4 0.11001234E+00 0.12499959E+03</pdfrwt>
<pdfrwt beam="1">  1       -4 0.84040587E-03 0.12499959E+03</pdfrwt>
<totfact> 0.42024578E+03</totfact>
</mgrwt>
</event>
<event>
 5    1  0.3308162E-002  0.1250019E+03  0.7818608E-02  0.1235066E+00
          4   -1    0    0  501    0  0.00000000000E+00  0.00000000000E+00  0.28465809653E+03  0.28466092957E+03  0.12700000000E+01 0.  1.
         -4   -1    0    0    0  501 -0.00000000000E+00 -0.00000000000E+00 -0.13690727515E+02  0.13749506169E+02  0.12700000000E+01 0.  1.
         25    2    1    2    0    0  0.00000000000E+00  0.00000000000E+00  0.27096736902E+03  0.29841043574E+03  0.12500189232E+03 0.  0.
    9000005    1    3    3    0    0 -0.25847979814E+02  0.36147428403E+01 -0.68748801093E-01  0.26118750978E+02  0.10000000000E+01 0.  0.
    9000005    1    3    3    0    0  0.25847979814E+02 -0.36147428403E+01  0.27103611782E+03  0.27229168476E+03  0.10000000000E+01 0.  0.
<mgrwt>
<rscale>  0 0.12500189E+03</rscale>
<asrwt>0</asrwt>
<pdfrwt beam="1">  1        4 0.43798294E-01 0.12500189E+03</pdfrwt>
<pdfrwt beam="2">  1       -4 0.21110051E-02 0.12500189E+03</pdfrwt>
<totfact> 0.75795477E+03</totfact>
</mgrwt>
</event>
<event>
 5    1  0.3308162E-002  0.1250004E+03  0.7818608E-02  0.1235069E+00
          4   -1    0    0  501    0  0.00000000000E+00  0.00000000000E+00  0.17539640798E+03  0.17540100579E+03  0.12700000000E+01 0.  1.
         -4   -1    0    0    0  501 -0.00000000000E+00 -0.00000000000E+00 -0.22248106749E+02  0.22284325296E+02  0.12700000000E+01 0.  1.
         25    2    1    2    0    0  0.00000000000E+00  0.00000000000E+00  0.15314830124E+03  0.19768533109E+03  0.12500035183E+03 0.  0.
    9000005    1    3    3    0    0 -0.13707006643E+02  0.51362701278E+02  0.12852908830E+03  0.13909254349E+03  0.10000000000E+01 0.  0.
    9000005    1    3    3    0    0  0.13707006643E+02 -0.51362701278E+02  0.24619212931E+02  0.58592787603E+02  0.10000000000E+01 0.  0.
<mgrwt>
<rscale>  0 0.12500035E+03</rscale>
<asrwt>0</asrwt>
<pdfrwt beam="1">  1        4 0.26987202E-01 0.12500035E+03</pdfrwt>
<pdfrwt beam="2">  1       -4 0.34259254E-02 0.12500035E+03</pdfrwt>
<totfact> 0.90526307E+03</totfact>
</mgrwt>
</event>
<event>
 5    1  0.3308162E-002  0.1250010E+03  0.7818608E-02  0.1235068E+00
         -4   -1    0    0    0  501 -0.00000000000E+00  0.00000000000E+00  0.27454434681E+03  0.27454728421E+03  0.12700000000E+01 0.  1.
          4   -1    0    0  501    0  0.00000000000E+00 -0.00000000000E+00 -0.14196997317E+02  0.14253688394E+02  0.12700000000E+01 0.  1.
         25    2    1    2    0    0  0.00000000000E+00  0.00000000000E+00  0.26034734950E+03  0.28880097260E+03  0.12500103754E+03 0.  0.
    9000005    1    3    3    0    0  0.34274606531E+02  0.35095513545E+02  0.21962096326E+03  0.22503513332E+03  0.10000000000E+01 0.  0.
    9000005    1    3    3    0    0 -0.34274606531E+02 -0.35095513545E+02  0.40726386232E+02  0.63765839283E+02  0.10000000000E+01 0.  0.
<mgrwt>
<rscale>  0 0.12500104E+03</rscale>
<asrwt>0</asrwt>
<pdfrwt beam="2">  1        4 0.21887402E-02 0.12500104E+03</pdfrwt>
<pdfrwt beam="1">  1       -4 0.42242180E-01 0.12500104E+03</pdfrwt>
<totfact> 0.77023668E+03</totfact>
</mgrwt>
</event>
<event>
 5    1  0.3308162E-002  0.1249982E+03  0.7818608E-02  0.1235072E+00
         -4   -1    0    0    0  501 -0.00000000000E+00  0.00000000000E+00  0.20177698739E+03  0.20178098409E+03  0.12700000000E+01 0. -1.
          4   -1    0    0  501    0  0.00000000000E+00 -0.00000000000E+00 -0.19333678738E+02  0.19375346024E+02  0.12700000000E+01 0. -1.
         25    2    1    2    0    0  0.00000000000E+00  0.00000000000E+00  0.18244330866E+03  0.22115633012E+03  0.12499824590E+03 0.  0.
    9000005    1    3    3    0    0 -0.13178550077E+02  0.26317627448E+02 -0.63109886216E+01  0.30118437443E+02  0.10000000000E+01 0.  0.
    9000005    1    3    3    0    0  0.13178550077E+02 -0.26317627448E+02  0.18875429728E+03  0.19103789267E+03  0.10000000000E+01 0.  0.
<mgrwt>
<rscale>  0 0.12499825E+03</rscale>
<asrwt>0</asrwt>
<pdfrwt beam="2">  1        4 0.29779248E-02 0.12499825E+03</pdfrwt>
<pdfrwt beam="1">  1       -4 0.31046126E-01 0.12499825E+03</pdfrwt>
<totfact> 0.86689101E+03</totfact>
</mgrwt>
</event>
<event>
 5    1  0.3308162E-002  0.1250055E+03  0.7818608E-02  0.1235061E+00
         -4   -1    0    0    0  501 -0.00000000000E+00  0.00000000000E+00  0.13755191380E+03  0.13755777655E+03  0.12700000000E+01 0. -1.
          4   -1    0    0  501    0  0.00000000000E+00 -0.00000000000E+00 -0.28380205789E+02  0.28408607510E+02  0.12700000000E+01 0. -1.
         25    2    1    2    0    0  0.00000000000E+00  0.00000000000E+00  0.10917170801E+03  0.16596638406E+03  0.12500551511E+03 0.  0.
    9000005    1    3    3    0    0 -0.44848271508E+02 -0.43212985180E+02  0.47704313855E+02  0.78456555531E+02  0.10000000000E+01 0.  0.
    9000005    1    3    3    0    0  0.44848271508E+02  0.43212985180E+02  0.61467394155E+02  0.87509828532E+02  0.10000000000E+01 0.  0.
<mgrwt>
<rscale>  0 0.12500552E+03</rscale>
<asrwt>0</asrwt>
<pdfrwt beam="2">  1        4 0.43688213E-02 0.12500552E+03</pdfrwt>
<pdfrwt beam="1">  1       -4 0.21164468E-01 0.12500552E+03</pdfrwt>
<totfact> 0.96192770E+03</totfact>
</mgrwt>
</event>
<event>
 5    1  0.3308162E-002  0.1249961E+03  0.7818608E-02  0.1235075E+00
         -4   -1    0    0    0  501 -0.00000000000E+00  0.00000000000E+00  0.10233300492E+03  0.10234088526E+03  0.12700000000E+01 0.  1.
          4   -1    0    0  501    0  0.00000000000E+00 -0.00000000000E+00 -0.38149638283E+02  0.38170771555E+02  0.12700000000E+01 0.  1.
         25    2    1    2    0    0  0.00000000000E+00  0.00000000000E+00  0.64183366639E+02  0.14051165682E+03  0.12499608453E+03 0.  0.
    9000005    1    3    3    0    0 -0.61179638543E+02 -0.18299799288E+01  0.46253395041E+02  0.76724660649E+02  0.10000000000E+01 0.  0.
    9000005    1    3    3    0    0  0.61179638543E+02  0.18299799288E+01  0.17929971598E+02  0.63786996170E+02  0.10000000000E+01 0.  0.
<mgrwt>
<rscale>  0 0.12499608E+03</rscale>
<asrwt>0</asrwt>
<pdfrwt beam="2">  1        4 0.58714070E-02 0.12499608E+03</pdfrwt>
<pdfrwt beam="1">  1       -4 0.15745771E-01 0.12499608E+03</pdfrwt>
<totfact> 0.10123885E+04</totfact>
</mgrwt>
</event>
<event>
 5    1  0.3308162E-002  0.1250003E+03  0.7818608E-02  0.1235069E+00
         -4   -1    0    0    0  501 -0.00000000000E+00  0.00000000000E+00  0.97376732748E+02  0.97385014149E+02  0.12700000000E+01 0. -1.
          4   -1    0    0  501    0  0.00000000000E+00 -0.00000000000E+00 -0.40094971935E+02  0.40115080387E+02  0.12700000000E+01 0. -1.
         25    2    1    2    0    0  0.00000000000E+00  0.00000000000E+00  0.57281760813E+02  0.13750009454E+03  0.12500030350E+03 0.  0.
    9000005    1    3    3    0    0 -0.43568995132E+01  0.16776696979E+02 -0.37403254123E+02  0.41236434786E+02  0.10000000000E+01 0.  0.
    9000005    1    3    3    0    0  0.43568995132E+01 -0.16776696979E+02  0.94685014936E+02  0.96263659750E+02  0.10000000000E+01 0.  0.
<mgrwt>
<rscale>  0 0.12500030E+03</rscale>
<asrwt>0</asrwt>
<pdfrwt beam="2">  1        4 0.61706412E-02 0.12500030E+03</pdfrwt>
<pdfrwt beam="1">  1       -4 0.14983219E-01 0.12500030E+03</pdfrwt>
<totfact> 0.10185570E+04</totfact>
</mgrwt>
</event>
<event>
 5    1  0.3308162E-002  0.1249975E+03  0.7818608E-02  0.1235073E+00
          4   -1    0    0  501    0  0.00000000000E+00  0.00000000000E+00  0.79042585839E+01  0.80056357500E+01  0.12700000000E+01 0.  1.
         -4   -1    0    0    0  501 -0.00000000000E+00 -0.00000000000E+00 -0.49092475089E+03  0.49092639360E+03  0.12700000000E+01 0.  1.
         25    2    1    2    0    0  0.00000000000E+00  0.00000000000E+00 -0.48302049231E+03  0.49893202935E+03  0.12499749568E+03 0.  0.
    9000005    1    3    3    0    0  0.32305261555E+02  0.41028312034E+02 -0.10450451369E+03  0.11682955831E+03  0.10000000000E+01 0.  0.
    9000005    1    3    3    0    0 -0.32305261555E+02 -0.41028312034E+02 -0.37851597861E+03  0.38210247105E+03  0.10000000000E+01 0.  0.
<mgrwt>
<rscale>  0 0.12499750E+03</rscale>
<asrwt>0</asrwt>
<pdfrwt beam="1">  1        4 0.12239648E-02 0.12499750E+03</pdfrwt>
<pdfrwt beam="2">  1       -4 0.75534786E-01 0.12499750E+03</pdfrwt>
<totfact> 0.55950414E+03</totfact>
</mgrwt>
</event>
<event>
 5    1  0.3308162E-002  0.1249925E+03  0.7818608E-02  0.1235081E+00
         -4   -1    0    0    0  501 -0.00000000000E+00  0.00000000000E+00  0.33297653847E+02  0.33321864469E+02  0.12700000000E+01 0. -1.
          4   -1    0    0  501    0  0.00000000000E+00 -0.00000000000E+00 -0.11722868415E+03  0.11723556324E+03  0.12700000000E+01 0. -1.
         25    2    1    2    0    0  0.00000000000E+00  0.00000000000E+00 -0.83931030303E+02  0.15055742771E+03  0.12499248453E+03 0.  0.
    9000005    1    3    3    0    0 -0.14105009773E+01 -0.37836874786E+02  0.17912702796E+02  0.41898490761E+02  0.10000000000E+01 0.  0.
    9000005    1    3    3    0    0  0.14105009773E+01  0.37836874786E+02 -0.10184373310E+03  0.10865893695E+03  0.10000000000E+01 0.  0.
<mgrwt>
<rscale>  0 0.12499248E+03</rscale>
<asrwt>0</asrwt>
<pdfrwt beam="2">  1        4 0.18037573E-01 0.12499248E+03</pdfrwt>
<pdfrwt beam="1">  1       -4 0.51251076E-02 0.12499248E+03</pdfrwt>
<totfact> 0.99209478E+03</totfact>
</mgrwt>
</event>
<event>
 5    1  0.3308162E-002  0.1250194E+03  0.7818608E-02  0.1235039E+00
          4   -1    0    0  501    0  0.00000000000E+00  0.00000000000E+00  0.17799043022E+02  0.17844294116E+02  0.12700000000E+01 0.  1.
         -4   -1    0    0    0  501 -0.00000000000E+00 -0.00000000000E+00 -0.21920628050E+03  0.21920995943E+03  0.12700000000E+01 0.  1.
         25    2    1    2    0    0  0.00000000000E+00  0.00000000000E+00 -0.20140723748E+03  0.23705425354E+03  0.12501937375E+03 0.  0.
    9000005    1    3    3    0    0 -0.28650562366E+02 -0.52574744966E+02 -0.13470233799E+03  0.14741329110E+03  0.10000000000E+01 0.  0.
    9000005    1    3    3    0    0  0.28650562366E+02  0.52574744966E+02 -0.66704899490E+02  0.89640962445E+02  0.10000000000E+01 0.  0.
<mgrwt>
<rscale>  0 0.12501937E+03</rscale>
<asrwt>0</asrwt>
<pdfrwt beam="1">  1        4 0.27420783E-02 0.12501937E+03</pdfrwt>
<pdfrwt beam="2">  1       -4 0.33727805E-01 0.12501937E+03</pdfrwt>
<totfact> 0.84201669E+03</totfact>
</mgrwt>
</event>
<event>
 5    1  0.3308162E-002  0.1249973E+03  0.7818608E-02  0.1235074E+00
          4   -1    0    0  501    0  0.00000000000E+00  0.00000000000E+00  0.12866282175E+02  0.12928809574E+02  0.12700000000E+01 0. -1.
         -4   -1    0    0    0  501 -0.00000000000E+00 -0.00000000000E+00 -0.30279052236E+03  0.30279318575E+03  0.12700000000E+01 0. -1.
         25    2    1    2    0    0  0.00000000000E+00  0.00000000000E+00 -0.28992424019E+03  0.31572199532E+03  0.12499725309E+03 0.  0.
    9000005    1    3    3    0    0 -0.45909131633E+02  0.42380231686E+02 -0.14203181297E+03  0.15517012696E+03  0.10000000000E+01 0.  0.
    9000005    1    3    3    0    0  0.45909131633E+02 -0.42380231686E+02 -0.14789242722E+03  0.16055186836E+03  0.10000000000E+01 0.  0.
<mgrwt>
<rscale>  0 0.12499725E+03</rscale>
<asrwt>0</asrwt>
<pdfrwt beam="1">  1        4 0.19844429E-02 0.12499725E+03</pdfrwt>
<pdfrwt beam="2">  1       -4 0.46588167E-01 0.12499725E+03</pdfrwt>
<totfact> 0.73672332E+03</totfact>
</mgrwt>
</event>
<event>
 5    1  0.3308162E-002  0.1250000E+03  0.7818608E-02  0.1235069E+00
         -4   -1    0    0    0  501 -0.00000000000E+00  0.00000000000E+00  0.11354143098E+04  0.11354150201E+04  0.12700000000E+01 0.  1.
          4   -1    0    0  501    0  0.00000000000E+00 -0.00000000000E+00 -0.33224357089E+01  0.35568917667E+01  0.12700000000E+01 0.  1.
         25    2    1    2    0    0  0.00000000000E+00  0.00000000000E+00  0.11320918741E+04  0.11389719119E+04  0.12500001827E+03 0.  0.
    9000005    1    3    3    0    0  0.44439237849E+02  0.15192877661E+02  0.94168778393E+03  0.94285871253E+03  0.10000000000E+01 0.  0.
    9000005    1    3    3    0    0 -0.44439237849E+02 -0.15192877661E+02  0.19040409021E+03  0.19611319935E+03  0.10000000000E+01 0.  0.
<mgrwt>
<rscale>  0 0.12500002E+03</rscale>
<asrwt>0</asrwt>
<pdfrwt beam="2">  1        4 0.52923375E-03 0.12500002E+03</pdfrwt>
<pdfrwt beam="1">  1       -4 0.17469719E+00 0.12500002E+03</pdfrwt>
<totfact> 0.26368206E+03</totfact>
</mgrwt>
</event>
<event>
 5    1  0.3308162E-002  0.1250080E+03  0.7818608E-02  0.1235057E+00
          4   -1    0    0  501    0  0.00000000000E+00  0.00000000000E+00  0.20396542898E+03  0.20396938280E+03  0.12700000000E+01 0.  1.
         -4   -1    0    0    0  501 -0.00000000000E+00 -0.00000000000E+00 -0.19128776934E+02  0.19170889572E+02  0.12700000000E+01 0.  1.
         25    2    1    2    0    0  0.00000000000E+00  0.00000000000E+00  0.18483665205E+03  0.22314027237E+03  0.12500797260E+03 0.  0.
    9000005    1    3    3    0    0 -0.26205613159E+02  0.48996290440E+02  0.14348259645E+03  0.15386886014E+03  0.10000000000E+01 0.  0.
    9000005    1    3    3    0    0  0.26205613159E+02 -0.48996290440E+02  0.41354055600E+02  0.69271412231E+02  0.10000000000E+01 0.  0.
<mgrwt>
<rscale>  0 0.12500797E+03</rscale>
<asrwt>0</asrwt>
<pdfrwt beam="1">  1        4 0.31382840E-01 0.12500797E+03</pdfrwt>
<pdfrwt beam="2">  1       -4 0.29464323E-02 0.12500797E+03</pdfrwt>
<totfact> 0.86358493E+03</totfact>
</mgrwt>
</event>
<event>
 5    1  0.3308162E-002  0.1250077E+03  0.7818608E-02  0.1235057E+00
          4   -1    0    0  501    0  0.00000000000E+00  0.00000000000E+00  0.11340094774E+02  0.11410988103E+02  0.12700000000E+01 0. -1.
         -4   -1    0    0    0  501 -0.00000000000E+00 -0.00000000000E+00 -0.34336050744E+03  0.34336285613E+03  0.12700000000E+01 0. -1.
         25    2    1    2    0    0  0.00000000000E+00  0.00000000000E+00 -0.33202041266E+03  0.35477384423E+03  0.12500770426E+03 0.  0.
    9000005    1    3    3    0    0 -0.24050085831E+02  0.43375086999E+02 -0.58093680001E+02  0.76391625567E+02  0.10000000000E+01 0.  0.
    9000005    1    3    3    0    0  0.24050085831E+02 -0.43375086999E+02 -0.27392673266E+03  0.27838221866E+03  0.10000000000E+01 0.  0.
<mgrwt>
<rscale>  0 0.12500770E+03</rscale>
<asrwt>0</asrwt>
<pdfrwt beam="1">  1        4 0.17502642E-02 0.12500770E+03</pdfrwt>
<pdfrwt beam="2">  1       -4 0.52830320E-01 0.12500770E+03</pdfrwt>
<totfact> 0.69190757E+03</totfact>
</mgrwt>
</event>
<event>
 5    1  0.3308162E-002  0.1249991E+03  0.7818608E-02  0.1235071E+00
          4   -1    0    0  501    0  0.00000000000E+00  0.00000000000E+00  0.12841406966E+03  0.12842034958E+03  0.12700000000E+01 0.  1.
         -4   -1    0    0    0  501 -0.00000000000E+00 -0.00000000000E+00 -0.30398440401E+02  0.30424958156E+02  0.12700000000E+01 0.  1.
         25    2    1    2    0    0  0.00000000000E+00  0.00000000000E+00  0.98015629262E+02  0.15884530774E+03  0.12499907284E+03 0.  0.
    9000005    1    3    3    0    0  0.52511823042E+02 -0.26096336540E+02  0.21555561785E+02  0.62483218418E+02  0.10000000000E+01 0.  0.
    9000005    1    3    3    0    0 -0.52511823042E+02  0.26096336540E+02  0.76460067477E+02  0.96362089322E+02  0.10000000000E+01 0.  0.
<mgrwt>
<rscale>  0 0.12499907E+03</rscale>
<asrwt>0</asrwt>
<pdfrwt beam="1">  1        4 0.19758534E-01 0.12499907E+03</pdfrwt>
<pdfrwt beam="2">  1       -4 0.46792059E-02 0.12499907E+03</pdfrwt>
<totfact> 0.97567896E+03</totfact>
</mgrwt>
</event>
<event>
 5    1  0.3308162E-002  0.1250012E+03  0.7818608E-02  0.1235067E+00
          4   -1    0    0  501    0  0.00000000000E+00  0.00000000000E+00  0.90460277241E+01  0.91347423382E+01  0.12700000000E+01 0.  1.
         -4   -1    0    0    0  501 -0.00000000000E+00 -0.00000000000E+00 -0.42963063401E+03  0.42963251108E+03  0.12700000000E+01 0.  1.
         25    2    1    2    0    0  0.00000000000E+00  0.00000000000E+00 -0.42058460629E+03  0.43876725342E+03  0.12500116652E+03 0.  0.
    9000005    1    3    3    0    0  0.48242387975E+02 -0.36625703700E+02 -0.15630593255E+03  0.16763446758E+03  0.10000000000E+01 0.  0.
    9000005    1    3    3    0    0 -0.48242387975E+02  0.36625703700E+02 -0.26427867373E+03  0.27113278584E+03  0.10000000000E+01 0.  0.
<mgrwt>
<rscale>  0 0.12500117E+03</rscale>
<asrwt>0</asrwt>
<pdfrwt beam="1">  1        4 0.13986655E-02 0.12500117E+03</pdfrwt>
<pdfrwt beam="2">  1       -4 0.66103973E-01 0.12500117E+03</pdfrwt>
<totfact> 0.60947695E+03</totfact>
</mgrwt>
</event>
<event>
 5    1  0.3308162E-002  0.1249890E+03  0.7818608E-02  0.1235087E+00
         -4   -1    0    0    0  501 -0.00000000000E+00  0.00000000000E+00  0.18746882911E+04  0.18746887213E+04  0.12700000000E+01 0.  1.
          4   -1    0    0  501    0  0.00000000000E+00 -0.00000000000E+00 -0.18892917528E+01  0.22764716838E+01  0.12700000000E+01 0.  1.
         25    2    1    2    0    0  0.00000000000E+00  0.00000000000E+00  0.18727989993E+04  0.18769651930E+04  0.12498897405E+03 0.  0.
    9000005    1    3    3    0    0 -0.25702801071E+02  0.54544965716E+02  0.69020527947E+03  0.69283483968E+03  0.10000000000E+01 0.  0.
    9000005    1    3    3    0    0  0.25702801071E+02 -0.54544965716E+02  0.11825937199E+04  0.11841303533E+04  0.10000000000E+01 0.  0.
<mgrwt>
<rscale>  0 0.12498897E+03</rscale>
<asrwt>0</asrwt>
<pdfrwt beam="2">  1        4 0.32047641E-03 0.12498897E+03</pdfrwt>
<pdfrwt beam="1">  1       -4 0.28844342E+00 0.12498897E+03</pdfrwt>
<totfact> 0.11556639E+03</totfact>
</mgrwt>
</event>
<event>
 5    1  0.3308162E-002  0.1249995E+03  0.7818608E-02  0.1235070E+00
         -4   -1    0    0    0  501 -0.00000000000E+00  0.00000000000E+00  0.17803921299E+03  0.17804374256E+03  0.12700000000E+01 0.  1.
          4   -1    0    0  501    0  0.00000000000E+00 -0.00000000000E+00 -0.21917012549E+02  0.21953777331E+02  0.12700000000E+01 0.  1.
         25    2    1    2    0    0  0.00000000000E+00  0.00000000000E+00  0.15612220044E+03  0.19999751989E+03  0.12499946596E+03 0.  0.
    9000005    1    3    3    0    0 -0.23735376183E+02 -0.49912201701E+02  0.12472536377E+03  0.13642584920E+03  0.10000000000E+01 0.  0.
    9000005    1    3    3    0    0  0.23735376183E+02  0.49912201701E+02  0.31396836673E+02  0.63571670690E+02  0.10000000000E+01 0.  0.
<mgrwt>
<rscale>  0 0.12499947E+03</rscale>
<asrwt>0</asrwt>
<pdfrwt beam="2">  1        4 0.33750244E-02 0.12499947E+03</pdfrwt>
<pdfrwt beam="1">  1       -4 0.27393826E-01 0.12499947E+03</pdfrwt>
<totfact> 0.90137000E+03</totfact>
</mgrwt>
</event>
<event>
 5    1  0.3308162E-002  0.1250058E+03  0.7818608E-02  0.1235060E+00
          4   -1    0    0  501    0  0.00000000000E+00  0.00000000000E+00  0.23678351141E+02  0.23712385218E+02  0.12700000000E+01 0.  1.
         -4   -1    0    0    0  501 -0.00000000000E+00 -0.00000000000E+00 -0.16483176219E+03  0.16483665468E+03  0.12700000000E+01 0.  1.
         25    2    1    2    0    0  0.00000000000E+00  0.00000000000E+00 -0.14115341105E+03  0.18854903990E+03  0.12500581985E+03 0.  0.
    9000005    1    3    3    0    0 -0.43913121634E+02  0.38305835582E+02 -0.36516853606E+02  0.68776303249E+02  0.10000000000E+01 0.  0.
    9000005    1    3    3    0    0  0.43913121634E+02 -0.38305835582E+02 -0.10463655745E+03  0.11977273665E+03  0.10000000000E+01 0.  0.
<mgrwt>
<rscale>  0 0.12500582E+03</rscale>
<asrwt>0</asrwt>
<pdfrwt beam="1">  1        4 0.36458177E-02 0.12500582E+03</pdfrwt>
<pdfrwt beam="2">  1       -4 0.25361726E-01 0.12500582E+03</pdfrwt>
<totfact> 0.92088384E+03</totfact>
</mgrwt>
</event>
<event>
 5    1  0.3308162E-002  0.1249966E+03  0.7818608E-02  0.1235075E+00
          4   -1    0    0  501    0  0.00000000000E+00  0.00000000000E+00  0.14847861108E+02  0.14902076348E+02  0.12700000000E+01 0.  1.
         -4   -1    0    0    0  501 -0.00000000000E+00 -0.00000000000E+00 -0.26253556193E+03  0.26253863369E+03  0.12700000000E+01 0.  1.
         25    2    1    2    0    0  0.00000000000E+00  0.00000000000E+00 -0.24768770082E+03  0.27744071004E+03  0.12499660174E+03 0.  0.
    9000005    1    3    3    0    0 -0.53528623737E+02 -0.24566829589E+01 -0.52481872555E+02  0.75011304463E+02  0.10000000000E+01 0.  0.
    9000005    1    3    3    0    0  0.53528623737E+02  0.24566829589E+01 -0.19520582827E+03  0.20242940557E+03  0.10000000000E+01 0.  0.
<mgrwt>
<rscale>  0 0.12499660E+03</rscale>
<asrwt>0</asrwt>
<pdfrwt beam="1">  1        4 0.22886932E-02 0.12499660E+03</pdfrwt>
<pdfrwt beam="2">  1       -4 0.40394490E-01 0.12499660E+03</pdfrwt>
<totfact> 0.78524611E+03</totfact>
</mgrwt>
</event>
<event>
 5    1  0.3308162E-002  0.1250001E+03  0.7818608E-02  0.1235069E+00
          4   -1    0    0  501    0  0.00000000000E+00  0.00000000000E+00  0.61714667702E+03  0.61714798375E+03  0.12700000000E+01 0.  1.
         -4   -1    0    0    0  501 -0.00000000000E+00 -0.00000000000E+00 -0.62645137854E+01  0.63919506387E+01  0.12700000000E+01 0.  1.
         25    2    1    2    0    0  0.00000000000E+00  0.00000000000E+00  0.61088216323E+03  0.62353993439E+03  0.12500012972E+03 0.  0.
    9000005    1    3    3    0    0  0.50007628380E+02 -0.37476255911E+02  0.30464522965E+03  0.31099027091E+03  0.10000000000E+01 0.  0.
    9000005    1    3    3    0    0 -0.50007628380E+02  0.37476255911E+02  0.30623693359E+03  0.31254966349E+03  0.10000000000E+01 0.  0.
<mgrwt>
<rscale>  0 0.12500013E+03</rscale>
<asrwt>0</asrwt>
<pdfrwt beam="1">  1        4 0.94955543E-01 0.12500013E+03</pdfrwt>
<pdfrwt beam="2">  1       -4 0.97367474E-03 0.12500013E+03</pdfrwt>
<totfact> 0.47414501E+03</totfact>
</mgrwt>
</event>
<event>
 5    1  0.3308162E-002  0.1250020E+03  0.7818608E-02  0.1235066E+00
          4   -1    0    0  501    0  0.00000000000E+00  0.00000000000E+00  0.43907869752E+02  0.43926232779E+02  0.12700000000E+01 0. -1.
         -4   -1    0    0    0  501 -0.00000000000E+00 -0.00000000000E+00 -0.88926011675E+02  0.88935079988E+02  0.12700000000E+01 0. -1.
         25    2    1    2    0    0  0.00000000000E+00  0.00000000000E+00 -0.45018141924E+02  0.13286131277E+03  0.12500198130E+03 0.  0.
    9000005    1    3    3    0    0 -0.49661231752E+01  0.25422820241E+01 -0.88666004308E+02  0.88846980237E+02  0.10000000000E+01 0.  0.
    9000005    1    3    3    0    0  0.49661231752E+01 -0.25422820241E+01  0.43647862385E+02  0.44014332530E+02  0.10000000000E+01 0.  0.
<mgrwt>
<rscale>  0 0.12500198E+03</rscale>
<asrwt>0</asrwt>
<pdfrwt beam="1">  1        4 0.67571670E-02 0.12500198E+03</pdfrwt>
<pdfrwt beam="2">  1       -4 0.13683035E-01 0.12500198E+03</pdfrwt>
<totfact> 0.10282889E+04</totfact>
</mgrwt>
</event>
<event>
 5    1  0.3308162E-002  0.1250028E+03  0.7818608E-02  0.1235065E+00
         -4   -1    0    0    0  501 -0.00000000000E+00  0.00000000000E+00  0.61969348619E+02  0.61982360944E+02  0.12700000000E+01 0. -1.
          4   -1    0    0  501    0  0.00000000000E+00 -0.00000000000E+00 -0.63012026682E+02  0.63024823733E+02  0.12700000000E+01 0. -1.
         25    2    1    2    0    0  0.00000000000E+00  0.00000000000E+00 -0.10426780629E+01  0.12500718468E+03  0.12500283614E+03 0.  0.
    9000005    1    3    3    0    0 -0.45444674301E+02  0.42895505775E+02 -0.91879363298E-01  0.62500010239E+02  0.10000000000E+01 0.  0.
    9000005    1    3    3    0    0  0.45444674301E+02 -0.42895505775E+02 -0.95079869960E+00  0.62507174438E+02  0.10000000000E+01 0.  0.
<mgrwt>
<rscale>  0 0.12500284E+03</rscale>
<asrwt>0</asrwt>
<pdfrwt beam="2">  1        4 0.96961433E-02 0.12500284E+03</pdfrwt>
<pdfrwt beam="1">  1       -4 0.95357313E-02 0.12500284E+03</pdfrwt>
<totfact> 0.10452036E+04</totfact>
</mgrwt>
</event>
<event>
 5    1  0.3308162E-002  0.1249904E+03  0.7818608E-02  0.1235084E+00
          4   -1    0    0  501    0  0.00000000000E+00  0.00000000000E+00  0.74891978758E+02  0.74902746160E+02  0.12700000000E+01 0. -1.
         -4   -1    0    0    0  501 -0.00000000000E+00 -0.00000000000E+00 -0.52128159532E+02  0.52143627762E+02  0.12700000000E+01 0. -1.
         25    2    1    2    0    0  0.00000000000E+00  0.00000000000E+00  0.22763819226E+02  0.12704637392E+03  0.12499035827E+03 0.  0.
    9000005    1    3    3    0    0  0.29214163504E+02 -0.23004139806E+02 -0.39663584076E+02  0.54376996048E+02  0.10000000000E+01 0.  0.
    9000005    1    3    3    0    0 -0.29214163504E+02  0.23004139806E+02  0.62427403302E+02  0.72669377873E+02  0.10000000000E+01 0.  0.
<mgrwt>
<rscale>  0 0.12499036E+03</rscale>
<asrwt>0</asrwt>
<pdfrwt beam="1">  1        4 0.11523861E-01 0.12499036E+03</pdfrwt>
<pdfrwt beam="2">  1       -4 0.80217350E-02 0.12499036E+03</pdfrwt>
<totfact> 0.10410404E+04</totfact>
</mgrwt>
</event>
<event>
 5    1  0.3308162E-002  0.1249868E+03  0.7818608E-02  0.1235090E+00
          4   -1    0    0  501    0  0.00000000000E+00  0.00000000000E+00  0.94267649567E+03  0.94267735116E+03  0.12700000000E+01 0. -1.
         -4   -1    0    0    0  501 -0.00000000000E+00 -0.00000000000E+00 -0.40447052905E+01  0.42394033645E+01  0.12700000000E+01 0. -1.
         25    2    1    2    0    0  0.00000000000E+00  0.00000000000E+00  0.93863179038E+03  0.94691675452E+03  0.12498680765E+03 0.  0.
    9000005    1    3    3    0    0  0.13286537980E+02  0.59259890001E+02  0.58070280440E+03  0.58387071659E+03  0.10000000000E+01 0.  0.
    9000005    1    3    3    0    0 -0.13286537980E+02 -0.59259890001E+02  0.35792898598E+03  0.36304603794E+03  0.10000000000E+01 0.  0.
<mgrwt>
<rscale>  0 0.12498681E+03</rscale>
<asrwt>0</asrwt>
<pdfrwt beam="1">  1        4 0.14504217E+00 0.12498681E+03</pdfrwt>
<pdfrwt beam="2">  1       -4 0.63730505E-03 0.12498681E+03</pdfrwt>
<totfact> 0.32435031E+03</totfact>
</mgrwt>
</event>
<event>
 5    1  0.3308162E-002  0.1249964E+03  0.7818608E-02  0.1235075E+00
         -4   -1    0    0    0  501 -0.00000000000E+00  0.00000000000E+00  0.88889897668E+01  0.89792560423E+01  0.12700000000E+01 0.  1.
          4   -1    0    0  501    0  0.00000000000E+00 -0.00000000000E+00 -0.43711157287E+03  0.43711341782E+03  0.12700000000E+01 0.  1.
         25    2    1    2    0    0  0.00000000000E+00  0.00000000000E+00 -0.42822258310E+03  0.44609267386E+03  0.12499637192E+03 0.  0.
    9000005    1    3    3    0    0  0.46644024946E+02 -0.31722807517E+02 -0.31007418622E+03  0.31516504016E+03  0.10000000000E+01 0.  0.
    9000005    1    3    3    0    0 -0.46644024946E+02  0.31722807517E+02 -0.11814839688E+03  0.13092763370E+03  0.10000000000E+01 0.  0.
<mgrwt>
<rscale>  0 0.12499637E+03</rscale>
<asrwt>0</asrwt>
<pdfrwt beam="2">  1        4 0.67255003E-01 0.12499637E+03</pdfrwt>
<pdfrwt beam="1">  1       -4 0.13746227E-02 0.12499637E+03</pdfrwt>
<totfact> 0.60308614E+03</totfact>
</mgrwt>
</event>
<event>
 5    1  0.3308162E-002  0.1249802E+03  0.7818608E-02  0.1235100E+00
          4   -1    0    0  501    0  0.00000000000E+00  0.00000000000E+00  0.60747307569E+02  0.60760581604E+02  0.12700000000E+01 0.  1.
         -4   -1    0    0    0  501 -0.00000000000E+00 -0.00000000000E+00 -0.64256343928E+02  0.64268893215E+02  0.12700000000E+01 0.  1.
         25    2    1    2    0    0  0.00000000000E+00  0.00000000000E+00 -0.35090363596E+01  0.12502947482E+03  0.12498022338E+03 0.  0.
    9000005    1    3    3    0    0  0.58999508481E+02  0.20493181130E+02  0.73077129939E-02  0.62465290580E+02  0.10000000000E+01 0.  0.
    9000005    1    3    3    0    0 -0.58999508481E+02 -0.20493181130E+02 -0.35163440726E+01  0.62564184239E+02  0.10000000000E+01 0.  0.
<mgrwt>
<rscale>  0 0.12498022E+03</rscale>
<asrwt>0</asrwt>
<pdfrwt beam="1">  1        4 0.93477260E-02 0.12498022E+03</pdfrwt>
<pdfrwt beam="2">  1       -4 0.98875778E-02 0.12498022E+03</pdfrwt>
<totfact> 0.10456896E+04</totfact>
</mgrwt>
</event>
<event>
 5    1  0.3308162E-002  0.1250029E+03  0.7818608E-02  0.1235065E+00
         -4   -1    0    0    0  501 -0.00000000000E+00  0.00000000000E+00  0.46098519949E+02  0.46116010685E+02  0.12700000000E+01 0.  1.
          4   -1    0    0  501    0  0.00000000000E+00 -0.00000000000E+00 -0.84702567582E+02  0.84712088010E+02  0.12700000000E+01 0.  1.
         25    2    1    2    0    0  0.00000000000E+00  0.00000000000E+00 -0.38604047634E+02  0.13082809869E+03  0.12500287562E+03 0.  0.
    9000005    1    3    3    0    0 -0.27442404484E+02 -0.46390996976E+02  0.13798029903E+02  0.55647064554E+02  0.10000000000E+01 0.  0.
    9000005    1    3    3    0    0  0.27442404484E+02  0.46390996976E+02 -0.52402077537E+02  0.75181034141E+02  0.10000000000E+01 0.  0.
<mgrwt>
<rscale>  0 0.12500288E+03</rscale>
<asrwt>0</asrwt>
<pdfrwt beam="2">  1        4 0.13033242E-01 0.12500288E+03</pdfrwt>
<pdfrwt beam="1">  1       -4 0.70941578E-02 0.12500288E+03</pdfrwt>
<totfact> 0.10326106E+04</totfact>
</mgrwt>
</event>
<event>
 5    1  0.3308162E-002  0.1249992E+03  0.7818608E-02  0.1235070E+00
         -4   -1    0    0    0  501 -0.00000000000E+00  0.00000000000E+00  0.11250373615E+02  0.11321828760E+02  0.12700000000E+01 0.  1.
          4   -1    0    0  501    0  0.00000000000E+00 -0.00000000000E+00 -0.34603464292E+03  0.34603697346E+03  0.12700000000E+01 0.  1.
         25    2    1    2    0    0  0.00000000000E+00  0.00000000000E+00 -0.33478426930E+03  0.35735880222E+03  0.12499922619E+03 0.  0.
    9000005    1    3    3    0    0  0.31688103430E+02 -0.26515541955E+02 -0.30142465699E+03  0.30424502248E+03  0.10000000000E+01 0.  0.
    9000005    1    3    3    0    0 -0.31688103430E+02  0.26515541955E+02 -0.33359612319E+02  0.53113779740E+02  0.10000000000E+01 0.  0.
<mgrwt>
<rscale>  0 0.12499923E+03</rscale>
<asrwt>0</asrwt>
<pdfrwt beam="2">  1        4 0.53241767E-01 0.12499923E+03</pdfrwt>
<pdfrwt beam="1">  1       -4 0.17365028E-02 0.12499923E+03</pdfrwt>
<totfact> 0.68923696E+03</totfact>
</mgrwt>
</event>
<event>
 5    1  0.3308162E-002  0.1250028E+03  0.7818608E-02  0.1235065E+00
         -4   -1    0    0    0  501 -0.00000000000E+00  0.00000000000E+00  0.13225073369E+02  0.13285912299E+02  0.12700000000E+01 0.  1.
          4   -1    0    0  501    0  0.00000000000E+00 -0.00000000000E+00 -0.29464036939E+03  0.29464310644E+03  0.12700000000E+01 0.  1.
         25    2    1    2    0    0  0.00000000000E+00  0.00000000000E+00 -0.28141529602E+03  0.30792901874E+03  0.12500284696E+03 0.  0.
    9000005    1    3    3    0    0 -0.74134175785E+01 -0.50804340697E+02 -0.52941319210E+02  0.73755156250E+02  0.10000000000E+01 0.  0.
    9000005    1    3    3    0    0  0.74134175785E+01  0.50804340697E+02 -0.22847397681E+03  0.23417386249E+03  0.10000000000E+01 0.  0.
<mgrwt>
<rscale>  0 0.12500285E+03</rscale>
<asrwt>0</asrwt>
<pdfrwt beam="2">  1        4 0.45334173E-01 0.12500285E+03</pdfrwt>
<pdfrwt beam="1">  1       -4 0.20395174E-02 0.12500285E+03</pdfrwt>
<totfact> 0.74610170E+03</totfact>
</mgrwt>
</event>
<event>
 5    1  0.3308162E-002  0.1249950E+03  0.7818608E-02  0.1235077E+00
          4   -1    0    0  501    0  0.00000000000E+00  0.00000000000E+00  0.43996740603E+02  0.44015066553E+02  0.12700000000E+01 0.  1.
         -4   -1    0    0    0  501 -0.00000000000E+00 -0.00000000000E+00 -0.88736495060E+02  0.88745582738E+02  0.12700000000E+01 0.  1.
         25    2    1    2    0    0  0.00000000000E+00  0.00000000000E+00 -0.44739754457E+02  0.13276064929E+03  0.12499497738E+03 0.  0.
    9000005    1    3    3    0    0  0.37538457043E+01 -0.28131616014E+02 -0.81501474083E+02  0.86307412514E+02  0.10000000000E+01 0.  0.
    9000005    1    3    3    0    0 -0.37538457043E+01  0.28131616014E+02  0.36761719627E+02  0.46453236777E+02  0.10000000000E+01 0.  0.
<mgrwt>
<rscale>  0 0.12499498E+03</rscale>
<asrwt>0</asrwt>
<pdfrwt beam="1">  1        4 0.67708381E-02 0.12499498E+03</pdfrwt>
<pdfrwt beam="2">  1       -4 0.13653877E-01 0.12499498E+03</pdfrwt>
<totfact> 0.10286655E+04</totfact>
</mgrwt>
</event>
<event>
 5    1  0.3308162E-002  0.1250034E+03  0.7818608E-02  0.1235064E+00
          4   -1    0    0  501    0  0.00000000000E+00  0.00000000000E+00  0.16956954605E+03  0.16957430185E+03  0.12700000000E+01 0.  1.
         -4   -1    0    0    0  501 -0.00000000000E+00 -0.00000000000E+00 -0.23014942245E+02  0.23049955890E+02  0.12700000000E+01 0.  1.
         25    2    1    2    0    0  0.00000000000E+00  0.00000000000E+00  0.14655460380E+03  0.19262425774E+03  0.12500341105E+03 0.  0.
    9000005    1    3    3    0    0  0.53339454775E+02  0.32137268131E+02  0.65187413211E+02  0.90157086686E+02  0.10000000000E+01 0.  0.
    9000005    1    3    3    0    0 -0.53339454775E+02 -0.32137268131E+02  0.81367190593E+02  0.10246717105E+03  0.10000000000E+01 0.  0.
<mgrwt>
<rscale>  0 0.12500341E+03</rscale>
<asrwt>0</asrwt>
<pdfrwt beam="1">  1        4 0.26090682E-01 0.12500341E+03</pdfrwt>
<pdfrwt beam="2">  1       -4 0.35438195E-02 0.12500341E+03</pdfrwt>
<totfact> 0.91385716E+03</totfact>
</mgrwt>
</event>
<event>
 5    1  0.3308162E-002  0.1249971E+03  0.7818608E-02  0.1235074E+00
         -4   -1    0    0    0  501 -0.00000000000E+00  0.00000000000E+00  0.33738319463E+03  0.33738558493E+03  0.12700000000E+01 0.  1.
          4   -1    0    0  501    0  0.00000000000E+00 -0.00000000000E+00 -0.11540276015E+02  0.11609947050E+02  0.12700000000E+01 0.  1.
         25    2    1    2    0    0  0.00000000000E+00  0.00000000000E+00  0.32584291862E+03  0.34899553198E+03  0.12499709489E+03 0.  0.
    9000005    1    3    3    0    0  0.29850874881E+02 -0.65798130356E+01  0.31509856791E+03  0.31657933629E+03  0.10000000000E+01 0.  0.
    9000005    1    3    3    0    0 -0.29850874881E+02  0.65798130356E+01  0.10744350708E+02  0.32416195688E+02  0.10000000000E+01 0.  0.
<mgrwt>
<rscale>  0 0.12499709E+03</rscale>
<asrwt>0</asrwt>
<pdfrwt beam="2">  1        4 0.17809703E-02 0.12499709E+03</pdfrwt>
<pdfrwt beam="1">  1       -4 0.51910650E-01 0.12499709E+03</pdfrwt>
<totfact> 0.69839690E+03</totfact>
</mgrwt>
</event>
<event>
 5    1  0.3308162E-002  0.1249982E+03  0.7818608E-02  0.1235072E+00
         -4   -1    0    0    0  501 -0.00000000000E+00  0.00000000000E+00  0.56659794649E+02  0.56674026059E+02  0.12700000000E+01 0.  1.
          4   -1    0    0  501    0  0.00000000000E+00 -0.00000000000E+00 -0.68911426511E+02  0.68923128221E+02  0.12700000000E+01 0.  1.
         25    2    1    2    0    0  0.00000000000E+00  0.00000000000E+00 -0.12251631861E+02  0.12559715428E+03  0.12499817071E+03 0.  0.
    9000005    1    3    3    0    0 -0.39699971347E+02  0.12583502892E+02 -0.52939884334E+02  0.67365151401E+02  0.10000000000E+01 0.  0.
    9000005    1    3    3    0    0  0.39699971347E+02 -0.12583502892E+02  0.40688252473E+02  0.58232002878E+02  0.10000000000E+01 0.  0.
<mgrwt>
<rscale>  0 0.12499817E+03</rscale>
<asrwt>0</asrwt>
<pdfrwt beam="2">  1        4 0.10603753E-01 0.12499817E+03</pdfrwt>
<pdfrwt beam="1">  1       -4 0.87188863E-02 0.12499817E+03</pdfrwt>
<totfact> 0.10440241E+04</totfact>
</mgrwt>
</event>
<event>
 5    1  0.3308162E-002  0.1249979E+03  0.7818608E-02  0.1235073E+00
          4   -1    0    0  501    0  0.00000000000E+00  0.00000000000E+00  0.12222306594E+02  0.12288111266E+02  0.12700000000E+01 0. -1.
         -4   -1    0    0    0  501 -0.00000000000E+00 -0.00000000000E+00 -0.31866398156E+03  0.31866651227E+03  0.12700000000E+01 0. -1.
         25    2    1    2    0    0  0.00000000000E+00  0.00000000000E+00 -0.30644167497E+03  0.33095462354E+03  0.12499785072E+03 0.  0.
    9000005    1    3    3    0    0 -0.23302120935E+02  0.21672046130E+02 -0.29561716239E+03  0.29732671109E+03  0.10000000000E+01 0.  0.
    9000005    1    3    3    0    0  0.23302120935E+02 -0.21672046130E+02 -0.10824512573E+02  0.33627912453E+02  0.10000000000E+01 0.  0.
<mgrwt>
<rscale>  0 0.12499785E+03</rscale>
<asrwt>0</asrwt>
<pdfrwt beam="1">  1        4 0.18856117E-02 0.12499785E+03</pdfrwt>
<pdfrwt beam="2">  1       -4 0.49030478E-01 0.12499785E+03</pdfrwt>
<totfact> 0.71875311E+03</totfact>
</mgrwt>
</event>
<event>
 5    1  0.3308162E-002  0.1249966E+03  0.7818608E-02  0.1235075E+00
          4   -1    0    0  501    0  0.00000000000E+00  0.00000000000E+00  0.26889739453E+02  0.26919713741E+02  0.12700000000E+01 0.  1.
         -4   -1    0    0    0  501 -0.00000000000E+00 -0.00000000000E+00 -0.14514760356E+03  0.14515315952E+03  0.12700000000E+01 0.  1.
         25    2    1    2    0    0  0.00000000000E+00  0.00000000000E+00 -0.11825786410E+03  0.17207287326E+03  0.12499660511E+03 0.  0.
    9000005    1    3    3    0    0 -0.28781122509E+02  0.52095508177E+02 -0.85347780639E+02  0.10405545947E+03  0.10000000000E+01 0.  0.
    9000005    1    3    3    0    0  0.28781122509E+02 -0.52095508177E+02 -0.32910083463E+02  0.68017413790E+02  0.10000000000E+01 0.  0.
<mgrwt>
<rscale>  0 0.12499661E+03</rscale>
<asrwt>0</asrwt>
<pdfrwt beam="1">  1        4 0.41396162E-02 0.12499661E+03</pdfrwt>
<pdfrwt beam="2">  1       -4 0.22333133E-01 0.12499661E+03</pdfrwt>
<totfact> 0.95070930E+03</totfact>
</mgrwt>
</event>
<event>
 5    1  0.3308162E-002  0.1249766E+03  0.7818608E-02  0.1235106E+00
         -4   -1    0    0    0  501 -0.00000000000E+00  0.00000000000E+00  0.38252016192E+02  0.38273092934E+02  0.12700000000E+01 0. -1.
          4   -1    0    0  501    0  0.00000000000E+00 -0.00000000000E+00 -0.10202750244E+03  0.10203540637E+03  0.12700000000E+01 0. -1.
         25    2    1    2    0    0  0.00000000000E+00  0.00000000000E+00 -0.63775486248E+02  0.14030849931E+03  0.12497664715E+03 0.  0.
    9000005    1    3    3    0    0 -0.20904733234E+02 -0.55478412936E+02 -0.97471146638E+01  0.60090501893E+02  0.10000000000E+01 0.  0.
    9000005    1    3    3    0    0  0.20904733234E+02  0.55478412936E+02 -0.54028371584E+02  0.80217997416E+02  0.10000000000E+01 0.  0.
<mgrwt>
<rscale>  0 0.12497665E+03</rscale>
<asrwt>0</asrwt>
<pdfrwt beam="2">  1        4 0.15698768E-01 0.12497665E+03</pdfrwt>
<pdfrwt beam="1">  1       -4 0.58871549E-02 0.12497665E+03</pdfrwt>
<totfact> 0.10132526E+04</totfact>
</mgrwt>
</event>
<event>
 5    1  0.3308162E-002  0.1249987E+03  0.7818608E-02  0.1235071E+00
         -4   -1    0    0    0  501 -0.00000000000E+00  0.00000000000E+00  0.56158596690E+02  0.56172955078E+02  0.12700000000E+01 0. -1.
          4   -1    0    0  501    0  0.00000000000E+00 -0.00000000000E+00 -0.69526956617E+02  0.69538554748E+02  0.12700000000E+01 0. -1.
         25    2    1    2    0    0  0.00000000000E+00  0.00000000000E+00 -0.13368359927E+02  0.12571150983E+03  0.12499868261E+03 0.  0.
    9000005    1    3    3    0    0  0.54718482825E+00 -0.33109424980E+02  0.46614591509E+02  0.57187879619E+02  0.10000000000E+01 0.  0.
    9000005    1    3    3    0    0 -0.54718482825E+00  0.33109424980E+02 -0.59982951436E+02  0.68523630207E+02  0.10000000000E+01 0.  0.
<mgrwt>
<rscale>  0 0.12499868E+03</rscale>
<asrwt>0</asrwt>
<pdfrwt beam="2">  1        4 0.10698452E-01 0.12499868E+03</pdfrwt>
<pdfrwt beam="1">  1       -4 0.86417807E-02 0.12499868E+03</pdfrwt>
<totfact> 0.10437601E+04</totfact>
</mgrwt>
</event>
<event>
 5    1  0.3308162E-002  0.1249991E+03  0.7818608E-02  0.1235071E+00
         -4   -1    0    0    0  501 -0.00000000000E+00  0.00000000000E+00  0.15843933983E+03  0.15844442971E+03  0.12700000000E+01 0.  1.
          4   -1    0    0  501    0  0.00000000000E+00 -0.00000000000E+00 -0.24632338183E+02  0.24665055937E+02  0.12700000000E+01 0.  1.
         25    2    1    2    0    0  0.00000000000E+00  0.00000000000E+00  0.13380700165E+03  0.18310948565E+03  0.12499908017E+03 0.  0.
    9000005    1    3    3    0    0 -0.55392313814E+02  0.14734789089E+02  0.10337212051E+03  0.11820413588E+03  0.10000000000E+01 0.  0.
    9000005    1    3    3    0    0  0.55392313814E+02 -0.14734789089E+02  0.30434881137E+02  0.64905349772E+02  0.10000000000E+01 0.  0.
<mgrwt>
<rscale>  0 0.12499908E+03</rscale>
<asrwt>0</asrwt>
<pdfrwt beam="2">  1        4 0.37924989E-02 0.12499908E+03</pdfrwt>
<pdfrwt beam="1">  1       -4 0.24378191E-01 0.12499908E+03</pdfrwt>
<totfact> 0.93062180E+03</totfact>
</mgrwt>
</event>
<event>
 5    1  0.3308162E-002  0.1249970E+03  0.7818608E-02  0.1235074E+00
         -4   -1    0    0    0  501 -0.00000000000E+00  0.00000000000E+00  0.75363481629E+02  0.75374181675E+02  0.12700000000E+01 0.  1.
          4   -1    0    0  501    0  0.00000000000E+00 -0.00000000000E+00 -0.51807510729E+02  0.51823074667E+02  0.12700000000E+01 0.  1.
         25    2    1    2    0    0  0.00000000000E+00  0.00000000000E+00  0.23555970900E+02  0.12719725634E+03  0.12499703299E+03 0.  0.
    9000005    1    3    3    0    0  0.28375261412E+02  0.35539244996E+02 -0.31835157811E+02  0.55521803536E+02  0.10000000000E+01 0.  0.
    9000005    1    3    3    0    0 -0.28375261412E+02 -0.35539244996E+02  0.55391128711E+02  0.71675452806E+02  0.10000000000E+01 0.  0.
<mgrwt>
<rscale>  0 0.12499703E+03</rscale>
<asrwt>0</asrwt>
<pdfrwt beam="2">  1        4 0.79724066E-02 0.12499703E+03</pdfrwt>
<pdfrwt beam="1">  1       -4 0.11596402E-01 0.12499703E+03</pdfrwt>
<totfact> 0.10405560E+04</totfact>
</mgrwt>
</event>
<event>
 5    1  0.3308162E-002  0.1249997E+03  0.7818608E-02  0.1235070E+00
         -4   -1    0    0    0  501 -0.00000000000E+00  0.00000000000E+00  0.13232907177E+03  0.13233516590E+03  0.12700000000E+01 0.  1.
          4   -1    0    0  501    0  0.00000000000E+00 -0.00000000000E+00 -0.29498635009E+02  0.29525960905E+02  0.12700000000E+01 0.  1.
         25    2    1    2    0    0  0.00000000000E+00  0.00000000000E+00  0.10283043676E+03  0.16186112681E+03  0.12499970259E+03 0.  0.
    9000005    1    3    3    0    0 -0.33345875593E+02  0.28279264679E+02 -0.64009115382E+01  0.44199953601E+02  0.10000000000E+01 0.  0.
    9000005    1    3    3    0    0  0.33345875593E+02 -0.28279264679E+02  0.10923134829E+03  0.11766117321E+03  0.10000000000E+01 0.  0.
<mgrwt>
<rscale>  0 0.12499970E+03</rscale>
<asrwt>0</asrwt>
<pdfrwt beam="2">  1        4 0.45408223E-02 0.12499970E+03</pdfrwt>
<pdfrwt beam="1">  1       -4 0.20360890E-01 0.12499970E+03</pdfrwt>
<totfact> 0.96985818E+03</totfact>
</mgrwt>
</event>
<event>
 5    1  0.3308162E-002  0.1250009E+03  0.7818608E-02  0.1235068E+00
          4   -1    0    0  501    0  0.00000000000E+00  0.00000000000E+00  0.54329742147E+03  0.54329890583E+03  0.12700000000E+01 0.  1.
         -4   -1    0    0    0  501 -0.00000000000E+00 -0.00000000000E+00 -0.71324119191E+01  0.72445979725E+01  0.12700000000E+01 0.  1.
         25    2    1    2    0    0  0.00000000000E+00  0.00000000000E+00  0.53616500956E+03  0.55054350381E+03  0.12500092845E+03 0.  0.
    9000005    1    3    3    0    0  0.41623401319E+01  0.20183853123E+02  0.52792199251E+03  0.52832503553E+03  0.10000000000E+01 0.  0.
    9000005    1    3    3    0    0 -0.41623401319E+01 -0.20183853123E+02  0.82430170499E+01  0.22218468272E+02  0.10000000000E+01 0.  0.
<mgrwt>
<rscale>  0 0.12500093E+03</rscale>
<asrwt>0</asrwt>
<pdfrwt beam="1">  1        4 0.83592996E-01 0.12500093E+03</pdfrwt>
<pdfrwt beam="2">  1       -4 0.11060376E-02 0.12500093E+03</pdfrwt>
<totfact> 0.52144989E+03</totfact>
</mgrwt>
</event>
<event>
 5    1  0.3308162E-002  0.1250020E+03  0.7818608E-02  0.1235066E+00
         -4   -1    0    0    0  501 -0.00000000000E+00  0.00000000000E+00  0.22620323588E+03  0.22620680101E+03  0.12700000000E+01 0.  1.
          4   -1    0    0  501    0  0.00000000000E+00 -0.00000000000E+00 -0.17242256656E+02  0.17288965110E+02  0.12700000000E+01 0.  1.
         25    2    1    2    0    0  0.00000000000E+00  0.00000000000E+00  0.20896097922E+03  0.24349576612E+03  0.12500198910E+03 0.  0.
    9000005    1    3    3    0    0 -0.32310763184E+02  0.34439039986E+02  0.24749683652E+02  0.53325226053E+02  0.10000000000E+01 0.  0.
    9000005    1    3    3    0    0  0.32310763184E+02 -0.34439039986E+02  0.18421129557E+03  0.19017054007E+03  0.10000000000E+01 0.  0.
<mgrwt>
<rscale>  0 0.12500199E+03</rscale>
<asrwt>0</asrwt>
<pdfrwt beam="2">  1        4 0.26565221E-02 0.12500199E+03</pdfrwt>
<pdfrwt beam="1">  1       -4 0.34804365E-01 0.12500199E+03</pdfrwt>
<totfact> 0.83275781E+03</totfact>
</mgrwt>
</event>
<event>
 4    1  0.3308162E-002  0.1249082E+03  0.7818608E-02  0.1235213E+00
          4   -1    0    0  501    0  0.00000000000E+00  0.00000000000E+00  0.14082863754E+03  0.14083436389E+03  0.12700000000E+01 0.  1.
         -4   -1    0    0    0  501 -0.00000000000E+00 -0.00000000000E+00 -0.27676053644E+02  0.27705177229E+02  0.12700000000E+01 0.  1.
    9000005    1    1    2    0    0  0.18455597865E+02  0.25946103504E+01  0.13699516044E+03  0.13826067800E+03  0.10000000000E+01 0.  0.
    9000005    1    1    2    0    0 -0.18455597865E+02 -0.25946103504E+01 -0.23842576547E+02  0.30278863120E+02  0.10000000000E+01 0.  0.
<mgrwt>
<rscale>  0 0.12490825E+03</rscale>
<asrwt>0</asrwt>
<pdfrwt beam="1">  1        4 0.21668625E-01 0.12490825E+03</pdfrwt>
<pdfrwt beam="2">  1       -4 0.42605351E-02 0.12490825E+03</pdfrwt>
<totfact> 0.95918722E+03</totfact>
</mgrwt>
</event>
<event>
 5    1  0.3308162E-002  0.1249989E+03  0.7818608E-02  0.1235071E+00
          4   -1    0    0  501    0  0.00000000000E+00  0.00000000000E+00  0.18701867042E+02  0.18744938807E+02  0.12700000000E+01 0.  1.
         -4   -1    0    0    0  501 -0.00000000000E+00 -0.00000000000E+00 -0.20858064531E+03  0.20858451164E+03  0.12700000000E+01 0.  1.
         25    2    1    2    0    0  0.00000000000E+00  0.00000000000E+00 -0.18987877827E+03  0.22732945045E+03  0.12499891442E+03 0.  0.
    9000005    1    3    3    0    0 -0.99587147087E+00 -0.61687667879E+02 -0.76860308939E+02  0.98564025986E+02  0.10000000000E+01 0.  0.
    9000005    1    3    3    0    0  0.99587147087E+00  0.61687667879E+02 -0.11301846933E+03  0.12876542447E+03  0.10000000000E+01 0.  0.
<mgrwt>
<rscale>  0 0.12499891E+03</rscale>
<asrwt>0</asrwt>
<pdfrwt beam="1">  1        4 0.28808211E-02 0.12499891E+03</pdfrwt>
<pdfrwt beam="2">  1       -4 0.32092939E-01 0.12499891E+03</pdfrwt>
<totfact> 0.85723434E+03</totfact>
</mgrwt>
</event>
<event>
 5    1  0.3308162E-002  0.1250002E+03  0.7818608E-02  0.1235069E+00
         -4   -1    0    0    0  501 -0.00000000000E+00  0.00000000000E+00  0.66003255702E+03  0.66003377885E+03  0.12700000000E+01 0.  1.
          4   -1    0    0  501    0  0.00000000000E+00 -0.00000000000E+00 -0.58489106947E+01  0.59852031139E+01  0.12700000000E+01 0.  1.
         25    2    1    2    0    0  0.00000000000E+00  0.00000000000E+00  0.65418364633E+03  0.66601898197E+03  0.12500016488E+03 0.  0.
    9000005    1    3    3    0    0  0.46344339432E+02  0.39078204224E+02  0.24622391275E+03  0.25357862499E+03  0.10000000000E+01 0.  0.
    9000005    1    3    3    0    0 -0.46344339432E+02 -0.39078204224E+02  0.40795973358E+03  0.41244035698E+03  0.10000000000E+01 0.  0.
<mgrwt>
<rscale>  0 0.12500016E+03</rscale>
<asrwt>0</asrwt>
<pdfrwt beam="2">  1        4 0.91041095E-03 0.12500016E+03</pdfrwt>
<pdfrwt beam="1">  1       -4 0.10155399E+00 0.12500016E+03</pdfrwt>
<totfact> 0.44942033E+03</totfact>
</mgrwt>
</event>
<event>
 5    1  0.3308162E-002  0.1249974E+03  0.7818608E-02  0.1235073E+00
         -4   -1    0    0    0  501 -0.00000000000E+00  0.00000000000E+00  0.23482396757E+02  0.23516714427E+02  0.12700000000E+01 0. -1.
          4   -1    0    0  501    0  0.00000000000E+00 -0.00000000000E+00 -0.16618287561E+03  0.16618772833E+03  0.12700000000E+01 0. -1.
         25    2    1    2    0    0  0.00000000000E+00  0.00000000000E+00 -0.14270047886E+03  0.18970444276E+03  0.12499739572E+03 0.  0.
    9000005    1    3    3    0    0  0.70034334008E+01  0.58459985935E+02 -0.10312966792E+03  0.11875751109E+03  0.10000000000E+01 0.  0.
    9000005    1    3    3    0    0 -0.70034334008E+01 -0.58459985935E+02 -0.39570810939E+02  0.70946931669E+02  0.10000000000E+01 0.  0.
<mgrwt>
<rscale>  0 0.12499740E+03</rscale>
<asrwt>0</asrwt>
<pdfrwt beam="2">  1        4 0.25569609E-01 0.12499740E+03</pdfrwt>
<pdfrwt beam="1">  1       -4 0.36156896E-02 0.12499740E+03</pdfrwt>
<totfact> 0.91904128E+03</totfact>
</mgrwt>
</event>
<event>
 5    1  0.3308162E-002  0.1250024E+03  0.7818608E-02  0.1235066E+00
         -4   -1    0    0    0  501 -0.00000000000E+00  0.00000000000E+00  0.21306258355E+02  0.21344075175E+02  0.12700000000E+01 0. -1.
          4   -1    0    0  501    0  0.00000000000E+00 -0.00000000000E+00 -0.18314261732E+03  0.18314702067E+03  0.12700000000E+01 0. -1.
         25    2    1    2    0    0  0.00000000000E+00  0.00000000000E+00 -0.16183635897E+03  0.20449109584E+03  0.12500240476E+03 0.  0.
    9000005    1    3    3    0    0 -0.31850133348E+02  0.40999658685E+02 -0.24013466972E+02  0.57210572472E+02  0.10000000000E+01 0.  0.
    9000005    1    3    3    0    0  0.31850133348E+02 -0.40999658685E+02 -0.13782289200E+03  0.14728052337E+03  0.10000000000E+01 0.  0.
<mgrwt>
<rscale>  0 0.12500240E+03</rscale>
<asrwt>0</asrwt>
<pdfrwt beam="2">  1        4 0.28179034E-01 0.12500240E+03</pdfrwt>
<pdfrwt beam="1">  1       -4 0.32811337E-02 0.12500240E+03</pdfrwt>
<totfact> 0.89378728E+03</totfact>
</mgrwt>
</event>
<event>
 5    1  0.3308162E-002  0.1250009E+03  0.7818608E-02  0.1235068E+00
          4   -1    0    0  501    0  0.00000000000E+00  0.00000000000E+00  0.40979609777E+02  0.40999284353E+02  0.12700000000E+01 0. -1.
         -4   -1    0    0    0  501 -0.00000000000E+00 -0.00000000000E+00 -0.95276440726E+02  0.95284904668E+02  0.12700000000E+01 0. -1.
         25    2    1    2    0    0  0.00000000000E+00  0.00000000000E+00 -0.54296830950E+02  0.13628418902E+03  0.12500093730E+03 0.  0.
    9000005    1    3    3    0    0 -0.21733588401E+02  0.92755120995E+01 -0.90223111827E+02  0.93271613567E+02  0.10000000000E+01 0.  0.
    9000005    1    3    3    0    0  0.21733588401E+02 -0.92755120995E+01  0.35926280878E+02  0.43012575454E+02  0.10000000000E+01 0.  0.
<mgrwt>
<rscale>  0 0.12500094E+03</rscale>
<asrwt>0</asrwt>
<pdfrwt beam="1">  1        4 0.63067199E-02 0.12500094E+03</pdfrwt>
<pdfrwt beam="2">  1       -4 0.14660078E-01 0.12500094E+03</pdfrwt>
<totfact> 0.10210858E+04</totfact>
</mgrwt>
</event>
<event>
 5    1  0.3308162E-002  0.1249968E+03  0.7818608E-02  0.1235074E+00
          4   -1    0    0  501    0  0.00000000000E+00  0.00000000000E+00  0.21217455831E+02  0.21255430646E+02  0.12700000000E+01 0.  1.
         -4   -1    0    0    0  501 -0.00000000000E+00 -0.00000000000E+00 -0.18389130735E+03  0.18389569277E+03  0.12700000000E+01 0.  1.
         25    2    1    2    0    0  0.00000000000E+00  0.00000000000E+00 -0.16267385152E+03  0.20515112341E+03  0.12499680584E+03 0.  0.
    9000005    1    3    3    0    0 -0.72939096707E+01  0.38370416802E+02 -0.12754949216E+01  0.39091135711E+02  0.10000000000E+01 0.  0.
    9000005    1    3    3    0    0  0.72939096707E+01 -0.38370416802E+02 -0.16139835660E+03  0.16605998770E+03  0.10000000000E+01 0.  0.
<mgrwt>
<rscale>  0 0.12499681E+03</rscale>
<asrwt>0</asrwt>
<pdfrwt beam="1">  1        4 0.32674826E-02 0.12499681E+03</pdfrwt>
<pdfrwt beam="2">  1       -4 0.28294228E-01 0.12499681E+03</pdfrwt>
<totfact> 0.89280318E+03</totfact>
</mgrwt>
</event>
<event>
 5    1  0.3308162E-002  0.1249889E+03  0.7818608E-02  0.1235087E+00
          4   -1    0    0  501    0  0.00000000000E+00  0.00000000000E+00  0.36257169704E+02  0.36279405383E+02  0.12700000000E+01 0. -1.
         -4   -1    0    0    0  501 -0.00000000000E+00 -0.00000000000E+00 -0.10765923616E+03  0.10766672666E+03  0.12700000000E+01 0. -1.
         25    2    1    2    0    0  0.00000000000E+00  0.00000000000E+00 -0.71402066453E+02  0.14394613204E+03  0.12498893486E+03 0.  0.
    9000005    1    3    3    0    0 -0.51387071071E+02  0.34696101968E+02 -0.44629855717E+02  0.76402058783E+02  0.10000000000E+01 0.  0.
    9000005    1    3    3    0    0  0.51387071071E+02 -0.34696101968E+02 -0.26772210736E+02  0.67544073261E+02  0.10000000000E+01 0.  0.
<mgrwt>
<rscale>  0 0.12498893E+03</rscale>
<asrwt>0</asrwt>
<pdfrwt beam="1">  1        4 0.55803128E-02 0.12498893E+03</pdfrwt>
<pdfrwt beam="2">  1       -4 0.16565246E-01 0.12498893E+03</pdfrwt>
<totfact> 0.10054950E+04</totfact>
</mgrwt>
</event>
<event>
 5    1  0.3308162E-002  0.1250077E+03  0.7818608E-02  0.1235057E+00
         -4   -1    0    0    0  501 -0.00000000000E+00  0.00000000000E+00  0.14943040727E+03  0.14943580399E+03  0.12700000000E+01 0. -1.
          4   -1    0    0  501    0  0.00000000000E+00 -0.00000000000E+00 -0.26122858420E+02  0.26153711630E+02  0.12700000000E+01 0. -1.
         25    2    1    2    0    0  0.00000000000E+00  0.00000000000E+00  0.12330754885E+03  0.17558951563E+03  0.12500770534E+03 0.  0.
    9000005    1    3    3    0    0 -0.28777821628E+02 -0.53623960753E+02  0.41688290181E+02  0.73774017937E+02  0.10000000000E+01 0.  0.
    9000005    1    3    3    0    0  0.28777821628E+02  0.53623960753E+02  0.81619258664E+02  0.10181549769E+03  0.10000000000E+01 0.  0.
<mgrwt>
<rscale>  0 0.12500771E+03</rscale>
<asrwt>0</asrwt>
<pdfrwt beam="2">  1        4 0.40216898E-02 0.12500771E+03</pdfrwt>
<pdfrwt beam="1">  1       -4 0.22992082E-01 0.12500771E+03</pdfrwt>
<totfact> 0.94400665E+03</totfact>
</mgrwt>
</event>
<event>
 5    1  0.3308162E-002  0.1249987E+03  0.7818608E-02  0.1235071E+00
         -4   -1    0    0    0  501 -0.00000000000E+00  0.00000000000E+00  0.28624863403E+02  0.28653022612E+02  0.12700000000E+01 0.  1.
          4   -1    0    0  501    0  0.00000000000E+00 -0.00000000000E+00 -0.13636252369E+03  0.13636843758E+03  0.12700000000E+01 0.  1.
         25    2    1    2    0    0  0.00000000000E+00  0.00000000000E+00 -0.10773766029E+03  0.16502146019E+03  0.12499871551E+03 0.  0.
    9000005    1    3    3    0    0 -0.26825666071E+02  0.24742465696E+02 -0.12083962678E+03  0.12623399450E+03  0.10000000000E+01 0.  0.
    9000005    1    3    3    0    0  0.26825666071E+02 -0.24742465696E+02  0.13101966485E+02  0.38787465690E+02  0.10000000000E+01 0.  0.
<mgrwt>
<rscale>  0 0.12499872E+03</rscale>
<asrwt>0</asrwt>
<pdfrwt beam="2">  1        4 0.20981470E-01 0.12499872E+03</pdfrwt>
<pdfrwt beam="1">  1       -4 0.44064462E-02 0.12499872E+03</pdfrwt>
<totfact> 0.96386110E+03</totfact>
</mgrwt>
</event>
<event>
 4    1  0.3308162E-002  0.1330696E+03  0.7818608E-02  0.1222971E+00
         -4   -1    0    0    0  501 -0.00000000000E+00  0.00000000000E+00  0.25044247350E+01  0.28080319182E+01  0.12700000000E+01 0. -1.
          4   -1    0    0  501    0  0.00000000000E+00 -0.00000000000E+00 -0.16663005385E+04  0.16663010224E+04  0.12700000000E+01 0. -1.
    9000005    1    1    2    0    0 -0.61874121183E+02 -0.23830067015E+02 -0.76365278829E+03  0.76652649011E+03  0.10000000000E+01 0.  0.
    9000005    1    1    2    0    0  0.61874121183E+02  0.23830067015E+02 -0.90014332543E+03  0.90258256425E+03  0.10000000000E+01 0.  0.
<mgrwt>
<rscale>  0 0.13306963E+03</rscale>
<asrwt>0</asrwt>
<pdfrwt beam="2">  1        4 0.25637649E+00 0.13306963E+03</pdfrwt>
<pdfrwt beam="1">  1       -4 0.40868907E-03 0.13306963E+03</pdfrwt>
<totfact> 0.12488260E+03</totfact>
</mgrwt>
</event>
<event>
 5    1  0.3308162E-002  0.1249960E+03  0.7818608E-02  0.1235075E+00
          4   -1    0    0  501    0  0.00000000000E+00  0.00000000000E+00  0.68292787337E+02  0.68304595030E+02  0.12700000000E+01 0. -1.
         -4   -1    0    0    0  501 -0.00000000000E+00 -0.00000000000E+00 -0.57171152497E+02  0.57185256648E+02  0.12700000000E+01 0. -1.
         25    2    1    2    0    0  0.00000000000E+00  0.00000000000E+00  0.11121634840E+02  0.12548985168E+03  0.12499604839E+03 0.  0.
    9000005    1    3    3    0    0 -0.69279742119E+01  0.80093245053E+01 -0.56268656684E+02  0.57265241035E+02  0.10000000000E+01 0.  0.
    9000005    1    3    3    0    0  0.69279742119E+01 -0.80093245053E+01  0.67390291524E+02  0.68224610643E+02  0.10000000000E+01 0.  0.
<mgrwt>
<rscale>  0 0.12499605E+03</rscale>
<asrwt>0</asrwt>
<pdfrwt beam="1">  1        4 0.10508576E-01 0.12499605E+03</pdfrwt>
<pdfrwt beam="2">  1       -4 0.87975551E-02 0.12499605E+03</pdfrwt>
<totfact> 0.10443109E+04</totfact>
</mgrwt>
</event>
<event>
 5    1  0.3308162E-002  0.1250064E+03  0.7818608E-02  0.1235059E+00
         -4   -1    0    0    0  501 -0.00000000000E+00  0.00000000000E+00  0.25208525077E+03  0.25208844986E+03  0.12700000000E+01 0. -1.
          4   -1    0    0  501    0  0.00000000000E+00 -0.00000000000E+00 -0.15468020314E+02  0.15520069344E+02  0.12700000000E+01 0. -1.
         25    2    1    2    0    0  0.00000000000E+00  0.00000000000E+00  0.23661723045E+03  0.26760851921E+03  0.12500642306E+03 0.  0.
    9000005    1    3    3    0    0  0.56242073270E+02 -0.16959603653E+02  0.16396514454E+03  0.17417338369E+03  0.10000000000E+01 0.  0.
    9000005    1    3    3    0    0 -0.56242073270E+02  0.16959603653E+02  0.72652085915E+02  0.93435135520E+02  0.10000000000E+01 0.  0.
<mgrwt>
<rscale>  0 0.12500642E+03</rscale>
<asrwt>0</asrwt>
<pdfrwt beam="2">  1        4 0.23839452E-02 0.12500642E+03</pdfrwt>
<pdfrwt beam="1">  1       -4 0.38786598E-01 0.12500642E+03</pdfrwt>
<totfact> 0.79838617E+03</totfact>
</mgrwt>
</event>
<event>
 5    1  0.3308162E-002  0.1249994E+03  0.7818608E-02  0.1235070E+00
          4   -1    0    0  501    0  0.00000000000E+00  0.00000000000E+00  0.23408234235E+03  0.23408578748E+03  0.12700000000E+01 0.  1.
         -4   -1    0    0    0  501 -0.00000000000E+00 -0.00000000000E+00 -0.16659605846E+02  0.16707943229E+02  0.12700000000E+01 0.  1.
         25    2    1    2    0    0  0.00000000000E+00  0.00000000000E+00  0.21742273651E+03  0.25079373071E+03  0.12499939606E+03 0.  0.
    9000005    1    3    3    0    0  0.37625437162E+02  0.15342619204E+02  0.20396893214E+03  0.20797931331E+03  0.10000000000E+01 0.  0.
    9000005    1    3    3    0    0 -0.37625437162E+02 -0.15342619204E+02  0.13453804365E+02  0.42814417403E+02  0.10000000000E+01 0.  0.
<mgrwt>
<rscale>  0 0.12499940E+03</rscale>
<asrwt>0</asrwt>
<pdfrwt beam="1">  1        4 0.36016652E-01 0.12499940E+03</pdfrwt>
<pdfrwt beam="2">  1       -4 0.25669995E-02 0.12499940E+03</pdfrwt>
<totfact> 0.82216749E+03</totfact>
</mgrwt>
</event>
<event>
 5    1  0.3308162E-002  0.1249983E+03  0.7818608E-02  0.1235072E+00
         -4   -1    0    0    0  501 -0.00000000000E+00  0.00000000000E+00  0.20749119126E+03  0.20749507789E+03  0.12700000000E+01 0.  1.
          4   -1    0    0  501    0  0.00000000000E+00 -0.00000000000E+00 -0.18800098392E+02  0.18842945618E+02  0.12700000000E+01 0.  1.
         25    2    1    2    0    0  0.00000000000E+00  0.00000000000E+00  0.18869109287E+03  0.22633802351E+03  0.12499828943E+03 0.  0.
    9000005    1    3    3    0    0  0.36216429632E+02  0.40525531430E+02  0.15019104098E+03  0.15972569381E+03  0.10000000000E+01 0.  0.
    9000005    1    3    3    0    0 -0.36216429632E+02 -0.40525531430E+02  0.38500051892E+02  0.66612329704E+02  0.10000000000E+01 0.  0.
<mgrwt>
<rscale>  0 0.12499829E+03</rscale>
<asrwt>0</asrwt>
<pdfrwt beam="2">  1        4 0.28959177E-02 0.12499829E+03</pdfrwt>
<pdfrwt beam="1">  1       -4 0.31925318E-01 0.12499829E+03</pdfrwt>
<totfact> 0.85878364E+03</totfact>
</mgrwt>
</event>
<event>
 5    1  0.3308162E-002  0.1250015E+03  0.7818608E-02  0.1235067E+00
         -4   -1    0    0    0  501 -0.00000000000E+00  0.00000000000E+00  0.89846830543E+02  0.89855805926E+02  0.12700000000E+01 0.  1.
          4   -1    0    0  501    0  0.00000000000E+00 -0.00000000000E+00 -0.43457369286E+02  0.43475922592E+02  0.12700000000E+01 0.  1.
         25    2    1    2    0    0  0.00000000000E+00  0.00000000000E+00  0.46389461257E+02  0.13333172852E+03  0.12500147085E+03 0.  0.
    9000005    1    3    3    0    0 -0.17219130086E+02 -0.54852891159E+01 -0.40614627435E+02  0.44464983968E+02  0.10000000000E+01 0.  0.
    9000005    1    3    3    0    0  0.17219130086E+02  0.54852891159E+01  0.87004088692E+02  0.88866744549E+02  0.10000000000E+01 0.  0.
<mgrwt>
<rscale>  0 0.12500147E+03</rscale>
<asrwt>0</asrwt>
<pdfrwt beam="2">  1        4 0.66878667E-02 0.12500147E+03</pdfrwt>
<pdfrwt beam="1">  1       -4 0.13824707E-01 0.12500147E+03</pdfrwt>
<totfact> 0.10273014E+04</totfact>
</mgrwt>
</event>
<event>
 5    1  0.3308162E-002  0.1250126E+03  0.7818608E-02  0.1235050E+00
         -4   -1    0    0    0  501 -0.00000000000E+00  0.00000000000E+00  0.47010860713E+01  0.48696108931E+01  0.12700000000E+01 0.  1.
          4   -1    0    0  501    0  0.00000000000E+00 -0.00000000000E+00 -0.81628876873E+03  0.81628975667E+03  0.12700000000E+01 0.  1.
         25    2    1    2    0    0  0.00000000000E+00  0.00000000000E+00 -0.81158768266E+03  0.82115936757E+03  0.12501256058E+03 0.  0.
    9000005    1    3    3    0    0 -0.30780820814E+02 -0.34223153033E+02 -0.12809194902E+03  0.13611476972E+03  0.10000000000E+01 0.  0.
    9000005    1    3    3    0    0  0.30780820814E+02  0.34223153033E+02 -0.68349573364E+03  0.68504459785E+03  0.10000000000E+01 0.  0.
<mgrwt>
<rscale>  0 0.12501256E+03</rscale>
<asrwt>0</asrwt>
<pdfrwt beam="2">  1        4 0.12559582E+00 0.12501256E+03</pdfrwt>
<pdfrwt beam="1">  1       -4 0.73628410E-03 0.12501256E+03</pdfrwt>
<totfact> 0.37327183E+03</totfact>
</mgrwt>
</event>
<event>
 5    1  0.3308162E-002  0.1250012E+03  0.7818608E-02  0.1235067E+00
          4   -1    0    0  501    0  0.00000000000E+00  0.00000000000E+00  0.36411952554E+02  0.36434093770E+02  0.12700000000E+01 0. -1.
         -4   -1    0    0    0  501 -0.00000000000E+00 -0.00000000000E+00 -0.10722280720E+03  0.10723032819E+03  0.12700000000E+01 0. -1.
         25    2    1    2    0    0  0.00000000000E+00  0.00000000000E+00 -0.70810854645E+02  0.14366442196E+03  0.12500115600E+03 0.  0.
    9000005    1    3    3    0    0  0.12101279095E+02 -0.67206593790E+01 -0.10544434557E+03  0.10635374103E+03  0.10000000000E+01 0.  0.
    9000005    1    3    3    0    0 -0.12101279095E+02  0.67206593790E+01  0.34633490922E+02  0.37310680933E+02  0.10000000000E+01 0.  0.
<mgrwt>
<rscale>  0 0.12500116E+03</rscale>
<asrwt>0</asrwt>
<pdfrwt beam="1">  1        4 0.56041206E-02 0.12500116E+03</pdfrwt>
<pdfrwt beam="2">  1       -4 0.16498098E-01 0.12500116E+03</pdfrwt>
<totfact> 0.10057933E+04</totfact>
</mgrwt>
</event>
<event>
 5    1  0.3308162E-002  0.1250005E+03  0.7818608E-02  0.1235069E+00
          4   -1    0    0  501    0  0.00000000000E+00  0.00000000000E+00  0.64127756760E+02  0.64140331205E+02  0.12700000000E+01 0. -1.
         -4   -1    0    0    0  501 -0.00000000000E+00 -0.00000000000E+00 -0.60888851743E+02  0.60902094927E+02  0.12700000000E+01 0. -1.
         25    2    1    2    0    0  0.00000000000E+00  0.00000000000E+00  0.32389050179E+01  0.12504242613E+03  0.12500047131E+03 0.  0.
    9000005    1    3    3    0    0 -0.12978917698E+02 -0.19962159521E+02 -0.56178304006E+02  0.61024109648E+02  0.10000000000E+01 0.  0.
    9000005    1    3    3    0    0  0.12978917698E+02  0.19962159521E+02  0.59417209024E+02  0.64018316485E+02  0.10000000000E+01 0.  0.
<mgrwt>
<rscale>  0 0.12500047E+03</rscale>
<asrwt>0</asrwt>
<pdfrwt beam="1">  1        4 0.98677948E-02 0.12500047E+03</pdfrwt>
<pdfrwt beam="2">  1       -4 0.93695016E-02 0.12500047E+03</pdfrwt>
<totfact> 0.10451830E+04</totfact>
</mgrwt>
</event>
<event>
 5    1  0.3308162E-002  0.1249977E+03  0.7818608E-02  0.1235073E+00
          4   -1    0    0  501    0  0.00000000000E+00  0.00000000000E+00  0.10397510142E+04  0.10397517898E+04  0.12700000000E+01 0.  1.
         -4   -1    0    0    0  501 -0.00000000000E+00 -0.00000000000E+00 -0.36486379954E+01  0.38633481879E+01  0.12700000000E+01 0.  1.
         25    2    1    2    0    0  0.00000000000E+00  0.00000000000E+00  0.10361023762E+04  0.10436151380E+04  0.12499768917E+03 0.  0.
    9000005    1    3    3    0    0  0.10128837561E+02  0.31545376767E+02  0.96042625777E+03  0.96099807532E+03  0.10000000000E+01 0.  0.
    9000005    1    3    3    0    0 -0.10128837561E+02 -0.31545376767E+02  0.75676118392E+02  0.82617062648E+02  0.10000000000E+01 0.  0.
<mgrwt>
<rscale>  0 0.12499769E+03</rscale>
<asrwt>0</asrwt>
<pdfrwt beam="1">  1        4 0.15997837E+00 0.12499769E+03</pdfrwt>
<pdfrwt beam="2">  1       -4 0.57790439E-03 0.12499769E+03</pdfrwt>
<totfact> 0.29196418E+03</totfact>
</mgrwt>
</event>
<event>
 5    1  0.3308162E-002  0.1250033E+03  0.7818608E-02  0.1235064E+00
         -4   -1    0    0    0  501 -0.00000000000E+00  0.00000000000E+00  0.12595289675E+02  0.12659155659E+02  0.12700000000E+01 0. -1.
          4   -1    0    0  501    0  0.00000000000E+00 -0.00000000000E+00 -0.30930239717E+03  0.30930500448E+03  0.12700000000E+01 0. -1.
         25    2    1    2    0    0  0.00000000000E+00  0.00000000000E+00 -0.29670710749E+03  0.32196416014E+03  0.12500325105E+03 0.  0.
    9000005    1    3    3    0    0  0.24973254449E+02 -0.37732486433E+02 -0.25937703212E+03  0.26329612372E+03  0.10000000000E+01 0.  0.
    9000005    1    3    3    0    0 -0.24973254449E+02  0.37732486433E+02 -0.37330075369E+02  0.58668036419E+02  0.10000000000E+01 0.  0.
<mgrwt>
<rscale>  0 0.12500325E+03</rscale>
<asrwt>0</asrwt>
<pdfrwt beam="2">  1        4 0.47590091E-01 0.12500325E+03</pdfrwt>
<pdfrwt beam="1">  1       -4 0.19428504E-02 0.12500325E+03</pdfrwt>
<totfact> 0.72917870E+03</totfact>
</mgrwt>
</event>
<event>
 5    1  0.3308162E-002  0.1249980E+03  0.7818608E-02  0.1235072E+00
          4   -1    0    0  501    0  0.00000000000E+00  0.00000000000E+00  0.43106125448E+03  0.43106312532E+03  0.12700000000E+01 0.  1.
         -4   -1    0    0    0  501 -0.00000000000E+00 -0.00000000000E+00 -0.90152559047E+01  0.91042703731E+01  0.12700000000E+01 0.  1.
         25    2    1    2    0    0  0.00000000000E+00  0.00000000000E+00  0.42204599857E+03  0.44016739569E+03  0.12499804527E+03 0.  0.
    9000005    1    3    3    0    0 -0.10466578173E+02  0.47798789217E+02  0.74147428234E+02  0.88843202458E+02  0.10000000000E+01 0.  0.
    9000005    1    3    3    0    0  0.10466578173E+02 -0.47798789217E+02  0.34789857034E+03  0.35132419323E+03  0.10000000000E+01 0.  0.
<mgrwt>
<rscale>  0 0.12499805E+03</rscale>
<asrwt>0</asrwt>
<pdfrwt beam="1">  1        4 0.66324098E-01 0.12499805E+03</pdfrwt>
<pdfrwt beam="2">  1       -4 0.13939538E-02 0.12499805E+03</pdfrwt>
<totfact> 0.60827692E+03</totfact>
</mgrwt>
</event>
<event>
 5    1  0.3308162E-002  0.1249975E+03  0.7818608E-02  0.1235073E+00
         -4   -1    0    0    0  501 -0.00000000000E+00  0.00000000000E+00  0.23064433443E+03  0.23064783092E+03  0.12700000000E+01 0. -1.
          4   -1    0    0  501    0  0.00000000000E+00 -0.00000000000E+00 -0.16908120470E+02  0.16955749403E+02  0.12700000000E+01 0. -1.
         25    2    1    2    0    0  0.00000000000E+00  0.00000000000E+00  0.21373621396E+03  0.24760358032E+03  0.12499745528E+03 0.  0.
    9000005    1    3    3    0    0  0.57836165827E+02  0.22800247367E+02  0.94305961470E+02  0.11295790245E+03  0.10000000000E+01 0.  0.
    9000005    1    3    3    0    0 -0.57836165827E+02 -0.22800247367E+02  0.11943025249E+03  0.13464567787E+03  0.10000000000E+01 0.  0.
<mgrwt>
<rscale>  0 0.12499746E+03</rscale>
<asrwt>0</asrwt>
<pdfrwt beam="2">  1        4 0.26051822E-02 0.12499746E+03</pdfrwt>
<pdfrwt beam="1">  1       -4 0.35487675E-01 0.12499746E+03</pdfrwt>
<totfact> 0.82682512E+03</totfact>
</mgrwt>
</event>
<event>
 5    1  0.3308162E-002  0.1249900E+03  0.7818608E-02  0.1235085E+00
         -4   -1    0    0    0  501 -0.00000000000E+00  0.00000000000E+00  0.33968235962E+02  0.33991968969E+02  0.12700000000E+01 0.  1.
          4   -1    0    0  501    0  0.00000000000E+00 -0.00000000000E+00 -0.11491132208E+03  0.11491833988E+03  0.12700000000E+01 0.  1.
         25    2    1    2    0    0  0.00000000000E+00  0.00000000000E+00 -0.80943086113E+02  0.14891030885E+03  0.12498998717E+03 0.  0.
    9000005    1    3    3    0    0  0.48819929977E+02 -0.30083054620E+02 -0.70046728278E+02  0.90531319888E+02  0.10000000000E+01 0.  0.
    9000005    1    3    3    0    0 -0.48819929977E+02  0.30083054620E+02 -0.10896357835E+02  0.58378988962E+02  0.10000000000E+01 0.  0.
<mgrwt>
<rscale>  0 0.12498999E+03</rscale>
<asrwt>0</asrwt>
<pdfrwt beam="2">  1        4 0.17681030E-01 0.12498999E+03</pdfrwt>
<pdfrwt beam="1">  1       -4 0.52282480E-02 0.12498999E+03</pdfrwt>
<totfact> 0.99543789E+03</totfact>
</mgrwt>
</event>
<event>
 5    1  0.3308162E-002  0.1250006E+03  0.7818608E-02  0.1235068E+00
          4   -1    0    0  501    0  0.00000000000E+00  0.00000000000E+00  0.18798351097E+02  0.18841202296E+02  0.12700000000E+01 0.  1.
         -4   -1    0    0    0  501 -0.00000000000E+00 -0.00000000000E+00 -0.20751800050E+03  0.20752188663E+03  0.12700000000E+01 0.  1.
         25    2    1    2    0    0  0.00000000000E+00  0.00000000000E+00 -0.18871964940E+03  0.22636308892E+03  0.12500056783E+03 0.  0.
    9000005    1    3    3    0    0  0.36233889085E+01  0.12515816404E+02  0.16320042337E+02  0.20907376434E+02  0.10000000000E+01 0.  0.
    9000005    1    3    3    0    0 -0.36233889085E+01 -0.12515816404E+02 -0.20503969174E+03  0.20545571249E+03  0.10000000000E+01 0.  0.
<mgrwt>
<rscale>  0 0.12500057E+03</rscale>
<asrwt>0</asrwt>
<pdfrwt beam="1">  1        4 0.28956493E-02 0.12500057E+03</pdfrwt>
<pdfrwt beam="2">  1       -4 0.31929440E-01 0.12500057E+03</pdfrwt>
<totfact> 0.85870107E+03</totfact>
</mgrwt>
</event>
<event>
 5    1  0.3308162E-002  0.1250491E+03  0.7818608E-02  0.1234992E+00
         -4   -1    0    0    0  501 -0.00000000000E+00  0.00000000000E+00  0.28711322706E+02  0.28739397201E+02  0.12700000000E+01 0.  1.
          4   -1    0    0  501    0  0.00000000000E+00 -0.00000000000E+00 -0.13606202088E+03  0.13606794783E+03  0.12700000000E+01 0.  1.
         25    2    1    2    0    0  0.00000000000E+00  0.00000000000E+00 -0.10735069818E+03  0.16480734503E+03  0.12504914465E+03 0.  0.
    9000005    1    3    3    0    0 -0.11112739500E+01  0.59118192287E+02 -0.80430729933E+02  0.99831347315E+02  0.10000000000E+01 0.  0.
    9000005    1    3    3    0    0  0.11112739500E+01 -0.59118192287E+02 -0.26919968245E+02  0.64975997717E+02  0.10000000000E+01 0.  0.
<mgrwt>
<rscale>  0 0.12504914E+03</rscale>
<asrwt>0</asrwt>
<pdfrwt beam="2">  1        4 0.20935234E-01 0.12504914E+03</pdfrwt>
<pdfrwt beam="1">  1       -4 0.44197421E-02 0.12504914E+03</pdfrwt>
<totfact> 0.96317511E+03</totfact>
</mgrwt>
</event>
<event>
 5    1  0.3308162E-002  0.1250020E+03  0.7818608E-02  0.1235066E+00
          4   -1    0    0  501    0  0.00000000000E+00  0.00000000000E+00  0.95860606796E+01  0.96698220952E+01  0.12700000000E+01 0. -1.
         -4   -1    0    0    0  501 -0.00000000000E+00 -0.00000000000E+00 -0.40564864702E+03  0.40565063507E+03  0.12700000000E+01 0. -1.
         25    2    1    2    0    0  0.00000000000E+00  0.00000000000E+00 -0.39606258634E+03  0.41532045716E+03  0.12500203933E+03 0.  0.
    9000005    1    3    3    0    0  0.52307466905E+02 -0.33353032087E+02 -0.22308962685E+03  0.23155663984E+03  0.10000000000E+01 0.  0.
    9000005    1    3    3    0    0 -0.52307466905E+02  0.33353032087E+02 -0.17297295949E+03  0.18376381733E+03  0.10000000000E+01 0.  0.
<mgrwt>
<rscale>  0 0.12500204E+03</rscale>
<asrwt>0</asrwt>
<pdfrwt beam="1">  1        4 0.14813750E-02 0.12500204E+03</pdfrwt>
<pdfrwt beam="2">  1       -4 0.62414067E-01 0.12500204E+03</pdfrwt>
<totfact> 0.63086692E+03</totfact>
</mgrwt>
</event>
<event>
 5    1  0.3308162E-002  0.1250011E+03  0.7818608E-02  0.1235068E+00
          4   -1    0    0  501    0  0.00000000000E+00  0.00000000000E+00  0.85807869933E+01  0.86742610881E+01  0.12700000000E+01 0. -1.
         -4   -1    0    0    0  501 -0.00000000000E+00 -0.00000000000E+00 -0.45267933099E+03  0.45268111249E+03  0.12700000000E+01 0. -1.
         25    2    1    2    0    0  0.00000000000E+00  0.00000000000E+00 -0.44409854399E+03  0.46135537357E+03  0.12500105579E+03 0.  0.
    9000005    1    3    3    0    0 -0.26729205893E+02  0.13229153089E+02 -0.19361693496E+02  0.35571563280E+02  0.10000000000E+01 0.  0.
    9000005    1    3    3    0    0  0.26729205893E+02 -0.13229153089E+02 -0.42473685050E+03  0.42578381029E+03  0.10000000000E+01 0.  0.
<mgrwt>
<rscale>  0 0.12500106E+03</rscale>
<asrwt>0</asrwt>
<pdfrwt beam="1">  1        4 0.13274488E-02 0.12500106E+03</pdfrwt>
<pdfrwt beam="2">  1       -4 0.69650283E-01 0.12500106E+03</pdfrwt>
<totfact> 0.58991186E+03</totfact>
</mgrwt>
</event>
<event>
 5    1  0.3308162E-002  0.1249976E+03  0.7818608E-02  0.1235073E+00
          4   -1    0    0  501    0  0.00000000000E+00  0.00000000000E+00  0.68250100601E+02  0.68261915678E+02  0.12700000000E+01 0. -1.
         -4   -1    0    0    0  501 -0.00000000000E+00 -0.00000000000E+00 -0.57208325839E+02  0.57222420827E+02  0.12700000000E+01 0. -1.
         25    2    1    2    0    0  0.00000000000E+00  0.00000000000E+00  0.11041774762E+02  0.12548433650E+03  0.12499759165E+03 0.  0.
    9000005    1    3    3    0    0 -0.35399708351E+02 -0.26348129532E+02  0.49939496844E+02  0.66650706119E+02  0.10000000000E+01 0.  0.
    9000005    1    3    3    0    0  0.35399708351E+02  0.26348129532E+02 -0.38897722082E+02  0.58833630385E+02  0.10000000000E+01 0.  0.
<mgrwt>
<rscale>  0 0.12499759E+03</rscale>
<asrwt>0</asrwt>
<pdfrwt beam="1">  1        4 0.10502009E-01 0.12499759E+03</pdfrwt>
<pdfrwt beam="2">  1       -4 0.88032740E-02 0.12499759E+03</pdfrwt>
<totfact> 0.10442868E+04</totfact>
</mgrwt>
</event>
<event>
 5    1  0.3308162E-002  0.1249991E+03  0.7818608E-02  0.1235071E+00
         -4   -1    0    0    0  501 -0.00000000000E+00  0.00000000000E+00  0.96694392901E+02  0.96702732736E+02  0.12700000000E+01 0.  1.
          4   -1    0    0  501    0  0.00000000000E+00 -0.00000000000E+00 -0.40377226213E+02  0.40397194168E+02  0.12700000000E+01 0.  1.
         25    2    1    2    0    0  0.00000000000E+00  0.00000000000E+00  0.56317166689E+02  0.13709992690E+03  0.12499906677E+03 0.  0.
    9000005    1    3    3    0    0  0.87246471305E+01  0.30705970669E+02 -0.30765771380E+02  0.44345335616E+02  0.10000000000E+01 0.  0.
    9000005    1    3    3    0    0 -0.87246471305E+01 -0.30705970669E+02  0.87082938069E+02  0.92754591288E+02  0.10000000000E+01 0.  0.
<mgrwt>
<rscale>  0 0.12499907E+03</rscale>
<asrwt>0</asrwt>
<pdfrwt beam="2">  1        4 0.62140585E-02 0.12499907E+03</pdfrwt>
<pdfrwt beam="1">  1       -4 0.14878238E-01 0.12499907E+03</pdfrwt>
<totfact> 0.10194211E+04</totfact>
</mgrwt>
</event>
<event>
 5    1  0.3308162E-002  0.1249930E+03  0.7818608E-02  0.1235080E+00
          4   -1    0    0  501    0  0.00000000000E+00  0.00000000000E+00  0.12517642959E+03  0.12518287194E+03  0.12700000000E+01 0.  1.
         -4   -1    0    0    0  501 -0.00000000000E+00 -0.00000000000E+00 -0.31182277971E+02  0.31208129701E+02  0.12700000000E+01 0.  1.
         25    2    1    2    0    0  0.00000000000E+00  0.00000000000E+00  0.93994151624E+02  0.15639100164E+03  0.12499297922E+03 0.  0.
    9000005    1    3    3    0    0 -0.90996227885E+01 -0.18249137013E+02  0.12090231035E+03  0.12261403992E+03  0.10000000000E+01 0.  0.
    9000005    1    3    3    0    0  0.90996227885E+01  0.18249137013E+02 -0.26908158730E+02  0.33776961717E+02  0.10000000000E+01 0.  0.
<mgrwt>
<rscale>  0 0.12499298E+03</rscale>
<asrwt>0</asrwt>
<pdfrwt beam="1">  1        4 0.19260397E-01 0.12499298E+03</pdfrwt>
<pdfrwt beam="2">  1       -4 0.47997576E-02 0.12499298E+03</pdfrwt>
<totfact> 0.98058597E+03</totfact>
</mgrwt>
</event>
<event>
 5    1  0.3308162E-002  0.1249974E+03  0.7818608E-02  0.1235073E+00
         -4   -1    0    0    0  501 -0.00000000000E+00  0.00000000000E+00  0.21117040453E+02  0.21155195520E+02  0.12700000000E+01 0.  1.
          4   -1    0    0  501    0  0.00000000000E+00 -0.00000000000E+00 -0.18476590012E+03  0.18477026478E+03  0.12700000000E+01 0.  1.
         25    2    1    2    0    0  0.00000000000E+00  0.00000000000E+00 -0.16364885966E+03  0.20592546030E+03  0.12499738369E+03 0.  0.
    9000005    1    3    3    0    0  0.11352336492E+02 -0.20781318093E+02 -0.17709633233E+03  0.17867526312E+03  0.10000000000E+01 0.  0.
    9000005    1    3    3    0    0 -0.11352336492E+02  0.20781318093E+02  0.13447472662E+02  0.27250197183E+02  0.10000000000E+01 0.  0.
<mgrwt>
<rscale>  0 0.12499738E+03</rscale>
<asrwt>0</asrwt>
<pdfrwt beam="2">  1        4 0.28428793E-01 0.12499738E+03</pdfrwt>
<pdfrwt beam="1">  1       -4 0.32520463E-02 0.12499738E+03</pdfrwt>
<totfact> 0.89150877E+03</totfact>
</mgrwt>
</event>
<event>
 5    1  0.3308162E-002  0.1250115E+03  0.7818608E-02  0.1235051E+00
          4   -1    0    0  501    0  0.00000000000E+00  0.00000000000E+00  0.48164942482E+02  0.48181683078E+02  0.12700000000E+01 0.  1.
         -4   -1    0    0    0  501 -0.00000000000E+00 -0.00000000000E+00 -0.81080581616E+02  0.81090527284E+02  0.12700000000E+01 0.  1.
         25    2    1    2    0    0  0.00000000000E+00  0.00000000000E+00 -0.32915639135E+02  0.12927221036E+03  0.12501145976E+03 0.  0.
    9000005    1    3    3    0    0  0.38700835928E+02 -0.30329281666E+02  0.23436157669E+02  0.54478193015E+02  0.10000000000E+01 0.  0.
    9000005    1    3    3    0    0 -0.38700835928E+02  0.30329281666E+02 -0.56351796804E+02  0.74794017347E+02  0.10000000000E+01 0.  0.
<mgrwt>
<rscale>  0 0.12501146E+03</rscale>
<asrwt>0</asrwt>
<pdfrwt beam="1">  1        4 0.74120440E-02 0.12501146E+03</pdfrwt>
<pdfrwt beam="2">  1       -4 0.12475988E-01 0.12501146E+03</pdfrwt>
<totfact> 0.10357422E+04</totfact>
</mgrwt>
</event>
<event>
 5    1  0.3308162E-002  0.1249970E+03  0.7818608E-02  0.1235074E+00
          4   -1    0    0  501    0  0.00000000000E+00  0.00000000000E+00  0.71640663428E+02  0.71651919419E+02  0.12700000000E+01 0. -1.
         -4   -1    0    0    0  501 -0.00000000000E+00 -0.00000000000E+00 -0.54500084612E+02  0.54514879828E+02  0.12700000000E+01 0. -1.
         25    2    1    2    0    0  0.00000000000E+00  0.00000000000E+00  0.17140578817E+02  0.12616679925E+03  0.12499704713E+03 0.  0.
    9000005    1    3    3    0    0 -0.48866877872E+02 -0.12095622184E+02 -0.28800367782E+02  0.58006353215E+02  0.10000000000E+01 0.  0.
    9000005    1    3    3    0    0  0.48866877872E+02  0.12095622184E+02  0.45940946598E+02  0.68160446032E+02  0.10000000000E+01 0.  0.
<mgrwt>
<rscale>  0 0.12499705E+03</rscale>
<asrwt>0</asrwt>
<pdfrwt beam="1">  1        4 0.11023644E-01 0.12499705E+03</pdfrwt>
<pdfrwt beam="2">  1       -4 0.83866324E-02 0.12499705E+03</pdfrwt>
<totfact> 0.10428000E+04</totfact>
</mgrwt>
</event>
<event>
 5    1  0.3308162E-002  0.1249978E+03  0.7818608E-02  0.1235073E+00
         -4   -1    0    0    0  501 -0.00000000000E+00  0.00000000000E+00  0.45323091220E+01  0.47068807057E+01  0.12700000000E+01 0. -1.
          4   -1    0    0  501    0  0.00000000000E+00 -0.00000000000E+00 -0.84537816444E+03  0.84537911840E+03  0.12700000000E+01 0. -1.
         25    2    1    2    0    0  0.00000000000E+00  0.00000000000E+00 -0.84084585532E+03  0.85008599910E+03  0.12499781380E+03 0.  0.
    9000005    1    3    3    0    0  0.42883287022E+02  0.36866129062E+02 -0.23958979273E+03  0.24617545889E+03  0.10000000000E+01 0.  0.
    9000005    1    3    3    0    0 -0.42883287022E+02 -0.36866129062E+02 -0.60125606259E+03  0.60391054021E+03  0.10000000000E+01 0.  0.
<mgrwt>
<rscale>  0 0.12499781E+03</rscale>
<asrwt>0</asrwt>
<pdfrwt beam="2">  1        4 0.13007156E+00 0.12499781E+03</pdfrwt>
<pdfrwt beam="1">  1       -4 0.71078096E-03 0.12499781E+03</pdfrwt>
<totfact> 0.36125559E+03</totfact>
</mgrwt>
</event>
<event>
 5    1  0.3308162E-002  0.1249935E+03  0.7818608E-02  0.1235079E+00
          4   -1    0    0  501    0  0.00000000000E+00  0.00000000000E+00  0.17833392042E+03  0.17833844249E+03  0.12700000000E+01 0.  1.
         -4   -1    0    0    0  501 -0.00000000000E+00 -0.00000000000E+00 -0.21878642959E+02  0.21915472108E+02  0.12700000000E+01 0.  1.
         25    2    1    2    0    0  0.00000000000E+00  0.00000000000E+00  0.15645527746E+03  0.20025391460E+03  0.12499350571E+03 0.  0.
    9000005    1    3    3    0    0  0.52090340564E+02  0.85885301763E+00  0.22944171520E+02  0.56934841840E+02  0.10000000000E+01 0.  0.
    9000005    1    3    3    0    0 -0.52090340564E+02 -0.85885301763E+00  0.13351110594E+03  0.14331907276E+03  0.10000000000E+01 0.  0.
<mgrwt>
<rscale>  0 0.12499351E+03</rscale>
<asrwt>0</asrwt>
<pdfrwt beam="1">  1        4 0.27439169E-01 0.12499351E+03</pdfrwt>
<pdfrwt beam="2">  1       -4 0.33691258E-02 0.12499351E+03</pdfrwt>
<totfact> 0.90105792E+03</totfact>
</mgrwt>
</event>
<event>
 5    1  0.3308162E-002  0.1250183E+03  0.7818608E-02  0.1235041E+00
         -4   -1    0    0    0  501 -0.00000000000E+00  0.00000000000E+00  0.31386165148E+03  0.31386422091E+03  0.12700000000E+01 0.  1.
          4   -1    0    0  501    0  0.00000000000E+00 -0.00000000000E+00 -0.12414399493E+02  0.12479191271E+02  0.12700000000E+01 0.  1.
         25    2    1    2    0    0  0.00000000000E+00  0.00000000000E+00  0.30144725199E+03  0.32634341218E+03  0.12501830644E+03 0.  0.
    9000005    1    3    3    0    0  0.17460126721E+02 -0.57044027691E+02  0.19938555698E+03  0.20812130466E+03  0.10000000000E+01 0.  0.
    9000005    1    3    3    0    0 -0.17460126721E+02  0.57044027691E+02  0.10206169501E+03  0.11822210753E+03  0.10000000000E+01 0.  0.
<mgrwt>
<rscale>  0 0.12501831E+03</rscale>
<asrwt>0</asrwt>
<pdfrwt beam="2">  1        4 0.19150893E-02 0.12501831E+03</pdfrwt>
<pdfrwt beam="1">  1       -4 0.48291588E-01 0.12501831E+03</pdfrwt>
<totfact> 0.72378593E+03</totfact>
</mgrwt>
</event>
<event>
 5    1  0.3308162E-002  0.1249982E+03  0.7818608E-02  0.1235072E+00
         -4   -1    0    0    0  501 -0.00000000000E+00  0.00000000000E+00  0.28713491324E+03  0.28713772184E+03  0.12700000000E+01 0.  1.
          4   -1    0    0  501    0  0.00000000000E+00 -0.00000000000E+00 -0.13571316274E+02  0.13630609869E+02  0.12700000000E+01 0.  1.
         25    2    1    2    0    0  0.00000000000E+00  0.00000000000E+00  0.27356359697E+03  0.30076833171E+03  0.12499819107E+03 0.  0.
    9000005    1    3    3    0    0 -0.51860429302E+02  0.20387697610E+02  0.68725789327E+02  0.88483876835E+02  0.10000000000E+01 0.  0.
    9000005    1    3    3    0    0  0.51860429302E+02 -0.20387697610E+02  0.20483780764E+03  0.21228445487E+03  0.10000000000E+01 0.  0.
<mgrwt>
<rscale>  0 0.12499819E+03</rscale>
<asrwt>0</asrwt>
<pdfrwt beam="2">  1        4 0.20926720E-02 0.12499819E+03</pdfrwt>
<pdfrwt beam="1">  1       -4 0.44179376E-01 0.12499819E+03</pdfrwt>
<totfact> 0.75505594E+03</totfact>
</mgrwt>
</event>
<event>
 5    1  0.3308162E-002  0.1249985E+03  0.7818608E-02  0.1235072E+00
          4   -1    0    0  501    0  0.00000000000E+00  0.00000000000E+00  0.22229113695E+02  0.22265363138E+02  0.12700000000E+01 0. -1.
         -4   -1    0    0    0  501 -0.00000000000E+00 -0.00000000000E+00 -0.17554075646E+03  0.17554535049E+03  0.12700000000E+01 0. -1.
         25    2    1    2    0    0  0.00000000000E+00  0.00000000000E+00 -0.15331164277E+03  0.19781071363E+03  0.12499847447E+03 0.  0.
    9000005    1    3    3    0    0  0.22713647345E+02  0.57125098074E+02 -0.94417143824E+02  0.11267113052E+03  0.10000000000E+01 0.  0.
    9000005    1    3    3    0    0 -0.22713647345E+02 -0.57125098074E+02 -0.58894498941E+02  0.85139583104E+02  0.10000000000E+01 0.  0.
<mgrwt>
<rscale>  0 0.12499847E+03</rscale>
<asrwt>0</asrwt>
<pdfrwt beam="1">  1        4 0.34230056E-02 0.12499847E+03</pdfrwt>
<pdfrwt beam="2">  1       -4 0.27009411E-01 0.12499847E+03</pdfrwt>
<totfact> 0.90508847E+03</totfact>
</mgrwt>
</event>
<event>
 4    1  0.3308162E-002  0.1249327E+03  0.7818608E-02  0.1235174E+00
         -4   -1    0    0    0  501 -0.00000000000E+00  0.00000000000E+00  0.74943438316E+02  0.74954198326E+02  0.12700000000E+01 0. -1.
          4   -1    0    0  501    0  0.00000000000E+00 -0.00000000000E+00 -0.52044302162E+02  0.52059795308E+02  0.12700000000E+01 0. -1.
    9000005    1    1    2    0    0 -0.20114160680E+02 -0.56987781451E+02  0.27487647316E+02  0.66398474753E+02  0.10000000000E+01 0.  0.
    9000005    1    1    2    0    0  0.20114160680E+02  0.56987781451E+02 -0.45885111623E+01  0.60615518881E+02  0.10000000000E+01 0.  0.
<mgrwt>
<rscale>  0 0.12493272E+03</rscale>
<asrwt>0</asrwt>
<pdfrwt beam="2">  1        4 0.80088352E-02 0.12493272E+03</pdfrwt>
<pdfrwt beam="1">  1       -4 0.11531779E-01 0.12493272E+03</pdfrwt>
<totfact> 0.10424666E+04</totfact>
</mgrwt>
</event>
<event>
 5    1  0.3308162E-002  0.1249987E+03  0.7818608E-02  0.1235071E+00
         -4   -1    0    0    0  501 -0.00000000000E+00  0.00000000000E+00  0.17823413316E+02  0.17868602694E+02  0.12700000000E+01 0. -1.
          4   -1    0    0  501    0  0.00000000000E+00 -0.00000000000E+00 -0.21883492987E+03  0.21883861503E+03  0.12700000000E+01 0. -1.
         25    2    1    2    0    0  0.00000000000E+00  0.00000000000E+00 -0.20101151655E+03  0.23670721773E+03  0.12499870855E+03 0.  0.
    9000005    1    3    3    0    0  0.54523884445E+02  0.25141440078E+02 -0.67694100579E+02  0.90489984182E+02  0.10000000000E+01 0.  0.
    9000005    1    3    3    0    0 -0.54523884445E+02 -0.25141440078E+02 -0.13331741597E+03  0.14621723354E+03  0.10000000000E+01 0.  0.
<mgrwt>
<rscale>  0 0.12499871E+03</rscale>
<asrwt>0</asrwt>
<pdfrwt beam="2">  1        4 0.33670670E-01 0.12499871E+03</pdfrwt>
<pdfrwt beam="1">  1       -4 0.27458233E-02 0.12499871E+03</pdfrwt>
<totfact> 0.84292654E+03</totfact>
</mgrwt>
</event>
<event>
 5    1  0.3308162E-002  0.1250024E+03  0.7818608E-02  0.1235066E+00
          4   -1    0    0  501    0  0.00000000000E+00  0.00000000000E+00  0.27701438894E+02  0.27730535819E+02  0.12700000000E+01 0.  1.
         -4   -1    0    0    0  501 -0.00000000000E+00 -0.00000000000E+00 -0.14091192418E+03  0.14091764714E+03  0.12700000000E+01 0.  1.
         25    2    1    2    0    0  0.00000000000E+00  0.00000000000E+00 -0.11321048529E+03  0.16864818296E+03  0.12500238253E+03 0.  0.
    9000005    1    3    3    0    0 -0.23531891303E+02  0.37541907522E+02 -0.11606407936E+03  0.12423773681E+03  0.10000000000E+01 0.  0.
    9000005    1    3    3    0    0  0.23531891303E+02 -0.37541907522E+02  0.28535940746E+01  0.44410446157E+02  0.10000000000E+01 0.  0.
<mgrwt>
<rscale>  0 0.12500238E+03</rscale>
<asrwt>0</asrwt>
<pdfrwt beam="1">  1        4 0.42644384E-02 0.12500238E+03</pdfrwt>
<pdfrwt beam="2">  1       -4 0.21681436E-01 0.12500238E+03</pdfrwt>
<totfact> 0.95695791E+03</totfact>
</mgrwt>
</event>
<event>
 5    1  0.3308162E-002  0.1249990E+03  0.7818608E-02  0.1235071E+00
          4   -1    0    0  501    0  0.00000000000E+00  0.00000000000E+00  0.16581775605E+02  0.16630339209E+02  0.12700000000E+01 0. -1.
         -4   -1    0    0    0  501 -0.00000000000E+00 -0.00000000000E+00 -0.23517636405E+03  0.23517979315E+03  0.12700000000E+01 0. -1.
         25    2    1    2    0    0  0.00000000000E+00  0.00000000000E+00 -0.21859458844E+03  0.25181013236E+03  0.12499899465E+03 0.  0.
    9000005    1    3    3    0    0  0.29801331552E+02  0.50523344567E+02 -0.15271237231E+03  0.16359338729E+03  0.10000000000E+01 0.  0.
    9000005    1    3    3    0    0 -0.29801331552E+02 -0.50523344567E+02 -0.65882216136E+02  0.88216745074E+02  0.10000000000E+01 0.  0.
<mgrwt>
<rscale>  0 0.12499899E+03</rscale>
<asrwt>0</asrwt>
<pdfrwt beam="1">  1        4 0.25550420E-02 0.12499899E+03</pdfrwt>
<pdfrwt beam="2">  1       -4 0.36184976E-01 0.12499899E+03</pdfrwt>
<totfact> 0.82071148E+03</totfact>
</mgrwt>
</event>
<event>
 5    1  0.3308162E-002  0.1249973E+03  0.7818608E-02  0.1235073E+00
          4   -1    0    0  501    0  0.00000000000E+00  0.00000000000E+00  0.10045820029E+03  0.10046622769E+03  0.12700000000E+01 0. -1.
         -4   -1    0    0    0  501 -0.00000000000E+00 -0.00000000000E+00 -0.38862718736E+02  0.38883464449E+02  0.12700000000E+01 0. -1.
         25    2    1    2    0    0  0.00000000000E+00  0.00000000000E+00  0.61595481557E+02  0.13934969214E+03  0.12499733337E+03 0.  0.
    9000005    1    3    3    0    0  0.54959498104E+02 -0.21325764028E+02  0.76870701306E+01  0.59459445763E+02  0.10000000000E+01 0.  0.
    9000005    1    3    3    0    0 -0.54959498104E+02  0.21325764028E+02  0.53908411427E+02  0.79890246375E+02  0.10000000000E+01 0.  0.
<mgrwt>
<rscale>  0 0.12499733E+03</rscale>
<asrwt>0</asrwt>
<pdfrwt beam="1">  1        4 0.15457321E-01 0.12499733E+03</pdfrwt>
<pdfrwt beam="2">  1       -4 0.59810932E-02 0.12499733E+03</pdfrwt>
<totfact> 0.10147691E+04</totfact>
</mgrwt>
</event>
<event>
 5    1  0.3308162E-002  0.1249891E+03  0.7818608E-02  0.1235086E+00
          4   -1    0    0  501    0  0.00000000000E+00  0.00000000000E+00  0.18525245793E+02  0.18568727250E+02  0.12700000000E+01 0. -1.
         -4   -1    0    0    0  501 -0.00000000000E+00 -0.00000000000E+00 -0.21053157757E+03  0.21053540808E+03  0.12700000000E+01 0. -1.
         25    2    1    2    0    0  0.00000000000E+00  0.00000000000E+00 -0.19200633178E+03  0.22910413533E+03  0.12498909305E+03 0.  0.
    9000005    1    3    3    0    0 -0.17286657977E+02 -0.48082584022E+02 -0.30071323786E+02  0.59296272602E+02  0.10000000000E+01 0.  0.
    9000005    1    3    3    0    0  0.17286657977E+02  0.48082584022E+02 -0.16193500799E+03  0.16980786273E+03  0.10000000000E+01 0.  0.
<mgrwt>
<rscale>  0 0.12498909E+03</rscale>
<asrwt>0</asrwt>
<pdfrwt beam="1">  1        4 0.28536773E-02 0.12498909E+03</pdfrwt>
<pdfrwt beam="2">  1       -4 0.32393111E-01 0.12498909E+03</pdfrwt>
<totfact> 0.85468147E+03</totfact>
</mgrwt>
</event>
<event>
 5    1  0.3308162E-002  0.1249996E+03  0.7818608E-02  0.1235070E+00
          4   -1    0    0  501    0  0.00000000000E+00  0.00000000000E+00  0.19697951645E+02  0.19738849992E+02  0.12700000000E+01 0.  1.
         -4   -1    0    0    0  501 -0.00000000000E+00 -0.00000000000E+00 -0.19805765225E+03  0.19806172400E+03  0.12700000000E+01 0.  1.
         25    2    1    2    0    0  0.00000000000E+00  0.00000000000E+00 -0.17835970061E+03  0.21780057399E+03  0.12499962893E+03 0.  0.
    9000005    1    3    3    0    0 -0.31346247103E+02  0.12768207846E+02  0.23524434062E+01  0.33943310519E+02  0.10000000000E+01 0.  0.
    9000005    1    3    3    0    0  0.31346247103E+02 -0.12768207846E+02 -0.18071214401E+03  0.18385726348E+03  0.10000000000E+01 0.  0.
<mgrwt>
<rscale>  0 0.12499963E+03</rscale>
<asrwt>0</asrwt>
<pdfrwt beam="1">  1        4 0.30339135E-02 0.12499963E+03</pdfrwt>
<pdfrwt beam="2">  1       -4 0.30473866E-01 0.12499963E+03</pdfrwt>
<totfact> 0.87218304E+03</totfact>
</mgrwt>
</event>
<event>
 5    1  0.3308162E-002  0.1249992E+03  0.7818608E-02  0.1235071E+00
         -4   -1    0    0    0  501 -0.00000000000E+00  0.00000000000E+00  0.45149042250E+02  0.45166900669E+02  0.12700000000E+01 0.  1.
          4   -1    0    0  501    0  0.00000000000E+00 -0.00000000000E+00 -0.86478236465E+02  0.86487561430E+02  0.12700000000E+01 0.  1.
         25    2    1    2    0    0  0.00000000000E+00  0.00000000000E+00 -0.41329194215E+02  0.13165446210E+03  0.12499918038E+03 0.  0.
    9000005    1    3    3    0    0  0.61629419071E+02  0.76282629510E+00 -0.97987481894E+01  0.62416205148E+02  0.10000000000E+01 0.  0.
    9000005    1    3    3    0    0 -0.61629419071E+02 -0.76282629510E+00 -0.31530446026E+02  0.69238256951E+02  0.10000000000E+01 0.  0.
<mgrwt>
<rscale>  0 0.12499918E+03</rscale>
<asrwt>0</asrwt>
<pdfrwt beam="2">  1        4 0.13306435E-01 0.12499918E+03</pdfrwt>
<pdfrwt beam="1">  1       -4 0.69480975E-02 0.12499918E+03</pdfrwt>
<totfact> 0.10309270E+04</totfact>
</mgrwt>
</event>
<event>
 5    1  0.3308162E-002  0.1250000E+03  0.7818608E-02  0.1235069E+00
          4   -1    0    0  501    0  0.00000000000E+00  0.00000000000E+00  0.28529686366E+01  0.31228720822E+01  0.12700000000E+01 0. -1.
         -4   -1    0    0    0  501 -0.00000000000E+00 -0.00000000000E+00 -0.13070762150E+04  0.13070768320E+04  0.12700000000E+01 0. -1.
         25    2    1    2    0    0  0.00000000000E+00  0.00000000000E+00 -0.13042232463E+04  0.13101997040E+04  0.12499995276E+03 0.  0.
    9000005    1    3    3    0    0 -0.52006233709E+02  0.11819498997E+02 -0.99351239089E+03  0.99494332489E+03  0.10000000000E+01 0.  0.
    9000005    1    3    3    0    0  0.52006233709E+02 -0.11819498997E+02 -0.31071085545E+03  0.31525637915E+03  0.10000000000E+01 0.  0.
<mgrwt>
<rscale>  0 0.12499995E+03</rscale>
<asrwt>0</asrwt>
<pdfrwt beam="1">  1        4 0.45972856E-03 0.12499995E+03</pdfrwt>
<pdfrwt beam="2">  1       -4 0.20110900E+00 0.12499995E+03</pdfrwt>
<totfact> 0.21989150E+03</totfact>
</mgrwt>
</event>
<event>
 5    1  0.3308162E-002  0.1249887E+03  0.7818608E-02  0.1235087E+00
         -4   -1    0    0    0  501 -0.00000000000E+00  0.00000000000E+00  0.94284017010E+01  0.95135513157E+01  0.12700000000E+01 0. -1.
          4   -1    0    0  501    0  0.00000000000E+00 -0.00000000000E+00 -0.41228330922E+03  0.41228526528E+03  0.12700000000E+01 0. -1.
         25    2    1    2    0    0  0.00000000000E+00  0.00000000000E+00 -0.40285490752E+03  0.42179881659E+03  0.12498866014E+03 0.  0.
    9000005    1    3    3    0    0  0.27805822139E+02  0.55387255320E+02 -0.17450814027E+03  0.18518910016E+03  0.10000000000E+01 0.  0.
    9000005    1    3    3    0    0 -0.27805822139E+02 -0.55387255320E+02 -0.22834676725E+03  0.23660971643E+03  0.10000000000E+01 0.  0.
<mgrwt>
<rscale>  0 0.12498866E+03</rscale>
<asrwt>0</asrwt>
<pdfrwt beam="2">  1        4 0.63434888E-01 0.12498866E+03</pdfrwt>
<pdfrwt beam="1">  1       -4 0.14572241E-02 0.12498866E+03</pdfrwt>
<totfact> 0.62502116E+03</totfact>
</mgrwt>
</event>
<event>
 5    1  0.3308162E-002  0.1249953E+03  0.7818608E-02  0.1235077E+00
          4   -1    0    0  501    0  0.00000000000E+00  0.00000000000E+00  0.17818648079E+03  0.17819100661E+03  0.12700000000E+01 0.  1.
         -4   -1    0    0    0  501 -0.00000000000E+00 -0.00000000000E+00 -0.21897415057E+02  0.21934212687E+02  0.12700000000E+01 0.  1.
         25    2    1    2    0    0  0.00000000000E+00  0.00000000000E+00  0.15628906573E+03  0.20012521929E+03  0.12499532523E+03 0.  0.
    9000005    1    3    3    0    0 -0.44573665816E+02  0.25512166868E+02  0.21148639193E+02  0.55551303156E+02  0.10000000000E+01 0.  0.
    9000005    1    3    3    0    0  0.44573665816E+02 -0.25512166868E+02  0.13514042654E+03  0.14457391614E+03  0.10000000000E+01 0.  0.
<mgrwt>
<rscale>  0 0.12499533E+03</rscale>
<asrwt>0</asrwt>
<pdfrwt beam="1">  1        4 0.27416483E-01 0.12499533E+03</pdfrwt>
<pdfrwt beam="2">  1       -4 0.33720119E-02 0.12499533E+03</pdfrwt>
<totfact> 0.90123818E+03</totfact>
</mgrwt>
</event>
<event>
 5    1  0.3308162E-002  0.1250071E+03  0.7818608E-02  0.1235058E+00
          4   -1    0    0  501    0  0.00000000000E+00  0.00000000000E+00  0.75730358420E+02  0.75741006638E+02  0.12700000000E+01 0. -1.
         -4   -1    0    0    0  501 -0.00000000000E+00 -0.00000000000E+00 -0.51564756578E+02  0.51580393765E+02  0.12700000000E+01 0. -1.
         25    2    1    2    0    0  0.00000000000E+00  0.00000000000E+00  0.24165601842E+02  0.12732140040E+03  0.12500705055E+03 0.  0.
    9000005    1    3    3    0    0  0.25971137622E+02  0.53754306718E+02  0.30909200250E+02  0.67233950801E+02  0.10000000000E+01 0.  0.
    9000005    1    3    3    0    0 -0.25971137622E+02 -0.53754306718E+02 -0.67435984082E+01  0.60087449602E+02  0.10000000000E+01 0.  0.
<mgrwt>
<rscale>  0 0.12500705E+03</rscale>
<asrwt>0</asrwt>
<pdfrwt beam="1">  1        4 0.11652846E-01 0.12500705E+03</pdfrwt>
<pdfrwt beam="2">  1       -4 0.79350614E-02 0.12500705E+03</pdfrwt>
<totfact> 0.10400515E+04</totfact>
</mgrwt>
</event>
<event>
 5    1  0.3308162E-002  0.1249826E+03  0.7818608E-02  0.1235096E+00
          4   -1    0    0  501    0  0.00000000000E+00  0.00000000000E+00  0.29756523147E+02  0.29783612437E+02  0.12700000000E+01 0. -1.
         -4   -1    0    0    0  501 -0.00000000000E+00 -0.00000000000E+00 -0.13114733228E+03  0.13115348133E+03  0.12700000000E+01 0. -1.
         25    2    1    2    0    0  0.00000000000E+00  0.00000000000E+00 -0.10139080913E+03  0.16093709376E+03  0.12498260668E+03 0.  0.
    9000005    1    3    3    0    0 -0.14244032161E+02 -0.50520065258E+02 -0.70473018048E+01  0.52970122792E+02  0.10000000000E+01 0.  0.
    9000005    1    3    3    0    0  0.14244032161E+02  0.50520065258E+02 -0.94343507327E+02  0.10796697097E+03  0.10000000000E+01 0.  0.
<mgrwt>
<rscale>  0 0.12498261E+03</rscale>
<asrwt>0</asrwt>
<pdfrwt beam="1">  1        4 0.45804835E-02 0.12498261E+03</pdfrwt>
<pdfrwt beam="2">  1       -4 0.20179069E-01 0.12498261E+03</pdfrwt>
<totfact> 0.97200417E+03</totfact>
</mgrwt>
</event>
<event>
 5    1  0.3308162E-002  0.1249977E+03  0.7818608E-02  0.1235073E+00
         -4   -1    0    0    0  501 -0.00000000000E+00  0.00000000000E+00  0.17506219919E+03  0.17506680578E+03  0.12700000000E+01 0. -1.
          4   -1    0    0  501    0  0.00000000000E+00 -0.00000000000E+00 -0.22289685089E+02  0.22325836185E+02  0.12700000000E+01 0. -1.
         25    2    1    2    0    0  0.00000000000E+00  0.00000000000E+00  0.15277251411E+03  0.19739264197E+03  0.12499765613E+03 0.  0.
    9000005    1    3    3    0    0 -0.10991420597E+02 -0.17171058839E+02  0.16967030609E+03  0.17089373704E+03  0.10000000000E+01 0.  0.
    9000005    1    3    3    0    0  0.10991420597E+02  0.17171058839E+02 -0.16897791989E+02  0.26498904930E+02  0.10000000000E+01 0.  0.
<mgrwt>
<rscale>  0 0.12499766E+03</rscale>
<asrwt>0</asrwt>
<pdfrwt beam="2">  1        4 0.34323174E-02 0.12499766E+03</pdfrwt>
<pdfrwt beam="1">  1       -4 0.26935782E-01 0.12499766E+03</pdfrwt>
<totfact> 0.90581443E+03</totfact>
</mgrwt>
</event>
<event>
 5    1  0.3308162E-002  0.1249956E+03  0.7818608E-02  0.1235076E+00
          4   -1    0    0  501    0  0.00000000000E+00  0.00000000000E+00  0.10865331932E+02  0.10939302445E+02  0.12700000000E+01 0.  1.
         -4   -1    0    0    0  501 -0.00000000000E+00 -0.00000000000E+00 -0.35819503415E+03  0.35819728557E+03  0.12700000000E+01 0.  1.
         25    2    1    2    0    0  0.00000000000E+00  0.00000000000E+00 -0.34732970222E+03  0.36913658802E+03  0.12499559420E+03 0.  0.
    9000005    1    3    3    0    0 -0.27550339781E+02  0.55366067738E+02 -0.20017001251E+03  0.20950765281E+03  0.10000000000E+01 0.  0.
    9000005    1    3    3    0    0  0.27550339781E+02 -0.55366067738E+02 -0.14715968971E+03  0.15962893521E+03  0.10000000000E+01 0.  0.
<mgrwt>
<rscale>  0 0.12499559E+03</rscale>
<asrwt>0</asrwt>
<pdfrwt beam="1">  1        4 0.16774530E-02 0.12499559E+03</pdfrwt>
<pdfrwt beam="2">  1       -4 0.55112783E-01 0.12499559E+03</pdfrwt>
<totfact> 0.67675959E+03</totfact>
</mgrwt>
</event>
<event>
 5    1  0.3308162E-002  0.1249973E+03  0.7818608E-02  0.1235073E+00
          4   -1    0    0  501    0  0.00000000000E+00  0.00000000000E+00  0.41586266790E+02  0.41605654490E+02  0.12700000000E+01 0. -1.
         -4   -1    0    0    0  501 -0.00000000000E+00 -0.00000000000E+00 -0.93881690859E+02  0.93890280532E+02  0.12700000000E+01 0. -1.
         25    2    1    2    0    0  0.00000000000E+00  0.00000000000E+00 -0.52295424068E+02  0.13549593502E+03  0.12499734809E+03 0.  0.
    9000005    1    3    3    0    0  0.43440274880E+02 -0.75676381983E+01  0.21851866456E+02  0.49222258147E+02  0.10000000000E+01 0.  0.
    9000005    1    3    3    0    0 -0.43440274880E+02  0.75676381983E+01 -0.74147290524E+02  0.86273676875E+02  0.10000000000E+01 0.  0.
<mgrwt>
<rscale>  0 0.12499735E+03</rscale>
<asrwt>0</asrwt>
<pdfrwt beam="1">  1        4 0.64000393E-02 0.12499735E+03</pdfrwt>
<pdfrwt beam="2">  1       -4 0.14445489E-01 0.12499735E+03</pdfrwt>
<totfact> 0.10228240E+04</totfact>
</mgrwt>
</event>
<event>
 5    1  0.3308162E-002  0.1249973E+03  0.7818608E-02  0.1235073E+00
          4   -1    0    0  501    0  0.00000000000E+00  0.00000000000E+00  0.53963716723E+02  0.53978658955E+02  0.12700000000E+01 0. -1.
         -4   -1    0    0    0  501 -0.00000000000E+00 -0.00000000000E+00 -0.72352978202E+02  0.72364123395E+02  0.12700000000E+01 0. -1.
         25    2    1    2    0    0  0.00000000000E+00  0.00000000000E+00 -0.18389261479E+02  0.12634278235E+03  0.12499733483E+03 0.  0.
    9000005    1    3    3    0    0 -0.20039064298E+02  0.45184330002E+02 -0.47840926302E+02  0.68796380756E+02  0.10000000000E+01 0.  0.
    9000005    1    3    3    0    0  0.20039064298E+02 -0.45184330002E+02  0.29451664823E+02  0.57546401594E+02  0.10000000000E+01 0.  0.
<mgrwt>
<rscale>  0 0.12499733E+03</rscale>
<asrwt>0</asrwt>
<pdfrwt beam="1">  1        4 0.83041171E-02 0.12499733E+03</pdfrwt>
<pdfrwt beam="2">  1       -4 0.11133234E-01 0.12499733E+03</pdfrwt>
<totfact> 0.10424086E+04</totfact>
</mgrwt>
</event>
<event>
 5    1  0.3308162E-002  0.1249997E+03  0.7818608E-02  0.1235070E+00
         -4   -1    0    0    0  501 -0.00000000000E+00  0.00000000000E+00  0.17759342514E+02  0.17804694508E+02  0.12700000000E+01 0.  1.
          4   -1    0    0  501    0  0.00000000000E+00 -0.00000000000E+00 -0.21962586352E+03  0.21962953542E+03  0.12700000000E+01 0.  1.
         25    2    1    2    0    0  0.00000000000E+00  0.00000000000E+00 -0.20186652101E+03  0.23743422993E+03  0.12499968495E+03 0.  0.
    9000005    1    3    3    0    0 -0.42987257954E+02  0.99220320204E+01 -0.18500271771E+03  0.19019294578E+03  0.10000000000E+01 0.  0.
    9000005    1    3    3    0    0  0.42987257954E+02 -0.99220320204E+01 -0.16863803299E+02  0.47241284143E+02  0.10000000000E+01 0.  0.
<mgrwt>
<rscale>  0 0.12499968E+03</rscale>
<asrwt>0</asrwt>
<pdfrwt beam="2">  1        4 0.33792363E-01 0.12499968E+03</pdfrwt>
<pdfrwt beam="1">  1       -4 0.27359778E-02 0.12499968E+03</pdfrwt>
<totfact> 0.84181575E+03</totfact>
</mgrwt>
</event>
<event>
 5    1  0.3308162E-002  0.1250000E+03  0.7818608E-02  0.1235069E+00
          4   -1    0    0  501    0  0.00000000000E+00  0.00000000000E+00  0.24006505173E+01  0.27158834486E+01  0.12700000000E+01 0. -1.
         -4   -1    0    0    0  501 -0.00000000000E+00 -0.00000000000E+00 -0.15265976832E+04  0.15265982114E+04  0.12700000000E+01 0. -1.
         25    2    1    2    0    0  0.00000000000E+00  0.00000000000E+00 -0.15241970326E+04  0.15293140949E+04  0.12500002586E+03 0.  0.
    9000005    1    3    3    0    0 -0.18866620088E+02 -0.43204555177E+02 -0.12639623424E+04  0.12648416446E+04  0.10000000000E+01 0.  0.
    9000005    1    3    3    0    0  0.18866620088E+02  0.43204555177E+02 -0.26023469021E+03  0.26447245023E+03  0.10000000000E+01 0.  0.
<mgrwt>
<rscale>  0 0.12500003E+03</rscale>
<asrwt>0</asrwt>
<pdfrwt beam="1">  1        4 0.39362139E-03 0.12500003E+03</pdfrwt>
<pdfrwt beam="2">  1       -4 0.23488474E+00 0.12500003E+03</pdfrwt>
<totfact> 0.17361386E+03</totfact>
</mgrwt>
</event>
<event>
 5    1  0.3308162E-002  0.1250075E+03  0.7818608E-02  0.1235058E+00
          4   -1    0    0  501    0  0.00000000000E+00  0.00000000000E+00  0.29735271873E+02  0.29762380505E+02  0.12700000000E+01 0. -1.
         -4   -1    0    0    0  501 -0.00000000000E+00 -0.00000000000E+00 -0.13129320362E+03  0.13129934583E+03  0.12700000000E+01 0. -1.
         25    2    1    2    0    0  0.00000000000E+00  0.00000000000E+00 -0.10155793174E+03  0.16106172634E+03  0.12500746454E+03 0.  0.
    9000005    1    3    3    0    0  0.57111417872E+02  0.23348467846E+02 -0.37968995214E+02  0.72453499568E+02  0.10000000000E+01 0.  0.
    9000005    1    3    3    0    0 -0.57111417872E+02 -0.23348467846E+02 -0.63588936531E+02  0.88608226770E+02  0.10000000000E+01 0.  0.
<mgrwt>
<rscale>  0 0.12500746E+03</rscale>
<asrwt>0</asrwt>
<pdfrwt beam="1">  1        4 0.45772150E-02 0.12500746E+03</pdfrwt>
<pdfrwt beam="2">  1       -4 0.20201512E-01 0.12500746E+03</pdfrwt>
<totfact> 0.97122188E+03</totfact>
</mgrwt>
</event>
<event>
 5    1  0.3308162E-002  0.1250125E+03  0.7818608E-02  0.1235050E+00
         -4   -1    0    0    0  501 -0.00000000000E+00  0.00000000000E+00  0.22484427530E+02  0.22520266014E+02  0.12700000000E+01 0.  1.
          4   -1    0    0  501    0  0.00000000000E+00 -0.00000000000E+00 -0.17358969862E+03  0.17359434428E+03  0.12700000000E+01 0.  1.
         25    2    1    2    0    0  0.00000000000E+00  0.00000000000E+00 -0.15110527109E+03  0.19611461030E+03  0.12501254905E+03 0.  0.
    9000005    1    3    3    0    0 -0.42632544463E+01  0.51173218918E+02 -0.19665140633E+02  0.54996285593E+02  0.10000000000E+01 0.  0.
    9000005    1    3    3    0    0  0.42632544463E+01 -0.51173218918E+02 -0.13144013046E+03  0.14111832470E+03  0.10000000000E+01 0.  0.
<mgrwt>
<rscale>  0 0.12501255E+03</rscale>
<asrwt>0</asrwt>
<pdfrwt beam="2">  1        4 0.26709221E-01 0.12501255E+03</pdfrwt>
<pdfrwt beam="1">  1       -4 0.34622570E-02 0.12501255E+03</pdfrwt>
<totfact> 0.90768641E+03</totfact>
</mgrwt>
</event>
<event>
 5    1  0.3308162E-002  0.1250019E+03  0.7818608E-02  0.1235066E+00
         -4   -1    0    0    0  501 -0.00000000000E+00  0.00000000000E+00  0.14490179954E+03  0.14490736492E+03  0.12700000000E+01 0. -1.
          4   -1    0    0  501    0  0.00000000000E+00 -0.00000000000E+00 -0.26937677750E+02  0.26967598754E+02  0.12700000000E+01 0. -1.
         25    2    1    2    0    0  0.00000000000E+00  0.00000000000E+00  0.11796412179E+03  0.17187496368E+03  0.12500187643E+03 0.  0.
    9000005    1    3    3    0    0 -0.99554744248E+01  0.60404728839E+02  0.41724866242E+02  0.74093233159E+02  0.10000000000E+01 0.  0.
    9000005    1    3    3    0    0  0.99554744248E+01 -0.60404728839E+02  0.76239255545E+02  0.97781730519E+02  0.10000000000E+01 0.  0.
<mgrwt>
<rscale>  0 0.12500188E+03</rscale>
<asrwt>0</asrwt>
<pdfrwt beam="2">  1        4 0.41469879E-02 0.12500188E+03</pdfrwt>
<pdfrwt beam="1">  1       -4 0.22295314E-01 0.12500188E+03</pdfrwt>
<totfact> 0.95096315E+03</totfact>
</mgrwt>
</event>
<event>
 5    1  0.3308162E-002  0.1250051E+03  0.7818608E-02  0.1235061E+00
          4   -1    0    0  501    0  0.00000000000E+00  0.00000000000E+00  0.22960361631E+02  0.22995458383E+02  0.12700000000E+01 0. -1.
         -4   -1    0    0    0  501 -0.00000000000E+00 -0.00000000000E+00 -0.16997672576E+03  0.16998147017E+03  0.12700000000E+01 0. -1.
         25    2    1    2    0    0  0.00000000000E+00  0.00000000000E+00 -0.14701636413E+03  0.19297692855E+03  0.12500513442E+03 0.  0.
    9000005    1    3    3    0    0 -0.58234070829E+02  0.18684434250E+02 -0.53662962007E+02  0.81369703084E+02  0.10000000000E+01 0.  0.
    9000005    1    3    3    0    0  0.58234070829E+02 -0.18684434250E+02 -0.93353402120E+02  0.11160722546E+03  0.10000000000E+01 0.  0.
<mgrwt>
<rscale>  0 0.12500513E+03</rscale>
<asrwt>0</asrwt>
<pdfrwt beam="1">  1        4 0.35354281E-02 0.12500513E+03</pdfrwt>
<pdfrwt beam="2">  1       -4 0.26153329E-01 0.12500513E+03</pdfrwt>
<totfact> 0.91321404E+03</totfact>
</mgrwt>
</event>
<event>
 5    1  0.3308162E-002  0.1250007E+03  0.7818608E-02  0.1235068E+00
          4   -1    0    0  501    0  0.00000000000E+00  0.00000000000E+00  0.12149511141E+03  0.12150174895E+03  0.12700000000E+01 0.  1.
         -4   -1    0    0    0  501 -0.00000000000E+00 -0.00000000000E+00 -0.32131813610E+02  0.32156901994E+02  0.12700000000E+01 0.  1.
         25    2    1    2    0    0  0.00000000000E+00  0.00000000000E+00  0.89363297804E+02  0.15365865094E+03  0.12500072806E+03 0.  0.
    9000005    1    3    3    0    0  0.32274209605E+02  0.35820629123E+02  0.93552405633E+02  0.10525110297E+03  0.10000000000E+01 0.  0.
    9000005    1    3    3    0    0 -0.32274209605E+02 -0.35820629123E+02 -0.41891078291E+01  0.48407547973E+02  0.10000000000E+01 0.  0.
<mgrwt>
<rscale>  0 0.12500073E+03</rscale>
<asrwt>0</asrwt>
<pdfrwt beam="1">  1        4 0.18693996E-01 0.12500073E+03</pdfrwt>
<pdfrwt beam="2">  1       -4 0.49457963E-02 0.12500073E+03</pdfrwt>
<totfact> 0.98577722E+03</totfact>
</mgrwt>
</event>
<event>
 5    1  0.3308162E-002  0.1250013E+03  0.7818608E-02  0.1235067E+00
         -4   -1    0    0    0  501 -0.00000000000E+00  0.00000000000E+00  0.33570571806E+03  0.33570812030E+03  0.12700000000E+01 0.  1.
          4   -1    0    0  501    0  0.00000000000E+00 -0.00000000000E+00 -0.11599073249E+02  0.11668393215E+02  0.12700000000E+01 0.  1.
         25    2    1    2    0    0  0.00000000000E+00  0.00000000000E+00  0.32410664481E+03  0.34737651352E+03  0.12500129973E+03 0.  0.
    9000005    1    3    3    0    0  0.44376186398E+02 -0.20220174656E+02  0.53451246848E+02  0.72361157896E+02  0.10000000000E+01 0.  0.
    9000005    1    3    3    0    0 -0.44376186398E+02  0.20220174656E+02  0.27065539796E+03  0.27501535562E+03  0.10000000000E+01 0.  0.
<mgrwt>
<rscale>  0 0.12500130E+03</rscale>
<asrwt>0</asrwt>
<pdfrwt beam="2">  1        4 0.17899900E-02 0.12500130E+03</pdfrwt>
<pdfrwt beam="1">  1       -4 0.51652548E-01 0.12500130E+03</pdfrwt>
<totfact> 0.70012125E+03</totfact>
</mgrwt>
</event>
<event>
 5    1  0.3308162E-002  0.1250006E+03  0.7818608E-02  0.1235068E+00
         -4   -1    0    0    0  501 -0.00000000000E+00  0.00000000000E+00  0.42084213291E+01  0.43958742115E+01  0.12700000000E+01 0. -1.
          4   -1    0    0  501    0  0.00000000000E+00 -0.00000000000E+00 -0.90779732892E+03  0.90779821727E+03  0.12700000000E+01 0. -1.
         25    2    1    2    0    0  0.00000000000E+00  0.00000000000E+00 -0.90358890759E+03  0.91219409149E+03  0.12500058651E+03 0.  0.
    9000005    1    3    3    0    0  0.35972490743E+02  0.49935019399E+02 -0.53098527531E+03  0.53454082057E+03  0.10000000000E+01 0.  0.
    9000005    1    3    3    0    0 -0.35972490743E+02 -0.49935019399E+02 -0.37260363227E+03  0.37765327092E+03  0.10000000000E+01 0.  0.
<mgrwt>
<rscale>  0 0.12500059E+03</rscale>
<asrwt>0</asrwt>
<pdfrwt beam="2">  1        4 0.13967546E+00 0.12500059E+03</pdfrwt>
<pdfrwt beam="1">  1       -4 0.66193795E-03 0.12500059E+03</pdfrwt>
<totfact> 0.33696884E+03</totfact>
</mgrwt>
</event>
<event>
 5    1  0.3308162E-002  0.1250009E+03  0.7818608E-02  0.1235068E+00
         -4   -1    0    0    0  501 -0.00000000000E+00  0.00000000000E+00  0.30358559796E+03  0.30358825436E+03  0.12700000000E+01 0.  1.
          4   -1    0    0  501    0  0.00000000000E+00 -0.00000000000E+00 -0.12833182814E+02  0.12895870701E+02  0.12700000000E+01 0.  1.
         25    2    1    2    0    0  0.00000000000E+00  0.00000000000E+00  0.29075241514E+03  0.31648412506E+03  0.12500093802E+03 0.  0.
    9000005    1    3    3    0    0  0.45309341936E+02  0.20375963997E+01  0.25422297449E+03  0.25823905403E+03  0.10000000000E+01 0.  0.
    9000005    1    3    3    0    0 -0.45309341936E+02 -0.20375963997E+01  0.36529440652E+02  0.58245071037E+02  0.10000000000E+01 0.  0.
<mgrwt>
<rscale>  0 0.12500094E+03</rscale>
<asrwt>0</asrwt>
<pdfrwt beam="2">  1        4 0.19793626E-02 0.12500094E+03</pdfrwt>
<pdfrwt beam="1">  1       -4 0.46710497E-01 0.12500094E+03</pdfrwt>
<totfact> 0.73574725E+03</totfact>
</mgrwt>
</event>
<event>
 5    1  0.3308162E-002  0.1250017E+03  0.7818608E-02  0.1235067E+00
          4   -1    0    0  501    0  0.00000000000E+00  0.00000000000E+00  0.36927839938E+02  0.36949672022E+02  0.12700000000E+01 0. -1.
         -4   -1    0    0    0  501 -0.00000000000E+00 -0.00000000000E+00 -0.10572662354E+03  0.10573425096E+03  0.12700000000E+01 0. -1.
         25    2    1    2    0    0  0.00000000000E+00  0.00000000000E+00 -0.68798783605E+02  0.14268392298E+03  0.12500171699E+03 0.  0.
    9000005    1    3    3    0    0  0.40128893118E+01  0.30459967233E+02  0.27717663100E+02  0.41390599563E+02  0.10000000000E+01 0.  0.
    9000005    1    3    3    0    0 -0.40128893118E+01 -0.30459967233E+02 -0.96516446705E+02  0.10129332342E+03  0.10000000000E+01 0.  0.
<mgrwt>
<rscale>  0 0.12500172E+03</rscale>
<asrwt>0</asrwt>
<pdfrwt beam="1">  1        4 0.56834723E-02 0.12500172E+03</pdfrwt>
<pdfrwt beam="2">  1       -4 0.16267900E-01 0.12500172E+03</pdfrwt>
<totfact> 0.10077870E+04</totfact>
</mgrwt>
</event>
<event>
 5    1  0.3308162E-002  0.1249991E+03  0.7818608E-02  0.1235071E+00
         -4   -1    0    0    0  501 -0.00000000000E+00  0.00000000000E+00  0.15403791531E+02  0.15456056856E+02  0.12700000000E+01 0. -1.
          4   -1    0    0  501    0  0.00000000000E+00 -0.00000000000E+00 -0.25310329327E+03  0.25310647950E+03  0.12700000000E+01 0. -1.
         25    2    1    2    0    0  0.00000000000E+00  0.00000000000E+00 -0.23769950174E+03  0.26856253635E+03  0.12499913122E+03 0.  0.
    9000005    1    3    3    0    0  0.60044215169E+02  0.72658810733E+01 -0.15262280411E+03  0.16417314378E+03  0.10000000000E+01 0.  0.
    9000005    1    3    3    0    0 -0.60044215169E+02 -0.72658810733E+01 -0.85076697622E+02  0.10438939257E+03  0.10000000000E+01 0.  0.
<mgrwt>
<rscale>  0 0.12499913E+03</rscale>
<asrwt>0</asrwt>
<pdfrwt beam="2">  1        4 0.38943231E-01 0.12499913E+03</pdfrwt>
<pdfrwt beam="1">  1       -4 0.23740798E-02 0.12499913E+03</pdfrwt>
<totfact> 0.79720789E+03</totfact>
</mgrwt>
</event>
<event>
 5    1  0.3308162E-002  0.1250022E+03  0.7818608E-02  0.1235066E+00
         -4   -1    0    0    0  501 -0.00000000000E+00  0.00000000000E+00  0.45085684271E+02  0.45103567777E+02  0.12700000000E+01 0. -1.
          4   -1    0    0  501    0  0.00000000000E+00 -0.00000000000E+00 -0.86603873439E+02  0.86613184878E+02  0.12700000000E+01 0. -1.
         25    2    1    2    0    0  0.00000000000E+00  0.00000000000E+00 -0.41518189168E+02  0.13171675265E+03  0.12500217157E+03 0.  0.
    9000005    1    3    3    0    0 -0.31120689474E+02  0.48954040576E+02  0.37358938507E+01  0.58137357224E+02  0.10000000000E+01 0.  0.
    9000005    1    3    3    0    0  0.31120689474E+02 -0.48954040576E+02 -0.45254083019E+02  0.73579395431E+02  0.10000000000E+01 0.  0.
<mgrwt>
<rscale>  0 0.12500217E+03</rscale>
<asrwt>0</asrwt>
<pdfrwt beam="2">  1        4 0.13325765E-01 0.12500217E+03</pdfrwt>
<pdfrwt beam="1">  1       -4 0.69383511E-02 0.12500217E+03</pdfrwt>
<totfact> 0.10307243E+04</totfact>
</mgrwt>
</event>
<event>
 5    1  0.3308162E-002  0.1249947E+03  0.7818608E-02  0.1235078E+00
         -4   -1    0    0    0  501 -0.00000000000E+00  0.00000000000E+00  0.24348440490E+03  0.24348771700E+03  0.12700000000E+01 0.  1.
          4   -1    0    0  501    0  0.00000000000E+00 -0.00000000000E+00 -0.16013199750E+02  0.16063482382E+02  0.12700000000E+01 0.  1.
         25    2    1    2    0    0  0.00000000000E+00  0.00000000000E+00  0.22747120515E+03  0.25955119938E+03  0.12499470360E+03 0.  0.
    9000005    1    3    3    0    0 -0.20568957367E+02 -0.41744031483E+02  0.27136122835E+02  0.53879637473E+02  0.10000000000E+01 0.  0.
    9000005    1    3    3    0    0  0.20568957367E+02  0.41744031483E+02  0.20033508232E+03  0.20567156191E+03  0.10000000000E+01 0.  0.
<mgrwt>
<rscale>  0 0.12499470E+03</rscale>
<asrwt>0</asrwt>
<pdfrwt beam="2">  1        4 0.24676917E-02 0.12499470E+03</pdfrwt>
<pdfrwt beam="1">  1       -4 0.37463264E-01 0.12499470E+03</pdfrwt>
<totfact> 0.80978629E+03</totfact>
</mgrwt>
</event>
<event>
 5    1  0.3308162E-002  0.1250018E+03  0.7818608E-02  0.1235067E+00
         -4   -1    0    0    0  501 -0.00000000000E+00  0.00000000000E+00  0.31841962378E+03  0.31842215643E+03  0.12700000000E+01 0.  1.
          4   -1    0    0  501    0  0.00000000000E+00 -0.00000000000E+00 -0.12232509430E+02  0.12298259509E+02  0.12700000000E+01 0.  1.
         25    2    1    2    0    0  0.00000000000E+00  0.00000000000E+00  0.30618711435E+03  0.33072041594E+03  0.12500177810E+03 0.  0.
    9000005    1    3    3    0    0 -0.60728836825E+02  0.14320604898E+02  0.14381849223E+03  0.15677318028E+03  0.10000000000E+01 0.  0.
    9000005    1    3    3    0    0  0.60728836825E+02 -0.14320604898E+02  0.16236862212E+03  0.17394723567E+03  0.10000000000E+01 0.  0.
<mgrwt>
<rscale>  0 0.12500178E+03</rscale>
<asrwt>0</asrwt>
<pdfrwt beam="2">  1        4 0.18871768E-02 0.12500178E+03</pdfrwt>
<pdfrwt beam="1">  1       -4 0.48992892E-01 0.12500178E+03</pdfrwt>
<totfact> 0.71896120E+03</totfact>
</mgrwt>
</event>
<event>
 5    1  0.3308162E-002  0.1250064E+03  0.7818608E-02  0.1235059E+00
          4   -1    0    0  501    0  0.00000000000E+00  0.00000000000E+00  0.34966174926E+01  0.37201120803E+01  0.12700000000E+01 0.  1.
         -4   -1    0    0    0  501 -0.00000000000E+00 -0.00000000000E+00 -0.10824419128E+04  0.10824426579E+04  0.12700000000E+01 0.  1.
         25    2    1    2    0    0  0.00000000000E+00  0.00000000000E+00 -0.10789452953E+04  0.10861627699E+04  0.12500644971E+03 0.  0.
    9000005    1    3    3    0    0 -0.25397777196E+02  0.27411693240E+02 -0.10423087274E+03  0.11073176078E+03  0.10000000000E+01 0.  0.
    9000005    1    3    3    0    0  0.25397777196E+02 -0.27411693240E+02 -0.97471442261E+03  0.97543100917E+03  0.10000000000E+01 0.  0.
<mgrwt>
<rscale>  0 0.12500645E+03</rscale>
<asrwt>0</asrwt>
<pdfrwt beam="1">  1        4 0.55519121E-03 0.12500645E+03</pdfrwt>
<pdfrwt beam="2">  1       -4 0.16654652E+00 0.12500645E+03</pdfrwt>
<totfact> 0.27888058E+03</totfact>
</mgrwt>
</event>
<event>
 5    1  0.3308162E-002  0.1249875E+03  0.7818608E-02  0.1235089E+00
         -4   -1    0    0    0  501 -0.00000000000E+00  0.00000000000E+00  0.19144999467E+01  0.22974355368E+01  0.12700000000E+01 0. -1.
          4   -1    0    0  501    0  0.00000000000E+00 -0.00000000000E+00 -0.18540947608E+04  0.18540951958E+04  0.12700000000E+01 0. -1.
         25    2    1    2    0    0  0.00000000000E+00  0.00000000000E+00 -0.18521802609E+04  0.18563926313E+04  0.12498753068E+03 0.  0.
    9000005    1    3    3    0    0 -0.56054973814E+02 -0.25269804321E+02 -0.76086673172E+03  0.76334782802E+03  0.10000000000E+01 0.  0.
    9000005    1    3    3    0    0  0.56054973814E+02  0.25269804321E+02 -0.10913135292E+04  0.10930448033E+04  0.10000000000E+01 0.  0.
<mgrwt>
<rscale>  0 0.12498753E+03</rscale>
<asrwt>0</asrwt>
<pdfrwt beam="2">  1        4 0.28527353E+00 0.12498753E+03</pdfrwt>
<pdfrwt beam="1">  1       -4 0.32402998E-03 0.12498753E+03</pdfrwt>
<totfact> 0.11857666E+03</totfact>
</mgrwt>
</event>
<event>
 5    1  0.3308162E-002  0.1250012E+03  0.7818608E-02  0.1235067E+00
         -4   -1    0    0    0  501 -0.00000000000E+00  0.00000000000E+00  0.28310129788E+03  0.28310414649E+03  0.12700000000E+01 0.  1.
          4   -1    0    0  501    0  0.00000000000E+00 -0.00000000000E+00 -0.13766176058E+02  0.13824633929E+02  0.12700000000E+01 0.  1.
         25    2    1    2    0    0  0.00000000000E+00  0.00000000000E+00  0.26933512182E+03  0.29692878042E+03  0.12500117118E+03 0.  0.
    9000005    1    3    3    0    0 -0.22321466846E+02  0.54398570094E+02  0.84396895990E+02  0.10286538953E+03  0.10000000000E+01 0.  0.
    9000005    1    3    3    0    0  0.22321466846E+02 -0.54398570094E+02  0.18493822583E+03  0.19406339089E+03  0.10000000000E+01 0.  0.
<mgrwt>
<rscale>  0 0.12500117E+03</rscale>
<asrwt>0</asrwt>
<pdfrwt beam="2">  1        4 0.21225891E-02 0.12500117E+03</pdfrwt>
<pdfrwt beam="1">  1       -4 0.43558763E-01 0.12500117E+03</pdfrwt>
<totfact> 0.75983731E+03</totfact>
</mgrwt>
</event>
<event>
 5    1  0.3308162E-002  0.1249974E+03  0.7818608E-02  0.1235073E+00
          4   -1    0    0  501    0  0.00000000000E+00  0.00000000000E+00  0.67498985476E+03  0.67499104952E+03  0.12700000000E+01 0. -1.
         -4   -1    0    0    0  501 -0.00000000000E+00 -0.00000000000E+00 -0.57159902284E+01  0.58553773825E+01  0.12700000000E+01 0. -1.
         25    2    1    2    0    0  0.00000000000E+00  0.00000000000E+00  0.66927386454E+03  0.68084642690E+03  0.12499740508E+03 0.  0.
    9000005    1    3    3    0    0 -0.50620881442E+02 -0.22317943523E+02  0.17634672238E+03  0.18482351240E+03  0.10000000000E+01 0.  0.
    9000005    1    3    3    0    0  0.50620881442E+02  0.22317943523E+02  0.49292714216E+03  0.49602291451E+03  0.10000000000E+01 0.  0.
<mgrwt>
<rscale>  0 0.12499741E+03</rscale>
<asrwt>0</asrwt>
<pdfrwt beam="1">  1        4 0.10385541E+00 0.12499741E+03</pdfrwt>
<pdfrwt beam="2">  1       -4 0.89019707E-03 0.12499741E+03</pdfrwt>
<totfact> 0.44119763E+03</totfact>
</mgrwt>
</event>
<event>
 5    1  0.3308162E-002  0.1250006E+03  0.7818608E-02  0.1235068E+00
          4   -1    0    0  501    0  0.00000000000E+00  0.00000000000E+00  0.61769272094E+01  0.63061342953E+01  0.12700000000E+01 0.  1.
         -4   -1    0    0    0  501 -0.00000000000E+00 -0.00000000000E+00 -0.62572375470E+03  0.62572504352E+03  0.12700000000E+01 0.  1.
         25    2    1    2    0    0  0.00000000000E+00  0.00000000000E+00 -0.61954682749E+03  0.63203117782E+03  0.12500055314E+03 0.  0.
    9000005    1    3    3    0    0  0.40816757644E+02  0.37037193392E+02 -0.16084858493E+03  0.17003243418E+03  0.10000000000E+01 0.  0.
    9000005    1    3    3    0    0 -0.40816757644E+02 -0.37037193392E+02 -0.45869824255E+03  0.46199874364E+03  0.10000000000E+01 0.  0.
<mgrwt>
<rscale>  0 0.12500055E+03</rscale>
<asrwt>0</asrwt>
<pdfrwt beam="1">  1        4 0.96033513E-03 0.12500055E+03</pdfrwt>
<pdfrwt beam="2">  1       -4 0.96275182E-01 0.12500055E+03</pdfrwt>
<totfact> 0.46905633E+03</totfact>
</mgrwt>
</event>
<event>
 5    1  0.3308162E-002  0.1250149E+03  0.7818608E-02  0.1235046E+00
         -4   -1    0    0    0  501 -0.00000000000E+00  0.00000000000E+00  0.63242551044E+02  0.63255301458E+02  0.12700000000E+01 0. -1.
          4   -1    0    0  501    0  0.00000000000E+00 -0.00000000000E+00 -0.61755399597E+02  0.61768456994E+02  0.12700000000E+01 0. -1.
         25    2    1    2    0    0  0.00000000000E+00  0.00000000000E+00  0.14871514465E+01  0.12502375845E+03  0.12501491334E+03 0.  0.
    9000005    1    3    3    0    0  0.55766411351E+02  0.23286408226E+01 -0.27380770525E+02  0.62177341513E+02  0.10000000000E+01 0.  0.
    9000005    1    3    3    0    0 -0.55766411351E+02 -0.23286408226E+01  0.28867921971E+02  0.62846416939E+02  0.10000000000E+01 0.  0.
<mgrwt>
<rscale>  0 0.12501491E+03</rscale>
<asrwt>0</asrwt>
<pdfrwt beam="2">  1        4 0.95028159E-02 0.12501491E+03</pdfrwt>
<pdfrwt beam="1">  1       -4 0.97316085E-02 0.12501491E+03</pdfrwt>
<totfact> 0.10448824E+04</totfact>
</mgrwt>
</event>
<event>
 5    1  0.3308162E-002  0.1250010E+03  0.7818608E-02  0.1235068E+00
          4   -1    0    0  501    0  0.00000000000E+00  0.00000000000E+00  0.15104697399E+03  0.15105231297E+03  0.12700000000E+01 0.  1.
         -4   -1    0    0    0  501 -0.00000000000E+00 -0.00000000000E+00 -0.25840176812E+02  0.25871367140E+02  0.12700000000E+01 0.  1.
         25    2    1    2    0    0  0.00000000000E+00  0.00000000000E+00  0.12520679718E+03  0.17692368011E+03  0.12500098608E+03 0.  0.
    9000005    1    3    3    0    0  0.25942664418E+02  0.53475823170E+01  0.14271547387E+03  0.14515620880E+03  0.10000000000E+01 0.  0.
    9000005    1    3    3    0    0 -0.25942664418E+02 -0.53475823170E+01 -0.17508676684E+02  0.31767471303E+02  0.10000000000E+01 0.  0.
<mgrwt>
<rscale>  0 0.12500099E+03</rscale>
<asrwt>0</asrwt>
<pdfrwt beam="1">  1        4 0.23240807E-01 0.12500099E+03</pdfrwt>
<pdfrwt beam="2">  1       -4 0.39782217E-02 0.12500099E+03</pdfrwt>
<totfact> 0.94171616E+03</totfact>
</mgrwt>
</event>
<event>
 5    1  0.3308162E-002  0.1250000E+03  0.7818608E-02  0.1235069E+00
         -4   -1    0    0    0  501 -0.00000000000E+00  0.00000000000E+00  0.15268263649E+02  0.15320991314E+02  0.12700000000E+01 0.  1.
          4   -1    0    0  501    0  0.00000000000E+00 -0.00000000000E+00 -0.25534581044E+03  0.25534896869E+03  0.12700000000E+01 0.  1.
         25    2    1    2    0    0  0.00000000000E+00  0.00000000000E+00 -0.24007754679E+03  0.27066996000E+03  0.12499999509E+03 0.  0.
    9000005    1    3    3    0    0  0.38734485766E+02  0.53196555837E+01 -0.14476861446E+02  0.41704180131E+02  0.10000000000E+01 0.  0.
    9000005    1    3    3    0    0 -0.38734485766E+02 -0.53196555837E+01 -0.22560068535E+03  0.22896577987E+03  0.10000000000E+01 0.  0.
<mgrwt>
<rscale>  0 0.12500000E+03</rscale>
<asrwt>0</asrwt>
<pdfrwt beam="2">  1        4 0.39288267E-01 0.12500000E+03</pdfrwt>
<pdfrwt beam="1">  1       -4 0.23532627E-02 0.12500000E+03</pdfrwt>
<totfact> 0.79431626E+03</totfact>
</mgrwt>
</event>
<event>
 5    1  0.3308162E-002  0.1250002E+03  0.7818608E-02  0.1235069E+00
          4   -1    0    0  501    0  0.00000000000E+00  0.00000000000E+00  0.27841988977E+03  0.27842278628E+03  0.12700000000E+01 0.  1.
         -4   -1    0    0    0  501 -0.00000000000E+00 -0.00000000000E+00 -0.13998405078E+02  0.14055897151E+02  0.12700000000E+01 0.  1.
         25    2    1    2    0    0  0.00000000000E+00  0.00000000000E+00  0.26442148470E+03  0.29247868344E+03  0.12500023478E+03 0.  0.
    9000005    1    3    3    0    0 -0.10257885711E+02 -0.31047612348E+02  0.25681793321E+03  0.25889308463E+03  0.10000000000E+01 0.  0.
    9000005    1    3    3    0    0  0.10257885711E+02  0.31047612348E+02  0.76035514875E+01  0.33585598804E+02  0.10000000000E+01 0.  0.
<mgrwt>
<rscale>  0 0.12500023E+03</rscale>
<asrwt>0</asrwt>
<pdfrwt beam="1">  1        4 0.42838474E-01 0.12500023E+03</pdfrwt>
<pdfrwt beam="2">  1       -4 0.21582461E-02 0.12500023E+03</pdfrwt>
<totfact> 0.76551689E+03</totfact>
</mgrwt>
</event>
<event>
 5    1  0.3308162E-002  0.1249994E+03  0.7818608E-02  0.1235070E+00
          4   -1    0    0  501    0  0.00000000000E+00  0.00000000000E+00  0.30169172427E+03  0.30169439735E+03  0.12700000000E+01 0.  1.
         -4   -1    0    0    0  501 -0.00000000000E+00 -0.00000000000E+00 -0.12913812564E+02  0.12976110933E+02  0.12700000000E+01 0.  1.
         25    2    1    2    0    0  0.00000000000E+00  0.00000000000E+00  0.28877791171E+03  0.31467050829E+03  0.12499938598E+03 0.  0.
    9000005    1    3    3    0    0 -0.29876607118E+02  0.53888982533E+02  0.11815775667E+03  0.13326248366E+03  0.10000000000E+01 0.  0.
    9000005    1    3    3    0    0  0.29876607118E+02 -0.53888982533E+02  0.17062015504E+03  0.18140802462E+03  0.10000000000E+01 0.  0.
<mgrwt>
<rscale>  0 0.12499939E+03</rscale>
<asrwt>0</asrwt>
<pdfrwt beam="1">  1        4 0.46419111E-01 0.12499939E+03</pdfrwt>
<pdfrwt beam="2">  1       -4 0.19917381E-02 0.12499939E+03</pdfrwt>
<totfact> 0.73795515E+03</totfact>
</mgrwt>
</event>
<event>
 5    1  0.3308162E-002  0.1249992E+03  0.7818608E-02  0.1235071E+00
         -4   -1    0    0    0  501 -0.00000000000E+00  0.00000000000E+00  0.31383306722E+02  0.31408992993E+02  0.12700000000E+01 0. -1.
          4   -1    0    0  501    0  0.00000000000E+00 -0.00000000000E+00 -0.12438758724E+03  0.12439407044E+03  0.12700000000E+01 0. -1.
         25    2    1    2    0    0  0.00000000000E+00  0.00000000000E+00 -0.93004280522E+02  0.15580306343E+03  0.12499919351E+03 0.  0.
    9000005    1    3    3    0    0  0.18385069755E+02  0.11422814133E+02 -0.11957230833E+03  0.12151966258E+03  0.10000000000E+01 0.  0.
    9000005    1    3    3    0    0 -0.18385069755E+02 -0.11422814133E+02  0.26568027810E+02  0.34283400857E+02  0.10000000000E+01 0.  0.
<mgrwt>
<rscale>  0 0.12499919E+03</rscale>
<asrwt>0</asrwt>
<pdfrwt beam="2">  1        4 0.19139026E-01 0.12499919E+03</pdfrwt>
<pdfrwt beam="1">  1       -4 0.48306757E-02 0.12499919E+03</pdfrwt>
<totfact> 0.98159858E+03</totfact>
</mgrwt>
</event>
<event>
 5    1  0.3308162E-002  0.1249775E+03  0.7818608E-02  0.1235104E+00
          4   -1    0    0  501    0  0.00000000000E+00  0.00000000000E+00  0.57554506510E+02  0.57568516740E+02  0.12700000000E+01 0.  1.
         -4   -1    0    0    0  501 -0.00000000000E+00 -0.00000000000E+00 -0.67817800229E+02  0.67829690607E+02  0.12700000000E+01 0.  1.
         25    2    1    2    0    0  0.00000000000E+00  0.00000000000E+00 -0.10263293719E+02  0.12539820735E+03  0.12497749881E+03 0.  0.
    9000005    1    3    3    0    0  0.10006552556E+02  0.52174090996E+01  0.56528385221E+02  0.57652500270E+02  0.10000000000E+01 0.  0.
    9000005    1    3    3    0    0 -0.10006552556E+02 -0.52174090996E+01 -0.66791678940E+02  0.67745707077E+02  0.10000000000E+01 0.  0.
<mgrwt>
<rscale>  0 0.12497750E+03</rscale>
<asrwt>0</asrwt>
<pdfrwt beam="1">  1        4 0.88565318E-02 0.12497750E+03</pdfrwt>
<pdfrwt beam="2">  1       -4 0.10435500E-01 0.12497750E+03</pdfrwt>
<totfact> 0.10449508E+04</totfact>
</mgrwt>
</event>
<event>
 5    1  0.3308162E-002  0.1249997E+03  0.7818608E-02  0.1235070E+00
          4   -1    0    0  501    0  0.00000000000E+00  0.00000000000E+00  0.95766578029E+02  0.95774998655E+02  0.12700000000E+01 0.  1.
         -4   -1    0    0    0  501 -0.00000000000E+00 -0.00000000000E+00 -0.40768974318E+02  0.40788750495E+02  0.12700000000E+01 0.  1.
         25    2    1    2    0    0  0.00000000000E+00  0.00000000000E+00  0.54997603711E+02  0.13656374915E+03  0.12499968467E+03 0.  0.
    9000005    1    3    3    0    0  0.13253458150E+02  0.52981690308E+02  0.60681646663E+02  0.81645427934E+02  0.10000000000E+01 0.  0.
    9000005    1    3    3    0    0 -0.13253458150E+02 -0.52981690308E+02 -0.56840429520E+01  0.54918321215E+02  0.10000000000E+01 0.  0.
<mgrwt>
<rscale>  0 0.12499968E+03</rscale>
<asrwt>0</asrwt>
<pdfrwt beam="1">  1        4 0.14735489E-01 0.12499968E+03</pdfrwt>
<pdfrwt beam="2">  1       -4 0.62743189E-02 0.12499968E+03</pdfrwt>
<totfact> 0.10205288E+04</totfact>
</mgrwt>
</event>
<event>
 5    1  0.3308162E-002  0.1249985E+03  0.7818608E-02  0.1235072E+00
          4   -1    0    0  501    0  0.00000000000E+00  0.00000000000E+00  0.30396979174E+03  0.30397244478E+03  0.12700000000E+01 0. -1.
         -4   -1    0    0    0  501 -0.00000000000E+00 -0.00000000000E+00 -0.12816388439E+02  0.12879158071E+02  0.12700000000E+01 0. -1.
         25    2    1    2    0    0  0.00000000000E+00  0.00000000000E+00  0.29115340330E+03  0.31685160286E+03  0.12499853591E+03 0.  0.
    9000005    1    3    3    0    0  0.11016026161E+02  0.83591753763E+01 -0.89017224554E+01  0.16476325684E+02  0.10000000000E+01 0.  0.
    9000005    1    3    3    0    0 -0.11016026161E+02 -0.83591753763E+01  0.30005512575E+03  0.30037527717E+03  0.10000000000E+01 0.  0.
<mgrwt>
<rscale>  0 0.12499854E+03</rscale>
<asrwt>0</asrwt>
<pdfrwt beam="1">  1        4 0.46769616E-01 0.12499854E+03</pdfrwt>
<pdfrwt beam="2">  1       -4 0.19767846E-02 0.12499854E+03</pdfrwt>
<totfact> 0.73534541E+03</totfact>
</mgrwt>
</event>
<event>
 5    1  0.3308162E-002  0.1250472E+03  0.7818608E-02  0.1234996E+00
         -4   -1    0    0    0  501 -0.00000000000E+00  0.00000000000E+00  0.90748839579E+02  0.90757725759E+02  0.12700000000E+01 0.  1.
          4   -1    0    0  501    0  0.00000000000E+00 -0.00000000000E+00 -0.43056766414E+02  0.43075492267E+02  0.12700000000E+01 0.  1.
         25    2    1    2    0    0  0.00000000000E+00  0.00000000000E+00  0.47692073165E+02  0.13383321803E+03  0.12504717672E+03 0.  0.
    9000005    1    3    3    0    0 -0.40094647969E+02 -0.43732770949E+02  0.44929462223E+02  0.74429783194E+02  0.10000000000E+01 0.  0.
    9000005    1    3    3    0    0  0.40094647969E+02  0.43732770949E+02  0.27626109427E+01  0.59403434832E+02  0.10000000000E+01 0.  0.
<mgrwt>
<rscale>  0 0.12504718E+03</rscale>
<asrwt>0</asrwt>
<pdfrwt beam="2">  1        4 0.66262420E-02 0.12504718E+03</pdfrwt>
<pdfrwt beam="1">  1       -4 0.13963484E-01 0.12504718E+03</pdfrwt>
<totfact> 0.10251810E+04</totfact>
</mgrwt>
</event>
<event>
 5    1  0.3308162E-002  0.1249949E+03  0.7818608E-02  0.1235077E+00
          4   -1    0    0  501    0  0.00000000000E+00  0.00000000000E+00  0.49112543561E+01  0.50728019230E+01  0.12700000000E+01 0. -1.
         -4   -1    0    0    0  501 -0.00000000000E+00 -0.00000000000E+00 -0.78227129279E+03  0.78227232370E+03  0.12700000000E+01 0. -1.
         25    2    1    2    0    0  0.00000000000E+00  0.00000000000E+00 -0.77736003844E+03  0.78734512562E+03  0.12499486983E+03 0.  0.
    9000005    1    3    3    0    0  0.90411117673E+01  0.14408875842E+02 -0.76743770970E+03  0.76762685966E+03  0.10000000000E+01 0.  0.
    9000005    1    3    3    0    0 -0.90411117673E+01 -0.14408875842E+02 -0.99223287395E+01  0.19718265964E+02  0.10000000000E+01 0.  0.
<mgrwt>
<rscale>  0 0.12499487E+03</rscale>
<asrwt>0</asrwt>
<pdfrwt beam="1">  1        4 0.76808425E-03 0.12499487E+03</pdfrwt>
<pdfrwt beam="2">  1       -4 0.12036184E+00 0.12499487E+03</pdfrwt>
<totfact> 0.38840338E+03</totfact>
</mgrwt>
</event>
<event>
 5    1  0.3308162E-002  0.1250009E+03  0.7818608E-02  0.1235068E+00
         -4   -1    0    0    0  501 -0.00000000000E+00  0.00000000000E+00  0.61094629424E+02  0.61107828013E+02  0.12700000000E+01 0. -1.
          4   -1    0    0  501    0  0.00000000000E+00 -0.00000000000E+00 -0.63912235531E+02  0.63924852370E+02  0.12700000000E+01 0. -1.
         25    2    1    2    0    0  0.00000000000E+00  0.00000000000E+00 -0.28176061063E+01  0.12503268038E+03  0.12500092904E+03 0.  0.
    9000005    1    3    3    0    0 -0.29591610374E+02 -0.45442457937E+02 -0.32475147983E+02  0.63216418946E+02  0.10000000000E+01 0.  0.
    9000005    1    3    3    0    0  0.29591610374E+02  0.45442457937E+02  0.29657541877E+02  0.61816261437E+02  0.10000000000E+01 0.  0.
<mgrwt>
<rscale>  0 0.12500093E+03</rscale>
<asrwt>0</asrwt>
<pdfrwt beam="2">  1        4 0.98346373E-02 0.12500093E+03</pdfrwt>
<pdfrwt beam="1">  1       -4 0.94011596E-02 0.12500093E+03</pdfrwt>
<totfact> 0.10451933E+04</totfact>
</mgrwt>
</event>
<event>
 5    1  0.3308162E-002  0.1250009E+03  0.7818608E-02  0.1235068E+00
          4   -1    0    0  501    0  0.00000000000E+00  0.00000000000E+00  0.17250397863E+02  0.17297084333E+02  0.12700000000E+01 0. -1.
         -4   -1    0    0    0  501 -0.00000000000E+00 -0.00000000000E+00 -0.22609291073E+03  0.22609647759E+03  0.12700000000E+01 0. -1.
         25    2    1    2    0    0  0.00000000000E+00  0.00000000000E+00 -0.20884251286E+03  0.24339356193E+03  0.12500092323E+03 0.  0.
    9000005    1    3    3    0    0 -0.12494338184E+01  0.53635792387E+02 -0.16681918541E+03  0.17523698220E+03  0.10000000000E+01 0.  0.
    9000005    1    3    3    0    0  0.12494338184E+01 -0.53635792387E+02 -0.42023327455E+02  0.68156579728E+02  0.10000000000E+01 0.  0.
<mgrwt>
<rscale>  0 0.12500092E+03</rscale>
<asrwt>0</asrwt>
<pdfrwt beam="1">  1        4 0.26577732E-02 0.12500092E+03</pdfrwt>
<pdfrwt beam="2">  1       -4 0.34787388E-01 0.12500092E+03</pdfrwt>
<totfact> 0.83292825E+03</totfact>
</mgrwt>
</event>
<event>
 5    1  0.3308162E-002  0.1249718E+03  0.7818608E-02  0.1235113E+00
          4   -1    0    0  501    0  0.00000000000E+00  0.00000000000E+00  0.14538483412E+02  0.14593848017E+02  0.12700000000E+01 0. -1.
         -4   -1    0    0    0  501 -0.00000000000E+00 -0.00000000000E+00 -0.26799518577E+03  0.26799819494E+03  0.12700000000E+01 0. -1.
         25    2    1    2    0    0  0.00000000000E+00  0.00000000000E+00 -0.25345670235E+03  0.28259204296E+03  0.12497184794E+03 0.  0.
    9000005    1    3    3    0    0 -0.38013936655E+02 -0.36772977531E+02 -0.51520959290E+02  0.73842538572E+02  0.10000000000E+01 0.  0.
    9000005    1    3    3    0    0  0.38013936655E+02  0.36772977531E+02 -0.20193574306E+03  0.20874950439E+03  0.10000000000E+01 0.  0.
<mgrwt>
<rscale>  0 0.12497185E+03</rscale>
<asrwt>0</asrwt>
<pdfrwt beam="1">  1        4 0.22411802E-02 0.12497185E+03</pdfrwt>
<pdfrwt beam="2">  1       -4 0.41234515E-01 0.12497185E+03</pdfrwt>
<totfact> 0.77884391E+03</totfact>
</mgrwt>
</event>
<event>
 5    1  0.3308162E-002  0.1250016E+03  0.7818608E-02  0.1235067E+00
         -4   -1    0    0    0  501 -0.00000000000E+00  0.00000000000E+00  0.14503768746E+03  0.14504324763E+03  0.12700000000E+01 0. -1.
          4   -1    0    0  501    0  0.00000000000E+00 -0.00000000000E+00 -0.26912286774E+02  0.26942235976E+02  0.12700000000E+01 0. -1.
         25    2    1    2    0    0  0.00000000000E+00  0.00000000000E+00  0.11812540069E+03  0.17198548361E+03  0.12500158513E+03 0.  0.
    9000005    1    3    3    0    0  0.16285793910E+02  0.59764538216E+02  0.70435213016E+02  0.93803765085E+02  0.10000000000E+01 0.  0.
    9000005    1    3    3    0    0 -0.16285793910E+02 -0.59764538216E+02  0.47690187671E+02  0.78181718525E+02  0.10000000000E+01 0.  0.
<mgrwt>
<rscale>  0 0.12500159E+03</rscale>
<asrwt>0</asrwt>
<pdfrwt beam="2">  1        4 0.41430833E-02 0.12500159E+03</pdfrwt>
<pdfrwt beam="1">  1       -4 0.22316222E-01 0.12500159E+03</pdfrwt>
<totfact> 0.95076478E+03</totfact>
</mgrwt>
</event>
<event>
 5    1  0.3308162E-002  0.1249906E+03  0.7818608E-02  0.1235084E+00
         -4   -1    0    0    0  501 -0.00000000000E+00  0.00000000000E+00  0.18825818451E+02  0.18868607271E+02  0.12700000000E+01 0.  1.
          4   -1    0    0  501    0  0.00000000000E+00 -0.00000000000E+00 -0.20718278176E+03  0.20718667418E+03  0.12700000000E+01 0.  1.
         25    2    1    2    0    0  0.00000000000E+00  0.00000000000E+00 -0.18835696331E+03  0.22605528145E+03  0.12499057822E+03 0.  0.
    9000005    1    3    3    0    0  0.59084419020E+02  0.60282864129E+01 -0.12931113190E+03  0.14230136205E+03  0.10000000000E+01 0.  0.
    9000005    1    3    3    0    0 -0.59084419020E+02 -0.60282864129E+01 -0.59045831406E+02  0.83753919397E+02  0.10000000000E+01 0.  0.
<mgrwt>
<rscale>  0 0.12499058E+03</rscale>
<asrwt>0</asrwt>
<pdfrwt beam="2">  1        4 0.31877863E-01 0.12499058E+03</pdfrwt>
<pdfrwt beam="1">  1       -4 0.28998708E-02 0.12499058E+03</pdfrwt>
<totfact> 0.85937086E+03</totfact>
</mgrwt>
</event>
<event>
 5    1  0.3308162E-002  0.1250091E+03  0.7818608E-02  0.1235055E+00
          4   -1    0    0  501    0  0.00000000000E+00  0.00000000000E+00  0.11599113413E+04  0.11599120366E+04  0.12700000000E+01 0. -1.
         -4   -1    0    0    0  501 -0.00000000000E+00 -0.00000000000E+00 -0.32477693225E+01  0.34872489977E+01  0.12700000000E+01 0. -1.
         25    2    1    2    0    0  0.00000000000E+00  0.00000000000E+00  0.11566635720E+04  0.11633992856E+04  0.12500911533E+03 0.  0.
    9000005    1    3    3    0    0  0.79494111393E+01  0.14780343761E+02  0.11385939231E+04  0.11387180394E+04  0.10000000000E+01 0.  0.
    9000005    1    3    3    0    0 -0.79494111393E+01 -0.14780343761E+02  0.18069648949E+02  0.24681246166E+02  0.10000000000E+01 0.  0.
<mgrwt>
<rscale>  0 0.12500912E+03</rscale>
<asrwt>0</asrwt>
<pdfrwt beam="1">  1        4 0.17846663E+00 0.12500912E+03</pdfrwt>
<pdfrwt beam="2">  1       -4 0.51813108E-03 0.12500912E+03</pdfrwt>
<totfact> 0.25686212E+03</totfact>
</mgrwt>
</event>
<event>
 5    1  0.3308162E-002  0.1250021E+03  0.7818608E-02  0.1235066E+00
          4   -1    0    0  501    0  0.00000000000E+00  0.00000000000E+00  0.28531548538E+03  0.28531831188E+03  0.12700000000E+01 0.  1.
         -4   -1    0    0    0  501 -0.00000000000E+00 -0.00000000000E+00 -0.13659090674E+02  0.13718004886E+02  0.12700000000E+01 0.  1.
         25    2    1    2    0    0  0.00000000000E+00  0.00000000000E+00  0.27165639470E+03  0.29903631677E+03  0.12500208784E+03 0.  0.
    9000005    1    3    3    0    0 -0.25735391248E+02 -0.43092873671E+02  0.22489173347E+03  0.23042699040E+03  0.10000000000E+01 0.  0.
    9000005    1    3    3    0    0  0.25735391248E+02  0.43092873671E+02  0.46764661233E+02  0.68609326364E+02  0.10000000000E+01 0.  0.
<mgrwt>
<rscale>  0 0.12500209E+03</rscale>
<asrwt>0</asrwt>
<pdfrwt beam="1">  1        4 0.43899437E-01 0.12500209E+03</pdfrwt>
<pdfrwt beam="2">  1       -4 0.21061479E-02 0.12500209E+03</pdfrwt>
<totfact> 0.75716371E+03</totfact>
</mgrwt>
</event>
<event>
 5    1  0.3308162E-002  0.1249961E+03  0.7818608E-02  0.1235075E+00
         -4   -1    0    0    0  501 -0.00000000000E+00  0.00000000000E+00  0.14603974409E+02  0.14659091669E+02  0.12700000000E+01 0. -1.
          4   -1    0    0  501    0  0.00000000000E+00 -0.00000000000E+00 -0.26690156750E+03  0.26690458901E+03  0.12700000000E+01 0. -1.
         25    2    1    2    0    0  0.00000000000E+00  0.00000000000E+00 -0.25229759309E+03  0.28156368068E+03  0.12499612313E+03 0.  0.
    9000005    1    3    3    0    0  0.34263747302E+02 -0.47936192872E+02 -0.79268906676E+02  0.98774705932E+02  0.10000000000E+01 0.  0.
    9000005    1    3    3    0    0 -0.34263747302E+02  0.47936192872E+02 -0.17302868642E+03  0.18278897475E+03  0.10000000000E+01 0.  0.
<mgrwt>
<rscale>  0 0.12499612E+03</rscale>
<asrwt>0</asrwt>
<pdfrwt beam="2">  1        4 0.41066248E-01 0.12499612E+03</pdfrwt>
<pdfrwt beam="1">  1       -4 0.22512377E-02 0.12499612E+03</pdfrwt>
<totfact> 0.77977949E+03</totfact>
</mgrwt>
</event>
<event>
 5    1  0.3308162E-002  0.1249999E+03  0.7818608E-02  0.1235069E+00
         -4   -1    0    0    0  501 -0.00000000000E+00  0.00000000000E+00  0.11021051818E+02  0.11093984099E+02  0.12700000000E+01 0.  1.
          4   -1    0    0  501    0  0.00000000000E+00 -0.00000000000E+00 -0.35319184615E+03  0.35319412946E+03  0.12700000000E+01 0.  1.
         25    2    1    2    0    0  0.00000000000E+00  0.00000000000E+00 -0.34217079433E+03  0.36428811356E+03  0.12499990875E+03 0.  0.
    9000005    1    3    3    0    0 -0.42532792901E+02 -0.44362942980E+02 -0.13809637925E+03  0.15115792782E+03  0.10000000000E+01 0.  0.
    9000005    1    3    3    0    0  0.42532792901E+02  0.44362942980E+02 -0.20407441508E+03  0.21313018574E+03  0.10000000000E+01 0.  0.
<mgrwt>
<rscale>  0 0.12499991E+03</rscale>
<asrwt>0</asrwt>
<pdfrwt beam="2">  1        4 0.54342984E-01 0.12499991E+03</pdfrwt>
<pdfrwt beam="1">  1       -4 0.17013325E-02 0.12499991E+03</pdfrwt>
<totfact> 0.68180912E+03</totfact>
</mgrwt>
</event>
<event>
 5    1  0.3308162E-002  0.1250037E+03  0.7818608E-02  0.1235064E+00
         -4   -1    0    0    0  501 -0.00000000000E+00  0.00000000000E+00  0.16681305412E+02  0.16729580098E+02  0.12700000000E+01 0. -1.
          4   -1    0    0  501    0  0.00000000000E+00 -0.00000000000E+00 -0.23379477419E+03  0.23379822355E+03  0.12700000000E+01 0. -1.
         25    2    1    2    0    0  0.00000000000E+00  0.00000000000E+00 -0.21711346877E+03  0.25052780365E+03  0.12500368826E+03 0.  0.
    9000005    1    3    3    0    0  0.34294673380E+02  0.50346826629E+02 -0.80602216321E+02  0.10103783870E+03  0.10000000000E+01 0.  0.
    9000005    1    3    3    0    0 -0.34294673380E+02 -0.50346826629E+02 -0.13651125245E+03  0.14948996495E+03  0.10000000000E+01 0.  0.
<mgrwt>
<rscale>  0 0.12500369E+03</rscale>
<asrwt>0</asrwt>
<pdfrwt beam="2">  1        4 0.35972403E-01 0.12500369E+03</pdfrwt>
<pdfrwt beam="1">  1       -4 0.25703336E-02 0.12500369E+03</pdfrwt>
<totfact> 0.82247247E+03</totfact>
</mgrwt>
</event>
<event>
 5    1  0.3308162E-002  0.1250011E+03  0.7818608E-02  0.1235068E+00
         -4   -1    0    0    0  501 -0.00000000000E+00  0.00000000000E+00  0.61980133603E+03  0.61980263717E+03  0.12700000000E+01 0. -1.
          4   -1    0    0  501    0  0.00000000000E+00 -0.00000000000E+00 -0.62372381264E+01  0.63652210837E+01  0.12700000000E+01 0. -1.
         25    2    1    2    0    0  0.00000000000E+00  0.00000000000E+00  0.61356409790E+03  0.62616785825E+03  0.12500113790E+03 0.  0.
    9000005    1    3    3    0    0  0.11718085524E+02 -0.20986869024E+02  0.59574334843E+03  0.59622889849E+03  0.10000000000E+01 0.  0.
    9000005    1    3    3    0    0 -0.11718085524E+02  0.20986869024E+02  0.17820749473E+02  0.29938959761E+02  0.10000000000E+01 0.  0.
<mgrwt>
<rscale>  0 0.12500114E+03</rscale>
<asrwt>0</asrwt>
<pdfrwt beam="2">  1        4 0.96951995E-03 0.12500114E+03</pdfrwt>
<pdfrwt beam="1">  1       -4 0.95364005E-01 0.12500114E+03</pdfrwt>
<totfact> 0.47255230E+03</totfact>
</mgrwt>
</event>
<event>
 5    1  0.3308162E-002  0.1250144E+03  0.7818608E-02  0.1235047E+00
         -4   -1    0    0    0  501 -0.00000000000E+00  0.00000000000E+00  0.21742670156E+03  0.21743041060E+03  0.12700000000E+01 0. -1.
          4   -1    0    0  501    0  0.00000000000E+00 -0.00000000000E+00 -0.17943670825E+02  0.17988558105E+02  0.12700000000E+01 0. -1.
         25    2    1    2    0    0  0.00000000000E+00  0.00000000000E+00  0.19948303074E+03  0.23541896870E+03  0.12501444426E+03 0.  0.
    9000005    1    3    3    0    0  0.36622023058E+02 -0.47806732326E+02  0.13122403731E+03  0.14438630197E+03  0.10000000000E+01 0.  0.
    9000005    1    3    3    0    0 -0.36622023058E+02  0.47806732326E+02  0.68258993422E+02  0.91032666727E+02  0.10000000000E+01 0.  0.
<mgrwt>
<rscale>  0 0.12501444E+03</rscale>
<asrwt>0</asrwt>
<pdfrwt beam="2">  1        4 0.27643029E-02 0.12501444E+03</pdfrwt>
<pdfrwt beam="1">  1       -4 0.33454000E-01 0.12501444E+03</pdfrwt>
<totfact> 0.84457185E+03</totfact>
</mgrwt>
</event>
<event>
 5    1  0.3308162E-002  0.1249949E+03  0.7818608E-02  0.1235077E+00
         -4   -1    0    0    0  501 -0.00000000000E+00  0.00000000000E+00  0.72146630778E+02  0.72157807843E+02  0.12700000000E+01 0.  1.
          4   -1    0    0  501    0  0.00000000000E+00 -0.00000000000E+00 -0.54115957533E+02  0.54130857740E+02  0.12700000000E+01 0.  1.
         25    2    1    2    0    0  0.00000000000E+00  0.00000000000E+00  0.18030673245E+02  0.12628866558E+03  0.12499488740E+03 0.  0.
    9000005    1    3    3    0    0  0.30549693652E+02  0.30218073805E+02 -0.36825138602E+02  0.56599528265E+02  0.10000000000E+01 0.  0.
    9000005    1    3    3    0    0 -0.30549693652E+02 -0.30218073805E+02  0.54855811848E+02  0.69689137318E+02  0.10000000000E+01 0.  0.
<mgrwt>
<rscale>  0 0.12499489E+03</rscale>
<asrwt>0</asrwt>
<pdfrwt beam="2">  1        4 0.83275379E-02 0.12499489E+03</pdfrwt>
<pdfrwt beam="1">  1       -4 0.11101488E-01 0.12499489E+03</pdfrwt>
<totfact> 0.10425844E+04</totfact>
</mgrwt>
</event>
<event>
 5    1  0.3308162E-002  0.1249994E+03  0.7818608E-02  0.1235070E+00
          4   -1    0    0  501    0  0.00000000000E+00  0.00000000000E+00  0.50797350809E+01  0.52360871357E+01  0.12700000000E+01 0. -1.
         -4   -1    0    0    0  501 -0.00000000000E+00 -0.00000000000E+00 -0.75716783124E+03  0.75716889633E+03  0.12700000000E+01 0. -1.
         25    2    1    2    0    0  0.00000000000E+00  0.00000000000E+00 -0.75208809616E+03  0.76240498347E+03  0.12499941770E+03 0.  0.
    9000005    1    3    3    0    0 -0.49756222185E+02  0.36006743143E+02 -0.30569158387E+03  0.31180203920E+03  0.10000000000E+01 0.  0.
    9000005    1    3    3    0    0  0.49756222185E+02 -0.36006743143E+02 -0.44639651229E+03  0.45060294427E+03  0.10000000000E+01 0.  0.
<mgrwt>
<rscale>  0 0.12499942E+03</rscale>
<asrwt>0</asrwt>
<pdfrwt beam="1">  1        4 0.79360732E-03 0.12499942E+03</pdfrwt>
<pdfrwt beam="2">  1       -4 0.11649938E+00 0.12499942E+03</pdfrwt>
<totfact> 0.39988256E+03</totfact>
</mgrwt>
</event>
<event>
 5    1  0.3308162E-002  0.1249959E+03  0.7818608E-02  0.1235076E+00
          4   -1    0    0  501    0  0.00000000000E+00  0.00000000000E+00  0.13566272793E+03  0.13566867232E+03  0.12700000000E+01 0.  1.
         -4   -1    0    0    0  501 -0.00000000000E+00 -0.00000000000E+00 -0.28771379617E+02  0.28799395568E+02  0.12700000000E+01 0.  1.
         25    2    1    2    0    0  0.00000000000E+00  0.00000000000E+00  0.10689134831E+03  0.16446806789E+03  0.12499593998E+03 0.  0.
    9000005    1    3    3    0    0  0.54466985661E+01 -0.33122816946E+02  0.12279913200E+03  0.12730834359E+03  0.10000000000E+01 0.  0.
    9000005    1    3    3    0    0 -0.54466985661E+01  0.33122816946E+02 -0.15907783691E+02  0.37159724295E+02  0.10000000000E+01 0.  0.
<mgrwt>
<rscale>  0 0.12499594E+03</rscale>
<asrwt>0</asrwt>
<pdfrwt beam="1">  1        4 0.20873802E-01 0.12499594E+03</pdfrwt>
<pdfrwt beam="2">  1       -4 0.44289783E-02 0.12499594E+03</pdfrwt>
<totfact> 0.96497028E+03</totfact>
</mgrwt>
</event>
<event>
 5    1  0.3308162E-002  0.1249997E+03  0.7818608E-02  0.1235070E+00
         -4   -1    0    0    0  501 -0.00000000000E+00  0.00000000000E+00  0.21859146742E+03  0.21859515669E+03  0.12700000000E+01 0. -1.
          4   -1    0    0  501    0  0.00000000000E+00 -0.00000000000E+00 -0.17843606885E+02  0.17888745251E+02  0.12700000000E+01 0. -1.
         25    2    1    2    0    0  0.00000000000E+00  0.00000000000E+00  0.20074786054E+03  0.23648390194E+03  0.12499972947E+03 0.  0.
    9000005    1    3    3    0    0 -0.42205828715E+02 -0.11932470257E+02  0.18458931561E+03  0.18973120792E+03  0.10000000000E+01 0.  0.
    9000005    1    3    3    0    0  0.42205828715E+02  0.11932470257E+02  0.16158544930E+02  0.46752694020E+02  0.10000000000E+01 0.  0.
<mgrwt>
<rscale>  0 0.12499973E+03</rscale>
<asrwt>0</asrwt>
<pdfrwt beam="2">  1        4 0.27489262E-02 0.12499973E+03</pdfrwt>
<pdfrwt beam="1">  1       -4 0.33633213E-01 0.12499973E+03</pdfrwt>
<totfact> 0.84324338E+03</totfact>
</mgrwt>
</event>
<event>
 5    1  0.3308162E-002  0.1250033E+03  0.7818608E-02  0.1235064E+00
         -4   -1    0    0    0  501 -0.00000000000E+00  0.00000000000E+00  0.46285828459E+01  0.47996540669E+01  0.12700000000E+01 0. -1.
          4   -1    0    0  501    0  0.00000000000E+00 -0.00000000000E+00 -0.82850065131E+03  0.82850162470E+03  0.12700000000E+01 0. -1.
         25    2    1    2    0    0  0.00000000000E+00  0.00000000000E+00 -0.82387206847E+03  0.83330127877E+03  0.12500334391E+03 0.  0.
    9000005    1    3    3    0    0  0.58369544524E+02  0.76507952529E+01 -0.27211659122E+03  0.27841332154E+03  0.10000000000E+01 0.  0.
    9000005    1    3    3    0    0 -0.58369544524E+02 -0.76507952529E+01 -0.55175547725E+03  0.55488795722E+03  0.10000000000E+01 0.  0.
<mgrwt>
<rscale>  0 0.12500334E+03</rscale>
<asrwt>0</asrwt>
<pdfrwt beam="2">  1        4 0.12747476E+00 0.12500334E+03</pdfrwt>
<pdfrwt beam="1">  1       -4 0.72532453E-03 0.12500334E+03</pdfrwt>
<totfact> 0.36817903E+03</totfact>
</mgrwt>
</event>
<event>
 5    1  0.3308162E-002  0.1249986E+03  0.7818608E-02  0.1235071E+00
         -4   -1    0    0    0  501 -0.00000000000E+00  0.00000000000E+00  0.19356518513E+02  0.19398136739E+02  0.12700000000E+01 0. -1.
          4   -1    0    0  501    0  0.00000000000E+00 -0.00000000000E+00 -0.20154065019E+03  0.20154465157E+03  0.12700000000E+01 0. -1.
         25    2    1    2    0    0  0.00000000000E+00  0.00000000000E+00 -0.18218413167E+03  0.22094278831E+03  0.12499863148E+03 0.  0.
    9000005    1    3    3    0    0 -0.29284983741E+02 -0.54838216382E+02 -0.10231632168E+03  0.11972664670E+03  0.10000000000E+01 0.  0.
    9000005    1    3    3    0    0  0.29284983741E+02  0.54838216382E+02 -0.79867809992E+02  0.10121614161E+03  0.10000000000E+01 0.  0.
<mgrwt>
<rscale>  0 0.12499863E+03</rscale>
<asrwt>0</asrwt>
<pdfrwt beam="2">  1        4 0.31009762E-01 0.12499863E+03</pdfrwt>
<pdfrwt beam="1">  1       -4 0.29814353E-02 0.12499863E+03</pdfrwt>
<totfact> 0.86722037E+03</totfact>
</mgrwt>
</event>
<event>
 5    1  0.3308162E-002  0.1249836E+03  0.7818608E-02  0.1235095E+00
          4   -1    0    0  501    0  0.00000000000E+00  0.00000000000E+00  0.13606855835E+03  0.13607448501E+03  0.12700000000E+01 0.  1.
         -4   -1    0    0    0  501 -0.00000000000E+00 -0.00000000000E+00 -0.28679806348E+02  0.28707911665E+02  0.12700000000E+01 0.  1.
         25    2    1    2    0    0  0.00000000000E+00  0.00000000000E+00  0.10738875200E+03  0.16478239667E+03  0.12498357571E+03 0.  0.
    9000005    1    3    3    0    0 -0.57424476589E+02 -0.23037902048E+02  0.42207499528E+02  0.74905196473E+02  0.10000000000E+01 0.  0.
    9000005    1    3    3    0    0  0.57424476589E+02  0.23037902048E+02  0.65181252470E+02  0.89877200200E+02  0.10000000000E+01 0.  0.
<mgrwt>
<rscale>  0 0.12498358E+03</rscale>
<asrwt>0</asrwt>
<pdfrwt beam="1">  1        4 0.20936242E-01 0.12498358E+03</pdfrwt>
<pdfrwt beam="2">  1       -4 0.44148958E-02 0.12498358E+03</pdfrwt>
<totfact> 0.96464207E+03</totfact>
</mgrwt>
</event>
<event>
 5    1  0.3308162E-002  0.1250069E+03  0.7818608E-02  0.1235058E+00
         -4   -1    0    0    0  501 -0.00000000000E+00  0.00000000000E+00  0.13339239952E+03  0.13339844508E+03  0.12700000000E+01 0.  1.
          4   -1    0    0  501    0  0.00000000000E+00 -0.00000000000E+00 -0.29266658813E+02  0.29294201100E+02  0.12700000000E+01 0.  1.
         25    2    1    2    0    0  0.00000000000E+00  0.00000000000E+00  0.10412574071E+03  0.16269264618E+03  0.12500690878E+03 0.  0.
    9000005    1    3    3    0    0  0.47267459480E+02 -0.80878428228E+01 -0.94325403505E-01  0.47964933279E+02  0.10000000000E+01 0.  0.
    9000005    1    3    3    0    0 -0.47267459480E+02  0.80878428228E+01  0.10422006611E+03  0.11472771290E+03  0.10000000000E+01 0.  0.
<mgrwt>
<rscale>  0 0.12500691E+03</rscale>
<asrwt>0</asrwt>
<pdfrwt beam="2">  1        4 0.45051466E-02 0.12500691E+03</pdfrwt>
<pdfrwt beam="1">  1       -4 0.20524491E-01 0.12500691E+03</pdfrwt>
<totfact> 0.96811131E+03</totfact>
</mgrwt>
</event>
<event>
 5    1  0.3308162E-002  0.1250005E+03  0.7818608E-02  0.1235069E+00
         -4   -1    0    0    0  501 -0.00000000000E+00  0.00000000000E+00  0.10687845021E+03  0.10688599543E+03  0.12700000000E+01 0.  1.
          4   -1    0    0  501    0  0.00000000000E+00 -0.00000000000E+00 -0.36528924990E+02  0.36550995348E+02  0.12700000000E+01 0.  1.
         25    2    1    2    0    0  0.00000000000E+00  0.00000000000E+00  0.70349525219E+02  0.14343699078E+03  0.12500045850E+03 0.  0.
    9000005    1    3    3    0    0 -0.42361210008E+02 -0.31485513494E+02  0.73568075831E+02  0.90548724203E+02  0.10000000000E+01 0.  0.
    9000005    1    3    3    0    0  0.42361210008E+02  0.31485513494E+02 -0.32185506114E+01  0.52888266576E+02  0.10000000000E+01 0.  0.
<mgrwt>
<rscale>  0 0.12500046E+03</rscale>
<asrwt>0</asrwt>
<pdfrwt beam="2">  1        4 0.56221128E-02 0.12500046E+03</pdfrwt>
<pdfrwt beam="1">  1       -4 0.16445116E-01 0.12500046E+03</pdfrwt>
<totfact> 0.10062738E+04</totfact>
</mgrwt>
</event>
<event>
 5    1  0.3308162E-002  0.1249981E+03  0.7818608E-02  0.1235072E+00
         -4   -1    0    0    0  501 -0.00000000000E+00  0.00000000000E+00  0.11419444247E+03  0.11420150433E+03  0.12700000000E+01 0. -1.
          4   -1    0    0  501    0  0.00000000000E+00 -0.00000000000E+00 -0.34186052483E+02  0.34209634379E+02  0.12700000000E+01 0. -1.
         25    2    1    2    0    0  0.00000000000E+00  0.00000000000E+00  0.80008389992E+02  0.14841113871E+03  0.12499809449E+03 0.  0.
    9000005    1    3    3    0    0  0.50593125310E+01  0.62229285624E+02  0.43156774832E+02  0.75905123980E+02  0.10000000000E+01 0.  0.
    9000005    1    3    3    0    0 -0.50593125310E+01 -0.62229285624E+02  0.36851615160E+02  0.72506014733E+02  0.10000000000E+01 0.  0.
<mgrwt>
<rscale>  0 0.12499809E+03</rscale>
<asrwt>0</asrwt>
<pdfrwt beam="2">  1        4 0.52617500E-02 0.12499809E+03</pdfrwt>
<pdfrwt beam="1">  1       -4 0.17570733E-01 0.12499809E+03</pdfrwt>
<totfact> 0.99625634E+03</totfact>
</mgrwt>
</event>
<event>
 5    1  0.3308162E-002  0.1250025E+03  0.7818608E-02  0.1235065E+00
         -4   -1    0    0    0  501 -0.00000000000E+00  0.00000000000E+00  0.27465789873E+02  0.27495136176E+02  0.12700000000E+01 0. -1.
          4   -1    0    0  501    0  0.00000000000E+00 -0.00000000000E+00 -0.14211998341E+03  0.14212565772E+03  0.12700000000E+01 0. -1.
         25    2    1    2    0    0  0.00000000000E+00  0.00000000000E+00 -0.11465419353E+03  0.16962079390E+03  0.12500251849E+03 0.  0.
    9000005    1    3    3    0    0 -0.53900647244E+01 -0.51027635450E+02 -0.10573265151E+03  0.11752985141E+03  0.10000000000E+01 0.  0.
    9000005    1    3    3    0    0  0.53900647244E+01  0.51027635450E+02 -0.89215420247E+01  0.52090942490E+02  0.10000000000E+01 0.  0.
<mgrwt>
<rscale>  0 0.12500252E+03</rscale>
<asrwt>0</asrwt>
<pdfrwt beam="2">  1        4 0.21867306E-01 0.12500252E+03</pdfrwt>
<pdfrwt beam="1">  1       -4 0.42282001E-02 0.12500252E+03</pdfrwt>
<totfact> 0.95513963E+03</totfact>
</mgrwt>
</event>
<event>
 5    1  0.3308162E-002  0.1249981E+03  0.7818608E-02  0.1235072E+00
          4   -1    0    0  501    0  0.00000000000E+00  0.00000000000E+00  0.19792410282E+03  0.19792817732E+03  0.12700000000E+01 0.  1.
         -4   -1    0    0    0  501 -0.00000000000E+00 -0.00000000000E+00 -0.19710792095E+02  0.19751663855E+02  0.12700000000E+01 0.  1.
         25    2    1    2    0    0  0.00000000000E+00  0.00000000000E+00  0.17821331073E+03  0.21767984118E+03  0.12499811652E+03 0.  0.
    9000005    1    3    3    0    0  0.58312694082E+02 -0.17847034909E+02  0.65340581236E+02  0.89382764012E+02  0.10000000000E+01 0.  0.
    9000005    1    3    3    0    0 -0.58312694082E+02  0.17847034909E+02  0.11287272949E+03  0.12829707716E+03  0.10000000000E+01 0.  0.
<mgrwt>
<rscale>  0 0.12499812E+03</rscale>
<asrwt>0</asrwt>
<pdfrwt beam="1">  1        4 0.30453319E-01 0.12499812E+03</pdfrwt>
<pdfrwt beam="2">  1       -4 0.30358870E-02 0.12499812E+03</pdfrwt>
<totfact> 0.87240491E+03</totfact>
</mgrwt>
</event>
<event>
 5    1  0.3308162E-002  0.1250004E+03  0.7818608E-02  0.1235069E+00
          4   -1    0    0  501    0  0.00000000000E+00  0.00000000000E+00  0.39843965677E+01  0.41819033954E+01  0.12700000000E+01 0.  1.
         -4   -1    0    0    0  501 -0.00000000000E+00 -0.00000000000E+00 -0.95648334363E+03  0.95648418677E+03  0.12700000000E+01 0.  1.
         25    2    1    2    0    0  0.00000000000E+00  0.00000000000E+00 -0.95249894706E+03  0.96066609016E+03  0.12500037056E+03 0.  0.
    9000005    1    3    3    0    0 -0.40022685633E+02  0.46342805960E+02 -0.38032092871E+03  0.38522004081E+03  0.10000000000E+01 0.  0.
    9000005    1    3    3    0    0  0.40022685633E+02 -0.46342805960E+02 -0.57217801835E+03  0.57544604935E+03  0.10000000000E+01 0.  0.
<mgrwt>
<rscale>  0 0.12500037E+03</rscale>
<asrwt>0</asrwt>
<pdfrwt beam="1">  1        4 0.62824254E-03 0.12500037E+03</pdfrwt>
<pdfrwt beam="2">  1       -4 0.14716636E+00 0.12500037E+03</pdfrwt>
<totfact> 0.31940064E+03</totfact>
</mgrwt>
</event>
<event>
 5    1  0.3308162E-002  0.1249951E+03  0.7818608E-02  0.1235077E+00
         -4   -1    0    0    0  501 -0.00000000000E+00  0.00000000000E+00  0.84175318722E+02  0.84184898776E+02  0.12700000000E+01 0. -1.
          4   -1    0    0  501    0  0.00000000000E+00 -0.00000000000E+00 -0.46381570657E+02  0.46398954693E+02  0.12700000000E+01 0. -1.
         25    2    1    2    0    0  0.00000000000E+00  0.00000000000E+00  0.37793748065E+02  0.13058385347E+03  0.12499510148E+03 0.  0.
    9000005    1    3    3    0    0 -0.99395776183E+01  0.13471677874E+02  0.81793924029E+02  0.83495672438E+02  0.10000000000E+01 0.  0.
    9000005    1    3    3    0    0  0.99395776183E+01 -0.13471677874E+02 -0.44000175963E+02  0.47088181031E+02  0.10000000000E+01 0.  0.
<mgrwt>
<rscale>  0 0.12499510E+03</rscale>
<asrwt>0</asrwt>
<pdfrwt beam="2">  1        4 0.71377006E-02 0.12499510E+03</pdfrwt>
<pdfrwt beam="1">  1       -4 0.12952123E-01 0.12499510E+03</pdfrwt>
<totfact> 0.10333161E+04</totfact>
</mgrwt>
</event>
<event>
 5    1  0.3308162E-002  0.1250165E+03  0.7818608E-02  0.1235044E+00
         -4   -1    0    0    0  501 -0.00000000000E+00  0.00000000000E+00  0.59339862009E+02  0.59353450812E+02  0.12700000000E+01 0. -1.
          4   -1    0    0  501    0  0.00000000000E+00 -0.00000000000E+00 -0.65818553365E+02  0.65830804849E+02  0.12700000000E+01 0. -1.
         25    2    1    2    0    0  0.00000000000E+00  0.00000000000E+00 -0.64786913555E+01  0.12518425566E+03  0.12501649661E+03 0.  0.
    9000005    1    3    3    0    0  0.79156512167E+01  0.61362477731E+02  0.56195537685E+01  0.62133651044E+02  0.10000000000E+01 0.  0.
    9000005    1    3    3    0    0 -0.79156512167E+01 -0.61362477731E+02 -0.12098245124E+02  0.63050604617E+02  0.10000000000E+01 0.  0.
<mgrwt>
<rscale>  0 0.12501650E+03</rscale>
<asrwt>0</asrwt>
<pdfrwt beam="2">  1        4 0.10127919E-01 0.12501650E+03</pdfrwt>
<pdfrwt beam="1">  1       -4 0.91311972E-02 0.12501650E+03</pdfrwt>
<totfact> 0.10444967E+04</totfact>
</mgrwt>
</event>
<event>
 5    1  0.3308162E-002  0.1250033E+03  0.7818608E-02  0.1235064E+00
         -4   -1    0    0    0  501 -0.00000000000E+00  0.00000000000E+00  0.51098724104E+02  0.51114503862E+02  0.12700000000E+01 0.  1.
          4   -1    0    0  501    0  0.00000000000E+00 -0.00000000000E+00 -0.76416334955E+02  0.76426887598E+02  0.12700000000E+01 0.  1.
         25    2    1    2    0    0  0.00000000000E+00  0.00000000000E+00 -0.25317610851E+02  0.12754139146E+03  0.12500330042E+03 0.  0.
    9000005    1    3    3    0    0  0.21316796496E+02  0.25672891320E+02 -0.66570592951E+02  0.74472458046E+02  0.10000000000E+01 0.  0.
    9000005    1    3    3    0    0 -0.21316796496E+02 -0.25672891320E+02  0.41252982100E+02  0.53068933414E+02  0.10000000000E+01 0.  0.
<mgrwt>
<rscale>  0 0.12500330E+03</rscale>
<asrwt>0</asrwt>
<pdfrwt beam="2">  1        4 0.11758385E-01 0.12500330E+03</pdfrwt>
<pdfrwt beam="1">  1       -4 0.78633677E-02 0.12500330E+03</pdfrwt>
<totfact> 0.10396630E+04</totfact>
</mgrwt>
</event>
<event>
 5    1  0.3308162E-002  0.1249965E+03  0.7818608E-02  0.1235075E+00
         -4   -1    0    0    0  501 -0.00000000000E+00  0.00000000000E+00  0.25307615396E+03  0.25307934053E+03  0.12700000000E+01 0.  1.
          4   -1    0    0  501    0  0.00000000000E+00 -0.00000000000E+00 -0.15404797440E+02  0.15457059363E+02  0.12700000000E+01 0.  1.
         25    2    1    2    0    0  0.00000000000E+00  0.00000000000E+00  0.23767135652E+03  0.26853639990E+03  0.12499649738E+03 0.  0.
    9000005    1    3    3    0    0 -0.52019792107E+02  0.58988526682E+01  0.19213747379E+03  0.19914483189E+03  0.10000000000E+01 0.  0.
    9000005    1    3    3    0    0  0.52019792107E+02 -0.58988526682E+01  0.45533882730E+02  0.69391568004E+02  0.10000000000E+01 0.  0.
<mgrwt>
<rscale>  0 0.12499650E+03</rscale>
<asrwt>0</asrwt>
<pdfrwt beam="2">  1        4 0.23742342E-02 0.12499650E+03</pdfrwt>
<pdfrwt beam="1">  1       -4 0.38939057E-01 0.12499650E+03</pdfrwt>
<totfact> 0.79729038E+03</totfact>
</mgrwt>
</event>
<event>
 5    1  0.3308162E-002  0.1249975E+03  0.7818608E-02  0.1235073E+00
          4   -1    0    0  501    0  0.00000000000E+00  0.00000000000E+00  0.84965966193E+02  0.84975457110E+02  0.12700000000E+01 0. -1.
         -4   -1    0    0    0  501 -0.00000000000E+00 -0.00000000000E+00 -0.45951584047E+02  0.45969130691E+02  0.12700000000E+01 0. -1.
         25    2    1    2    0    0  0.00000000000E+00  0.00000000000E+00  0.39014382146E+02  0.13094458780E+03  0.12499745221E+03 0.  0.
    9000005    1    3    3    0    0  0.43982847185E+02  0.42750233722E+02  0.69792158811E+01  0.61739637058E+02  0.10000000000E+01 0.  0.
    9000005    1    3    3    0    0 -0.43982847185E+02 -0.42750233722E+02  0.32035166265E+02  0.69204950743E+02  0.10000000000E+01 0.  0.
<mgrwt>
<rscale>  0 0.12499745E+03</rscale>
<asrwt>0</asrwt>
<pdfrwt beam="1">  1        4 0.13073767E-01 0.12499745E+03</pdfrwt>
<pdfrwt beam="2">  1       -4 0.70715544E-02 0.12499745E+03</pdfrwt>
<totfact> 0.10324871E+04</totfact>
</mgrwt>
</event>
<event>
 5    1  0.3308162E-002  0.1249900E+03  0.7818608E-02  0.1235085E+00
         -4   -1    0    0    0  501 -0.00000000000E+00  0.00000000000E+00  0.35953214176E+02  0.35975637723E+02  0.12700000000E+01 0.  1.
          4   -1    0    0  501    0  0.00000000000E+00 -0.00000000000E+00 -0.10857067400E+03  0.10857810163E+03  0.12700000000E+01 0.  1.
         25    2    1    2    0    0  0.00000000000E+00  0.00000000000E+00 -0.72617459824E+02  0.14455373935E+03  0.12498995195E+03 0.  0.
    9000005    1    3    3    0    0  0.28855581687E+02 -0.48492170870E+02 -0.52654756997E+01  0.56682100036E+02  0.10000000000E+01 0.  0.
    9000005    1    3    3    0    0 -0.28855581687E+02  0.48492170870E+02 -0.67351984125E+02  0.87871639314E+02  0.10000000000E+01 0.  0.
<mgrwt>
<rscale>  0 0.12498995E+03</rscale>
<asrwt>0</asrwt>
<pdfrwt beam="2">  1        4 0.16705477E-01 0.12498995E+03</pdfrwt>
<pdfrwt beam="1">  1       -4 0.55335600E-02 0.12498995E+03</pdfrwt>
<totfact> 0.10042335E+04</totfact>
</mgrwt>
</event>
<event>
 5    1  0.3308162E-002  0.1249990E+03  0.7818608E-02  0.1235071E+00
         -4   -1    0    0    0  501 -0.00000000000E+00  0.00000000000E+00  0.35802697081E+03  0.35802922328E+03  0.12700000000E+01 0.  1.
          4   -1    0    0  501    0  0.00000000000E+00 -0.00000000000E+00 -0.10871067619E+02  0.10944999369E+02  0.12700000000E+01 0.  1.
         25    2    1    2    0    0  0.00000000000E+00  0.00000000000E+00  0.34715590319E+03  0.36897422265E+03  0.12499902345E+03 0.  0.
    9000005    1    3    3    0    0  0.38622930038E+02 -0.38256463135E+02  0.26455432917E+03  0.27008384028E+03  0.10000000000E+01 0.  0.
    9000005    1    3    3    0    0 -0.38622930038E+02  0.38256463135E+02  0.82601574019E+02  0.98890382377E+02  0.10000000000E+01 0.  0.
<mgrwt>
<rscale>  0 0.12499902E+03</rscale>
<asrwt>0</asrwt>
<pdfrwt beam="2">  1        4 0.16783322E-02 0.12499902E+03</pdfrwt>
<pdfrwt beam="1">  1       -4 0.55086934E-01 0.12499902E+03</pdfrwt>
<totfact> 0.67687848E+03</totfact>
</mgrwt>
</event>
<event>
 5    1  0.3308162E-002  0.1250001E+03  0.7818608E-02  0.1235069E+00
          4   -1    0    0  501    0  0.00000000000E+00  0.00000000000E+00  0.26026783821E+02  0.26057750787E+02  0.12700000000E+01 0.  1.
         -4   -1    0    0    0  501 -0.00000000000E+00 -0.00000000000E+00 -0.14996317956E+03  0.14996855712E+03  0.12700000000E+01 0.  1.
         25    2    1    2    0    0  0.00000000000E+00  0.00000000000E+00 -0.12393639574E+03  0.17602630791E+03  0.12500012354E+03 0.  0.
    9000005    1    3    3    0    0  0.33172605928E+02 -0.25784381942E+02  0.31757666376E+01  0.42146668076E+02  0.10000000000E+01 0.  0.
    9000005    1    3    3    0    0 -0.33172605928E+02  0.25784381942E+02 -0.12711216238E+03  0.13387963983E+03  0.10000000000E+01 0.  0.
<mgrwt>
<rscale>  0 0.12500012E+03</rscale>
<asrwt>0</asrwt>
<pdfrwt beam="1">  1        4 0.40069164E-02 0.12500012E+03</pdfrwt>
<pdfrwt beam="2">  1       -4 0.23074054E-01 0.12500012E+03</pdfrwt>
<totfact> 0.94336949E+03</totfact>
</mgrwt>
</event>
<event>
 5    1  0.3308162E-002  0.1249861E+03  0.7818608E-02  0.1235091E+00
          4   -1    0    0  501    0  0.00000000000E+00  0.00000000000E+00  0.25051316606E+03  0.25051638523E+03  0.12700000000E+01 0. -1.
         -4   -1    0    0    0  501 -0.00000000000E+00 -0.00000000000E+00 -0.15560335927E+02  0.15612077189E+02  0.12700000000E+01 0. -1.
         25    2    1    2    0    0  0.00000000000E+00  0.00000000000E+00  0.23495283013E+03  0.26612846242E+03  0.12498610372E+03 0.  0.
    9000005    1    3    3    0    0  0.18048715914E+02  0.48533641358E+01 -0.94797186494E+01  0.20980380246E+02  0.10000000000E+01 0.  0.
    9000005    1    3    3    0    0 -0.18048715914E+02 -0.48533641358E+01  0.24443254878E+03  0.24514808217E+03  0.10000000000E+01 0.  0.
<mgrwt>
<rscale>  0 0.12498610E+03</rscale>
<asrwt>0</asrwt>
<pdfrwt beam="1">  1        4 0.38544716E-01 0.12498610E+03</pdfrwt>
<pdfrwt beam="2">  1       -4 0.23981255E-02 0.12498610E+03</pdfrwt>
<totfact> 0.80078392E+03</totfact>
</mgrwt>
</event>
<event>
 5    1  0.3308162E-002  0.1249808E+03  0.7818608E-02  0.1235099E+00
          4   -1    0    0  501    0  0.00000000000E+00  0.00000000000E+00  0.73099969224E+02  0.73111000544E+02  0.12700000000E+01 0. -1.
         -4   -1    0    0    0  501 -0.00000000000E+00 -0.00000000000E+00 -0.53398068036E+02  0.53413168507E+02  0.12700000000E+01 0. -1.
         25    2    1    2    0    0  0.00000000000E+00  0.00000000000E+00  0.19701901187E+02  0.12652416905E+03  0.12498080030E+03 0.  0.
    9000005    1    3    3    0    0  0.57441476578E+02 -0.24525525080E+02  0.80900749088E+01  0.62987887121E+02  0.10000000000E+01 0.  0.
    9000005    1    3    3    0    0 -0.57441476578E+02  0.24525525080E+02  0.11611826279E+02  0.63536281930E+02  0.10000000000E+01 0.  0.
<mgrwt>
<rscale>  0 0.12498080E+03</rscale>
<asrwt>0</asrwt>
<pdfrwt beam="1">  1        4 0.11248159E-01 0.12498080E+03</pdfrwt>
<pdfrwt beam="2">  1       -4 0.82170975E-02 0.12498080E+03</pdfrwt>
<totfact> 0.10424018E+04</totfact>
</mgrwt>
</event>
<event>
 5    1  0.3308162E-002  0.1249994E+03  0.7818608E-02  0.1235070E+00
          4   -1    0    0  501    0  0.00000000000E+00  0.00000000000E+00  0.21841093413E+03  0.21841462645E+03  0.12700000000E+01 0. -1.
         -4   -1    0    0    0  501 -0.00000000000E+00 -0.00000000000E+00 -0.17858306260E+02  0.17903407566E+02  0.12700000000E+01 0. -1.
         25    2    1    2    0    0  0.00000000000E+00  0.00000000000E+00  0.20055262787E+03  0.23631803402E+03  0.12499942662E+03 0.  0.
    9000005    1    3    3    0    0  0.65579359606E+00  0.27334783515E+02 -0.59585260701E+01  0.28002222911E+02  0.10000000000E+01 0.  0.
    9000005    1    3    3    0    0 -0.65579359606E+00 -0.27334783515E+02  0.20651115394E+03  0.20831581111E+03  0.10000000000E+01 0.  0.
<mgrwt>
<rscale>  0 0.12499943E+03</rscale>
<asrwt>0</asrwt>
<pdfrwt beam="1">  1        4 0.33605436E-01 0.12499943E+03</pdfrwt>
<pdfrwt beam="2">  1       -4 0.27511851E-02 0.12499943E+03</pdfrwt>
<totfact> 0.84349882E+03</totfact>
</mgrwt>
</event>
<event>
 5    1  0.3308162E-002  0.1250347E+03  0.7818608E-02  0.1235015E+00
         -4   -1    0    0    0  501 -0.00000000000E+00  0.00000000000E+00  0.18804972662E+03  0.18805401506E+03  0.12700000000E+01 0.  1.
          4   -1    0    0  501    0  0.00000000000E+00 -0.00000000000E+00 -0.20760018463E+02  0.20798828491E+02  0.12700000000E+01 0.  1.
         25    2    1    2    0    0  0.00000000000E+00  0.00000000000E+00  0.16728970815E+03  0.20885284355E+03  0.12503465042E+03 0.  0.
    9000005    1    3    3    0    0 -0.23007369686E+02  0.55858181545E+02  0.11047170721E+03  0.12591454880E+03  0.10000000000E+01 0.  0.
    9000005    1    3    3    0    0  0.23007369686E+02 -0.55858181545E+02  0.56818000944E+02  0.82938294753E+02  0.10000000000E+01 0.  0.
<mgrwt>
<rscale>  0 0.12503465E+03</rscale>
<asrwt>0</asrwt>
<pdfrwt beam="2">  1        4 0.31971641E-02 0.12503465E+03</pdfrwt>
<pdfrwt beam="1">  1       -4 0.28934044E-01 0.12503465E+03</pdfrwt>
<totfact> 0.88594911E+03</totfact>
</mgrwt>
</event>
<event>
 5    1  0.3308162E-002  0.1249942E+03  0.7818608E-02  0.1235078E+00
         -4   -1    0    0    0  501 -0.00000000000E+00  0.00000000000E+00  0.49004062549E+02  0.49020516585E+02  0.12700000000E+01 0. -1.
          4   -1    0    0  501    0  0.00000000000E+00 -0.00000000000E+00 -0.79670449060E+02  0.79680570740E+02  0.12700000000E+01 0. -1.
         25    2    1    2    0    0  0.00000000000E+00  0.00000000000E+00 -0.30666386511E+02  0.12870108733E+03  0.12499417033E+03 0.  0.
    9000005    1    3    3    0    0 -0.43424557807E+02  0.87178059712E+01 -0.60722177018E+02  0.75165651354E+02  0.10000000000E+01 0.  0.
    9000005    1    3    3    0    0  0.43424557807E+02 -0.87178059712E+01  0.30055790507E+02  0.53535435971E+02  0.10000000000E+01 0.  0.
<mgrwt>
<rscale>  0 0.12499417E+03</rscale>
<asrwt>0</asrwt>
<pdfrwt beam="2">  1        4 0.12259036E-01 0.12499417E+03</pdfrwt>
<pdfrwt beam="1">  1       -4 0.75411308E-02 0.12499417E+03</pdfrwt>
<totfact> 0.10373740E+04</totfact>
</mgrwt>
</event>
<event>
 5    1  0.3308162E-002  0.1250003E+03  0.7818608E-02  0.1235069E+00
          4   -1    0    0  501    0  0.00000000000E+00  0.00000000000E+00  0.59949625274E+02  0.59963075893E+02  0.12700000000E+01 0.  1.
         -4   -1    0    0    0  501 -0.00000000000E+00 -0.00000000000E+00 -0.65132257270E+02  0.65144637823E+02  0.12700000000E+01 0.  1.
         25    2    1    2    0    0  0.00000000000E+00  0.00000000000E+00 -0.51826319961E+01  0.12510771372E+03  0.12500032143E+03 0.  0.
    9000005    1    3    3    0    0  0.45843488773E+02 -0.33958645950E+02 -0.28117246548E+02  0.63611277703E+02  0.10000000000E+01 0.  0.
    9000005    1    3    3    0    0 -0.45843488773E+02  0.33958645950E+02  0.22934614552E+02  0.61496436013E+02  0.10000000000E+01 0.  0.
<mgrwt>
<rscale>  0 0.12500032E+03</rscale>
<asrwt>0</asrwt>
<pdfrwt beam="1">  1        4 0.92250063E-02 0.12500032E+03</pdfrwt>
<pdfrwt beam="2">  1       -4 0.10022334E-01 0.12500032E+03</pdfrwt>
<totfact> 0.10450448E+04</totfact>
</mgrwt>
</event>
<event>
 5    1  0.3308162E-002  0.1249782E+03  0.7818608E-02  0.1235103E+00
          4   -1    0    0  501    0  0.00000000000E+00  0.00000000000E+00  0.30667560992E+02  0.30693846244E+02  0.12700000000E+01 0.  1.
         -4   -1    0    0    0  501 -0.00000000000E+00 -0.00000000000E+00 -0.12724555908E+03  0.12725189667E+03  0.12700000000E+01 0.  1.
         25    2    1    2    0    0  0.00000000000E+00  0.00000000000E+00 -0.96577998090E+02  0.15794574291E+03  0.12497819006E+03 0.  0.
    9000005    1    3    3    0    0 -0.10771290266E+01  0.60390695238E+02 -0.68497363996E+02  0.91329541511E+02  0.10000000000E+01 0.  0.
    9000005    1    3    3    0    0  0.10771290266E+01 -0.60390695238E+02 -0.28080634095E+02  0.66616201403E+02  0.10000000000E+01 0.  0.
<mgrwt>
<rscale>  0 0.12497819E+03</rscale>
<asrwt>0</asrwt>
<pdfrwt beam="1">  1        4 0.47205958E-02 0.12497819E+03</pdfrwt>
<pdfrwt beam="2">  1       -4 0.19578749E-01 0.12497819E+03</pdfrwt>
<totfact> 0.97788239E+03</totfact>
</mgrwt>
</event>
<event>
 5    1  0.3308162E-002  0.1249991E+03  0.7818608E-02  0.1235071E+00
          4   -1    0    0  501    0  0.00000000000E+00  0.00000000000E+00  0.41947062146E+03  0.41947254400E+03  0.12700000000E+01 0. -1.
         -4   -1    0    0    0  501 -0.00000000000E+00 -0.00000000000E+00 -0.92669410023E+01  0.93535605809E+01  0.12700000000E+01 0. -1.
         25    2    1    2    0    0  0.00000000000E+00  0.00000000000E+00  0.41020368046E+03  0.42882610458E+03  0.12499907403E+03 0.  0.
    9000005    1    3    3    0    0  0.14231018354E+02 -0.52554651467E+02  0.99882612600E+02  0.11376312924E+03  0.10000000000E+01 0.  0.
    9000005    1    3    3    0    0 -0.14231018354E+02  0.52554651467E+02  0.31032106786E+03  0.31506297534E+03  0.10000000000E+01 0.  0.
<mgrwt>
<rscale>  0 0.12499907E+03</rscale>
<asrwt>0</asrwt>
<pdfrwt beam="1">  1        4 0.64540761E-01 0.12499907E+03</pdfrwt>
<pdfrwt beam="2">  1       -4 0.14324940E-02 0.12499907E+03</pdfrwt>
<totfact> 0.61843798E+03</totfact>
</mgrwt>
</event>
<event>
 5    1  0.3308162E-002  0.1249955E+03  0.7818608E-02  0.1235076E+00
         -4   -1    0    0    0  501 -0.00000000000E+00  0.00000000000E+00  0.17878703646E+02  0.17923753627E+02  0.12700000000E+01 0.  1.
          4   -1    0    0  501    0  0.00000000000E+00 -0.00000000000E+00 -0.21814854199E+03  0.21815223875E+03  0.12700000000E+01 0.  1.
         25    2    1    2    0    0  0.00000000000E+00  0.00000000000E+00 -0.20026983835E+03  0.23607599238E+03  0.12499546403E+03 0.  0.
    9000005    1    3    3    0    0  0.40355060194E+02 -0.41008744421E+01 -0.18991399430E+03  0.19420008570E+03  0.10000000000E+01 0.  0.
    9000005    1    3    3    0    0 -0.40355060194E+02  0.41008744421E+01 -0.10355844046E+02  0.41875906681E+02  0.10000000000E+01 0.  0.
<mgrwt>
<rscale>  0 0.12499546E+03</rscale>
<asrwt>0</asrwt>
<pdfrwt beam="2">  1        4 0.33565062E-01 0.12499546E+03</pdfrwt>
<pdfrwt beam="1">  1       -4 0.27543197E-02 0.12499546E+03</pdfrwt>
<totfact> 0.84393809E+03</totfact>
</mgrwt>
</event>
<event>
 5    1  0.3308162E-002  0.1249541E+03  0.7818608E-02  0.1235141E+00
         -4   -1    0    0    0  501 -0.00000000000E+00  0.00000000000E+00  0.12808611189E+04  0.12808617485E+04  0.12700000000E+01 0. -1.
          4   -1    0    0  501    0  0.00000000000E+00 -0.00000000000E+00 -0.29144947387E+01  0.31791790736E+01  0.12700000000E+01 0. -1.
         25    2    1    2    0    0  0.00000000000E+00  0.00000000000E+00  0.12779466242E+04  0.12840409276E+04  0.12495410965E+03 0.  0.
    9000005    1    3    3    0    0 -0.44924033584E+02 -0.16029776500E+02  0.10535040859E+04  0.10545837954E+04  0.10000000000E+01 0.  0.
    9000005    1    3    3    0    0  0.44924033584E+02  0.16029776500E+02  0.22444253829E+03  0.22945713221E+03  0.10000000000E+01 0.  0.
<mgrwt>
<rscale>  0 0.12495411E+03</rscale>
<asrwt>0</asrwt>
<pdfrwt beam="2">  1        4 0.46879299E-03 0.12495411E+03</pdfrwt>
<pdfrwt beam="1">  1       -4 0.19707579E+00 0.12495411E+03</pdfrwt>
<totfact> 0.22631023E+03</totfact>
</mgrwt>
</event>
<event>
 5    1  0.3308162E-002  0.1250036E+03  0.7818608E-02  0.1235064E+00
          4   -1    0    0  501    0  0.00000000000E+00  0.00000000000E+00  0.42873609904E+02  0.42892415718E+02  0.12700000000E+01 0. -1.
         -4   -1    0    0    0  501 -0.00000000000E+00 -0.00000000000E+00 -0.91072836739E+02  0.91081691309E+02  0.12700000000E+01 0. -1.
         25    2    1    2    0    0  0.00000000000E+00  0.00000000000E+00 -0.48199226835E+02  0.13397410703E+03  0.12500358349E+03 0.  0.
    9000005    1    3    3    0    0 -0.52080908630E+02  0.26735254708E+02 -0.66061217577E+00  0.58554515595E+02  0.10000000000E+01 0.  0.
    9000005    1    3    3    0    0  0.52080908630E+02 -0.26735254708E+02 -0.47538614659E+02  0.75419591432E+02  0.10000000000E+01 0.  0.
<mgrwt>
<rscale>  0 0.12500358E+03</rscale>
<asrwt>0</asrwt>
<pdfrwt beam="1">  1        4 0.65980677E-02 0.12500358E+03</pdfrwt>
<pdfrwt beam="2">  1       -4 0.14013333E-01 0.12500358E+03</pdfrwt>
<totfact> 0.10258910E+04</totfact>
</mgrwt>
</event>
<event>
 5    1  0.3308162E-002  0.1250014E+03  0.7818608E-02  0.1235067E+00
          4   -1    0    0  501    0  0.00000000000E+00  0.00000000000E+00  0.17636824655E+03  0.17637281903E+03  0.12700000000E+01 0. -1.
         -4   -1    0    0    0  501 -0.00000000000E+00 -0.00000000000E+00 -0.22125676240E+02  0.22162094871E+02  0.12700000000E+01 0. -1.
         25    2    1    2    0    0  0.00000000000E+00  0.00000000000E+00  0.15424257031E+03  0.19853491390E+03  0.12500136615E+03 0.  0.
    9000005    1    3    3    0    0 -0.60047169635E+02  0.17211966559E+02  0.80058930546E+02  0.10154972543E+03  0.10000000000E+01 0.  0.
    9000005    1    3    3    0    0  0.60047169635E+02 -0.17211966559E+02  0.74183639764E+02  0.96985188470E+02  0.10000000000E+01 0.  0.
<mgrwt>
<rscale>  0 0.12500137E+03</rscale>
<asrwt>0</asrwt>
<pdfrwt beam="1">  1        4 0.27136730E-01 0.12500137E+03</pdfrwt>
<pdfrwt beam="2">  1       -4 0.34071033E-02 0.12500137E+03</pdfrwt>
<totfact> 0.90380344E+03</totfact>
</mgrwt>
</event>
<event>
 5    1  0.3308162E-002  0.1249993E+03  0.7818608E-02  0.1235070E+00
          4   -1    0    0  501    0  0.00000000000E+00  0.00000000000E+00  0.32942825757E+02  0.32967296960E+02  0.12700000000E+01 0. -1.
         -4   -1    0    0    0  501 -0.00000000000E+00 -0.00000000000E+00 -0.11850345512E+03  0.11851026022E+03  0.12700000000E+01 0. -1.
         25    2    1    2    0    0  0.00000000000E+00  0.00000000000E+00 -0.85560629368E+02  0.15147755718E+03  0.12499931612E+03 0.  0.
    9000005    1    3    3    0    0 -0.27488615804E+02  0.21898024775E+02  0.19837967221E+02  0.40369449233E+02  0.10000000000E+01 0.  0.
    9000005    1    3    3    0    0  0.27488615804E+02 -0.21898024775E+02 -0.10539859659E+03  0.11110810794E+03  0.10000000000E+01 0.  0.
<mgrwt>
<rscale>  0 0.12499932E+03</rscale>
<asrwt>0</asrwt>
<pdfrwt beam="1">  1        4 0.50705330E-02 0.12499932E+03</pdfrwt>
<pdfrwt beam="2">  1       -4 0.18233707E-01 0.12499932E+03</pdfrwt>
<totfact> 0.99011505E+03</totfact>
</mgrwt>
</event>
<event>
 5    1  0.3308162E-002  0.1250041E+03  0.7818608E-02  0.1235063E+00
         -4   -1    0    0    0  501 -0.00000000000E+00  0.00000000000E+00  0.65519735805E+01  0.66739237184E+01  0.12700000000E+01 0.  1.
          4   -1    0    0  501    0  0.00000000000E+00 -0.00000000000E+00 -0.59061359996E+03  0.59061496540E+03  0.12700000000E+01 0.  1.
         25    2    1    2    0    0  0.00000000000E+00  0.00000000000E+00 -0.58406162638E+03  0.59728888912E+03  0.12500413457E+03 0.  0.
    9000005    1    3    3    0    0 -0.46167562789E+02  0.18675651016E+02 -0.47242014822E+03  0.47503896708E+03  0.10000000000E+01 0.  0.
    9000005    1    3    3    0    0  0.46167562789E+02 -0.18675651016E+02 -0.11164147815E+03  0.12224992204E+03  0.10000000000E+01 0.  0.
<mgrwt>
<rscale>  0 0.12500413E+03</rscale>
<asrwt>0</asrwt>
<pdfrwt beam="2">  1        4 0.90873075E-01 0.12500413E+03</pdfrwt>
<pdfrwt beam="1">  1       -4 0.10174822E-02 0.12500413E+03</pdfrwt>
<totfact> 0.49034763E+03</totfact>
</mgrwt>
</event>
<event>
 5    1  0.3308162E-002  0.1249948E+03  0.7818608E-02  0.1235077E+00
          4   -1    0    0  501    0  0.00000000000E+00  0.00000000000E+00  0.34832187120E+02  0.34855331867E+02  0.12700000000E+01 0.  1.
         -4   -1    0    0    0  501 -0.00000000000E+00 -0.00000000000E+00 -0.11207153055E+03  0.11207872617E+03  0.12700000000E+01 0.  1.
         25    2    1    2    0    0  0.00000000000E+00  0.00000000000E+00 -0.77239343433E+02  0.14693405804E+03  0.12499480485E+03 0.  0.
    9000005    1    3    3    0    0 -0.34636423191E+00  0.50963690435E+02  0.38865615358E+01  0.51122627783E+02  0.10000000000E+01 0.  0.
    9000005    1    3    3    0    0  0.34636423191E+00 -0.50963690435E+02 -0.81125904969E+02  0.95811430257E+02  0.10000000000E+01 0.  0.
<mgrwt>
<rscale>  0 0.12499480E+03</rscale>
<asrwt>0</asrwt>
<pdfrwt beam="1">  1        4 0.53611320E-02 0.12499480E+03</pdfrwt>
<pdfrwt beam="2">  1       -4 0.17244108E-01 0.12499480E+03</pdfrwt>
<totfact> 0.99930084E+03</totfact>
</mgrwt>
</event>
<event>
 5    1  0.3308162E-002  0.1249972E+03  0.7818608E-02  0.1235074E+00
         -4   -1    0    0    0  501 -0.00000000000E+00  0.00000000000E+00  0.62309664628E+02  0.62322605899E+02  0.12700000000E+01 0. -1.
          4   -1    0    0  501    0  0.00000000000E+00 -0.00000000000E+00 -0.62662178127E+02  0.62675046611E+02  0.12700000000E+01 0. -1.
         25    2    1    2    0    0  0.00000000000E+00  0.00000000000E+00 -0.35251349950E+00  0.12499765251E+03  0.12499715544E+03 0.  0.
    9000005    1    3    3    0    0  0.21269892606E+02  0.49100365796E+02 -0.32453590128E+02  0.62589853530E+02  0.10000000000E+01 0.  0.
    9000005    1    3    3    0    0 -0.21269892606E+02 -0.49100365796E+02  0.32101076628E+02  0.62407798979E+02  0.10000000000E+01 0.  0.
<mgrwt>
<rscale>  0 0.12499716E+03</rscale>
<asrwt>0</asrwt>
<pdfrwt beam="2">  1        4 0.96423205E-02 0.12499716E+03</pdfrwt>
<pdfrwt beam="1">  1       -4 0.95880875E-02 0.12499716E+03</pdfrwt>
<totfact> 0.10453586E+04</totfact>
</mgrwt>
</event>
<event>
 5    1  0.3308162E-002  0.1249967E+03  0.7818608E-02  0.1235074E+00
          4   -1    0    0  501    0  0.00000000000E+00  0.00000000000E+00  0.10414615912E+03  0.10415390228E+03  0.12700000000E+01 0. -1.
         -4   -1    0    0    0  501 -0.00000000000E+00 -0.00000000000E+00 -0.37485491826E+02  0.37506999313E+02  0.12700000000E+01 0. -1.
         25    2    1    2    0    0  0.00000000000E+00  0.00000000000E+00  0.66660667294E+02  0.14166090159E+03  0.12499666586E+03 0.  0.
    9000005    1    3    3    0    0  0.33925090573E+02 -0.16441181799E+02  0.89812507638E+02  0.97408987047E+02  0.10000000000E+01 0.  0.
    9000005    1    3    3    0    0 -0.33925090573E+02  0.16441181799E+02 -0.23151840344E+02  0.44251914542E+02  0.10000000000E+01 0.  0.
<mgrwt>
<rscale>  0 0.12499667E+03</rscale>
<asrwt>0</asrwt>
<pdfrwt beam="1">  1        4 0.16024736E-01 0.12499667E+03</pdfrwt>
<pdfrwt beam="2">  1       -4 0.57692489E-02 0.12499667E+03</pdfrwt>
<totfact> 0.10100037E+04</totfact>
</mgrwt>
</event>
<event>
 5    1  0.3308162E-002  0.1250051E+03  0.7818608E-02  0.1235061E+00
          4   -1    0    0  501    0  0.00000000000E+00  0.00000000000E+00  0.12178908438E+02  0.12244946335E+02  0.12700000000E+01 0. -1.
         -4   -1    0    0    0  501 -0.00000000000E+00 -0.00000000000E+00 -0.31983035469E+03  0.31983287618E+03  0.12700000000E+01 0. -1.
         25    2    1    2    0    0  0.00000000000E+00  0.00000000000E+00 -0.30765144626E+03  0.33207782251E+03  0.12500507118E+03 0.  0.
    9000005    1    3    3    0    0  0.18052906214E+02 -0.58795552991E+02 -0.18325703966E+03  0.19330537256E+03  0.10000000000E+01 0.  0.
    9000005    1    3    3    0    0 -0.18052906214E+02  0.58795552991E+02 -0.12439440660E+03  0.13877244996E+03  0.10000000000E+01 0.  0.
<mgrwt>
<rscale>  0 0.12500507E+03</rscale>
<asrwt>0</asrwt>
<pdfrwt beam="1">  1        4 0.18789523E-02 0.12500507E+03</pdfrwt>
<pdfrwt beam="2">  1       -4 0.49209938E-01 0.12500507E+03</pdfrwt>
<totfact> 0.71734231E+03</totfact>
</mgrwt>
</event>
<event>
 5    1  0.3308162E-002  0.1249984E+03  0.7818608E-02  0.1235072E+00
          4   -1    0    0  501    0  0.00000000000E+00  0.00000000000E+00  0.80508149835E+03  0.80508250005E+03  0.12700000000E+01 0.  1.
         -4   -1    0    0    0  501 -0.00000000000E+00 -0.00000000000E+00 -0.47677383373E+01  0.49339871152E+01  0.12700000000E+01 0.  1.
         25    2    1    2    0    0  0.00000000000E+00  0.00000000000E+00  0.80031376001E+03  0.81001648716E+03  0.12499838004E+03 0.  0.
    9000005    1    3    3    0    0  0.48985925984E+02  0.38625627971E+02  0.42404478092E+03  0.42861000491E+03  0.10000000000E+01 0.  0.
    9000005    1    3    3    0    0 -0.48985925984E+02 -0.38625627971E+02  0.37626897909E+03  0.38140648226E+03  0.10000000000E+01 0.  0.
<mgrwt>
<rscale>  0 0.12499838E+03</rscale>
<asrwt>0</asrwt>
<pdfrwt beam="1">  1        4 0.12387152E+00 0.12499838E+03</pdfrwt>
<pdfrwt beam="2">  1       -4 0.74636385E-03 0.12499838E+03</pdfrwt>
<totfact> 0.37822805E+03</totfact>
</mgrwt>
</event>
<event>
 5    1  0.3308162E-002  0.1249988E+03  0.7818608E-02  0.1235071E+00
          4   -1    0    0  501    0  0.00000000000E+00  0.00000000000E+00  0.16866980136E+03  0.16867458253E+03  0.12700000000E+01 0.  1.
         -4   -1    0    0    0  501 -0.00000000000E+00 -0.00000000000E+00 -0.23136171557E+02  0.23171002014E+02  0.12700000000E+01 0.  1.
         25    2    1    2    0    0  0.00000000000E+00  0.00000000000E+00  0.14553362980E+03  0.19184558454E+03  0.12499876361E+03 0.  0.
    9000005    1    3    3    0    0  0.17897032878E+02  0.28201480510E+02 -0.82943444142E+01  0.34429978769E+02  0.10000000000E+01 0.  0.
    9000005    1    3    3    0    0 -0.17897032878E+02 -0.28201480510E+02  0.15382797422E+03  0.15741560577E+03  0.10000000000E+01 0.  0.
<mgrwt>
<rscale>  0 0.12499876E+03</rscale>
<asrwt>0</asrwt>
<pdfrwt beam="1">  1        4 0.25952248E-01 0.12499876E+03</pdfrwt>
<pdfrwt beam="2">  1       -4 0.35624579E-02 0.12499876E+03</pdfrwt>
<totfact> 0.91529710E+03</totfact>
</mgrwt>
</event>
<event>
 5    1  0.3308162E-002  0.1249954E+03  0.7818608E-02  0.1235077E+00
          4   -1    0    0  501    0  0.00000000000E+00  0.00000000000E+00  0.68741573376E+02  0.68753303995E+02  0.12700000000E+01 0. -1.
         -4   -1    0    0    0  501 -0.00000000000E+00 -0.00000000000E+00 -0.56797247590E+02  0.56811444567E+02  0.12700000000E+01 0. -1.
         25    2    1    2    0    0  0.00000000000E+00  0.00000000000E+00  0.11944325786E+02  0.12556474856E+03  0.12499535657E+03 0.  0.
    9000005    1    3    3    0    0  0.34637472231E+02 -0.48356530845E+02 -0.13268447387E+02  0.60952114434E+02  0.10000000000E+01 0.  0.
    9000005    1    3    3    0    0 -0.34637472231E+02  0.48356530845E+02  0.25212773173E+02  0.64612634128E+02  0.10000000000E+01 0.  0.
<mgrwt>
<rscale>  0 0.12499536E+03</rscale>
<asrwt>0</asrwt>
<pdfrwt beam="1">  1        4 0.10577621E-01 0.12499536E+03</pdfrwt>
<pdfrwt beam="2">  1       -4 0.87400326E-02 0.12499536E+03</pdfrwt>
<totfact> 0.10441618E+04</totfact>
</mgrwt>
</event>
<event>
 5    1  0.3308162E-002  0.1249990E+03  0.7818608E-02  0.1235071E+00
          4   -1    0    0  501    0  0.00000000000E+00  0.00000000000E+00  0.34736116047E+02  0.34759324763E+02  0.12700000000E+01 0. -1.
         -4   -1    0    0    0  501 -0.00000000000E+00 -0.00000000000E+00 -0.11238892177E+03  0.11239609707E+03  0.12700000000E+01 0. -1.
         25    2    1    2    0    0  0.00000000000E+00  0.00000000000E+00 -0.77652805719E+02  0.14715542183E+03  0.12499903975E+03 0.  0.
    9000005    1    3    3    0    0  0.54347655151E+02 -0.14741816375E+02 -0.69273975886E+01  0.56744846531E+02  0.10000000000E+01 0.  0.
    9000005    1    3    3    0    0 -0.54347655151E+02  0.14741816375E+02 -0.70725408130E+02  0.90410575298E+02  0.10000000000E+01 0.  0.
<mgrwt>
<rscale>  0 0.12499904E+03</rscale>
<asrwt>0</asrwt>
<pdfrwt beam="1">  1        4 0.53463551E-02 0.12499904E+03</pdfrwt>
<pdfrwt beam="2">  1       -4 0.17292940E-01 0.12499904E+03</pdfrwt>
<totfact> 0.99875934E+03</totfact>
</mgrwt>
</event>
<event>
 5    1  0.3308162E-002  0.1250001E+03  0.7818608E-02  0.1235069E+00
          4   -1    0    0  501    0  0.00000000000E+00  0.00000000000E+00  0.22837242663E+02  0.22872528335E+02  0.12700000000E+01 0.  1.
         -4   -1    0    0    0  501 -0.00000000000E+00 -0.00000000000E+00 -0.17087803001E+03  0.17088274939E+03  0.12700000000E+01 0.  1.
         25    2    1    2    0    0  0.00000000000E+00  0.00000000000E+00 -0.14804078735E+03  0.19375527773E+03  0.12500013172E+03 0.  0.
    9000005    1    3    3    0    0 -0.48827798514E+02 -0.34591417978E+02 -0.46096502739E+02  0.75542092043E+02  0.10000000000E+01 0.  0.
    9000005    1    3    3    0    0  0.48827798514E+02  0.34591417978E+02 -0.10194428461E+03  0.11821318568E+03  0.10000000000E+01 0.  0.
<mgrwt>
<rscale>  0 0.12500013E+03</rscale>
<asrwt>0</asrwt>
<pdfrwt beam="1">  1        4 0.35164994E-02 0.12500013E+03</pdfrwt>
<pdfrwt beam="2">  1       -4 0.26292004E-01 0.12500013E+03</pdfrwt>
<totfact> 0.91197715E+03</totfact>
</mgrwt>
</event>
<event>
 5    1  0.3308162E-002  0.1250008E+03  0.7818608E-02  0.1235068E+00
         -4   -1    0    0    0  501 -0.00000000000E+00  0.00000000000E+00  0.23264110509E+03  0.23264457156E+03  0.12700000000E+01 0.  1.
          4   -1    0    0  501    0  0.00000000000E+00 -0.00000000000E+00 -0.16763488327E+02  0.16811527024E+02  0.12700000000E+01 0.  1.
         25    2    1    2    0    0  0.00000000000E+00  0.00000000000E+00  0.21587761677E+03  0.24945609859E+03  0.12500079881E+03 0.  0.
    9000005    1    3    3    0    0 -0.42982026390E+02 -0.44131921946E+02  0.12889002147E+03  0.14285908708E+03  0.10000000000E+01 0.  0.
    9000005    1    3    3    0    0  0.42982026390E+02  0.44131921946E+02  0.86987595298E+02  0.10659701151E+03  0.10000000000E+01 0.  0.
<mgrwt>
<rscale>  0 0.12500080E+03</rscale>
<asrwt>0</asrwt>
<pdfrwt beam="2">  1        4 0.25829600E-02 0.12500080E+03</pdfrwt>
<pdfrwt beam="1">  1       -4 0.35794903E-01 0.12500080E+03</pdfrwt>
<totfact> 0.82407433E+03</totfact>
</mgrwt>
</event>
<event>
 5    1  0.3308162E-002  0.1249998E+03  0.7818608E-02  0.1235070E+00
         -4   -1    0    0    0  501 -0.00000000000E+00  0.00000000000E+00  0.43786851506E+02  0.43805265264E+02  0.12700000000E+01 0.  1.
          4   -1    0    0  501    0  0.00000000000E+00 -0.00000000000E+00 -0.89168554045E+02  0.89177597694E+02  0.12700000000E+01 0.  1.
         25    2    1    2    0    0  0.00000000000E+00  0.00000000000E+00 -0.45381702539E+02  0.13298286296E+03  0.12499977166E+03 0.  0.
    9000005    1    3    3    0    0 -0.52771648899E+02 -0.10198961619E+02  0.11225753770E+02  0.54917058309E+02  0.10000000000E+01 0.  0.
    9000005    1    3    3    0    0  0.52771648899E+02  0.10198961619E+02 -0.56607456308E+02  0.78065804648E+02  0.10000000000E+01 0.  0.
<mgrwt>
<rscale>  0 0.12499977E+03</rscale>
<asrwt>0</asrwt>
<pdfrwt beam="2">  1        4 0.13720351E-01 0.12499977E+03</pdfrwt>
<pdfrwt beam="1">  1       -4 0.67385508E-02 0.12499977E+03</pdfrwt>
<totfact> 0.10280817E+04</totfact>
</mgrwt>
</event>
<event>
 5    1  0.3308162E-002  0.1249985E+03  0.7818608E-02  0.1235072E+00
         -4   -1    0    0    0  501 -0.00000000000E+00  0.00000000000E+00  0.12040532377E+02  0.12107325052E+02  0.12700000000E+01 0.  1.
          4   -1    0    0  501    0  0.00000000000E+00 -0.00000000000E+00 -0.32345197054E+03  0.32345446379E+03  0.12700000000E+01 0.  1.
         25    2    1    2    0    0  0.00000000000E+00  0.00000000000E+00 -0.31141143816E+03  0.33556178884E+03  0.12499852124E+03 0.  0.
    9000005    1    3    3    0    0  0.11649369322E+02  0.55382567033E+02 -0.84567245062E+02  0.10176224975E+03  0.10000000000E+01 0.  0.
    9000005    1    3    3    0    0 -0.11649369322E+02 -0.55382567033E+02 -0.22684419310E+03  0.23379953909E+03  0.10000000000E+01 0.  0.
<mgrwt>
<rscale>  0 0.12499852E+03</rscale>
<asrwt>0</asrwt>
<pdfrwt beam="2">  1        4 0.49767165E-01 0.12499852E+03</pdfrwt>
<pdfrwt beam="1">  1       -4 0.18577195E-02 0.12499852E+03</pdfrwt>
<totfact> 0.71345038E+03</totfact>
</mgrwt>
</event>
<event>
 5    1  0.3308162E-002  0.1250004E+03  0.7818608E-02  0.1235069E+00
         -4   -1    0    0    0  501 -0.00000000000E+00  0.00000000000E+00  0.19263478083E+02  0.19305296886E+02  0.12700000000E+01 0.  1.
          4   -1    0    0  501    0  0.00000000000E+00 -0.00000000000E+00 -0.20251777902E+03  0.20252176110E+03  0.12700000000E+01 0.  1.
         25    2    1    2    0    0  0.00000000000E+00  0.00000000000E+00 -0.18325430094E+03  0.22182705799E+03  0.12500041937E+03 0.  0.
    9000005    1    3    3    0    0 -0.57729051146E+02  0.50786964986E+01 -0.50128586349E+02  0.76631009870E+02  0.10000000000E+01 0.  0.
    9000005    1    3    3    0    0  0.57729051146E+02 -0.50786964986E+01 -0.13312571459E+03  0.14519604812E+03  0.10000000000E+01 0.  0.
<mgrwt>
<rscale>  0 0.12500042E+03</rscale>
<asrwt>0</asrwt>
<pdfrwt beam="2">  1        4 0.31160103E-01 0.12500042E+03</pdfrwt>
<pdfrwt beam="1">  1       -4 0.29671353E-02 0.12500042E+03</pdfrwt>
<totfact> 0.86579255E+03</totfact>
</mgrwt>
</event>
<event>
 5    1  0.3308162E-002  0.1249992E+03  0.7818608E-02  0.1235071E+00
          4   -1    0    0  501    0  0.00000000000E+00  0.00000000000E+00  0.23386819626E+03  0.23387164455E+03  0.12700000000E+01 0.  1.
         -4   -1    0    0    0  501 -0.00000000000E+00 -0.00000000000E+00 -0.16674842628E+02  0.16723135969E+02  0.12700000000E+01 0.  1.
         25    2    1    2    0    0  0.00000000000E+00  0.00000000000E+00  0.21719335363E+03  0.25059478052E+03  0.12499916463E+03 0.  0.
    9000005    1    3    3    0    0  0.59370239446E+02  0.14785411760E+02  0.13409466559E+03  0.14739678787E+03  0.10000000000E+01 0.  0.
    9000005    1    3    3    0    0 -0.59370239446E+02 -0.14785411760E+02  0.83098688042E+02  0.10319799265E+03  0.10000000000E+01 0.  0.
<mgrwt>
<rscale>  0 0.12499916E+03</rscale>
<asrwt>0</asrwt>
<pdfrwt beam="1">  1        4 0.35983702E-01 0.12499916E+03</pdfrwt>
<pdfrwt beam="2">  1       -4 0.25693405E-02 0.12499916E+03</pdfrwt>
<totfact> 0.82245869E+03</totfact>
</mgrwt>
</event>
<event>
 5    1  0.3308162E-002  0.1249925E+03  0.7818608E-02  0.1235081E+00
          4   -1    0    0  501    0  0.00000000000E+00  0.00000000000E+00  0.11517559151E+03  0.11518259321E+03  0.12700000000E+01 0. -1.
         -4   -1    0    0    0  501 -0.00000000000E+00 -0.00000000000E+00 -0.33891628602E+02  0.33915415216E+02  0.12700000000E+01 0. -1.
         25    2    1    2    0    0  0.00000000000E+00  0.00000000000E+00  0.81283962908E+02  0.14909800843E+03  0.12499253374E+03 0.  0.
    9000005    1    3    3    0    0  0.23888738355E+02  0.50153120976E+02  0.65093064898E+01  0.55940847641E+02  0.10000000000E+01 0.  0.
    9000005    1    3    3    0    0 -0.23888738355E+02 -0.50153120976E+02  0.74774656418E+02  0.93157160789E+02  0.10000000000E+01 0.  0.
<mgrwt>
<rscale>  0 0.12499253E+03</rscale>
<asrwt>0</asrwt>
<pdfrwt beam="1">  1        4 0.17721690E-01 0.12499253E+03</pdfrwt>
<pdfrwt beam="2">  1       -4 0.52164650E-02 0.12499253E+03</pdfrwt>
<totfact> 0.99500520E+03</totfact>
</mgrwt>
</event>
<event>
 5    1  0.3308162E-002  0.1249953E+03  0.7818608E-02  0.1235077E+00
         -4   -1    0    0    0  501 -0.00000000000E+00  0.00000000000E+00  0.25534203216E+02  0.25565766836E+02  0.12700000000E+01 0.  1.
          4   -1    0    0  501    0  0.00000000000E+00 -0.00000000000E+00 -0.15284091045E+03  0.15284618676E+03  0.12700000000E+01 0.  1.
         25    2    1    2    0    0  0.00000000000E+00  0.00000000000E+00 -0.12730670723E+03  0.17841195360E+03  0.12499530983E+03 0.  0.
    9000005    1    3    3    0    0 -0.20400740915E+02  0.58410390671E+02 -0.76177714550E+02  0.98142794755E+02  0.10000000000E+01 0.  0.
    9000005    1    3    3    0    0  0.20400740915E+02 -0.58410390671E+02 -0.51128992684E+02  0.80269158842E+02  0.10000000000E+01 0.  0.
<mgrwt>
<rscale>  0 0.12499531E+03</rscale>
<asrwt>0</asrwt>
<pdfrwt beam="2">  1        4 0.23516820E-01 0.12499531E+03</pdfrwt>
<pdfrwt beam="1">  1       -4 0.39311729E-02 0.12499531E+03</pdfrwt>
<totfact> 0.93913518E+03</totfact>
</mgrwt>
</event>
<event>
 5    1  0.3308162E-002  0.1250005E+03  0.7818608E-02  0.1235069E+00
          4   -1    0    0  501    0  0.00000000000E+00  0.00000000000E+00  0.42945608665E+01  0.44784096548E+01  0.12700000000E+01 0. -1.
         -4   -1    0    0    0  501 -0.00000000000E+00 -0.00000000000E+00 -0.89034168019E+03  0.89034258596E+03  0.12700000000E+01 0. -1.
         25    2    1    2    0    0  0.00000000000E+00  0.00000000000E+00 -0.88604711932E+03  0.89482099562E+03  0.12500046616E+03 0.  0.
    9000005    1    3    3    0    0  0.55529771156E+02 -0.10704188904E+02 -0.63338477134E+03  0.63590518453E+03  0.10000000000E+01 0.  0.
    9000005    1    3    3    0    0 -0.55529771156E+02  0.10704188904E+02 -0.25266234798E+03  0.25891581108E+03  0.10000000000E+01 0.  0.
<mgrwt>
<rscale>  0 0.12500047E+03</rscale>
<asrwt>0</asrwt>
<pdfrwt beam="1">  1        4 0.67491427E-03 0.12500047E+03</pdfrwt>
<pdfrwt beam="2">  1       -4 0.13698971E+00 0.12500047E+03</pdfrwt>
<totfact> 0.34358689E+03</totfact>
</mgrwt>
</event>
<event>
 5    1  0.3308162E-002  0.1249947E+03  0.7818608E-02  0.1235078E+00
          4   -1    0    0  501    0  0.00000000000E+00  0.00000000000E+00  0.30338605687E+02  0.30365175696E+02  0.12700000000E+01 0. -1.
         -4   -1    0    0    0  501 -0.00000000000E+00 -0.00000000000E+00 -0.12865804317E+03  0.12866431119E+03  0.12700000000E+01 0. -1.
         25    2    1    2    0    0  0.00000000000E+00  0.00000000000E+00 -0.98319437486E+02  0.15902948688E+03  0.12499466353E+03 0.  0.
    9000005    1    3    3    0    0  0.22442467362E+02 -0.45246451427E+02 -0.23434017337E+01  0.50570715238E+02  0.10000000000E+01 0.  0.
    9000005    1    3    3    0    0 -0.22442467362E+02  0.45246451427E+02 -0.95976035752E+02  0.10845877164E+03  0.10000000000E+01 0.  0.
<mgrwt>
<rscale>  0 0.12499466E+03</rscale>
<asrwt>0</asrwt>
<pdfrwt beam="1">  1        4 0.46700039E-02 0.12499466E+03</pdfrwt>
<pdfrwt beam="2">  1       -4 0.19796071E-01 0.12499466E+03</pdfrwt>
<totfact> 0.97541920E+03</totfact>
</mgrwt>
</event>
<event>
 5    1  0.3308162E-002  0.1249974E+03  0.7818608E-02  0.1235073E+00
          4   -1    0    0  501    0  0.00000000000E+00  0.00000000000E+00  0.80591986374E+02  0.80601992331E+02  0.12700000000E+01 0.  1.
         -4   -1    0    0    0  501 -0.00000000000E+00 -0.00000000000E+00 -0.48446105904E+02  0.48462749378E+02  0.12700000000E+01 0.  1.
         25    2    1    2    0    0  0.00000000000E+00  0.00000000000E+00  0.32145880470E+02  0.12906474171E+03  0.12499739966E+03 0.  0.
    9000005    1    3    3    0    0  0.26294854037E+02 -0.50251604458E+02 -0.11019059829E+02  0.57784624071E+02  0.10000000000E+01 0.  0.
    9000005    1    3    3    0    0 -0.26294854037E+02  0.50251604458E+02  0.43164940299E+02  0.71280117638E+02  0.10000000000E+01 0.  0.
<mgrwt>
<rscale>  0 0.12499740E+03</rscale>
<asrwt>0</asrwt>
<pdfrwt beam="1">  1        4 0.12400817E-01 0.12499740E+03</pdfrwt>
<pdfrwt beam="2">  1       -4 0.74552972E-02 0.12499740E+03</pdfrwt>
<totfact> 0.10365164E+04</totfact>
</mgrwt>
</event>
<event>
 5    1  0.3308162E-002  0.1250019E+03  0.7818608E-02  0.1235066E+00
          4   -1    0    0  501    0  0.00000000000E+00  0.00000000000E+00  0.17771111917E+03  0.17771565709E+03  0.12700000000E+01 0.  1.
         -4   -1    0    0    0  501 -0.00000000000E+00 -0.00000000000E+00 -0.21958395205E+02  0.21995090816E+02  0.12700000000E+01 0.  1.
         25    2    1    2    0    0  0.00000000000E+00  0.00000000000E+00  0.15575272396E+03  0.19971074791E+03  0.12500188722E+03 0.  0.
    9000005    1    3    3    0    0  0.10186935642E-01  0.11792477585E+02  0.17592524040E+03  0.17632286534E+03  0.10000000000E+01 0.  0.
    9000005    1    3    3    0    0 -0.10186935642E-01 -0.11792477585E+02 -0.20172516441E+02  0.23387882566E+02  0.10000000000E+01 0.  0.
<mgrwt>
<rscale>  0 0.12500189E+03</rscale>
<asrwt>0</asrwt>
<pdfrwt beam="1">  1        4 0.27343343E-01 0.12500189E+03</pdfrwt>
<pdfrwt beam="2">  1       -4 0.33813865E-02 0.12500189E+03</pdfrwt>
<totfact> 0.90180505E+03</totfact>
</mgrwt>
</event>
<event>
 5    1  0.3308162E-002  0.1249989E+03  0.7818608E-02  0.1235071E+00
          4   -1    0    0  501    0  0.00000000000E+00  0.00000000000E+00  0.26432107082E+02  0.26462599736E+02  0.12700000000E+01 0.  1.
         -4   -1    0    0    0  501 -0.00000000000E+00 -0.00000000000E+00 -0.14766323551E+03  0.14766869682E+03  0.12700000000E+01 0.  1.
         25    2    1    2    0    0  0.00000000000E+00  0.00000000000E+00 -0.12123112842E+03  0.17413129655E+03  0.12499888776E+03 0.  0.
    9000005    1    3    3    0    0 -0.51656847977E+02  0.63325705352E+01 -0.10880524982E+03  0.12061556194E+03  0.10000000000E+01 0.  0.
    9000005    1    3    3    0    0  0.51656847977E+02 -0.63325705352E+01 -0.12425878601E+02  0.53515734617E+02  0.10000000000E+01 0.  0.
<mgrwt>
<rscale>  0 0.12499889E+03</rscale>
<asrwt>0</asrwt>
<pdfrwt beam="1">  1        4 0.40692438E-02 0.12499889E+03</pdfrwt>
<pdfrwt beam="2">  1       -4 0.22720186E-01 0.12499889E+03</pdfrwt>
<totfact> 0.94686546E+03</totfact>
</mgrwt>
</event>
<event>
 5    1  0.3308162E-002  0.1250061E+03  0.7818608E-02  0.1235060E+00
          4   -1    0    0  501    0  0.00000000000E+00  0.00000000000E+00  0.17554218631E+03  0.17554678030E+03  0.12700000000E+01 0.  1.
         -4   -1    0    0    0  501 -0.00000000000E+00 -0.00000000000E+00 -0.22231640973E+02  0.22267886302E+02  0.12700000000E+01 0.  1.
         25    2    1    2    0    0  0.00000000000E+00  0.00000000000E+00  0.15331054534E+03  0.19781466661E+03  0.12500607590E+03 0.  0.
    9000005    1    3    3    0    0 -0.42540793428E+02  0.43594411575E+02  0.54532895630E+02  0.81762023775E+02  0.10000000000E+01 0.  0.
    9000005    1    3    3    0    0  0.42540793428E+02 -0.43594411575E+02  0.98777649709E+02  0.11605264283E+03  0.10000000000E+01 0.  0.
<mgrwt>
<rscale>  0 0.12500608E+03</rscale>
<asrwt>0</asrwt>
<pdfrwt beam="1">  1        4 0.27009632E-01 0.12500608E+03</pdfrwt>
<pdfrwt beam="2">  1       -4 0.34233939E-02 0.12500608E+03</pdfrwt>
<totfact> 0.90492778E+03</totfact>
</mgrwt>
</event>
<event>
 5    1  0.3308162E-002  0.1249968E+03  0.7818608E-02  0.1235074E+00
         -4   -1    0    0    0  501 -0.00000000000E+00  0.00000000000E+00  0.99650293965E+01  0.10045631432E+02  0.12700000000E+01 0.  1.
          4   -1    0    0  501    0  0.00000000000E+00 -0.00000000000E+00 -0.39031519284E+03  0.39031725898E+03  0.12700000000E+01 0.  1.
         25    2    1    2    0    0  0.00000000000E+00  0.00000000000E+00 -0.38035016344E+03  0.40036289041E+03  0.12499678873E+03 0.  0.
    9000005    1    3    3    0    0  0.20004087502E+02 -0.57013650432E+02 -0.24125536327E+03  0.24870840388E+03  0.10000000000E+01 0.  0.
    9000005    1    3    3    0    0 -0.20004087502E+02  0.57013650432E+02 -0.13909480017E+03  0.15165448653E+03  0.10000000000E+01 0.  0.
<mgrwt>
<rscale>  0 0.12499679E+03</rscale>
<asrwt>0</asrwt>
<pdfrwt beam="2">  1        4 0.60054838E-01 0.12499679E+03</pdfrwt>
<pdfrwt beam="1">  1       -4 0.15394408E-02 0.12499679E+03</pdfrwt>
<totfact> 0.64522090E+03</totfact>
</mgrwt>
</event>
<event>
 5    1  0.3308162E-002  0.1249983E+03  0.7818608E-02  0.1235072E+00
         -4   -1    0    0    0  501 -0.00000000000E+00  0.00000000000E+00  0.64890611949E+01  0.66121717454E+01  0.12700000000E+01 0.  1.
          4   -1    0    0  501    0  0.00000000000E+00 -0.00000000000E+00 -0.59617836001E+03  0.59617971271E+03  0.12700000000E+01 0.  1.
         25    2    1    2    0    0  0.00000000000E+00  0.00000000000E+00 -0.58968929882E+03  0.60279188446E+03  0.12499834729E+03 0.  0.
    9000005    1    3    3    0    0 -0.16237402669E+02 -0.19909654622E+02 -0.20132979620E+02  0.32655542577E+02  0.10000000000E+01 0.  0.
    9000005    1    3    3    0    0  0.16237402669E+02  0.19909654622E+02 -0.56955631920E+03  0.57013634188E+03  0.10000000000E+01 0.  0.
<mgrwt>
<rscale>  0 0.12499835E+03</rscale>
<asrwt>0</asrwt>
<pdfrwt beam="2">  1        4 0.91729279E-01 0.12499835E+03</pdfrwt>
<pdfrwt beam="1">  1       -4 0.10078917E-02 0.12499835E+03</pdfrwt>
<totfact> 0.48693633E+03</totfact>
</mgrwt>
</event>
<event>
 5    1  0.3308162E-002  0.1250171E+03  0.7818608E-02  0.1235043E+00
         -4   -1    0    0    0  501 -0.00000000000E+00  0.00000000000E+00  0.43225979660E+01  0.45053027841E+01  0.12700000000E+01 0.  1.
          4   -1    0    0  501    0  0.00000000000E+00 -0.00000000000E+00 -0.88503693366E+03  0.88503784486E+03  0.12700000000E+01 0.  1.
         25    2    1    2    0    0  0.00000000000E+00  0.00000000000E+00 -0.88071433569E+03  0.88954314765E+03  0.12501708056E+03 0.  0.
    9000005    1    3    3    0    0  0.21472696421E+02 -0.21757574703E+02 -0.82824934849E+03  0.82881388262E+03  0.10000000000E+01 0.  0.
    9000005    1    3    3    0    0 -0.21472696421E+02  0.21757574703E+02 -0.52464987199E+02  0.60729265024E+02  0.10000000000E+01 0.  0.
<mgrwt>
<rscale>  0 0.12501708E+03</rscale>
<asrwt>0</asrwt>
<pdfrwt beam="2">  1        4 0.13617351E+00 0.12501708E+03</pdfrwt>
<pdfrwt beam="1">  1       -4 0.67914008E-03 0.12501708E+03</pdfrwt>
<totfact> 0.34548616E+03</totfact>
</mgrwt>
</event>
<event>
 5    1  0.3308162E-002  0.1249995E+03  0.7818608E-02  0.1235070E+00
         -4   -1    0    0    0  501 -0.00000000000E+00  0.00000000000E+00  0.33900385739E+02  0.33924166213E+02  0.12700000000E+01 0. -1.
          4   -1    0    0  501    0  0.00000000000E+00 -0.00000000000E+00 -0.11515860885E+03  0.11516561158E+03  0.12700000000E+01 0. -1.
         25    2    1    2    0    0  0.00000000000E+00  0.00000000000E+00 -0.81258223107E+02  0.14908977780E+03  0.12499945208E+03 0.  0.
    9000005    1    3    3    0    0 -0.28301079639E+02  0.39945148507E+02  0.56978664983E+01  0.49295351511E+02  0.10000000000E+01 0.  0.
    9000005    1    3    3    0    0  0.28301079639E+02 -0.39945148507E+02 -0.86956089605E+02  0.99794426284E+02  0.10000000000E+01 0.  0.
<mgrwt>
<rscale>  0 0.12499945E+03</rscale>
<asrwt>0</asrwt>
<pdfrwt beam="2">  1        4 0.17719077E-01 0.12499945E+03</pdfrwt>
<pdfrwt beam="1">  1       -4 0.52178120E-02 0.12499945E+03</pdfrwt>
<totfact> 0.99486674E+03</totfact>
</mgrwt>
</event>
<event>
 5    1  0.3308162E-002  0.1250023E+03  0.7818608E-02  0.1235066E+00
          4   -1    0    0  501    0  0.00000000000E+00  0.00000000000E+00  0.16132882710E+04  0.16132887709E+04  0.12700000000E+01 0. -1.
         -4   -1    0    0    0  501 -0.00000000000E+00 -0.00000000000E+00 -0.22543235438E+01  0.25874455821E+01  0.12700000000E+01 0. -1.
         25    2    1    2    0    0  0.00000000000E+00  0.00000000000E+00  0.16110339475E+04  0.16158762165E+04  0.12500226826E+03 0.  0.
    9000005    1    3    3    0    0  0.10648776458E+02 -0.39334199285E+02  0.14179809911E+04  0.14185667650E+04  0.10000000000E+01 0.  0.
    9000005    1    3    3    0    0 -0.10648776458E+02  0.39334199285E+02  0.19305295632E+03  0.19730945141E+03  0.10000000000E+01 0.  0.
<mgrwt>
<rscale>  0 0.12500227E+03</rscale>
<asrwt>0</asrwt>
<pdfrwt beam="1">  1        4 0.24822369E+00 0.12500227E+03</pdfrwt>
<pdfrwt beam="2">  1       -4 0.37248248E-03 0.12500227E+03</pdfrwt>
<totfact> 0.15760111E+03</totfact>
</mgrwt>
</event>
<event>
 5    1  0.3308162E-002  0.1250031E+03  0.7818608E-02  0.1235064E+00
          4   -1    0    0  501    0  0.00000000000E+00  0.00000000000E+00  0.52296767439E+03  0.52296921646E+03  0.12700000000E+01 0.  1.
         -4   -1    0    0    0  501 -0.00000000000E+00 -0.00000000000E+00 -0.74142190686E+01  0.75222034270E+01  0.12700000000E+01 0.  1.
         25    2    1    2    0    0  0.00000000000E+00  0.00000000000E+00  0.51555345533E+03  0.53049141988E+03  0.12500312505E+03 0.  0.
    9000005    1    3    3    0    0 -0.47264652673E+01 -0.36790735544E+02  0.47121825682E+03  0.47267699675E+03  0.10000000000E+01 0.  0.
    9000005    1    3    3    0    0  0.47264652673E+01  0.36790735544E+02  0.44335198505E+02  0.57814423133E+02  0.10000000000E+01 0.  0.
<mgrwt>
<rscale>  0 0.12500313E+03</rscale>
<asrwt>0</asrwt>
<pdfrwt beam="1">  1        4 0.80464987E-01 0.12500313E+03</pdfrwt>
<pdfrwt beam="2">  1       -4 0.11490742E-02 0.12500313E+03</pdfrwt>
<totfact> 0.53570182E+03</totfact>
</mgrwt>
</event>
<event>
 5    1  0.3308162E-002  0.1249966E+03  0.7818608E-02  0.1235075E+00
         -4   -1    0    0    0  501 -0.00000000000E+00  0.00000000000E+00  0.43511192371E+01  0.45326745544E+01  0.12700000000E+01 0. -1.
          4   -1    0    0  501    0  0.00000000000E+00 -0.00000000000E+00 -0.87918002709E+03  0.87918094437E+03  0.12700000000E+01 0. -1.
         25    2    1    2    0    0  0.00000000000E+00  0.00000000000E+00 -0.87482890785E+03  0.88371361892E+03  0.12499656894E+03 0.  0.
    9000005    1    3    3    0    0 -0.43652190765E+02 -0.67872268079E+01 -0.12493950844E+03  0.13252343557E+03  0.10000000000E+01 0.  0.
    9000005    1    3    3    0    0  0.43652190765E+02  0.67872268079E+01 -0.74988939942E+03  0.75119018335E+03  0.10000000000E+01 0.  0.
<mgrwt>
<rscale>  0 0.12499657E+03</rscale>
<asrwt>0</asrwt>
<pdfrwt beam="2">  1        4 0.13527236E+00 0.12499657E+03</pdfrwt>
<pdfrwt beam="1">  1       -4 0.68344001E-03 0.12499657E+03</pdfrwt>
<totfact> 0.34788649E+03</totfact>
</mgrwt>
</event>
<event>
 5    1  0.3308162E-002  0.1249992E+03  0.7818608E-02  0.1235071E+00
         -4   -1    0    0    0  501 -0.00000000000E+00  0.00000000000E+00  0.89020789118E+02  0.89029847777E+02  0.12700000000E+01 0. -1.
          4   -1    0    0  501    0  0.00000000000E+00 -0.00000000000E+00 -0.43859131436E+02  0.43877514860E+02  0.12700000000E+01 0. -1.
         25    2    1    2    0    0  0.00000000000E+00  0.00000000000E+00  0.45161657682E+02  0.13290736264E+03  0.12499916687E+03 0.  0.
    9000005    1    3    3    0    0 -0.60668711481E+02  0.12633381161E+02  0.14014899272E+02  0.63542995475E+02  0.10000000000E+01 0.  0.
    9000005    1    3    3    0    0  0.60668711481E+02 -0.12633381161E+02  0.31146758410E+02  0.69364367162E+02  0.10000000000E+01 0.  0.
<mgrwt>
<rscale>  0 0.12499917E+03</rscale>
<asrwt>0</asrwt>
<pdfrwt beam="2">  1        4 0.67496696E-02 0.12499917E+03</pdfrwt>
<pdfrwt beam="1">  1       -4 0.13697617E-01 0.12499917E+03</pdfrwt>
<totfact> 0.10282562E+04</totfact>
</mgrwt>
</event>
<event>
 5    1  0.3308162E-002  0.1249965E+03  0.7818608E-02  0.1235075E+00
         -4   -1    0    0    0  501 -0.00000000000E+00  0.00000000000E+00  0.27720716556E+02  0.27749793268E+02  0.12700000000E+01 0.  1.
          4   -1    0    0  501    0  0.00000000000E+00 -0.00000000000E+00 -0.14080088425E+03  0.14080661173E+03  0.12700000000E+01 0.  1.
         25    2    1    2    0    0  0.00000000000E+00  0.00000000000E+00 -0.11308016770E+03  0.16855640500E+03  0.12499654931E+03 0.  0.
    9000005    1    3    3    0    0  0.51003362845E+02  0.35216015900E+02 -0.67287760033E+02  0.91488542712E+02  0.10000000000E+01 0.  0.
    9000005    1    3    3    0    0 -0.51003362845E+02 -0.35216015900E+02 -0.45792407664E+02  0.77067862284E+02  0.10000000000E+01 0.  0.
<mgrwt>
<rscale>  0 0.12499655E+03</rscale>
<asrwt>0</asrwt>
<pdfrwt beam="2">  1        4 0.21664351E-01 0.12499655E+03</pdfrwt>
<pdfrwt beam="1">  1       -4 0.42674030E-02 0.12499655E+03</pdfrwt>
<totfact> 0.95725490E+03</totfact>
</mgrwt>
</event>
<event>
 5    1  0.3308162E-002  0.1250002E+03  0.7818608E-02  0.1235069E+00
         -4   -1    0    0    0  501 -0.00000000000E+00  0.00000000000E+00  0.42615125153E+01  0.44467278890E+01  0.12700000000E+01 0.  1.
          4   -1    0    0  501    0  0.00000000000E+00 -0.00000000000E+00 -0.89695643089E+03  0.89695732999E+03  0.12700000000E+01 0.  1.
         25    2    1    2    0    0  0.00000000000E+00  0.00000000000E+00 -0.89269491838E+03  0.90140405788E+03  0.12500023304E+03 0.  0.
    9000005    1    3    3    0    0  0.25673996900E+02  0.53048072794E+01 -0.85541935713E+03  0.85582157700E+03  0.10000000000E+01 0.  0.
    9000005    1    3    3    0    0 -0.25673996900E+02 -0.53048072794E+01 -0.37275561246E+02  0.45582480881E+02  0.10000000000E+01 0.  0.
<mgrwt>
<rscale>  0 0.12500023E+03</rscale>
<asrwt>0</asrwt>
<pdfrwt beam="2">  1        4 0.13800747E+00 0.12500023E+03</pdfrwt>
<pdfrwt beam="1">  1       -4 0.66993452E-03 0.12500023E+03</pdfrwt>
<totfact> 0.34106072E+03</totfact>
</mgrwt>
</event>
<event>
 5    1  0.3308162E-002  0.1250003E+03  0.7818608E-02  0.1235069E+00
          4   -1    0    0  501    0  0.00000000000E+00  0.00000000000E+00  0.44610880920E+02  0.44628954687E+02  0.12700000000E+01 0.  1.
         -4   -1    0    0    0  501 -0.00000000000E+00 -0.00000000000E+00 -0.87522696974E+02  0.87531910671E+02  0.12700000000E+01 0.  1.
         25    2    1    2    0    0  0.00000000000E+00  0.00000000000E+00 -0.42911816054E+02  0.13216086536E+03  0.12500028150E+03 0.  0.
    9000005    1    3    3    0    0  0.60599958697E+02  0.14189372544E+02 -0.27396897635E+02  0.68009435282E+02  0.10000000000E+01 0.  0.
    9000005    1    3    3    0    0 -0.60599958697E+02 -0.14189372544E+02 -0.15514918419E+02  0.64151430076E+02  0.10000000000E+01 0.  0.
<mgrwt>
<rscale>  0 0.12500028E+03</rscale>
<asrwt>0</asrwt>
<pdfrwt beam="1">  1        4 0.68653115E-02 0.12500028E+03</pdfrwt>
<pdfrwt beam="2">  1       -4 0.13467129E-01 0.12500028E+03</pdfrwt>
<totfact> 0.10298201E+04</totfact>
</mgrwt>
</event>
<event>
 5    1  0.3308162E-002  0.1249617E+03  0.7818608E-02  0.1235129E+00
         -4   -1    0    0    0  501 -0.00000000000E+00  0.00000000000E+00  0.40249530344E+01  0.42205623949E+01  0.12700000000E+01 0.  1.
          4   -1    0    0  501    0  0.00000000000E+00 -0.00000000000E+00 -0.94670878377E+03  0.94670963562E+03  0.12700000000E+01 0.  1.
         25    2    1    2    0    0  0.00000000000E+00  0.00000000000E+00 -0.94268383074E+03  0.95093019801E+03  0.12496174118E+03 0.  0.
    9000005    1    3    3    0    0 -0.28553593245E+02 -0.14751247140E+02 -0.87901205659E+03  0.87959996738E+03  0.10000000000E+01 0.  0.
    9000005    1    3    3    0    0  0.28553593245E+02  0.14751247140E+02 -0.63671774148E+02  0.71330230636E+02  0.10000000000E+01 0.  0.
<mgrwt>
<rscale>  0 0.12496174E+03</rscale>
<asrwt>0</asrwt>
<pdfrwt beam="2">  1        4 0.14566244E+00 0.12496174E+03</pdfrwt>
<pdfrwt beam="1">  1       -4 0.63433670E-03 0.12496174E+03</pdfrwt>
<totfact> 0.32309968E+03</totfact>
</mgrwt>
</event>
<event>
 5    1  0.3308162E-002  0.1249990E+03  0.7818608E-02  0.1235071E+00
         -4   -1    0    0    0  501 -0.00000000000E+00  0.00000000000E+00  0.55168739875E+02  0.55183355818E+02  0.12700000000E+01 0. -1.
          4   -1    0    0  501    0  0.00000000000E+00 -0.00000000000E+00 -0.70774649457E+02  0.70786043156E+02  0.12700000000E+01 0. -1.
         25    2    1    2    0    0  0.00000000000E+00  0.00000000000E+00 -0.15605909582E+02  0.12596939897E+03  0.12499898025E+03 0.  0.
    9000005    1    3    3    0    0 -0.47536109364E+02  0.14400733248E+02  0.30414052208E+02  0.58250127753E+02  0.10000000000E+01 0.  0.
    9000005    1    3    3    0    0  0.47536109364E+02 -0.14400733248E+02 -0.46019961790E+02  0.67719271221E+02  0.10000000000E+01 0.  0.
<mgrwt>
<rscale>  0 0.12499898E+03</rscale>
<asrwt>0</asrwt>
<pdfrwt beam="2">  1        4 0.10890408E-01 0.12499898E+03</pdfrwt>
<pdfrwt beam="1">  1       -4 0.84894992E-02 0.12499898E+03</pdfrwt>
<totfact> 0.10431868E+04</totfact>
</mgrwt>
</event>
<event>
 5    1  0.3308162E-002  0.1249997E+03  0.7818608E-02  0.1235070E+00
          4   -1    0    0  501    0  0.00000000000E+00  0.00000000000E+00  0.14837740879E+02  0.14891992963E+02  0.12700000000E+01 0. -1.
         -4   -1    0    0    0  501 -0.00000000000E+00 -0.00000000000E+00 -0.26272686141E+03  0.26272993093E+03  0.12700000000E+01 0. -1.
         25    2    1    2    0    0  0.00000000000E+00  0.00000000000E+00 -0.24788912053E+03  0.27762192389E+03  0.12499966619E+03 0.  0.
    9000005    1    3    3    0    0  0.19434361951E+02 -0.58886522333E+02 -0.10675350484E+03  0.12346103731E+03  0.10000000000E+01 0.  0.
    9000005    1    3    3    0    0 -0.19434361951E+02  0.58886522333E+02 -0.14113561568E+03  0.15416088658E+03  0.10000000000E+01 0.  0.
<mgrwt>
<rscale>  0 0.12499967E+03</rscale>
<asrwt>0</asrwt>
<pdfrwt beam="1">  1        4 0.22871389E-02 0.12499967E+03</pdfrwt>
<pdfrwt beam="2">  1       -4 0.40423923E-01 0.12499967E+03</pdfrwt>
<totfact> 0.78495065E+03</totfact>
</mgrwt>
</event>
<event>
 5    1  0.3308162E-002  0.1249740E+03  0.7818608E-02  0.1235110E+00
         -4   -1    0    0    0  501 -0.00000000000E+00  0.00000000000E+00  0.78380595146E+03  0.78380698035E+03  0.12700000000E+01 0.  1.
          4   -1    0    0  501    0  0.00000000000E+00 -0.00000000000E+00 -0.48996276963E+01  0.50615463608E+01  0.12700000000E+01 0.  1.
         25    2    1    2    0    0  0.00000000000E+00  0.00000000000E+00  0.77890632377E+03  0.78886852671E+03  0.12497396223E+03 0.  0.
    9000005    1    3    3    0    0 -0.40552412371E+02  0.25162528330E+02  0.64398469807E+03  0.64575145554E+03  0.10000000000E+01 0.  0.
    9000005    1    3    3    0    0  0.40552412371E+02 -0.25162528330E+02  0.13492162569E+03  0.14311707117E+03  0.10000000000E+01 0.  0.
<mgrwt>
<rscale>  0 0.12497396E+03</rscale>
<asrwt>0</asrwt>
<pdfrwt beam="2">  1        4 0.76632348E-03 0.12497396E+03</pdfrwt>
<pdfrwt beam="1">  1       -4 0.12059804E+00 0.12497396E+03</pdfrwt>
<totfact> 0.38788593E+03</totfact>
</mgrwt>
</event>
<event>
 5    1  0.3308162E-002  0.1249953E+03  0.7818608E-02  0.1235077E+00
          4   -1    0    0  501    0  0.00000000000E+00  0.00000000000E+00  0.12816405033E+02  0.12879174585E+02  0.12700000000E+01 0.  1.
         -4   -1    0    0    0  501 -0.00000000000E+00 -0.00000000000E+00 -0.30395350084E+03  0.30395615403E+03  0.12700000000E+01 0.  1.
         25    2    1    2    0    0  0.00000000000E+00  0.00000000000E+00 -0.29113709581E+03  0.31683532861E+03  0.12499526753E+03 0.  0.
    9000005    1    3    3    0    0  0.51809257895E+02 -0.34512408114E+02 -0.13176651937E+03  0.14573510608E+03  0.10000000000E+01 0.  0.
    9000005    1    3    3    0    0 -0.51809257895E+02  0.34512408114E+02 -0.15937057644E+03  0.17110022254E+03  0.10000000000E+01 0.  0.
<mgrwt>
<rscale>  0 0.12499527E+03</rscale>
<asrwt>0</asrwt>
<pdfrwt beam="1">  1        4 0.19767874E-02 0.12499527E+03</pdfrwt>
<pdfrwt beam="2">  1       -4 0.46767104E-01 0.12499527E+03</pdfrwt>
<totfact> 0.73541827E+03</totfact>
</mgrwt>
</event>
<event>
 5    1  0.3308162E-002  0.1249964E+03  0.7818608E-02  0.1235075E+00
          4   -1    0    0  501    0  0.00000000000E+00  0.00000000000E+00  0.15270656040E+02  0.15323375473E+02  0.12700000000E+01 0.  1.
         -4   -1    0    0    0  501 -0.00000000000E+00 -0.00000000000E+00 -0.25529131595E+03  0.25529447488E+03  0.12700000000E+01 0.  1.
         25    2    1    2    0    0  0.00000000000E+00  0.00000000000E+00 -0.24002065991E+03  0.27061785035E+03  0.12499641492E+03 0.  0.
    9000005    1    3    3    0    0  0.34293102946E+02 -0.51716016311E+02 -0.10403284571E+03  0.12113792239E+03  0.10000000000E+01 0.  0.
    9000005    1    3    3    0    0 -0.34293102946E+02  0.51716016311E+02 -0.13598781420E+03  0.14947992796E+03  0.10000000000E+01 0.  0.
<mgrwt>
<rscale>  0 0.12499641E+03</rscale>
<asrwt>0</asrwt>
<pdfrwt beam="1">  1        4 0.23536302E-02 0.12499641E+03</pdfrwt>
<pdfrwt beam="2">  1       -4 0.39279882E-01 0.12499641E+03</pdfrwt>
<totfact> 0.79445044E+03</totfact>
</mgrwt>
</event>
<event>
 5    1  0.3308162E-002  0.1249989E+03  0.7818608E-02  0.1235071E+00
         -4   -1    0    0    0  501 -0.00000000000E+00  0.00000000000E+00  0.48573654606E+02  0.48590254391E+02  0.12700000000E+01 0. -1.
          4   -1    0    0  501    0  0.00000000000E+00 -0.00000000000E+00 -0.80382389590E+02  0.80392421634E+02  0.12700000000E+01 0. -1.
         25    2    1    2    0    0  0.00000000000E+00  0.00000000000E+00 -0.31808734984E+02  0.12898267602E+03  0.12499894037E+03 0.  0.
    9000005    1    3    3    0    0  0.65031649553E+01  0.51674107468E+02 -0.51540197690E+02  0.73279577748E+02  0.10000000000E+01 0.  0.
    9000005    1    3    3    0    0 -0.65031649553E+01 -0.51674107468E+02  0.19731462706E+02  0.55703098276E+02  0.10000000000E+01 0.  0.
<mgrwt>
<rscale>  0 0.12499894E+03</rscale>
<asrwt>0</asrwt>
<pdfrwt beam="2">  1        4 0.12368570E-01 0.12499894E+03</pdfrwt>
<pdfrwt beam="1">  1       -4 0.74749186E-02 0.12499894E+03</pdfrwt>
<totfact> 0.10366567E+04</totfact>
</mgrwt>
</event>
<event>
 5    1  0.3308162E-002  0.1249986E+03  0.7818608E-02  0.1235071E+00
         -4   -1    0    0    0  501 -0.00000000000E+00  0.00000000000E+00  0.70944414193E+02  0.70955780632E+02  0.12700000000E+01 0. -1.
          4   -1    0    0  501    0  0.00000000000E+00 -0.00000000000E+00 -0.55036387667E+02  0.55051038750E+02  0.12700000000E+01 0. -1.
         25    2    1    2    0    0  0.00000000000E+00  0.00000000000E+00  0.15908026525E+02  0.12600681938E+03  0.12499861288E+03 0.  0.
    9000005    1    3    3    0    0  0.54753484227E+02  0.21502389121E+02 -0.13307967620E+02  0.60319141034E+02  0.10000000000E+01 0.  0.
    9000005    1    3    3    0    0 -0.54753484227E+02 -0.21502389121E+02  0.29215994145E+02  0.65687678348E+02  0.10000000000E+01 0.  0.
<mgrwt>
<rscale>  0 0.12499861E+03</rscale>
<asrwt>0</asrwt>
<pdfrwt beam="2">  1        4 0.84691380E-02 0.12499861E+03</pdfrwt>
<pdfrwt beam="1">  1       -4 0.10916527E-01 0.12499861E+03</pdfrwt>
<totfact> 0.10431134E+04</totfact>
</mgrwt>
</event>
<event>
 5    1  0.3308162E-002  0.1249994E+03  0.7818608E-02  0.1235070E+00
         -4   -1    0    0    0  501 -0.00000000000E+00  0.00000000000E+00  0.17031405920E+03  0.17031879421E+03  0.12700000000E+01 0. -1.
          4   -1    0    0  501    0  0.00000000000E+00 -0.00000000000E+00 -0.22912695722E+02  0.22947865374E+02  0.12700000000E+01 0. -1.
         25    2    1    2    0    0  0.00000000000E+00  0.00000000000E+00  0.14740136347E+03  0.19326665958E+03  0.12499935900E+03 0.  0.
    9000005    1    3    3    0    0 -0.10999127536E+02 -0.39721548582E+02  0.14632699622E+03  0.15202424824E+03  0.10000000000E+01 0.  0.
    9000005    1    3    3    0    0  0.10999127536E+02  0.39721548582E+02  0.10743672492E+01  0.41242411342E+02  0.10000000000E+01 0.  0.
<mgrwt>
<rscale>  0 0.12499936E+03</rscale>
<asrwt>0</asrwt>
<pdfrwt beam="2">  1        4 0.35280997E-02 0.12499936E+03</pdfrwt>
<pdfrwt beam="1">  1       -4 0.26205232E-01 0.12499936E+03</pdfrwt>
<totfact> 0.91283323E+03</totfact>
</mgrwt>
</event>
<event>
 5    1  0.3308162E-002  0.1250008E+03  0.7818608E-02  0.1235068E+00
          4   -1    0    0  501    0  0.00000000000E+00  0.00000000000E+00  0.26110541363E+03  0.26110850221E+03  0.12700000000E+01 0. -1.
         -4   -1    0    0    0  501 -0.00000000000E+00 -0.00000000000E+00 -0.14930481592E+02  0.14984397905E+02  0.12700000000E+01 0. -1.
         25    2    1    2    0    0  0.00000000000E+00  0.00000000000E+00  0.24617493204E+03  0.27609290012E+03  0.12500076932E+03 0.  0.
    9000005    1    3    3    0    0 -0.54478399744E+02 -0.13010526313E+02  0.61872245070E+02  0.83464630495E+02  0.10000000000E+01 0.  0.
    9000005    1    3    3    0    0  0.54478399744E+02  0.13010526313E+02  0.18430268697E+03  0.19262826962E+03  0.10000000000E+01 0.  0.
<mgrwt>
<rscale>  0 0.12500077E+03</rscale>
<asrwt>0</asrwt>
<pdfrwt beam="1">  1        4 0.40174449E-01 0.12500077E+03</pdfrwt>
<pdfrwt beam="2">  1       -4 0.23013821E-02 0.12500077E+03</pdfrwt>
<totfact> 0.78697678E+03</totfact>
</mgrwt>
</event>
<event>
 4    1  0.3308162E-002  0.1248865E+03  0.7818608E-02  0.1235247E+00
          4   -1    0    0  501    0  0.00000000000E+00  0.00000000000E+00  0.27346439603E+02  0.27375913847E+02  0.12700000000E+01 0.  1.
         -4   -1    0    0    0  501 -0.00000000000E+00 -0.00000000000E+00 -0.14247468021E+03  0.14248034040E+03  0.12700000000E+01 0.  1.
    9000005    1    1    2    0    0  0.16490402885E+02  0.46689198359E+01  0.24091142072E+02  0.29582348218E+02  0.10000000000E+01 0.  0.
    9000005    1    1    2    0    0 -0.16490402885E+02 -0.46689198359E+01 -0.13921938268E+03  0.14027390603E+03  0.10000000000E+01 0.  0.
<mgrwt>
<rscale>  0 0.12488649E+03</rscale>
<asrwt>0</asrwt>
<pdfrwt beam="1">  1        4 0.42098473E-02 0.12488649E+03</pdfrwt>
<pdfrwt beam="2">  1       -4 0.21921884E-01 0.12488649E+03</pdfrwt>
<totfact> 0.95719094E+03</totfact>
</mgrwt>
</event>
<event>
 5    1  0.3308162E-002  0.1249990E+03  0.7818608E-02  0.1235071E+00
         -4   -1    0    0    0  501 -0.00000000000E+00  0.00000000000E+00  0.52569117733E+03  0.52569271140E+03  0.12700000000E+01 0.  1.
          4   -1    0    0  501    0  0.00000000000E+00 -0.00000000000E+00 -0.73747573260E+01  0.74833111399E+01  0.12700000000E+01 0.  1.
         25    2    1    2    0    0  0.00000000000E+00  0.00000000000E+00  0.51831642000E+03  0.53317602254E+03  0.12499903907E+03 0.  0.
    9000005    1    3    3    0    0  0.22883730588E+02  0.26623079820E+02  0.47967517335E+03  0.48095917232E+03  0.10000000000E+01 0.  0.
    9000005    1    3    3    0    0 -0.22883730588E+02 -0.26623079820E+02  0.38641246648E+02  0.52216850223E+02  0.10000000000E+01 0.  0.
<mgrwt>
<rscale>  0 0.12499904E+03</rscale>
<asrwt>0</asrwt>
<pdfrwt beam="2">  1        4 0.11430462E-02 0.12499904E+03</pdfrwt>
<pdfrwt beam="1">  1       -4 0.80884042E-01 0.12499904E+03</pdfrwt>
<totfact> 0.53380286E+03</totfact>
</mgrwt>
</event>
<event>
 5    1  0.3308162E-002  0.1249997E+03  0.7818608E-02  0.1235070E+00
         -4   -1    0    0    0  501 -0.00000000000E+00  0.00000000000E+00  0.45687652146E+03  0.45687828660E+03  0.12700000000E+01 0. -1.
          4   -1    0    0  501    0  0.00000000000E+00 -0.00000000000E+00 -0.85009083106E+01  0.85952511368E+01  0.12700000000E+01 0. -1.
         25    2    1    2    0    0  0.00000000000E+00  0.00000000000E+00  0.44837561315E+03  0.46547353774E+03  0.12499969544E+03 0.  0.
    9000005    1    3    3    0    0  0.56669822033E+01 -0.27005754222E+02  0.15395795563E+02  0.31614173552E+02  0.10000000000E+01 0.  0.
    9000005    1    3    3    0    0 -0.56669822033E+01  0.27005754222E+02  0.43297981759E+03  0.43385936418E+03  0.10000000000E+01 0.  0.
<mgrwt>
<rscale>  0 0.12499970E+03</rscale>
<asrwt>0</asrwt>
<pdfrwt beam="2">  1        4 0.13152251E-02 0.12499970E+03</pdfrwt>
<pdfrwt beam="1">  1       -4 0.70296081E-01 0.12499970E+03</pdfrwt>
<totfact> 0.58646771E+03</totfact>
</mgrwt>
</event>
<event>
 5    1  0.3308162E-002  0.1250026E+03  0.7818608E-02  0.1235065E+00
          4   -1    0    0  501    0  0.00000000000E+00  0.00000000000E+00  0.10671810599E+04  0.10671818155E+04  0.12700000000E+01 0.  1.
         -4   -1    0    0    0  501 -0.00000000000E+00 -0.00000000000E+00 -0.35495615356E+01  0.37699187120E+01  0.12700000000E+01 0.  1.
         25    2    1    2    0    0  0.00000000000E+00  0.00000000000E+00  0.10636314983E+04  0.10709517343E+04  0.12500261147E+03 0.  0.
    9000005    1    3    3    0    0 -0.52873930521E+02  0.22903383902E+02  0.73906901076E+03  0.74131249834E+03  0.10000000000E+01 0.  0.
    9000005    1    3    3    0    0  0.52873930521E+02 -0.22903383902E+02  0.32456248757E+03  0.32963923592E+03  0.10000000000E+01 0.  0.
<mgrwt>
<rscale>  0 0.12500261E+03</rscale>
<asrwt>0</asrwt>
<pdfrwt beam="1">  1        4 0.16419881E+00 0.12500261E+03</pdfrwt>
<pdfrwt beam="2">  1       -4 0.56309472E-03 0.12500261E+03</pdfrwt>
<totfact> 0.28347855E+03</totfact>
</mgrwt>
</event>
<event>
 5    1  0.3308162E-002  0.1250012E+03  0.7818608E-02  0.1235067E+00
         -4   -1    0    0    0  501 -0.00000000000E+00  0.00000000000E+00  0.12029463679E+02  0.12096317473E+02  0.12700000000E+01 0.  1.
          4   -1    0    0  501    0  0.00000000000E+00 -0.00000000000E+00 -0.32376186314E+03  0.32376435400E+03  0.12700000000E+01 0.  1.
         25    2    1    2    0    0  0.00000000000E+00  0.00000000000E+00 -0.31173239946E+03  0.33586067147E+03  0.12500120708E+03 0.  0.
    9000005    1    3    3    0    0  0.19842193065E+02 -0.54506142932E+02 -0.21834323301E+03  0.22591901125E+03  0.10000000000E+01 0.  0.
    9000005    1    3    3    0    0 -0.19842193065E+02  0.54506142932E+02 -0.93389166446E+02  0.10994166022E+03  0.10000000000E+01 0.  0.
<mgrwt>
<rscale>  0 0.12500121E+03</rscale>
<asrwt>0</asrwt>
<pdfrwt beam="2">  1        4 0.49814845E-01 0.12500121E+03</pdfrwt>
<pdfrwt beam="1">  1       -4 0.18560212E-02 0.12500121E+03</pdfrwt>
<totfact> 0.71306683E+03</totfact>
</mgrwt>
</event>
<event>
 5    1  0.3308162E-002  0.1250002E+03  0.7818608E-02  0.1235069E+00
         -4   -1    0    0    0  501 -0.00000000000E+00  0.00000000000E+00  0.15926829493E+01  0.20370417219E+01  0.12700000000E+01 0. -1.
          4   -1    0    0  501    0  0.00000000000E+00 -0.00000000000E+00 -0.21519284186E+04  0.21519287933E+04  0.12700000000E+01 0. -1.
         25    2    1    2    0    0  0.00000000000E+00  0.00000000000E+00 -0.21503357356E+04  0.21539658351E+04  0.12500017068E+03 0.  0.
    9000005    1    3    3    0    0  0.23752818296E+02  0.29995621462E+02 -0.19265826384E+04  0.19269627906E+04  0.10000000000E+01 0.  0.
    9000005    1    3    3    0    0 -0.23752818296E+02 -0.29995621462E+02 -0.22375309726E+03  0.22700304451E+03  0.10000000000E+01 0.  0.
<mgrwt>
<rscale>  0 0.12500017E+03</rscale>
<asrwt>0</asrwt>
<pdfrwt beam="2">  1        4 0.33109808E+00 0.12500017E+03</pdfrwt>
<pdfrwt beam="1">  1       -4 0.27924014E-03 0.12500017E+03</pdfrwt>
<totfact> 0.79832225E+02</totfact>
</mgrwt>
</event>
<event>
 5    1  0.3308162E-002  0.1250029E+03  0.7818608E-02  0.1235065E+00
          4   -1    0    0  501    0  0.00000000000E+00  0.00000000000E+00  0.94854140886E+02  0.94862642506E+02  0.12700000000E+01 0.  1.
         -4   -1    0    0    0  501 -0.00000000000E+00 -0.00000000000E+00 -0.41163389882E+02  0.41182976660E+02  0.12700000000E+01 0.  1.
         25    2    1    2    0    0  0.00000000000E+00  0.00000000000E+00  0.53690751004E+02  0.13604561917E+03  0.12500285497E+03 0.  0.
    9000005    1    3    3    0    0  0.26365622136E+02  0.42234018588E+02  0.67951940310E+02  0.84245620352E+02  0.10000000000E+01 0.  0.
    9000005    1    3    3    0    0 -0.26365622136E+02 -0.42234018588E+02 -0.14261189305E+02  0.51799998814E+02  0.10000000000E+01 0.  0.
<mgrwt>
<rscale>  0 0.12500285E+03</rscale>
<asrwt>0</asrwt>
<pdfrwt beam="1">  1        4 0.14595105E-01 0.12500285E+03</pdfrwt>
<pdfrwt beam="2">  1       -4 0.63349900E-02 0.12500285E+03</pdfrwt>
<totfact> 0.10215421E+04</totfact>
</mgrwt>
</event>
<event>
 5    1  0.3308162E-002  0.1250026E+03  0.7818608E-02  0.1235065E+00
          4   -1    0    0  501    0  0.00000000000E+00  0.00000000000E+00  0.74127641729E+02  0.74138520139E+02  0.12700000000E+01 0.  1.
         -4   -1    0    0    0  501 -0.00000000000E+00 -0.00000000000E+00 -0.52676034122E+02  0.52691341517E+02  0.12700000000E+01 0.  1.
         25    2    1    2    0    0  0.00000000000E+00  0.00000000000E+00  0.21451607607E+02  0.12682986166E+03  0.12500256933E+03 0.  0.
    9000005    1    3    3    0    0  0.15338249697E+01 -0.61765036678E+02  0.20251236034E+02  0.65026032755E+02  0.10000000000E+01 0.  0.
    9000005    1    3    3    0    0 -0.15338249697E+01  0.61765036678E+02  0.12003715733E+01  0.61803828901E+02  0.10000000000E+01 0.  0.
<mgrwt>
<rscale>  0 0.12500257E+03</rscale>
<asrwt>0</asrwt>
<pdfrwt beam="1">  1        4 0.11406267E-01 0.12500257E+03</pdfrwt>
<pdfrwt beam="2">  1       -4 0.81060195E-02 0.12500257E+03</pdfrwt>
<totfact> 0.10412240E+04</totfact>
</mgrwt>
</event>
<event>
 5    1  0.3308162E-002  0.1249952E+03  0.7818608E-02  0.1235077E+00
          4   -1    0    0  501    0  0.00000000000E+00  0.00000000000E+00  0.43229965469E+02  0.43248616330E+02  0.12700000000E+01 0.  1.
         -4   -1    0    0    0  501 -0.00000000000E+00 -0.00000000000E+00 -0.90310207436E+02  0.90319136772E+02  0.12700000000E+01 0.  1.
         25    2    1    2    0    0  0.00000000000E+00  0.00000000000E+00 -0.47080241967E+02  0.13356775310E+03  0.12499518185E+03 0.  0.
    9000005    1    3    3    0    0  0.35467773920E+01  0.17730232467E+02 -0.87458978990E+02  0.89314129784E+02  0.10000000000E+01 0.  0.
    9000005    1    3    3    0    0 -0.35467773920E+01 -0.17730232467E+02  0.40378737022E+02  0.44253623317E+02  0.10000000000E+01 0.  0.
<mgrwt>
<rscale>  0 0.12499518E+03</rscale>
<asrwt>0</asrwt>
<pdfrwt beam="1">  1        4 0.66528855E-02 0.12499518E+03</pdfrwt>
<pdfrwt beam="2">  1       -4 0.13896000E-01 0.12499518E+03</pdfrwt>
<totfact> 0.10269464E+04</totfact>
</mgrwt>
</event>
<event>
 5    1  0.3308162E-002  0.1249604E+03  0.7818608E-02  0.1235131E+00
          4   -1    0    0  501    0  0.00000000000E+00  0.00000000000E+00  0.20824539201E+03  0.20824926457E+03  0.12700000000E+01 0.  1.
         -4   -1    0    0    0  501 -0.00000000000E+00 -0.00000000000E+00 -0.18720483731E+02  0.18763512761E+02  0.12700000000E+01 0.  1.
         25    2    1    2    0    0  0.00000000000E+00  0.00000000000E+00  0.18952490828E+03  0.22701277733E+03  0.12496043459E+03 0.  0.
    9000005    1    3    3    0    0  0.51177396821E+02  0.32689027816E+02  0.12140506909E+03  0.13574936201E+03  0.10000000000E+01 0.  0.
    9000005    1    3    3    0    0 -0.51177396821E+02 -0.32689027816E+02  0.68119839183E+02  0.91263415317E+02  0.10000000000E+01 0.  0.
<mgrwt>
<rscale>  0 0.12496043E+03</rscale>
<asrwt>0</asrwt>
<pdfrwt beam="1">  1        4 0.32041360E-01 0.12496043E+03</pdfrwt>
<pdfrwt beam="2">  1       -4 0.28836823E-02 0.12496043E+03</pdfrwt>
<totfact> 0.85846186E+03</totfact>
</mgrwt>
</event>
<event>
 5    1  0.3308162E-002  0.1250026E+03  0.7818608E-02  0.1235065E+00
         -4   -1    0    0    0  501 -0.00000000000E+00  0.00000000000E+00  0.18790458712E+02  0.18833327869E+02  0.12700000000E+01 0.  1.
          4   -1    0    0  501    0  0.00000000000E+00 -0.00000000000E+00 -0.20761165255E+03  0.20761553693E+03  0.12700000000E+01 0.  1.
         25    2    1    2    0    0  0.00000000000E+00  0.00000000000E+00 -0.18882119384E+03  0.22644886480E+03  0.12500258048E+03 0.  0.
    9000005    1    3    3    0    0  0.46051669375E+02  0.42122793911E+02 -0.10023165214E+03  0.11807823724E+03  0.10000000000E+01 0.  0.
    9000005    1    3    3    0    0 -0.46051669375E+02 -0.42122793911E+02 -0.88589541698E+02  0.10837062756E+03  0.10000000000E+01 0.  0.
<mgrwt>
<rscale>  0 0.12500258E+03</rscale>
<asrwt>0</asrwt>
<pdfrwt beam="2">  1        4 0.31943849E-01 0.12500258E+03</pdfrwt>
<pdfrwt beam="1">  1       -4 0.28944364E-02 0.12500258E+03</pdfrwt>
<totfact> 0.85852933E+03</totfact>
</mgrwt>
</event>
<event>
 4    1  0.3308162E-002  0.1249224E+03  0.7818608E-02  0.1235191E+00
          4   -1    0    0  501    0  0.00000000000E+00  0.00000000000E+00  0.11599268836E+03  0.11599964075E+03  0.12700000000E+01 0. -1.
         -4   -1    0    0    0  501 -0.00000000000E+00 -0.00000000000E+00 -0.33614962011E+02  0.33638944261E+02  0.12700000000E+01 0. -1.
    9000005    1    1    2    0    0 -0.19461442135E+02  0.57550479478E+02  0.58530791389E+02  0.84366219299E+02  0.10000000000E+01 0.  0.
    9000005    1    1    2    0    0  0.19461442135E+02 -0.57550479478E+02  0.23846934961E+02  0.65272365708E+02  0.10000000000E+01 0.  0.
<mgrwt>
<rscale>  0 0.12492244E+03</rscale>
<asrwt>0</asrwt>
<pdfrwt beam="1">  1        4 0.17847408E-01 0.12492244E+03</pdfrwt>
<pdfrwt beam="2">  1       -4 0.51739123E-02 0.12492244E+03</pdfrwt>
<totfact> 0.99549456E+03</totfact>
</mgrwt>
</event>
<event>
 5    1  0.3308162E-002  0.1250059E+03  0.7818608E-02  0.1235060E+00
          4   -1    0    0  501    0  0.00000000000E+00  0.00000000000E+00  0.33115358153E+03  0.33115601680E+03  0.12700000000E+01 0. -1.
         -4   -1    0    0    0  501 -0.00000000000E+00 -0.00000000000E+00 -0.11760324817E+02  0.11828699836E+02  0.12700000000E+01 0. -1.
         25    2    1    2    0    0  0.00000000000E+00  0.00000000000E+00  0.31939325671E+03  0.34298471663E+03  0.12500585350E+03 0.  0.
    9000005    1    3    3    0    0  0.55352072407E+02  0.93922690954E+01  0.23501487983E+03  0.24163000720E+03  0.10000000000E+01 0.  0.
    9000005    1    3    3    0    0 -0.55352072407E+02 -0.93922690954E+01  0.84378376881E+02  0.10135470943E+03  0.10000000000E+01 0.  0.
<mgrwt>
<rscale>  0 0.12500585E+03</rscale>
<asrwt>0</asrwt>
<pdfrwt beam="1">  1        4 0.50952157E-01 0.12500585E+03</pdfrwt>
<pdfrwt beam="2">  1       -4 0.18147275E-02 0.12500585E+03</pdfrwt>
<totfact> 0.70494140E+03</totfact>
</mgrwt>
</event>
<event>
 5    1  0.3308162E-002  0.1249976E+03  0.7818608E-02  0.1235073E+00
         -4   -1    0    0    0  501 -0.00000000000E+00  0.00000000000E+00  0.86937058231E+02  0.86946333987E+02  0.12700000000E+01 0. -1.
          4   -1    0    0  501    0  0.00000000000E+00 -0.00000000000E+00 -0.44909536999E+02  0.44927490621E+02  0.12700000000E+01 0. -1.
         25    2    1    2    0    0  0.00000000000E+00  0.00000000000E+00  0.42027521232E+02  0.13187382461E+03  0.12499757228E+03 0.  0.
    9000005    1    3    3    0    0 -0.49801242651E+02  0.29346125822E+02 -0.40355753464E+01  0.57953815567E+02  0.10000000000E+01 0.  0.
    9000005    1    3    3    0    0  0.49801242651E+02 -0.29346125822E+02  0.46063096578E+02  0.73920009042E+02  0.10000000000E+01 0.  0.
<mgrwt>
<rscale>  0 0.12499757E+03</rscale>
<asrwt>0</asrwt>
<pdfrwt beam="2">  1        4 0.69112541E-02 0.12499757E+03</pdfrwt>
<pdfrwt beam="1">  1       -4 0.13377027E-01 0.12499757E+03</pdfrwt>
<totfact> 0.10304957E+04</totfact>
</mgrwt>
</event>
<event>
 5    1  0.3308162E-002  0.1250002E+03  0.7818608E-02  0.1235069E+00
         -4   -1    0    0    0  501 -0.00000000000E+00  0.00000000000E+00  0.57521278220E+02  0.57535296541E+02  0.12700000000E+01 0.  1.
          4   -1    0    0  501    0  0.00000000000E+00 -0.00000000000E+00 -0.67881629539E+02  0.67893508739E+02  0.12700000000E+01 0.  1.
         25    2    1    2    0    0  0.00000000000E+00  0.00000000000E+00 -0.10360351319E+02  0.12542880528E+03  0.12500019326E+03 0.  0.
    9000005    1    3    3    0    0  0.28565143806E+02  0.43086590469E+02 -0.40412396775E+02  0.65624565004E+02  0.10000000000E+01 0.  0.
    9000005    1    3    3    0    0 -0.28565143806E+02 -0.43086590469E+02  0.30052045456E+02  0.59804240276E+02  0.10000000000E+01 0.  0.
<mgrwt>
<rscale>  0 0.12500019E+03</rscale>
<asrwt>0</asrwt>
<pdfrwt beam="2">  1        4 0.10445320E-01 0.12500019E+03</pdfrwt>
<pdfrwt beam="1">  1       -4 0.88514195E-02 0.12500019E+03</pdfrwt>
<totfact> 0.10443483E+04</totfact>
</mgrwt>
</event>
<event>
 5    1  0.3308162E-002  0.1249996E+03  0.7818608E-02  0.1235070E+00
         -4   -1    0    0    0  501 -0.00000000000E+00  0.00000000000E+00  0.88580175277E+02  0.88589278990E+02  0.12700000000E+01 0.  1.
          4   -1    0    0  501    0  0.00000000000E+00 -0.00000000000E+00 -0.44077697729E+02  0.44095990034E+02  0.12700000000E+01 0.  1.
         25    2    1    2    0    0  0.00000000000E+00  0.00000000000E+00  0.44502477548E+02  0.13268526902E+03  0.12499964043E+03 0.  0.
    9000005    1    3    3    0    0 -0.65028673208E+01  0.60961899729E+02  0.35102972270E+02  0.70653090266E+02  0.10000000000E+01 0.  0.
    9000005    1    3    3    0    0  0.65028673208E+01 -0.60961899729E+02  0.93995052787E+01  0.62032178758E+02  0.10000000000E+01 0.  0.
<mgrwt>
<rscale>  0 0.12499964E+03</rscale>
<asrwt>0</asrwt>
<pdfrwt beam="2">  1        4 0.67832918E-02 0.12499964E+03</pdfrwt>
<pdfrwt beam="1">  1       -4 0.13629826E-01 0.12499964E+03</pdfrwt>
<totfact> 0.10287177E+04</totfact>
</mgrwt>
</event>
<event>
 5    1  0.3308162E-002  0.1249994E+03  0.7818608E-02  0.1235070E+00
         -4   -1    0    0    0  501 -0.00000000000E+00  0.00000000000E+00  0.20004255742E+02  0.20044529124E+02  0.12700000000E+01 0.  1.
          4   -1    0    0  501    0  0.00000000000E+00 -0.00000000000E+00 -0.19503050650E+03  0.19503464145E+03  0.12700000000E+01 0.  1.
         25    2    1    2    0    0  0.00000000000E+00  0.00000000000E+00 -0.17502625076E+03  0.21507917057E+03  0.12499944464E+03 0.  0.
    9000005    1    3    3    0    0  0.17033768368E+02  0.50328210163E+02 -0.30911167947E+02  0.61478275080E+02  0.10000000000E+01 0.  0.
    9000005    1    3    3    0    0 -0.17033768368E+02 -0.50328210163E+02 -0.14411508281E+03  0.15360089549E+03  0.10000000000E+01 0.  0.
<mgrwt>
<rscale>  0 0.12499944E+03</rscale>
<asrwt>0</asrwt>
<pdfrwt beam="2">  1        4 0.30008108E-01 0.12499944E+03</pdfrwt>
<pdfrwt beam="1">  1       -4 0.30809940E-02 0.12499944E+03</pdfrwt>
<totfact> 0.87654134E+03</totfact>
</mgrwt>
</event>
<event>
 5    1  0.3308162E-002  0.1250126E+03  0.7818608E-02  0.1235050E+00
         -4   -1    0    0    0  501 -0.00000000000E+00  0.00000000000E+00  0.35781638908E+03  0.35781864288E+03  0.12700000000E+01 0. -1.
          4   -1    0    0  501    0  0.00000000000E+00 -0.00000000000E+00 -0.10879887385E+02  0.10953759607E+02  0.12700000000E+01 0. -1.
         25    2    1    2    0    0  0.00000000000E+00  0.00000000000E+00  0.34693650170E+03  0.36877240249E+03  0.12501259388E+03 0.  0.
    9000005    1    3    3    0    0 -0.51764361273E+02  0.12341439765E+02  0.27014956733E+03  0.27534278447E+03  0.10000000000E+01 0.  0.
    9000005    1    3    3    0    0  0.51764361273E+02 -0.12341439765E+02  0.76786934369E+02  0.93429618020E+02  0.10000000000E+01 0.  0.
<mgrwt>
<rscale>  0 0.12501259E+03</rscale>
<asrwt>0</asrwt>
<pdfrwt beam="2">  1        4 0.16796848E-02 0.12501259E+03</pdfrwt>
<pdfrwt beam="1">  1       -4 0.55054526E-01 0.12501259E+03</pdfrwt>
<totfact> 0.67688715E+03</totfact>
</mgrwt>
</event>
<event>
 5    1  0.3308162E-002  0.1249940E+03  0.7818608E-02  0.1235079E+00
          4   -1    0    0  501    0  0.00000000000E+00  0.00000000000E+00  0.10184160402E+04  0.10184168320E+04  0.12700000000E+01 0. -1.
         -4   -1    0    0    0  501 -0.00000000000E+00 -0.00000000000E+00 -0.37292942747E+01  0.39396111213E+01  0.12700000000E+01 0. -1.
         25    2    1    2    0    0  0.00000000000E+00  0.00000000000E+00  0.10146867459E+04  0.10223564432E+04  0.12499401814E+03 0.  0.
    9000005    1    3    3    0    0 -0.30166473836E+01 -0.15148588958E+02  0.12090634825E+02  0.19640859435E+02  0.10000000000E+01 0.  0.
    9000005    1    3    3    0    0  0.30166473836E+01  0.15148588958E+02  0.10025961111E+04  0.10027155837E+04  0.10000000000E+01 0.  0.
<mgrwt>
<rscale>  0 0.12499402E+03</rscale>
<asrwt>0</asrwt>
<pdfrwt beam="1">  1        4 0.15669580E+00 0.12499402E+03</pdfrwt>
<pdfrwt beam="2">  1       -4 0.58997606E-03 0.12499402E+03</pdfrwt>
<totfact> 0.29877697E+03</totfact>
</mgrwt>
</event>
<event>
 5    1  0.3308162E-002  0.1249972E+03  0.7818608E-02  0.1235074E+00
          4   -1    0    0  501    0  0.00000000000E+00  0.00000000000E+00  0.25687891896E+03  0.25688205836E+03  0.12700000000E+01 0. -1.
         -4   -1    0    0    0  501 -0.00000000000E+00 -0.00000000000E+00 -0.15176139967E+02  0.15229186593E+02  0.12700000000E+01 0. -1.
         25    2    1    2    0    0  0.00000000000E+00  0.00000000000E+00  0.24170277899E+03  0.27211124495E+03  0.12499718499E+03 0.  0.
    9000005    1    3    3    0    0  0.11629910861E+02 -0.38514805837E+02  0.22494524959E+03  0.22851698057E+03  0.10000000000E+01 0.  0.
    9000005    1    3    3    0    0 -0.11629910861E+02  0.38514805837E+02  0.16757529402E+02  0.43594264381E+02  0.10000000000E+01 0.  0.
<mgrwt>
<rscale>  0 0.12499718E+03</rscale>
<asrwt>0</asrwt>
<pdfrwt beam="1">  1        4 0.39524158E-01 0.12499718E+03</pdfrwt>
<pdfrwt beam="2">  1       -4 0.23391126E-02 0.12499718E+03</pdfrwt>
<totfact> 0.79240818E+03</totfact>
</mgrwt>
</event>
<event>
 5    1  0.3308162E-002  0.1250001E+03  0.7818608E-02  0.1235069E+00
         -4   -1    0    0    0  501 -0.00000000000E+00  0.00000000000E+00  0.27457993876E+03  0.27458287578E+03  0.12700000000E+01 0. -1.
          4   -1    0    0  501    0  0.00000000000E+00 -0.00000000000E+00 -0.14194941975E+02  0.14251641227E+02  0.12700000000E+01 0. -1.
         25    2    1    2    0    0  0.00000000000E+00  0.00000000000E+00  0.26038499679E+03  0.28883451701E+03  0.12500012665E+03 0.  0.
    9000005    1    3    3    0    0  0.28536058474E+02  0.50583247638E+02  0.76882177108E+02  0.96357878410E+02  0.10000000000E+01 0.  0.
    9000005    1    3    3    0    0 -0.28536058474E+02 -0.50583247638E+02  0.18350281968E+03  0.19247663860E+03  0.10000000000E+01 0.  0.
<mgrwt>
<rscale>  0 0.12500013E+03</rscale>
<asrwt>0</asrwt>
<pdfrwt beam="2">  1        4 0.21884248E-02 0.12500013E+03</pdfrwt>
<pdfrwt beam="1">  1       -4 0.42247651E-01 0.12500013E+03</pdfrwt>
<totfact> 0.77020892E+03</totfact>
</mgrwt>
</event>
<event>
 5    1  0.3308162E-002  0.1250000E+03  0.7818608E-02  0.1235069E+00
         -4   -1    0    0    0  501 -0.00000000000E+00  0.00000000000E+00  0.11906311704E+03  0.11906989014E+03  0.12700000000E+01 0.  1.
          4   -1    0    0  501    0  0.00000000000E+00 -0.00000000000E+00 -0.32788222200E+02  0.32812808704E+02  0.12700000000E+01 0.  1.
         25    2    1    2    0    0  0.00000000000E+00  0.00000000000E+00  0.86274894838E+02  0.15188269885E+03  0.12499998692E+03 0.  0.
    9000005    1    3    3    0    0  0.27617847709E+02  0.28439758359E+02  0.10183491237E+03  0.10928364354E+03  0.10000000000E+01 0.  0.
    9000005    1    3    3    0    0 -0.27617847709E+02 -0.28439758359E+02 -0.15560017533E+02  0.42599055309E+02  0.10000000000E+01 0.  0.
<mgrwt>
<rscale>  0 0.12499999E+03</rscale>
<asrwt>0</asrwt>
<pdfrwt beam="2">  1        4 0.50467541E-02 0.12499999E+03</pdfrwt>
<pdfrwt beam="1">  1       -4 0.18319815E-01 0.12499999E+03</pdfrwt>
<totfact> 0.98929755E+03</totfact>
</mgrwt>
</event>
<event>
 5    1  0.3308162E-002  0.1250000E+03  0.7818608E-02  0.1235069E+00
          4   -1    0    0  501    0  0.00000000000E+00  0.00000000000E+00  0.26024146217E+02  0.26055116317E+02  0.12700000000E+01 0. -1.
         -4   -1    0    0    0  501 -0.00000000000E+00 -0.00000000000E+00 -0.14997812823E+03  0.14998350525E+03  0.12700000000E+01 0. -1.
         25    2    1    2    0    0  0.00000000000E+00  0.00000000000E+00 -0.12395398201E+03  0.17603862157E+03  0.12500002651E+03 0.  0.
    9000005    1    3    3    0    0  0.35841291290E+01  0.62205540832E+02 -0.68712824794E+02  0.92762209886E+02  0.10000000000E+01 0.  0.
    9000005    1    3    3    0    0 -0.35841291290E+01 -0.62205540832E+02 -0.55241157220E+02  0.83276411683E+02  0.10000000000E+01 0.  0.
<mgrwt>
<rscale>  0 0.12500003E+03</rscale>
<asrwt>0</asrwt>
<pdfrwt beam="1">  1        4 0.40065108E-02 0.12500003E+03</pdfrwt>
<pdfrwt beam="2">  1       -4 0.23076354E-01 0.12500003E+03</pdfrwt>
<totfact> 0.94334907E+03</totfact>
</mgrwt>
</event>
<event>
 5    1  0.3308162E-002  0.1249995E+03  0.7818608E-02  0.1235070E+00
          4   -1    0    0  501    0  0.00000000000E+00  0.00000000000E+00  0.42777009149E+02  0.42795857414E+02  0.12700000000E+01 0.  1.
         -4   -1    0    0    0  501 -0.00000000000E+00 -0.00000000000E+00 -0.91272516112E+02  0.91281351313E+02  0.12700000000E+01 0.  1.
         25    2    1    2    0    0  0.00000000000E+00  0.00000000000E+00 -0.48495506963E+02  0.13407720873E+03  0.12499953482E+03 0.  0.
    9000005    1    3    3    0    0  0.47142897476E+02 -0.99481854128E+00 -0.68235423526E+02  0.82948872627E+02  0.10000000000E+01 0.  0.
    9000005    1    3    3    0    0 -0.47142897476E+02  0.99481854128E+00  0.19739916563E+02  0.51128336099E+02  0.10000000000E+01 0.  0.
<mgrwt>
<rscale>  0 0.12499953E+03</rscale>
<asrwt>0</asrwt>
<pdfrwt beam="1">  1        4 0.65832078E-02 0.12499953E+03</pdfrwt>
<pdfrwt beam="2">  1       -4 0.14044055E-01 0.12499953E+03</pdfrwt>
<totfact> 0.10257665E+04</totfact>
</mgrwt>
</event>
<event>
 5    1  0.3308162E-002  0.1250019E+03  0.7818608E-02  0.1235066E+00
         -4   -1    0    0    0  501 -0.00000000000E+00  0.00000000000E+00  0.10768830986E+04  0.10768838474E+04  0.12700000000E+01 0. -1.
          4   -1    0    0  501    0  0.00000000000E+00 -0.00000000000E+00 -0.35155447100E+01  0.37379077849E+01  0.12700000000E+01 0. -1.
         25    2    1    2    0    0  0.00000000000E+00  0.00000000000E+00  0.10733675539E+04  0.10806217552E+04  0.12500188876E+03 0.  0.
    9000005    1    3    3    0    0 -0.56812645966E+02 -0.25920979168E+02  0.51587474637E+03  0.51964153784E+03  0.10000000000E+01 0.  0.
    9000005    1    3    3    0    0  0.56812645966E+02  0.25920979168E+02  0.55749280749E+03  0.56098021739E+03  0.10000000000E+01 0.  0.
<mgrwt>
<rscale>  0 0.12500189E+03</rscale>
<asrwt>0</asrwt>
<pdfrwt beam="2">  1        4 0.55801452E-03 0.12500189E+03</pdfrwt>
<pdfrwt beam="1">  1       -4 0.16569177E+00 0.12500189E+03</pdfrwt>
<totfact> 0.28056356E+03</totfact>
</mgrwt>
</event>
<event>
 5    1  0.3308162E-002  0.1249979E+03  0.7818608E-02  0.1235073E+00
          4   -1    0    0  501    0  0.00000000000E+00  0.00000000000E+00  0.41171515110E+02  0.41191098025E+02  0.12700000000E+01 0. -1.
         -4   -1    0    0    0  501 -0.00000000000E+00 -0.00000000000E+00 -0.94827968086E+02  0.94836472052E+02  0.12700000000E+01 0. -1.
         25    2    1    2    0    0  0.00000000000E+00  0.00000000000E+00 -0.53656452976E+02  0.13602757008E+03  0.12499793948E+03 0.  0.
    9000005    1    3    3    0    0 -0.42233488760E+02  0.42980745472E+02 -0.88110860332E+01  0.60906873925E+02  0.10000000000E+01 0.  0.
    9000005    1    3    3    0    0  0.42233488760E+02 -0.42980745472E+02 -0.44845366943E+02  0.75120696152E+02  0.10000000000E+01 0.  0.
<mgrwt>
<rscale>  0 0.12499794E+03</rscale>
<asrwt>0</asrwt>
<pdfrwt beam="1">  1        4 0.63362398E-02 0.12499794E+03</pdfrwt>
<pdfrwt beam="2">  1       -4 0.14591079E-01 0.12499794E+03</pdfrwt>
<totfact> 0.10216932E+04</totfact>
</mgrwt>
</event>
<event>
 5    1  0.3308162E-002  0.1250154E+03  0.7818608E-02  0.1235045E+00
          4   -1    0    0  501    0  0.00000000000E+00  0.00000000000E+00  0.85537713901E+02  0.85547141387E+02  0.12700000000E+01 0.  1.
         -4   -1    0    0    0  501 -0.00000000000E+00 -0.00000000000E+00 -0.45657468053E+02  0.45675127685E+02  0.12700000000E+01 0.  1.
         25    2    1    2    0    0  0.00000000000E+00  0.00000000000E+00  0.39880245848E+02  0.13122226907E+03  0.12501539862E+03 0.  0.
    9000005    1    3    3    0    0  0.26849237565E+02 -0.53489055722E+02  0.10391024232E+01  0.59866855385E+02  0.10000000000E+01 0.  0.
    9000005    1    3    3    0    0 -0.26849237565E+02  0.53489055722E+02  0.38841143425E+02  0.71355413687E+02  0.10000000000E+01 0.  0.
<mgrwt>
<rscale>  0 0.12501540E+03</rscale>
<asrwt>0</asrwt>
<pdfrwt beam="1">  1        4 0.13161732E-01 0.12501540E+03</pdfrwt>
<pdfrwt beam="2">  1       -4 0.70263097E-02 0.12501540E+03</pdfrwt>
<totfact> 0.10314743E+04</totfact>
</mgrwt>
</event>
<event>
 5    1  0.3308162E-002  0.1249943E+03  0.7818608E-02  0.1235078E+00
          4   -1    0    0  501    0  0.00000000000E+00  0.00000000000E+00  0.66054943363E+01  0.67264742196E+01  0.12700000000E+01 0. -1.
         -4   -1    0    0    0  501 -0.00000000000E+00 -0.00000000000E+00 -0.58582217503E+03  0.58582355164E+03  0.12700000000E+01 0. -1.
         25    2    1    2    0    0  0.00000000000E+00  0.00000000000E+00 -0.57921668070E+03  0.59255002586E+03  0.12499427968E+03 0.  0.
    9000005    1    3    3    0    0  0.50736171492E+02  0.65562053784E+01 -0.45972646584E+03  0.46256520224E+03  0.10000000000E+01 0.  0.
    9000005    1    3    3    0    0 -0.50736171492E+02 -0.65562053784E+01 -0.11949021485E+03  0.12998482362E+03  0.10000000000E+01 0.  0.
<mgrwt>
<rscale>  0 0.12499428E+03</rscale>
<asrwt>0</asrwt>
<pdfrwt beam="1">  1        4 0.10256424E-02 0.12499428E+03</pdfrwt>
<pdfrwt beam="2">  1       -4 0.90135860E-01 0.12499428E+03</pdfrwt>
<totfact> 0.49347483E+03</totfact>
</mgrwt>
</event>
<event>
 5    1  0.3308162E-002  0.1250128E+03  0.7818608E-02  0.1235049E+00
          4   -1    0    0  501    0  0.00000000000E+00  0.00000000000E+00  0.28846662759E+03  0.28846942322E+03  0.12700000000E+01 0.  1.
         -4   -1    0    0    0  501 -0.00000000000E+00 -0.00000000000E+00 -0.13511551668E+02  0.13571106383E+02  0.12700000000E+01 0.  1.
         25    2    1    2    0    0  0.00000000000E+00  0.00000000000E+00  0.27495507592E+03  0.30204052960E+03  0.12501275034E+03 0.  0.
    9000005    1    3    3    0    0 -0.43220357661E+02  0.22360302019E+02  0.23223167688E+03  0.23727733598E+03  0.10000000000E+01 0.  0.
    9000005    1    3    3    0    0  0.43220357661E+02 -0.22360302019E+02  0.42723399040E+02  0.64763193622E+02  0.10000000000E+01 0.  0.
<mgrwt>
<rscale>  0 0.12501275E+03</rscale>
<asrwt>0</asrwt>
<pdfrwt beam="1">  1        4 0.44384278E-01 0.12501275E+03</pdfrwt>
<pdfrwt beam="2">  1       -4 0.20834964E-02 0.12501275E+03</pdfrwt>
<totfact> 0.75322268E+03</totfact>
</mgrwt>
</event>
<event>
 5    1  0.3308162E-002  0.1249989E+03  0.7818608E-02  0.1235071E+00
          4   -1    0    0  501    0  0.00000000000E+00  0.00000000000E+00  0.87991608689E+01  0.88903392509E+01  0.12700000000E+01 0.  1.
         -4   -1    0    0    0  501 -0.00000000000E+00 -0.00000000000E+00 -0.44154651110E+03  0.44154833752E+03  0.12700000000E+01 0.  1.
         25    2    1    2    0    0  0.00000000000E+00  0.00000000000E+00 -0.43274735023E+03  0.45043867677E+03  0.12499892958E+03 0.  0.
    9000005    1    3    3    0    0  0.12345291215E+02  0.31104520531E+02 -0.40655341703E+03  0.40792962421E+03  0.10000000000E+01 0.  0.
    9000005    1    3    3    0    0 -0.12345291215E+02 -0.31104520531E+02 -0.26193933205E+02  0.42509052558E+02  0.10000000000E+01 0.  0.
<mgrwt>
<rscale>  0 0.12499893E+03</rscale>
<asrwt>0</asrwt>
<pdfrwt beam="1">  1        4 0.13608716E-02 0.12499893E+03</pdfrwt>
<pdfrwt beam="2">  1       -4 0.67937369E-01 0.12499893E+03</pdfrwt>
<totfact> 0.59927232E+03</totfact>
</mgrwt>
</event>
<event>
 5    1  0.3308162E-002  0.1249985E+03  0.7818608E-02  0.1235072E+00
          4   -1    0    0  501    0  0.00000000000E+00  0.00000000000E+00  0.83953841447E+02  0.83963446771E+02  0.12700000000E+01 0. -1.
         -4   -1    0    0    0  501 -0.00000000000E+00 -0.00000000000E+00 -0.46506456059E+02  0.46523793430E+02  0.12700000000E+01 0. -1.
         25    2    1    2    0    0  0.00000000000E+00  0.00000000000E+00  0.37447385389E+02  0.13048724020E+03  0.12499845272E+03 0.  0.
    9000005    1    3    3    0    0 -0.42448671600E+02  0.44736203974E+02  0.81840372725E+01  0.62218937091E+02  0.10000000000E+01 0.  0.
    9000005    1    3    3    0    0  0.42448671600E+02 -0.44736203974E+02  0.29263348116E+02  0.68268303111E+02  0.10000000000E+01 0.  0.
<mgrwt>
<rscale>  0 0.12499845E+03</rscale>
<asrwt>0</asrwt>
<pdfrwt beam="1">  1        4 0.12918048E-01 0.12499845E+03</pdfrwt>
<pdfrwt beam="2">  1       -4 0.71569120E-02 0.12499845E+03</pdfrwt>
<totfact> 0.10334455E+04</totfact>
</mgrwt>
</event>
<event>
 5    1  0.3308162E-002  0.1249984E+03  0.7818608E-02  0.1235072E+00
         -4   -1    0    0    0  501 -0.00000000000E+00  0.00000000000E+00  0.33399504408E+02  0.33423641254E+02  0.12700000000E+01 0.  1.
          4   -1    0    0  501    0  0.00000000000E+00 -0.00000000000E+00 -0.11688243295E+03  0.11688933242E+03  0.12700000000E+01 0.  1.
         25    2    1    2    0    0  0.00000000000E+00  0.00000000000E+00 -0.83482928545E+02  0.15031297367E+03  0.12499836277E+03 0.  0.
    9000005    1    3    3    0    0 -0.24511745998E+02  0.61559369752E+01 -0.11046865338E+03  0.11332715752E+03  0.10000000000E+01 0.  0.
    9000005    1    3    3    0    0  0.24511745998E+02 -0.61559369752E+01  0.26985724832E+02  0.36985816155E+02  0.10000000000E+01 0.  0.
<mgrwt>
<rscale>  0 0.12499836E+03</rscale>
<asrwt>0</asrwt>
<pdfrwt beam="2">  1        4 0.17984300E-01 0.12499836E+03</pdfrwt>
<pdfrwt beam="1">  1       -4 0.51407727E-02 0.12499836E+03</pdfrwt>
<totfact> 0.99245005E+03</totfact>
</mgrwt>
</event>
<event>
 5    1  0.3308162E-002  0.1250000E+03  0.7818608E-02  0.1235069E+00
         -4   -1    0    0    0  501 -0.00000000000E+00  0.00000000000E+00  0.57874898734E+02  0.57888831422E+02  0.12700000000E+01 0. -1.
          4   -1    0    0  501    0  0.00000000000E+00 -0.00000000000E+00 -0.67466700642E+02  0.67478652888E+02  0.12700000000E+01 0. -1.
         25    2    1    2    0    0  0.00000000000E+00  0.00000000000E+00 -0.95918019083E+01  0.12536748431E+03  0.12500001383E+03 0.  0.
    9000005    1    3    3    0    0  0.46526161366E+02 -0.27203552962E+02  0.26928304192E+02  0.60256539495E+02  0.10000000000E+01 0.  0.
    9000005    1    3    3    0    0 -0.46526161366E+02  0.27203552962E+02 -0.36520106100E+02  0.65110944816E+02  0.10000000000E+01 0.  0.
<mgrwt>
<rscale>  0 0.12500001E+03</rscale>
<asrwt>0</asrwt>
<pdfrwt beam="2">  1        4 0.10381484E-01 0.12500001E+03</pdfrwt>
<pdfrwt beam="1">  1       -4 0.89058217E-02 0.12500001E+03</pdfrwt>
<totfact> 0.10444883E+04</totfact>
</mgrwt>
</event>
<event>
 5    1  0.3308162E-002  0.1250038E+03  0.7818608E-02  0.1235063E+00
         -4   -1    0    0    0  501 -0.00000000000E+00  0.00000000000E+00  0.34874214627E+02  0.34897331501E+02  0.12700000000E+01 0.  1.
          4   -1    0    0  501    0  0.00000000000E+00 -0.00000000000E+00 -0.11195259751E+03  0.11195980077E+03  0.12700000000E+01 0.  1.
         25    2    1    2    0    0  0.00000000000E+00  0.00000000000E+00 -0.77078382881E+02  0.14685713227E+03  0.12500376071E+03 0.  0.
    9000005    1    3    3    0    0 -0.15869860088E+01 -0.10025293682E+02 -0.11098350341E+03  0.11145116898E+03  0.10000000000E+01 0.  0.
    9000005    1    3    3    0    0  0.15869860088E+01  0.10025293682E+02  0.33905120533E+02  0.35405963288E+02  0.10000000000E+01 0.  0.
<mgrwt>
<rscale>  0 0.12500376E+03</rscale>
<asrwt>0</asrwt>
<pdfrwt beam="2">  1        4 0.17225809E-01 0.12500376E+03</pdfrwt>
<pdfrwt beam="1">  1       -4 0.53675961E-02 0.12500376E+03</pdfrwt>
<totfact> 0.99925452E+03</totfact>
</mgrwt>
</event>
<event>
 5    1  0.3308162E-002  0.1250047E+03  0.7818608E-02  0.1235062E+00
          4   -1    0    0  501    0  0.00000000000E+00  0.00000000000E+00  0.85119004637E+02  0.85128478492E+02  0.12700000000E+01 0.  1.
         -4   -1    0    0    0  501 -0.00000000000E+00 -0.00000000000E+00 -0.45874232617E+02  0.45891808836E+02  0.12700000000E+01 0.  1.
         25    2    1    2    0    0  0.00000000000E+00  0.00000000000E+00  0.39244772019E+02  0.13102028733E+03  0.12500465416E+03 0.  0.
    9000005    1    3    3    0    0 -0.47334658737E+02  0.40796400434E+02  0.20450790721E+02  0.65758277405E+02  0.10000000000E+01 0.  0.
    9000005    1    3    3    0    0  0.47334658737E+02 -0.40796400434E+02  0.18793981299E+02  0.65262009923E+02  0.10000000000E+01 0.  0.
<mgrwt>
<rscale>  0 0.12500465E+03</rscale>
<asrwt>0</asrwt>
<pdfrwt beam="1">  1        4 0.13097312E-01 0.12500465E+03</pdfrwt>
<pdfrwt beam="2">  1       -4 0.70596550E-02 0.12500465E+03</pdfrwt>
<totfact> 0.10321571E+04</totfact>
</mgrwt>
</event>
<event>
 5    1  0.3308162E-002  0.1249978E+03  0.7818608E-02  0.1235073E+00
         -4   -1    0    0    0  501 -0.00000000000E+00  0.00000000000E+00  0.32678081208E+02  0.32702750518E+02  0.12700000000E+01 0. -1.
          4   -1    0    0  501    0  0.00000000000E+00 -0.00000000000E+00 -0.11945992088E+03  0.11946667149E+03  0.12700000000E+01 0. -1.
         25    2    1    2    0    0  0.00000000000E+00  0.00000000000E+00 -0.86781839672E+02  0.15216942201E+03  0.12499778117E+03 0.  0.
    9000005    1    3    3    0    0  0.30582621886E+02 -0.38365843868E+02 -0.90506343790E+02  0.10295451910E+03  0.10000000000E+01 0.  0.
    9000005    1    3    3    0    0 -0.30582621886E+02  0.38365843868E+02  0.37245041176E+01  0.49214902906E+02  0.10000000000E+01 0.  0.
<mgrwt>
<rscale>  0 0.12499778E+03</rscale>
<asrwt>0</asrwt>
<pdfrwt beam="2">  1        4 0.18380866E-01 0.12499778E+03</pdfrwt>
<pdfrwt beam="1">  1       -4 0.50298141E-02 0.12499778E+03</pdfrwt>
<totfact> 0.98877938E+03</totfact>
</mgrwt>
</event>
<event>
 5    1  0.3308162E-002  0.1249978E+03  0.7818608E-02  0.1235073E+00
         -4   -1    0    0    0  501 -0.00000000000E+00  0.00000000000E+00  0.18849289671E+03  0.18849717507E+03  0.12700000000E+01 0.  1.
          4   -1    0    0  501    0  0.00000000000E+00 -0.00000000000E+00 -0.20698903505E+02  0.20737827907E+02  0.12700000000E+01 0.  1.
         25    2    1    2    0    0  0.00000000000E+00  0.00000000000E+00  0.16779399320E+03  0.20923500298E+03  0.12499784924E+03 0.  0.
    9000005    1    3    3    0    0  0.27850777092E+02  0.55625074538E+02  0.93842449077E+02  0.11259316121E+03  0.10000000000E+01 0.  0.
    9000005    1    3    3    0    0 -0.27850777092E+02 -0.55625074538E+02  0.73951544127E+02  0.96641841771E+02  0.10000000000E+01 0.  0.
<mgrwt>
<rscale>  0 0.12499785E+03</rscale>
<asrwt>0</asrwt>
<pdfrwt beam="2">  1        4 0.31877700E-02 0.12499785E+03</pdfrwt>
<pdfrwt beam="1">  1       -4 0.29002230E-01 0.12499785E+03</pdfrwt>
<totfact> 0.88605228E+03</totfact>
</mgrwt>
</event>
<event>
 5    1  0.3308162E-002  0.1250029E+03  0.7818608E-02  0.1235065E+00
          4   -1    0    0  501    0  0.00000000000E+00  0.00000000000E+00  0.46491364611E+02  0.46508707608E+02  0.12700000000E+01 0. -1.
         -4   -1    0    0    0  501 -0.00000000000E+00 -0.00000000000E+00 -0.83987080025E+02  0.83996681548E+02  0.12700000000E+01 0. -1.
         25    2    1    2    0    0  0.00000000000E+00  0.00000000000E+00 -0.37495715414E+02  0.13050538916E+03  0.12500291166E+03 0.  0.
    9000005    1    3    3    0    0  0.10806315718E+02 -0.44248009600E+02  0.25923084412E+02  0.52418213613E+02  0.10000000000E+01 0.  0.
    9000005    1    3    3    0    0 -0.10806315718E+02  0.44248009600E+02 -0.63418799826E+02  0.78087175543E+02  0.10000000000E+01 0.  0.
<mgrwt>
<rscale>  0 0.12500291E+03</rscale>
<asrwt>0</asrwt>
<pdfrwt beam="1">  1        4 0.71545903E-02 0.12500291E+03</pdfrwt>
<pdfrwt beam="2">  1       -4 0.12923162E-01 0.12500291E+03</pdfrwt>
<totfact> 0.10333026E+04</totfact>
</mgrwt>
</event>
<event>
 5    1  0.3308162E-002  0.1249997E+03  0.7818608E-02  0.1235070E+00
          4   -1    0    0  501    0  0.00000000000E+00  0.00000000000E+00  0.16004632132E+03  0.16005136010E+03  0.12700000000E+01 0. -1.
         -4   -1    0    0    0  501 -0.00000000000E+00 -0.00000000000E+00 -0.24384920624E+02  0.24417969896E+02  0.12700000000E+01 0. -1.
         25    2    1    2    0    0  0.00000000000E+00  0.00000000000E+00  0.13566140070E+03  0.18446932999E+03  0.12499967227E+03 0.  0.
    9000005    1    3    3    0    0  0.18119485224E+02 -0.50270779856E+01  0.15577949736E+03  0.15691347633E+03  0.10000000000E+01 0.  0.
    9000005    1    3    3    0    0 -0.18119485224E+02  0.50270779856E+01 -0.20118096658E+02  0.27555853661E+02  0.10000000000E+01 0.  0.
<mgrwt>
<rscale>  0 0.12499967E+03</rscale>
<asrwt>0</asrwt>
<pdfrwt beam="1">  1        4 0.24625440E-01 0.12499967E+03</pdfrwt>
<pdfrwt beam="2">  1       -4 0.37544562E-02 0.12499967E+03</pdfrwt>
<totfact> 0.92819321E+03</totfact>
</mgrwt>
</event>
<event>
 5    1  0.3308162E-002  0.1249968E+03  0.7818608E-02  0.1235074E+00
          4   -1    0    0  501    0  0.00000000000E+00  0.00000000000E+00  0.64166416538E+02  0.64178983409E+02  0.12700000000E+01 0.  1.
         -4   -1    0    0    0  501 -0.00000000000E+00 -0.00000000000E+00 -0.60848557991E+02  0.60861809943E+02  0.12700000000E+01 0.  1.
         25    2    1    2    0    0  0.00000000000E+00  0.00000000000E+00  0.33178585476E+01  0.12504079335E+03  0.12499676722E+03 0.  0.
    9000005    1    3    3    0    0  0.28090311201E+02 -0.44564151304E+02  0.35286521453E+02  0.63412678236E+02  0.10000000000E+01 0.  0.
    9000005    1    3    3    0    0 -0.28090311201E+02  0.44564151304E+02 -0.31968662905E+02  0.61628115116E+02  0.10000000000E+01 0.  0.
<mgrwt>
<rscale>  0 0.12499677E+03</rscale>
<asrwt>0</asrwt>
<pdfrwt beam="1">  1        4 0.98737424E-02 0.12499677E+03</pdfrwt>
<pdfrwt beam="2">  1       -4 0.93633027E-02 0.12499677E+03</pdfrwt>
<totfact> 0.10452740E+04</totfact>
</mgrwt>
</event>
<event>
 5    1  0.3308162E-002  0.1250004E+03  0.7818608E-02  0.1235069E+00
         -4   -1    0    0    0  501 -0.00000000000E+00  0.00000000000E+00  0.41566953482E+03  0.41567147494E+03  0.12700000000E+01 0. -1.
          4   -1    0    0  501    0  0.00000000000E+00 -0.00000000000E+00 -0.93526720993E+01  0.94385049345E+01  0.12700000000E+01 0. -1.
         25    2    1    2    0    0  0.00000000000E+00  0.00000000000E+00  0.40631686272E+03  0.42510997987E+03  0.12500040822E+03 0.  0.
    9000005    1    3    3    0    0 -0.14107166625E+02 -0.48781468085E+02  0.79288738617E+02  0.94161286367E+02  0.10000000000E+01 0.  0.
    9000005    1    3    3    0    0  0.14107166625E+02  0.48781468085E+02  0.32702812411E+03  0.33094869351E+03  0.10000000000E+01 0.  0.
<mgrwt>
<rscale>  0 0.12500041E+03</rscale>
<asrwt>0</asrwt>
<pdfrwt beam="2">  1        4 0.14456247E-02 0.12500041E+03</pdfrwt>
<pdfrwt beam="1">  1       -4 0.63955899E-01 0.12500041E+03</pdfrwt>
<totfact> 0.62181202E+03</totfact>
</mgrwt>
</event>
<event>
 5    1  0.3308162E-002  0.1250004E+03  0.7818608E-02  0.1235069E+00
         -4   -1    0    0    0  501 -0.00000000000E+00  0.00000000000E+00  0.11923185846E+03  0.11923862198E+03  0.12700000000E+01 0. -1.
          4   -1    0    0  501    0  0.00000000000E+00 -0.00000000000E+00 -0.32741983407E+02  0.32766604606E+02  0.12700000000E+01 0. -1.
         25    2    1    2    0    0  0.00000000000E+00  0.00000000000E+00  0.86489875057E+02  0.15200522659E+03  0.12500036169E+03 0.  0.
    9000005    1    3    3    0    0  0.14917680198E+02 -0.55098339604E+02  0.12315740484E+02  0.58404123770E+02  0.10000000000E+01 0.  0.
    9000005    1    3    3    0    0 -0.14917680198E+02  0.55098339604E+02  0.74174134573E+02  0.93601102820E+02  0.10000000000E+01 0.  0.
<mgrwt>
<rscale>  0 0.12500036E+03</rscale>
<asrwt>0</asrwt>
<pdfrwt beam="2">  1        4 0.50396424E-02 0.12500036E+03</pdfrwt>
<pdfrwt beam="1">  1       -4 0.18345777E-01 0.12500036E+03</pdfrwt>
<totfact> 0.98904673E+03</totfact>
</mgrwt>
</event>
<event>
 5    1  0.3308162E-002  0.1250000E+03  0.7818608E-02  0.1235069E+00
          4   -1    0    0  501    0  0.00000000000E+00  0.00000000000E+00  0.18194796732E+03  0.18195239958E+03  0.12700000000E+01 0.  1.
         -4   -1    0    0    0  501 -0.00000000000E+00 -0.00000000000E+00 -0.21445561884E+02  0.21483133490E+02  0.12700000000E+01 0.  1.
         25    2    1    2    0    0  0.00000000000E+00  0.00000000000E+00  0.16050240544E+03  0.20343553307E+03  0.12499997585E+03 0.  0.
    9000005    1    3    3    0    0  0.33292589810E+01  0.16177372436E+01 -0.21274977635E+02  0.21617717561E+02  0.10000000000E+01 0.  0.
    9000005    1    3    3    0    0 -0.33292589810E+01 -0.16177372436E+01  0.18177738307E+03  0.18181781551E+03  0.10000000000E+01 0.  0.
<mgrwt>
<rscale>  0 0.12499998E+03</rscale>
<asrwt>0</asrwt>
<pdfrwt beam="1">  1        4 0.27995225E-01 0.12499998E+03</pdfrwt>
<pdfrwt beam="2">  1       -4 0.33025484E-02 0.12499998E+03</pdfrwt>
<totfact> 0.89559343E+03</totfact>
</mgrwt>
</event>
<event>
 5    1  0.3308162E-002  0.1250096E+03  0.7818608E-02  0.1235054E+00
          4   -1    0    0  501    0  0.00000000000E+00  0.00000000000E+00  0.16448785839E+02  0.16497740924E+02  0.12700000000E+01 0. -1.
         -4   -1    0    0    0  501 -0.00000000000E+00 -0.00000000000E+00 -0.23711247618E+03  0.23711587728E+03  0.12700000000E+01 0. -1.
         25    2    1    2    0    0  0.00000000000E+00  0.00000000000E+00 -0.22066369034E+03  0.25361361821E+03  0.12500961205E+03 0.  0.
    9000005    1    3    3    0    0 -0.15530038001E+02 -0.60490182682E+02 -0.11513553426E+03  0.13098639445E+03  0.10000000000E+01 0.  0.
    9000005    1    3    3    0    0  0.15530038001E+02  0.60490182682E+02 -0.10552815608E+03  0.12262722376E+03  0.10000000000E+01 0.  0.
<mgrwt>
<rscale>  0 0.12500961E+03</rscale>
<asrwt>0</asrwt>
<pdfrwt beam="1">  1        4 0.25346100E-02 0.12500961E+03</pdfrwt>
<pdfrwt beam="2">  1       -4 0.36482867E-01 0.12500961E+03</pdfrwt>
<totfact> 0.81793228E+03</totfact>
</mgrwt>
</event>
<event>
 5    1  0.3308162E-002  0.1250008E+03  0.7818608E-02  0.1235068E+00
         -4   -1    0    0    0  501 -0.00000000000E+00  0.00000000000E+00  0.93488907499E+02  0.93497533258E+02  0.12700000000E+01 0. -1.
          4   -1    0    0  501    0  0.00000000000E+00 -0.00000000000E+00 -0.41763336412E+02  0.41782641949E+02  0.12700000000E+01 0. -1.
         25    2    1    2    0    0  0.00000000000E+00  0.00000000000E+00  0.51725571087E+02  0.13528017521E+03  0.12500076440E+03 0.  0.
    9000005    1    3    3    0    0  0.42051364797E+02 -0.38248727683E+02 -0.22339829860E+01  0.56897039735E+02  0.10000000000E+01 0.  0.
    9000005    1    3    3    0    0 -0.42051364797E+02  0.38248727683E+02  0.53959554073E+02  0.78383135472E+02  0.10000000000E+01 0.  0.
<mgrwt>
<rscale>  0 0.12500076E+03</rscale>
<asrwt>0</asrwt>
<pdfrwt beam="2">  1        4 0.64272773E-02 0.12500076E+03</pdfrwt>
<pdfrwt beam="1">  1       -4 0.14385057E-01 0.12500076E+03</pdfrwt>
<totfact> 0.10231993E+04</totfact>
</mgrwt>
</event>
<event>
 5    1  0.3308162E-002  0.1249983E+03  0.7818608E-02  0.1235072E+00
          4   -1    0    0  501    0  0.00000000000E+00  0.00000000000E+00  0.41397637234E+03  0.41397832039E+03  0.12700000000E+01 0.  1.
         -4   -1    0    0    0  501 -0.00000000000E+00 -0.00000000000E+00 -0.93909606445E+01  0.94764466878E+01  0.12700000000E+01 0.  1.
         25    2    1    2    0    0  0.00000000000E+00  0.00000000000E+00  0.40458541170E+03  0.42345476708E+03  0.12499833762E+03 0.  0.
    9000005    1    3    3    0    0 -0.52901002217E+02  0.20782724678E+02  0.29028828509E+03  0.29580183593E+03  0.10000000000E+01 0.  0.
    9000005    1    3    3    0    0  0.52901002217E+02 -0.20782724678E+02  0.11429712661E+03  0.12765293115E+03  0.10000000000E+01 0.  0.
<mgrwt>
<rscale>  0 0.12499834E+03</rscale>
<asrwt>0</asrwt>
<pdfrwt beam="1">  1        4 0.63695389E-01 0.12499834E+03</pdfrwt>
<pdfrwt beam="2">  1       -4 0.14514891E-02 0.12499834E+03</pdfrwt>
<totfact> 0.62336079E+03</totfact>
</mgrwt>
</event>
<event>
 5    1  0.3308162E-002  0.1250003E+03  0.7818608E-02  0.1235069E+00
          4   -1    0    0  501    0  0.00000000000E+00  0.00000000000E+00  0.10062104123E+04  0.10062112138E+04  0.12700000000E+01 0. -1.
         -4   -1    0    0    0  501 -0.00000000000E+00 -0.00000000000E+00 -0.37774666685E+01  0.39852420795E+01  0.12700000000E+01 0. -1.
         25    2    1    2    0    0  0.00000000000E+00  0.00000000000E+00  0.10024329457E+04  0.10101964559E+04  0.12500027571E+03 0.  0.
    9000005    1    3    3    0    0 -0.61389623839E+02 -0.10171912613E+02  0.54772124102E+03  0.55124560006E+03  0.10000000000E+01 0.  0.
    9000005    1    3    3    0    0  0.61389623839E+02  0.10171912613E+02  0.45471170464E+03  0.45895085582E+03  0.10000000000E+01 0.  0.
<mgrwt>
<rscale>  0 0.12500028E+03</rscale>
<asrwt>0</asrwt>
<pdfrwt beam="1">  1        4 0.15481764E+00 0.12500028E+03</pdfrwt>
<pdfrwt beam="2">  1       -4 0.59719313E-03 0.12500028E+03</pdfrwt>
<totfact> 0.30269980E+03</totfact>
</mgrwt>
</event>
<event>
 5    1  0.3308162E-002  0.1250329E+03  0.7818608E-02  0.1235018E+00
         -4   -1    0    0    0  501 -0.00000000000E+00  0.00000000000E+00  0.28921456041E+03  0.28921734882E+03  0.12700000000E+01 0. -1.
          4   -1    0    0  501    0  0.00000000000E+00 -0.00000000000E+00 -0.13480815650E+02  0.13540505552E+02  0.12700000000E+01 0. -1.
         25    2    1    2    0    0  0.00000000000E+00  0.00000000000E+00  0.27573374476E+03  0.30275785437E+03  0.12503287719E+03 0.  0.
    9000005    1    3    3    0    0  0.60951983344E+02  0.22485638509E+01  0.17098865002E+03  0.18154426113E+03  0.10000000000E+01 0.  0.
    9000005    1    3    3    0    0 -0.60951983344E+02 -0.22485638509E+01  0.10474509474E+03  0.12121359324E+03  0.10000000000E+01 0.  0.
<mgrwt>
<rscale>  0 0.12503288E+03</rscale>
<asrwt>0</asrwt>
<pdfrwt beam="2">  1        4 0.20787776E-02 0.12503288E+03</pdfrwt>
<pdfrwt beam="1">  1       -4 0.44499356E-01 0.12503288E+03</pdfrwt>
<totfact> 0.75199305E+03</totfact>
</mgrwt>
</event>
<event>
 5    1  0.3308162E-002  0.1250012E+03  0.7818608E-02  0.1235067E+00
         -4   -1    0    0    0  501 -0.00000000000E+00  0.00000000000E+00  0.31294686474E+02  0.31320445423E+02  0.12700000000E+01 0. -1.
          4   -1    0    0  501    0  0.00000000000E+00 -0.00000000000E+00 -0.12474347627E+03  0.12474994097E+03  0.12700000000E+01 0. -1.
         25    2    1    2    0    0  0.00000000000E+00  0.00000000000E+00 -0.93448789794E+02  0.15607038639E+03  0.12500115677E+03 0.  0.
    9000005    1    3    3    0    0 -0.57041387091E+01 -0.61243762930E+02 -0.32934449674E+02  0.69778318062E+02  0.10000000000E+01 0.  0.
    9000005    1    3    3    0    0  0.57041387091E+01  0.61243762930E+02 -0.60514340120E+02  0.86292068329E+02  0.10000000000E+01 0.  0.
<mgrwt>
<rscale>  0 0.12500116E+03</rscale>
<asrwt>0</asrwt>
<pdfrwt beam="2">  1        4 0.19193783E-01 0.12500116E+03</pdfrwt>
<pdfrwt beam="1">  1       -4 0.48170460E-02 0.12500116E+03</pdfrwt>
<totfact> 0.98103226E+03</totfact>
</mgrwt>
</event>
<event>
 5    1  0.3308162E-002  0.1250000E+03  0.7818608E-02  0.1235069E+00
         -4   -1    0    0    0  501 -0.00000000000E+00  0.00000000000E+00  0.33474816346E+01  0.35802979337E+01  0.12700000000E+01 0. -1.
          4   -1    0    0  501    0  0.00000000000E+00 -0.00000000000E+00 -0.11274728734E+04  0.11274735887E+04  0.12700000000E+01 0. -1.
         25    2    1    2    0    0  0.00000000000E+00  0.00000000000E+00 -0.11241253918E+04  0.11310538866E+04  0.12499999198E+03 0.  0.
    9000005    1    3    3    0    0  0.32761426068E+02 -0.37334834687E+02 -0.90519380180E+03  0.90655613160E+03  0.10000000000E+01 0.  0.
    9000005    1    3    3    0    0 -0.32761426068E+02  0.37334834687E+02 -0.21893158996E+03  0.22449775500E+03  0.10000000000E+01 0.  0.
<mgrwt>
<rscale>  0 0.12499999E+03</rscale>
<asrwt>0</asrwt>
<pdfrwt beam="2">  1        4 0.17347504E+00 0.12499999E+03</pdfrwt>
<pdfrwt beam="1">  1       -4 0.53296204E-03 0.12499999E+03</pdfrwt>
<totfact> 0.26591876E+03</totfact>
</mgrwt>
</event>
<event>
 5    1  0.3308162E-002  0.1249932E+03  0.7818608E-02  0.1235080E+00
          4   -1    0    0  501    0  0.00000000000E+00  0.00000000000E+00  0.96936156606E+03  0.96936239800E+03  0.12700000000E+01 0.  1.
         -4   -1    0    0    0  501 -0.00000000000E+00 -0.00000000000E+00 -0.39283501027E+01  0.41285390309E+01  0.12700000000E+01 0.  1.
         25    2    1    2    0    0  0.00000000000E+00  0.00000000000E+00  0.96543321595E+03  0.97349093703E+03  0.12499323984E+03 0.  0.
    9000005    1    3    3    0    0  0.19958711723E+02  0.57739225557E+02  0.58505537946E+03  0.58823716762E+03  0.10000000000E+01 0.  0.
    9000005    1    3    3    0    0 -0.19958711723E+02 -0.57739225557E+02  0.38037783650E+03  0.38525376940E+03  0.10000000000E+01 0.  0.
<mgrwt>
<rscale>  0 0.12499324E+03</rscale>
<asrwt>0</asrwt>
<pdfrwt beam="1">  1        4 0.14914815E+00 0.12499324E+03</pdfrwt>
<pdfrwt beam="2">  1       -4 0.61982411E-03 0.12499324E+03</pdfrwt>
<totfact> 0.31500971E+03</totfact>
</mgrwt>
</event>
<event>
 5    1  0.3308162E-002  0.1250391E+03  0.7818608E-02  0.1235008E+00
          4   -1    0    0  501    0  0.00000000000E+00  0.00000000000E+00  0.92313610325E+02  0.92322345893E+02  0.12700000000E+01 0.  1.
         -4   -1    0    0    0  501 -0.00000000000E+00 -0.00000000000E+00 -0.42321232213E+02  0.42340283372E+02  0.12700000000E+01 0.  1.
         25    2    1    2    0    0  0.00000000000E+00  0.00000000000E+00  0.49992378112E+02  0.13466262927E+03  0.12503913728E+03 0.  0.
    9000005    1    3    3    0    0 -0.12544544276E+02 -0.49296210711E+02  0.64127407173E+02  0.81858453029E+02  0.10000000000E+01 0.  0.
    9000005    1    3    3    0    0  0.12544544276E+02  0.49296210711E+02 -0.14135029061E+02  0.52804176237E+02  0.10000000000E+01 0.  0.
<mgrwt>
<rscale>  0 0.12503914E+03</rscale>
<asrwt>0</asrwt>
<pdfrwt beam="1">  1        4 0.14204231E-01 0.12503914E+03</pdfrwt>
<pdfrwt beam="2">  1       -4 0.65130962E-02 0.12503914E+03</pdfrwt>
<totfact> 0.10236149E+04</totfact>
</mgrwt>
</event>
<event>
 5    1  0.3308162E-002  0.1249927E+03  0.7818608E-02  0.1235081E+00
          4   -1    0    0  501    0  0.00000000000E+00  0.00000000000E+00  0.52208711894E+02  0.52224156265E+02  0.12700000000E+01 0.  1.
         -4   -1    0    0    0  501 -0.00000000000E+00 -0.00000000000E+00 -0.74779275349E+02  0.74790058976E+02  0.12700000000E+01 0.  1.
         25    2    1    2    0    0  0.00000000000E+00  0.00000000000E+00 -0.22570563455E+02  0.12701421524E+03  0.12499272194E+03 0.  0.
    9000005    1    3    3    0    0 -0.27637188480E+00 -0.62181276826E+02 -0.17566476882E+02  0.64623282795E+02  0.10000000000E+01 0.  0.
    9000005    1    3    3    0    0  0.27637188480E+00  0.62181276826E+02 -0.50040865733E+01  0.62390932447E+02  0.10000000000E+01 0.  0.
<mgrwt>
<rscale>  0 0.12499272E+03</rscale>
<asrwt>0</asrwt>
<pdfrwt beam="1">  1        4 0.80341271E-02 0.12499272E+03</pdfrwt>
<pdfrwt beam="2">  1       -4 0.11506521E-01 0.12499272E+03</pdfrwt>
<totfact> 0.10410547E+04</totfact>
</mgrwt>
</event>
<event>
 5    1  0.3308162E-002  0.1250015E+03  0.7818608E-02  0.1235067E+00
          4   -1    0    0  501    0  0.00000000000E+00  0.00000000000E+00  0.71413952640E+02  0.71425244359E+02  0.12700000000E+01 0. -1.
         -4   -1    0    0    0  501 -0.00000000000E+00 -0.00000000000E+00 -0.54677039789E+02  0.54691787136E+02  0.12700000000E+01 0. -1.
         25    2    1    2    0    0  0.00000000000E+00  0.00000000000E+00  0.16736912851E+02  0.12611703149E+03  0.12500152552E+03 0.  0.
    9000005    1    3    3    0    0  0.61735522848E+02  0.73102719513E+01  0.14799544332E+02  0.63911981425E+02  0.10000000000E+01 0.  0.
    9000005    1    3    3    0    0 -0.61735522848E+02 -0.73102719513E+01  0.19373685194E+01  0.62205050069E+02  0.10000000000E+01 0.  0.
<mgrwt>
<rscale>  0 0.12500153E+03</rscale>
<asrwt>0</asrwt>
<pdfrwt beam="1">  1        4 0.10988765E-01 0.12500153E+03</pdfrwt>
<pdfrwt beam="2">  1       -4 0.84138554E-02 0.12500153E+03</pdfrwt>
<totfact> 0.10428035E+04</totfact>
</mgrwt>
</event>
<event>
 5    1  0.3308162E-002  0.1250035E+03  0.7818608E-02  0.1235064E+00
          4   -1    0    0  501    0  0.00000000000E+00  0.00000000000E+00  0.34058109141E+02  0.34081779564E+02  0.12700000000E+01 0. -1.
         -4   -1    0    0    0  501 -0.00000000000E+00 -0.00000000000E+00 -0.11463314689E+03  0.11464018173E+03  0.12700000000E+01 0. -1.
         25    2    1    2    0    0  0.00000000000E+00  0.00000000000E+00 -0.80575037750E+02  0.14872196129E+03  0.12500354020E+03 0.  0.
    9000005    1    3    3    0    0  0.34239479730E+02  0.46961523325E+02 -0.67619096383E+02  0.89168766061E+02  0.10000000000E+01 0.  0.
    9000005    1    3    3    0    0 -0.34239479730E+02 -0.46961523325E+02 -0.12955941367E+02  0.59553195229E+02  0.10000000000E+01 0.  0.
<mgrwt>
<rscale>  0 0.12500354E+03</rscale>
<asrwt>0</asrwt>
<pdfrwt beam="1">  1        4 0.52420711E-02 0.12500354E+03</pdfrwt>
<pdfrwt beam="2">  1       -4 0.17638230E-01 0.12500354E+03</pdfrwt>
<totfact> 0.99551135E+03</totfact>
</mgrwt>
</event>
<event>
 5    1  0.3308162E-002  0.1250015E+03  0.7818608E-02  0.1235067E+00
         -4   -1    0    0    0  501 -0.00000000000E+00  0.00000000000E+00  0.16620265075E+02  0.16668716543E+02  0.12700000000E+01 0.  1.
          4   -1    0    0  501    0  0.00000000000E+00 -0.00000000000E+00 -0.23464263195E+03  0.23464606885E+03  0.12700000000E+01 0.  1.
         25    2    1    2    0    0  0.00000000000E+00  0.00000000000E+00 -0.21802236688E+03  0.25131478540E+03  0.12500147560E+03 0.  0.
    9000005    1    3    3    0    0  0.55594100347E+02 -0.27475912365E+02 -0.93475318960E+02  0.11217961048E+03  0.10000000000E+01 0.  0.
    9000005    1    3    3    0    0 -0.55594100347E+02  0.27475912365E+02 -0.12454704792E+03  0.13913517491E+03  0.10000000000E+01 0.  0.
<mgrwt>
<rscale>  0 0.12500148E+03</rscale>
<asrwt>0</asrwt>
<pdfrwt beam="2">  1        4 0.36102855E-01 0.12500148E+03</pdfrwt>
<pdfrwt beam="1">  1       -4 0.25609555E-02 0.12500148E+03</pdfrwt>
<totfact> 0.82137873E+03</totfact>
</mgrwt>
</event>
<event>
 5    1  0.3308162E-002  0.1249760E+03  0.7818608E-02  0.1235107E+00
         -4   -1    0    0    0  501 -0.00000000000E+00  0.00000000000E+00  0.85311896928E+01  0.86252013063E+01  0.12700000000E+01 0. -1.
          4   -1    0    0  501    0  0.00000000000E+00 -0.00000000000E+00 -0.45509990896E+03  0.45510168098E+03  0.12700000000E+01 0. -1.
         25    2    1    2    0    0  0.00000000000E+00  0.00000000000E+00 -0.44656871926E+03  0.46372688229E+03  0.12497599902E+03 0.  0.
    9000005    1    3    3    0    0 -0.29786027030E+02  0.11201389204E+01 -0.42703550222E+03  0.42807567353E+03  0.10000000000E+01 0.  0.
    9000005    1    3    3    0    0  0.29786027030E+02 -0.11201389204E+01 -0.19533217046E+02  0.35651208753E+02  0.10000000000E+01 0.  0.
<mgrwt>
<rscale>  0 0.12497600E+03</rscale>
<asrwt>0</asrwt>
<pdfrwt beam="2">  1        4 0.70022720E-01 0.12497600E+03</pdfrwt>
<pdfrwt beam="1">  1       -4 0.13198591E-02 0.12497600E+03</pdfrwt>
<totfact> 0.58823897E+03</totfact>
</mgrwt>
</event>
<event>
 5    1  0.3308162E-002  0.1249991E+03  0.7818608E-02  0.1235071E+00
          4   -1    0    0  501    0  0.00000000000E+00  0.00000000000E+00  0.21812702987E+02  0.21849643283E+02  0.12700000000E+01 0.  1.
         -4   -1    0    0    0  501 -0.00000000000E+00 -0.00000000000E+00 -0.17888811813E+03  0.17889262620E+03  0.12700000000E+01 0.  1.
         25    2    1    2    0    0  0.00000000000E+00  0.00000000000E+00 -0.15707541514E+03  0.20074226948E+03  0.12499909085E+03 0.  0.
    9000005    1    3    3    0    0 -0.16948500166E+01 -0.56792014759E+02 -0.36752518520E+02  0.67675350568E+02  0.10000000000E+01 0.  0.
    9000005    1    3    3    0    0  0.16948500166E+01  0.56792014759E+02 -0.12032289662E+03  0.13306691891E+03  0.10000000000E+01 0.  0.
<mgrwt>
<rscale>  0 0.12499909E+03</rscale>
<asrwt>0</asrwt>
<pdfrwt beam="1">  1        4 0.33589889E-02 0.12499909E+03</pdfrwt>
<pdfrwt beam="2">  1       -4 0.27524436E-01 0.12499909E+03</pdfrwt>
<totfact> 0.90012299E+03</totfact>
</mgrwt>
</event>
<event>
 5    1  0.3308162E-002  0.1250002E+03  0.7818608E-02  0.1235069E+00
         -4   -1    0    0    0  501 -0.00000000000E+00  0.00000000000E+00  0.14119719445E+03  0.14120290585E+03  0.12700000000E+01 0. -1.
          4   -1    0    0  501    0  0.00000000000E+00 -0.00000000000E+00 -0.27644442253E+02  0.27673599106E+02  0.12700000000E+01 0. -1.
         25    2    1    2    0    0  0.00000000000E+00  0.00000000000E+00  0.11355275219E+03  0.16887650495E+03  0.12500018558E+03 0.  0.
    9000005    1    3    3    0    0 -0.41972863466E+02  0.25839955120E+01 -0.56757092381E+01  0.42445399935E+02  0.10000000000E+01 0.  0.
    9000005    1    3    3    0    0  0.41972863466E+02 -0.25839955120E+01  0.11922846143E+03  0.12643110502E+03  0.10000000000E+01 0.  0.
<mgrwt>
<rscale>  0 0.12500019E+03</rscale>
<asrwt>0</asrwt>
<pdfrwt beam="2">  1        4 0.42556733E-02 0.12500019E+03</pdfrwt>
<pdfrwt beam="1">  1       -4 0.21725328E-01 0.12500019E+03</pdfrwt>
<totfact> 0.95657840E+03</totfact>
</mgrwt>
</event>
<event>
 5    1  0.3308162E-002  0.1249979E+03  0.7818608E-02  0.1235073E+00
         -4   -1    0    0    0  501 -0.00000000000E+00  0.00000000000E+00  0.27899601227E+03  0.27899890280E+03  0.12700000000E+01 0.  1.
          4   -1    0    0  501    0  0.00000000000E+00 -0.00000000000E+00 -0.13968861976E+02  0.14026475142E+02  0.12700000000E+01 0.  1.
         25    2    1    2    0    0  0.00000000000E+00  0.00000000000E+00  0.26502715030E+03  0.29302537794E+03  0.12499792688E+03 0.  0.
    9000005    1    3    3    0    0 -0.59912904821E+01 -0.16077577190E+02 -0.83505218230E+01  0.19107989551E+02  0.10000000000E+01 0.  0.
    9000005    1    3    3    0    0  0.59912904821E+01  0.16077577190E+02  0.27337767212E+03  0.27391738839E+03  0.10000000000E+01 0.  0.
<mgrwt>
<rscale>  0 0.12499793E+03</rscale>
<asrwt>0</asrwt>
<pdfrwt beam="2">  1        4 0.21537099E-02 0.12499793E+03</pdfrwt>
<pdfrwt beam="1">  1       -4 0.42927116E-01 0.12499793E+03</pdfrwt>
<totfact> 0.76485656E+03</totfact>
</mgrwt>
</event>
<event>
 5    1  0.3308162E-002  0.1249997E+03  0.7818608E-02  0.1235070E+00
         -4   -1    0    0    0  501 -0.00000000000E+00  0.00000000000E+00  0.11233053784E+03  0.11233771687E+03  0.12700000000E+01 0. -1.
          4   -1    0    0  501    0  0.00000000000E+00 -0.00000000000E+00 -0.34754529212E+02  0.34777725641E+02  0.12700000000E+01 0. -1.
         25    2    1    2    0    0  0.00000000000E+00  0.00000000000E+00  0.77576008631E+02  0.14711544251E+03  0.12499966524E+03 0.  0.
    9000005    1    3    3    0    0  0.15225645187E+02 -0.15349687936E+02  0.10779441783E+03  0.10994575802E+03  0.10000000000E+01 0.  0.
    9000005    1    3    3    0    0 -0.15225645187E+02  0.15349687936E+02 -0.30218409197E+02  0.37169684496E+02  0.10000000000E+01 0.  0.
<mgrwt>
<rscale>  0 0.12499967E+03</rscale>
<asrwt>0</asrwt>
<pdfrwt beam="2">  1        4 0.53491871E-02 0.12499967E+03</pdfrwt>
<pdfrwt beam="1">  1       -4 0.17283958E-01 0.12499967E+03</pdfrwt>
<totfact> 0.99882583E+03</totfact>
</mgrwt>
</event>
<event>
 5    1  0.3308162E-002  0.1249988E+03  0.7818608E-02  0.1235071E+00
         -4   -1    0    0    0  501 -0.00000000000E+00  0.00000000000E+00  0.19223467750E+02  0.19265373403E+02  0.12700000000E+01 0. -1.
          4   -1    0    0  501    0  0.00000000000E+00 -0.00000000000E+00 -0.20293327093E+03  0.20293724486E+03  0.12700000000E+01 0. -1.
         25    2    1    2    0    0  0.00000000000E+00  0.00000000000E+00 -0.18370980318E+03  0.22220261826E+03  0.12499884710E+03 0.  0.
    9000005    1    3    3    0    0  0.40220849219E+02 -0.45040373914E+02 -0.12045365302E+03  0.13474581448E+03  0.10000000000E+01 0.  0.
    9000005    1    3    3    0    0 -0.40220849219E+02  0.45040373914E+02 -0.63256150158E+02  0.87456803778E+02  0.10000000000E+01 0.  0.
<mgrwt>
<rscale>  0 0.12499885E+03</rscale>
<asrwt>0</asrwt>
<pdfrwt beam="2">  1        4 0.31224031E-01 0.12499885E+03</pdfrwt>
<pdfrwt beam="1">  1       -4 0.29609859E-02 0.12499885E+03</pdfrwt>
<totfact> 0.86523238E+03</totfact>
</mgrwt>
</event>
<event>
 5    1  0.3308162E-002  0.1249950E+03  0.7818608E-02  0.1235077E+00
          4   -1    0    0  501    0  0.00000000000E+00  0.00000000000E+00  0.57158048442E+02  0.57172155825E+02  0.12700000000E+01 0.  1.
         -4   -1    0    0    0  501 -0.00000000000E+00 -0.00000000000E+00 -0.68307264045E+02  0.68319069237E+02  0.12700000000E+01 0.  1.
         25    2    1    2    0    0  0.00000000000E+00  0.00000000000E+00 -0.11149215603E+02  0.12549122506E+03  0.12499497013E+03 0.  0.
    9000005    1    3    3    0    0 -0.60937752501E+02 -0.90691280617E+01  0.49204529637E+01  0.61813183230E+02  0.10000000000E+01 0.  0.
    9000005    1    3    3    0    0  0.60937752501E+02  0.90691280617E+01 -0.16069668567E+02  0.63678041832E+02  0.10000000000E+01 0.  0.
<mgrwt>
<rscale>  0 0.12499497E+03</rscale>
<asrwt>0</asrwt>
<pdfrwt beam="1">  1        4 0.87955392E-02 0.12499497E+03</pdfrwt>
<pdfrwt beam="2">  1       -4 0.10510803E-01 0.12499497E+03</pdfrwt>
<totfact> 0.10443333E+04</totfact>
</mgrwt>
</event>
<event>
 5    1  0.3308162E-002  0.1250033E+03  0.7818608E-02  0.1235064E+00
          4   -1    0    0  501    0  0.00000000000E+00  0.00000000000E+00  0.25571078187E+03  0.25571393561E+03  0.12700000000E+01 0.  1.
         -4   -1    0    0    0  501 -0.00000000000E+00 -0.00000000000E+00 -0.15247195999E+02  0.15299996269E+02  0.12700000000E+01 0.  1.
         25    2    1    2    0    0  0.00000000000E+00  0.00000000000E+00  0.24046358587E+03  0.27101393188E+03  0.12500326052E+03 0.  0.
    9000005    1    3    3    0    0 -0.60097847803E+02 -0.17076456016E+02  0.11709213443E+03  0.13272122892E+03  0.10000000000E+01 0.  0.
    9000005    1    3    3    0    0  0.60097847803E+02  0.17076456016E+02  0.12337145144E+03  0.13829270296E+03  0.10000000000E+01 0.  0.
<mgrwt>
<rscale>  0 0.12500326E+03</rscale>
<asrwt>0</asrwt>
<pdfrwt beam="1">  1        4 0.39344424E-01 0.12500326E+03</pdfrwt>
<pdfrwt beam="2">  1       -4 0.23500266E-02 0.12500326E+03</pdfrwt>
<totfact> 0.79379076E+03</totfact>
</mgrwt>
</event>
<event>
 5    1  0.3308162E-002  0.1250004E+03  0.7818608E-02  0.1235069E+00
          4   -1    0    0  501    0  0.00000000000E+00  0.00000000000E+00  0.12634749620E+03  0.12635387883E+03  0.12700000000E+01 0. -1.
         -4   -1    0    0    0  501 -0.00000000000E+00 -0.00000000000E+00 -0.30896686232E+02  0.30922776721E+02  0.12700000000E+01 0. -1.
         25    2    1    2    0    0  0.00000000000E+00  0.00000000000E+00  0.95450809967E+02  0.15727665555E+03  0.12500035703E+03 0.  0.
    9000005    1    3    3    0    0  0.48613363100E+02  0.38357076242E+02  0.37142377448E+02  0.72215514762E+02  0.10000000000E+01 0.  0.
    9000005    1    3    3    0    0 -0.48613363100E+02 -0.38357076242E+02  0.58308432519E+02  0.85061140791E+02  0.10000000000E+01 0.  0.
<mgrwt>
<rscale>  0 0.12500036E+03</rscale>
<asrwt>0</asrwt>
<pdfrwt beam="1">  1        4 0.19440574E-01 0.12500036E+03</pdfrwt>
<pdfrwt beam="2">  1       -4 0.47558343E-02 0.12500036E+03</pdfrwt>
<totfact> 0.97869622E+03</totfact>
</mgrwt>
</event>
<event>
 5    1  0.3308162E-002  0.1250029E+03  0.7818608E-02  0.1235065E+00
          4   -1    0    0  501    0  0.00000000000E+00  0.00000000000E+00  0.11753381989E+04  0.11753388850E+04  0.12700000000E+01 0.  1.
         -4   -1    0    0    0  501 -0.00000000000E+00 -0.00000000000E+00 -0.32016337615E+01  0.34443226827E+01  0.12700000000E+01 0.  1.
         25    2    1    2    0    0  0.00000000000E+00  0.00000000000E+00  0.11721365651E+04  0.11787832077E+04  0.12500289389E+03 0.  0.
    9000005    1    3    3    0    0 -0.46318827643E+02  0.41929991032E+02  0.57316279514E+03  0.57655888483E+03  0.10000000000E+01 0.  0.
    9000005    1    3    3    0    0  0.46318827643E+02 -0.41929991032E+02  0.59897376998E+03  0.60222432288E+03  0.10000000000E+01 0.  0.
<mgrwt>
<rscale>  0 0.12500289E+03</rscale>
<asrwt>0</asrwt>
<pdfrwt beam="1">  1        4 0.18083992E+00 0.12500289E+03</pdfrwt>
<pdfrwt beam="2">  1       -4 0.51128037E-03 0.12500289E+03</pdfrwt>
<totfact> 0.25273365E+03</totfact>
</mgrwt>
</event>
<event>
 5    1  0.3308162E-002  0.1250096E+03  0.7818608E-02  0.1235054E+00
         -4   -1    0    0    0  501 -0.00000000000E+00  0.00000000000E+00  0.40337381830E+03  0.40337581756E+03  0.12700000000E+01 0.  1.
          4   -1    0    0  501    0  0.00000000000E+00 -0.00000000000E+00 -0.96417630517E+01  0.97250447169E+01  0.12700000000E+01 0.  1.
         25    2    1    2    0    0  0.00000000000E+00  0.00000000000E+00  0.39373205525E+03  0.41310086228E+03  0.12500956396E+03 0.  0.
    9000005    1    3    3    0    0  0.60074991279E+02  0.46098310975E+01  0.25172487480E+03  0.25883714516E+03  0.10000000000E+01 0.  0.
    9000005    1    3    3    0    0 -0.60074991279E+02 -0.46098310975E+01  0.14200718045E+03  0.15426371712E+03  0.10000000000E+01 0.  0.
<mgrwt>
<rscale>  0 0.12500956E+03</rscale>
<asrwt>0</asrwt>
<pdfrwt beam="2">  1        4 0.14899078E-02 0.12500956E+03</pdfrwt>
<pdfrwt beam="1">  1       -4 0.62064090E-01 0.12500956E+03</pdfrwt>
<totfact> 0.63284883E+03</totfact>
</mgrwt>
</event>
<event>
 5    1  0.3308162E-002  0.1250011E+03  0.7818608E-02  0.1235068E+00
          4   -1    0    0  501    0  0.00000000000E+00  0.00000000000E+00  0.67717198207E+03  0.67717317298E+03  0.12700000000E+01 0. -1.
         -4   -1    0    0    0  501 -0.00000000000E+00 -0.00000000000E+00 -0.56974649531E+01  0.58372944839E+01  0.12700000000E+01 0. -1.
         25    2    1    2    0    0  0.00000000000E+00  0.00000000000E+00  0.67147451712E+03  0.68301046746E+03  0.12500108609E+03 0.  0.
    9000005    1    3    3    0    0 -0.37713726935E+02  0.49749118103E+02  0.35120919597E+03  0.35671585230E+03  0.10000000000E+01 0.  0.
    9000005    1    3    3    0    0  0.37713726935E+02 -0.49749118103E+02  0.32026532115E+03  0.32629461516E+03  0.10000000000E+01 0.  0.
<mgrwt>
<rscale>  0 0.12500109E+03</rscale>
<asrwt>0</asrwt>
<pdfrwt beam="1">  1        4 0.10419114E+00 0.12500109E+03</pdfrwt>
<pdfrwt beam="2">  1       -4 0.88738092E-03 0.12500109E+03</pdfrwt>
<totfact> 0.43997813E+03</totfact>
</mgrwt>
</event>
<event>
 5    1  0.3308162E-002  0.1250002E+03  0.7818608E-02  0.1235069E+00
          4   -1    0    0  501    0  0.00000000000E+00  0.00000000000E+00  0.15700477528E+02  0.15751758461E+02  0.12700000000E+01 0.  1.
         -4   -1    0    0    0  501 -0.00000000000E+00 -0.00000000000E+00 -0.24834035918E+03  0.24834360652E+03  0.12700000000E+01 0.  1.
         25    2    1    2    0    0  0.00000000000E+00  0.00000000000E+00 -0.23263988165E+03  0.26409536498E+03  0.12500018907E+03 0.  0.
    9000005    1    3    3    0    0 -0.29412686681E+02 -0.51102150844E+02 -0.16006610198E+03  0.17058339005E+03  0.10000000000E+01 0.  0.
    9000005    1    3    3    0    0  0.29412686681E+02  0.51102150844E+02 -0.72573779675E+02  0.93511974929E+02  0.10000000000E+01 0.  0.
<mgrwt>
<rscale>  0 0.12500019E+03</rscale>
<asrwt>0</asrwt>
<pdfrwt beam="1">  1        4 0.24196528E-02 0.12500019E+03</pdfrwt>
<pdfrwt beam="2">  1       -4 0.38210401E-01 0.12500019E+03</pdfrwt>
<totfact> 0.80334411E+03</totfact>
</mgrwt>
</event>
<event>
 5    1  0.3308162E-002  0.1249995E+03  0.7818608E-02  0.1235070E+00
          4   -1    0    0  501    0  0.00000000000E+00  0.00000000000E+00  0.51701309888E+01  0.53238289268E+01  0.12700000000E+01 0. -1.
         -4   -1    0    0    0  501 -0.00000000000E+00 -0.00000000000E+00 -0.74431599439E+03  0.74431707787E+03  0.12700000000E+01 0. -1.
         25    2    1    2    0    0  0.00000000000E+00  0.00000000000E+00 -0.73914586340E+03  0.74964090680E+03  0.12499952702E+03 0.  0.
    9000005    1    3    3    0    0  0.20387308708E+02  0.25046725087E+02 -0.69041987346E+03  0.69117550771E+03  0.10000000000E+01 0.  0.
    9000005    1    3    3    0    0 -0.20387308708E+02 -0.25046725087E+02 -0.48725989943E+02  0.58465399082E+02  0.10000000000E+01 0.  0.
<mgrwt>
<rscale>  0 0.12499953E+03</rscale>
<asrwt>0</asrwt>
<pdfrwt beam="1">  1        4 0.80731162E-03 0.12499953E+03</pdfrwt>
<pdfrwt beam="2">  1       -4 0.11452198E+00 0.12499953E+03</pdfrwt>
<totfact> 0.40591761E+03</totfact>
</mgrwt>
</event>
<event>
 5    1  0.3308162E-002  0.1250005E+03  0.7818608E-02  0.1235068E+00
         -4   -1    0    0    0  501 -0.00000000000E+00  0.00000000000E+00  0.36722000459E+03  0.36722220067E+03  0.12700000000E+01 0.  1.
          4   -1    0    0  501    0  0.00000000000E+00 -0.00000000000E+00 -0.10597300540E+02  0.10673128816E+02  0.12700000000E+01 0.  1.
         25    2    1    2    0    0  0.00000000000E+00  0.00000000000E+00  0.35662270405E+03  0.37789532949E+03  0.12500050804E+03 0.  0.
    9000005    1    3    3    0    0 -0.27245111185E+02 -0.56069774274E+02  0.19154642727E+03  0.20143770618E+03  0.10000000000E+01 0.  0.
    9000005    1    3    3    0    0  0.27245111185E+02  0.56069774274E+02  0.16507627678E+03  0.17645762331E+03  0.10000000000E+01 0.  0.
<mgrwt>
<rscale>  0 0.12500051E+03</rscale>
<asrwt>0</asrwt>
<pdfrwt beam="2">  1        4 0.16363560E-02 0.12500051E+03</pdfrwt>
<pdfrwt beam="1">  1       -4 0.56501382E-01 0.12500051E+03</pdfrwt>
<totfact> 0.66760200E+03</totfact>
</mgrwt>
</event>
<event>
 5    1  0.3308162E-002  0.1249997E+03  0.7818608E-02  0.1235070E+00
          4   -1    0    0  501    0  0.00000000000E+00  0.00000000000E+00  0.59859335323E+02  0.59872806226E+02  0.12700000000E+01 0.  1.
         -4   -1    0    0    0  501 -0.00000000000E+00 -0.00000000000E+00 -0.65229850852E+02  0.65242212885E+02  0.12700000000E+01 0.  1.
         25    2    1    2    0    0  0.00000000000E+00  0.00000000000E+00 -0.53705155284E+01  0.12511501911E+03  0.12499970228E+03 0.  0.
    9000005    1    3    3    0    0  0.13355480326E+02  0.60703292525E+02 -0.91698774949E+01  0.62835859439E+02  0.10000000000E+01 0.  0.
    9000005    1    3    3    0    0 -0.13355480326E+02 -0.60703292525E+02  0.37993619665E+01  0.62279159672E+02  0.10000000000E+01 0.  0.
<mgrwt>
<rscale>  0 0.12499970E+03</rscale>
<asrwt>0</asrwt>
<pdfrwt beam="1">  1        4 0.92111156E-02 0.12499970E+03</pdfrwt>
<pdfrwt beam="2">  1       -4 0.10037349E-01 0.12499970E+03</pdfrwt>
<totfact> 0.10450435E+04</totfact>
</mgrwt>
</event>
<event>
 5    1  0.3308162E-002  0.1250002E+03  0.7818608E-02  0.1235069E+00
         -4   -1    0    0    0  501 -0.00000000000E+00  0.00000000000E+00  0.12400606613E+03  0.12401256927E+03  0.12700000000E+01 0. -1.
          4   -1    0    0  501    0  0.00000000000E+00 -0.00000000000E+00 -0.31480467313E+02  0.31506074371E+02  0.12700000000E+01 0. -1.
         25    2    1    2    0    0  0.00000000000E+00  0.00000000000E+00  0.92525598818E+02  0.15551864364E+03  0.12500024833E+03 0.  0.
    9000005    1    3    3    0    0 -0.49928934791E+02 -0.36213008379E+02  0.33760207588E+02  0.70320922360E+02  0.10000000000E+01 0.  0.
    9000005    1    3    3    0    0  0.49928934791E+02  0.36213008379E+02  0.58765391230E+02  0.85197721282E+02  0.10000000000E+01 0.  0.
<mgrwt>
<rscale>  0 0.12500025E+03</rscale>
<asrwt>0</asrwt>
<pdfrwt beam="2">  1        4 0.48456188E-02 0.12500025E+03</pdfrwt>
<pdfrwt beam="1">  1       -4 0.19080326E-01 0.12500025E+03</pdfrwt>
<totfact> 0.98213230E+03</totfact>
</mgrwt>
</event>
<event>
 5    1  0.3308162E-002  0.1250000E+03  0.7818608E-02  0.1235069E+00
         -4   -1    0    0    0  501 -0.00000000000E+00  0.00000000000E+00  0.57035241677E+02  0.57049379428E+02  0.12700000000E+01 0.  1.
          4   -1    0    0  501    0  0.00000000000E+00 -0.00000000000E+00 -0.68459806116E+02  0.68471585008E+02  0.12700000000E+01 0.  1.
         25    2    1    2    0    0  0.00000000000E+00  0.00000000000E+00 -0.11424564440E+02  0.12552096444E+03  0.12499996736E+03 0.  0.
    9000005    1    3    3    0    0  0.24763397127E+02  0.47526459451E+02 -0.37990586316E+02  0.65698362490E+02  0.10000000000E+01 0.  0.
    9000005    1    3    3    0    0 -0.24763397127E+02 -0.47526459451E+02  0.26566021876E+02  0.59822601946E+02  0.10000000000E+01 0.  0.
<mgrwt>
<rscale>  0 0.12499997E+03</rscale>
<asrwt>0</asrwt>
<pdfrwt beam="2">  1        4 0.10534271E-01 0.12499997E+03</pdfrwt>
<pdfrwt beam="1">  1       -4 0.87766462E-02 0.12499997E+03</pdfrwt>
<totfact> 0.10441499E+04</totfact>
</mgrwt>
</event>
<event>
 5    1  0.3308162E-002  0.1249965E+03  0.7818608E-02  0.1235075E+00
         -4   -1    0    0    0  501 -0.00000000000E+00  0.00000000000E+00  0.38869736712E+02  0.38890478681E+02  0.12700000000E+01 0.  1.
          4   -1    0    0  501    0  0.00000000000E+00 -0.00000000000E+00 -0.10043875005E+03  0.10044677900E+03  0.12700000000E+01 0.  1.
         25    2    1    2    0    0  0.00000000000E+00  0.00000000000E+00 -0.61569013338E+02  0.13933725768E+03  0.12499651185E+03 0.  0.
    9000005    1    3    3    0    0  0.32645174089E+02  0.28709210456E+02  0.19255607933E+02  0.47557382110E+02  0.10000000000E+01 0.  0.
    9000005    1    3    3    0    0 -0.32645174089E+02 -0.28709210456E+02 -0.80824621272E+02  0.91779875572E+02  0.10000000000E+01 0.  0.
<mgrwt>
<rscale>  0 0.12499651E+03</rscale>
<asrwt>0</asrwt>
<pdfrwt beam="2">  1        4 0.15454328E-01 0.12499651E+03</pdfrwt>
<pdfrwt beam="1">  1       -4 0.59821727E-02 0.12499651E+03</pdfrwt>
<totfact> 0.10148137E+04</totfact>
</mgrwt>
</event>
<event>
 5    1  0.3308162E-002  0.1250012E+03  0.7818608E-02  0.1235067E+00
         -4   -1    0    0    0  501 -0.00000000000E+00  0.00000000000E+00  0.12479947360E+02  0.12544400588E+02  0.12700000000E+01 0. -1.
          4   -1    0    0  501    0  0.00000000000E+00 -0.00000000000E+00 -0.31213637438E+03  0.31213895802E+03  0.12700000000E+01 0. -1.
         25    2    1    2    0    0  0.00000000000E+00  0.00000000000E+00 -0.29965642702E+03  0.32468335860E+03  0.12500123639E+03 0.  0.
    9000005    1    3    3    0    0 -0.27922209914E+02  0.52789523377E+01 -0.52598985834E+01  0.28916840723E+02  0.10000000000E+01 0.  0.
    9000005    1    3    3    0    0  0.27922209914E+02 -0.52789523377E+01 -0.29439652844E+03  0.29576651788E+03  0.10000000000E+01 0.  0.
<mgrwt>
<rscale>  0 0.12500124E+03</rscale>
<asrwt>0</asrwt>
<pdfrwt beam="2">  1        4 0.48026132E-01 0.12500124E+03</pdfrwt>
<pdfrwt beam="1">  1       -4 0.19251488E-02 0.12500124E+03</pdfrwt>
<totfact> 0.72600556E+03</totfact>
</mgrwt>
</event>
<event>
 5    1  0.3308162E-002  0.1250020E+03  0.7818608E-02  0.1235066E+00
          4   -1    0    0  501    0  0.00000000000E+00  0.00000000000E+00  0.51315748356E+02  0.51331461399E+02  0.12700000000E+01 0.  1.
         -4   -1    0    0    0  501 -0.00000000000E+00 -0.00000000000E+00 -0.76091617170E+02  0.76102214840E+02  0.12700000000E+01 0.  1.
         25    2    1    2    0    0  0.00000000000E+00  0.00000000000E+00 -0.24775868814E+02  0.12743367624E+03  0.12500199264E+03 0.  0.
    9000005    1    3    3    0    0  0.35577116717E+01 -0.38872148445E+02  0.37363816587E+02  0.54044019346E+02  0.10000000000E+01 0.  0.
    9000005    1    3    3    0    0 -0.35577116717E+01  0.38872148445E+02 -0.62139685401E+02  0.73389656893E+02  0.10000000000E+01 0.  0.
<mgrwt>
<rscale>  0 0.12500199E+03</rscale>
<asrwt>0</asrwt>
<pdfrwt beam="1">  1        4 0.78967544E-02 0.12500199E+03</pdfrwt>
<pdfrwt beam="2">  1       -4 0.11708427E-01 0.12500199E+03</pdfrwt>
<totfact> 0.10399269E+04</totfact>
</mgrwt>
</event>
<event>
 4    1  0.3308162E-002  0.1249081E+03  0.7818608E-02  0.1235213E+00
          4   -1    0    0  501    0  0.00000000000E+00  0.00000000000E+00  0.12216497863E+03  0.12217157977E+03  0.12700000000E+01 0. -1.
         -4   -1    0    0    0  501 -0.00000000000E+00 -0.00000000000E+00 -0.31908108543E+02  0.31933372681E+02  0.12700000000E+01 0. -1.
    9000005    1    1    2    0    0 -0.20874368251E+02  0.29054692054E+02  0.10827401956E+03  0.11403586142E+03  0.10000000000E+01 0.  0.
    9000005    1    1    2    0    0  0.20874368251E+02 -0.29054692054E+02 -0.18017149473E+02  0.40069091022E+02  0.10000000000E+01 0.  0.
<mgrwt>
<rscale>  0 0.12490810E+03</rscale>
<asrwt>0</asrwt>
<pdfrwt beam="1">  1        4 0.18797063E-01 0.12490810E+03</pdfrwt>
<pdfrwt beam="2">  1       -4 0.49113909E-02 0.12490810E+03</pdfrwt>
<totfact> 0.98695352E+03</totfact>
</mgrwt>
</event>
<event>
 5    1  0.3308162E-002  0.1250017E+03  0.7818608E-02  0.1235067E+00
          4   -1    0    0  501    0  0.00000000000E+00  0.00000000000E+00  0.20533998531E+02  0.20573234935E+02  0.12700000000E+01 0.  1.
         -4   -1    0    0    0  501 -0.00000000000E+00 -0.00000000000E+00 -0.19001552116E+03  0.19001976524E+03  0.12700000000E+01 0.  1.
         25    2    1    2    0    0  0.00000000000E+00  0.00000000000E+00 -0.16948152263E+03  0.21059300017E+03  0.12500170083E+03 0.  0.
    9000005    1    3    3    0    0 -0.46513662261E+02 -0.40484390466E+02 -0.10182632955E+03  0.11904666328E+03  0.10000000000E+01 0.  0.
    9000005    1    3    3    0    0  0.46513662261E+02  0.40484390466E+02 -0.67655193083E+02  0.91546336898E+02  0.10000000000E+01 0.  0.
<mgrwt>
<rscale>  0 0.12500170E+03</rscale>
<asrwt>0</asrwt>
<pdfrwt beam="1">  1        4 0.31624215E-02 0.12500170E+03</pdfrwt>
<pdfrwt beam="2">  1       -4 0.29236500E-01 0.12500170E+03</pdfrwt>
<totfact> 0.88375768E+03</totfact>
</mgrwt>
</event>
<event>
 5    1  0.3308162E-002  0.1250010E+03  0.7818608E-02  0.1235068E+00
          4   -1    0    0  501    0  0.00000000000E+00  0.00000000000E+00  0.52880548828E+02  0.52895797038E+02  0.12700000000E+01 0.  1.
         -4   -1    0    0    0  501 -0.00000000000E+00 -0.00000000000E+00 -0.73839194367E+02  0.73850115265E+02  0.12700000000E+01 0.  1.
         25    2    1    2    0    0  0.00000000000E+00  0.00000000000E+00 -0.20958645539E+02  0.12674591230E+03  0.12500104585E+03 0.  0.
    9000005    1    3    3    0    0 -0.19157038938E+01  0.22034371133E+01  0.52816322752E+02  0.52906417432E+02  0.10000000000E+01 0.  0.
    9000005    1    3    3    0    0  0.19157038938E+01 -0.22034371133E+01 -0.73774968291E+02  0.73839494871E+02  0.10000000000E+01 0.  0.
<mgrwt>
<rscale>  0 0.12500105E+03</rscale>
<asrwt>0</asrwt>
<pdfrwt beam="1">  1        4 0.81374821E-02 0.12500105E+03</pdfrwt>
<pdfrwt beam="2">  1       -4 0.11361889E-01 0.12500105E+03</pdfrwt>
<totfact> 0.10414425E+04</totfact>
</mgrwt>
</event>
<event>
 5    1  0.3308162E-002  0.1250002E+03  0.7818608E-02  0.1235069E+00
          4   -1    0    0  501    0  0.00000000000E+00  0.00000000000E+00  0.61535175816E+01  0.62832060786E+01  0.12700000000E+01 0.  1.
         -4   -1    0    0    0  501 -0.00000000000E+00 -0.00000000000E+00 -0.62805203937E+03  0.62805332342E+03  0.12700000000E+01 0.  1.
         25    2    1    2    0    0  0.00000000000E+00  0.00000000000E+00 -0.62189852179E+03  0.63433652950E+03  0.12500024501E+03 0.  0.
    9000005    1    3    3    0    0 -0.42873663749E+02 -0.38849849106E+02 -0.19109610536E+03  0.19966517800E+03  0.10000000000E+01 0.  0.
    9000005    1    3    3    0    0  0.42873663749E+02  0.38849849106E+02 -0.43080241642E+03  0.43467135150E+03  0.10000000000E+01 0.  0.
<mgrwt>
<rscale>  0 0.12500025E+03</rscale>
<asrwt>0</asrwt>
<pdfrwt beam="1">  1        4 0.95677032E-03 0.12500025E+03</pdfrwt>
<pdfrwt beam="2">  1       -4 0.96633416E-01 0.12500025E+03</pdfrwt>
<totfact> 0.46769293E+03</totfact>
</mgrwt>
</event>
<event>
 5    1  0.3308162E-002  0.1249944E+03  0.7818608E-02  0.1235078E+00
         -4   -1    0    0    0  501 -0.00000000000E+00  0.00000000000E+00  0.63718719547E+01  0.64972034143E+01  0.12700000000E+01 0. -1.
          4   -1    0    0  501    0  0.00000000000E+00 -0.00000000000E+00 -0.60689525037E+03  0.60689657918E+03  0.12700000000E+01 0. -1.
         25    2    1    2    0    0  0.00000000000E+00  0.00000000000E+00 -0.60052337841E+03  0.61339378259E+03  0.12499441789E+03 0.  0.
    9000005    1    3    3    0    0  0.58310137070E+02 -0.19493492413E+01 -0.19041670843E+03  0.19915670940E+03  0.10000000000E+01 0.  0.
    9000005    1    3    3    0    0 -0.58310137070E+02  0.19493492413E+01 -0.41010666998E+03  0.41423707319E+03  0.10000000000E+01 0.  0.
<mgrwt>
<rscale>  0 0.12499442E+03</rscale>
<asrwt>0</asrwt>
<pdfrwt beam="2">  1        4 0.93378198E-01 0.12499442E+03</pdfrwt>
<pdfrwt beam="1">  1       -4 0.99003157E-03 0.12499442E+03</pdfrwt>
<totfact> 0.48038821E+03</totfact>
</mgrwt>
</event>
<event>
 5    1  0.3308162E-002  0.1250001E+03  0.7818608E-02  0.1235069E+00
          4   -1    0    0  501    0  0.00000000000E+00  0.00000000000E+00  0.93008999385E+03  0.93009086092E+03  0.12700000000E+01 0.  1.
         -4   -1    0    0    0  501 -0.00000000000E+00 -0.00000000000E+00 -0.41029740637E+01  0.42950315677E+01  0.12700000000E+01 0.  1.
         25    2    1    2    0    0  0.00000000000E+00  0.00000000000E+00  0.92598701979E+03  0.93438589248E+03  0.12500014104E+03 0.  0.
    9000005    1    3    3    0    0  0.45682737189E+02  0.41522649988E+02  0.39043676098E+03  0.39528838493E+03  0.10000000000E+01 0.  0.
    9000005    1    3    3    0    0 -0.45682737189E+02 -0.41522649988E+02  0.53555025881E+03  0.53909750755E+03  0.10000000000E+01 0.  0.
<mgrwt>
<rscale>  0 0.12500014E+03</rscale>
<asrwt>0</asrwt>
<pdfrwt beam="1">  1        4 0.14310570E+00 0.12500014E+03</pdfrwt>
<pdfrwt beam="2">  1       -4 0.64606671E-03 0.12500014E+03</pdfrwt>
<totfact> 0.32876779E+03</totfact>
</mgrwt>
</event>
<event>
 5    1  0.3308162E-002  0.1249996E+03  0.7818608E-02  0.1235070E+00
         -4   -1    0    0    0  501 -0.00000000000E+00  0.00000000000E+00  0.24362744657E+02  0.24395823971E+02  0.12700000000E+01 0.  1.
          4   -1    0    0  501    0  0.00000000000E+00 -0.00000000000E+00 -0.16019165789E+03  0.16019669209E+03  0.12700000000E+01 0.  1.
         25    2    1    2    0    0  0.00000000000E+00  0.00000000000E+00 -0.13582891323E+03  0.18459251606E+03  0.12499961327E+03 0.  0.
    9000005    1    3    3    0    0 -0.57048319984E-01  0.52877106596E+01  0.24038994439E+02  0.24634049448E+02  0.10000000000E+01 0.  0.
    9000005    1    3    3    0    0  0.57048319984E-01 -0.52877106596E+01 -0.15986790767E+03  0.15995846662E+03  0.10000000000E+01 0.  0.
<mgrwt>
<rscale>  0 0.12499961E+03</rscale>
<asrwt>0</asrwt>
<pdfrwt beam="2">  1        4 0.24647802E-01 0.12499961E+03</pdfrwt>
<pdfrwt beam="1">  1       -4 0.37510465E-02 0.12499961E+03</pdfrwt>
<totfact> 0.92797611E+03</totfact>
</mgrwt>
</event>
<event>
 5    1  0.3308162E-002  0.1249971E+03  0.7818608E-02  0.1235074E+00
         -4   -1    0    0    0  501 -0.00000000000E+00  0.00000000000E+00  0.27791722548E+01  0.30556011556E+01  0.12700000000E+01 0. -1.
          4   -1    0    0  501    0  0.00000000000E+00 -0.00000000000E+00 -0.13386158874E+04  0.13386164899E+04  0.12700000000E+01 0. -1.
         25    2    1    2    0    0  0.00000000000E+00  0.00000000000E+00 -0.13358367152E+04  0.13416720910E+04  0.12499708099E+03 0.  0.
    9000005    1    3    3    0    0 -0.31912165799E+02  0.51009733124E+02 -0.48681296866E+03  0.49051834385E+03  0.10000000000E+01 0.  0.
    9000005    1    3    3    0    0  0.31912165799E+02 -0.51009733124E+02 -0.84902374651E+03  0.85115374718E+03  0.10000000000E+01 0.  0.
<mgrwt>
<rscale>  0 0.12499708E+03</rscale>
<asrwt>0</asrwt>
<pdfrwt beam="2">  1        4 0.20596173E+00 0.12499708E+03</pdfrwt>
<pdfrwt beam="1">  1       -4 0.44887614E-03 0.12499708E+03</pdfrwt>
<totfact> 0.21267242E+03</totfact>
</mgrwt>
</event>
<event>
 5    1  0.3308162E-002  0.1249975E+03  0.7818608E-02  0.1235073E+00
          4   -1    0    0  501    0  0.00000000000E+00  0.00000000000E+00  0.40376877727E+02  0.40396845854E+02  0.12700000000E+01 0. -1.
         -4   -1    0    0    0  501 -0.00000000000E+00 -0.00000000000E+00 -0.96692780570E+02  0.96701120543E+02  0.12700000000E+01 0. -1.
         25    2    1    2    0    0  0.00000000000E+00  0.00000000000E+00 -0.56315902843E+02  0.13709796640E+03  0.12499748588E+03 0.  0.
    9000005    1    3    3    0    0 -0.55786978681E+01 -0.28861508132E+02  0.32325536423E+02  0.43704105374E+02  0.10000000000E+01 0.  0.
    9000005    1    3    3    0    0  0.55786978681E+01  0.28861508132E+02 -0.88641439266E+02  0.93393861023E+02  0.10000000000E+01 0.  0.
<mgrwt>
<rscale>  0 0.12499749E+03</rscale>
<asrwt>0</asrwt>
<pdfrwt beam="1">  1        4 0.62140049E-02 0.12499749E+03</pdfrwt>
<pdfrwt beam="2">  1       -4 0.14877990E-01 0.12499749E+03</pdfrwt>
<totfact> 0.10194616E+04</totfact>
</mgrwt>
</event>
<event>
 5    1  0.3308162E-002  0.1249931E+03  0.7818608E-02  0.1235080E+00
         -4   -1    0    0    0  501 -0.00000000000E+00  0.00000000000E+00  0.34209186464E+01  0.36490525325E+01  0.12700000000E+01 0.  1.
          4   -1    0    0  501    0  0.00000000000E+00 -0.00000000000E+00 -0.11046759918E+04  0.11046767218E+04  0.12700000000E+01 0.  1.
         25    2    1    2    0    0  0.00000000000E+00  0.00000000000E+00 -0.11012550731E+04  0.11083257743E+04  0.12499314371E+03 0.  0.
    9000005    1    3    3    0    0  0.59371439804E+02  0.58059465921E+01 -0.71559945729E+03  0.71808234915E+03  0.10000000000E+01 0.  0.
    9000005    1    3    3    0    0 -0.59371439804E+02 -0.58059465921E+01 -0.38565561584E+03  0.39024342520E+03  0.10000000000E+01 0.  0.
<mgrwt>
<rscale>  0 0.12499314E+03</rscale>
<asrwt>0</asrwt>
<pdfrwt beam="2">  1        4 0.16996748E+00 0.12499314E+03</pdfrwt>
<pdfrwt beam="1">  1       -4 0.54390097E-03 0.12499314E+03</pdfrwt>
<totfact> 0.27245117E+03</totfact>
</mgrwt>
</event>
<event>
 5    1  0.3308162E-002  0.1249993E+03  0.7818608E-02  0.1235070E+00
          4   -1    0    0  501    0  0.00000000000E+00  0.00000000000E+00  0.20379771556E+03  0.20380167263E+03  0.12700000000E+01 0.  1.
         -4   -1    0    0    0  501 -0.00000000000E+00 -0.00000000000E+00 -0.19141884398E+02  0.19183968263E+02  0.12700000000E+01 0.  1.
         25    2    1    2    0    0  0.00000000000E+00  0.00000000000E+00  0.18465583116E+03  0.22298564090E+03  0.12499928025E+03 0.  0.
    9000005    1    3    3    0    0  0.40460942240E+02  0.40756455641E+02  0.48376393117E+02  0.75096284425E+02  0.10000000000E+01 0.  0.
    9000005    1    3    3    0    0 -0.40460942240E+02 -0.40756455641E+02  0.13627943805E+03  0.14788935647E+03  0.10000000000E+01 0.  0.
<mgrwt>
<rscale>  0 0.12499928E+03</rscale>
<asrwt>0</asrwt>
<pdfrwt beam="1">  1        4 0.31357038E-01 0.12499928E+03</pdfrwt>
<pdfrwt beam="2">  1       -4 0.29484467E-02 0.12499928E+03</pdfrwt>
<totfact> 0.86399491E+03</totfact>
</mgrwt>
</event>
<event>
 5    1  0.3308162E-002  0.1249999E+03  0.7818608E-02  0.1235069E+00
         -4   -1    0    0    0  501 -0.00000000000E+00  0.00000000000E+00  0.31617021404E+02  0.31642517954E+02  0.12700000000E+01 0. -1.
          4   -1    0    0  501    0  0.00000000000E+00 -0.00000000000E+00 -0.12347017341E+03  0.12347670477E+03  0.12700000000E+01 0. -1.
         25    2    1    2    0    0  0.00000000000E+00  0.00000000000E+00 -0.91853152002E+02  0.15511922272E+03  0.12499988690E+03 0.  0.
    9000005    1    3    3    0    0 -0.58474797790E+02  0.55006525169E+01 -0.72416931308E+02  0.93245756443E+02  0.10000000000E+01 0.  0.
    9000005    1    3    3    0    0  0.58474797790E+02 -0.55006525169E+01 -0.19436220694E+02  0.61873466280E+02  0.10000000000E+01 0.  0.
<mgrwt>
<rscale>  0 0.12499989E+03</rscale>
<asrwt>0</asrwt>
<pdfrwt beam="2">  1        4 0.18997875E-01 0.12499989E+03</pdfrwt>
<pdfrwt beam="1">  1       -4 0.48666209E-02 0.12499989E+03</pdfrwt>
<totfact> 0.98292349E+03</totfact>
</mgrwt>
</event>
<event>
 5    1  0.3308162E-002  0.1249976E+03  0.7818608E-02  0.1235073E+00
         -4   -1    0    0    0  501 -0.00000000000E+00  0.00000000000E+00  0.12711645422E+03  0.12712279825E+03  0.12700000000E+01 0.  1.
          4   -1    0    0  501    0  0.00000000000E+00 -0.00000000000E+00 -0.30708286720E+02  0.30734537141E+02  0.12700000000E+01 0.  1.
         25    2    1    2    0    0  0.00000000000E+00  0.00000000000E+00  0.96408167503E+02  0.15785733539E+03  0.12499761428E+03 0.  0.
    9000005    1    3    3    0    0  0.45277499728E+02 -0.27140678083E+02  0.90438639848E+02  0.10472256665E+03  0.10000000000E+01 0.  0.
    9000005    1    3    3    0    0 -0.45277499728E+02  0.27140678083E+02  0.59695276556E+01  0.53134768738E+02  0.10000000000E+01 0.  0.
<mgrwt>
<rscale>  0 0.12499761E+03</rscale>
<asrwt>0</asrwt>
<pdfrwt beam="2">  1        4 0.47268591E-02 0.12499761E+03</pdfrwt>
<pdfrwt beam="1">  1       -4 0.19558885E-01 0.12499761E+03</pdfrwt>
<totfact> 0.97762715E+03</totfact>
</mgrwt>
</event>
<event>
 5    1  0.3308162E-002  0.1249974E+03  0.7818608E-02  0.1235073E+00
         -4   -1    0    0    0  501 -0.00000000000E+00  0.00000000000E+00  0.23532334451E+03  0.23532677147E+03  0.12700000000E+01 0.  1.
          4   -1    0    0  501    0  0.00000000000E+00 -0.00000000000E+00 -0.16570957490E+02  0.16619552705E+02  0.12700000000E+01 0.  1.
         25    2    1    2    0    0  0.00000000000E+00  0.00000000000E+00  0.21875238702E+03  0.25194632417E+03  0.12499737373E+03 0.  0.
    9000005    1    3    3    0    0  0.10169338283E+01 -0.34636514644E+02  0.21419511234E+03  0.21698218464E+03  0.10000000000E+01 0.  0.
    9000005    1    3    3    0    0 -0.10169338283E+01  0.34636514644E+02  0.45572746808E+01  0.34964139537E+02  0.10000000000E+01 0.  0.
<mgrwt>
<rscale>  0 0.12499737E+03</rscale>
<asrwt>0</asrwt>
<pdfrwt beam="2">  1        4 0.25533801E-02 0.12499737E+03</pdfrwt>
<pdfrwt beam="1">  1       -4 0.36207589E-01 0.12499737E+03</pdfrwt>
<totfact> 0.82054537E+03</totfact>
</mgrwt>
</event>
<event>
 5    1  0.3308162E-002  0.1250011E+03  0.7818608E-02  0.1235068E+00
          4   -1    0    0  501    0  0.00000000000E+00  0.00000000000E+00  0.44826578487E+01  0.46590901889E+01  0.12700000000E+01 0.  1.
         -4   -1    0    0    0  501 -0.00000000000E+00 -0.00000000000E+00 -0.85443398503E+03  0.85443492887E+03  0.12700000000E+01 0.  1.
         25    2    1    2    0    0  0.00000000000E+00  0.00000000000E+00 -0.84995132718E+03  0.85909401906E+03  0.12500110002E+03 0.  0.
    9000005    1    3    3    0    0  0.28152461132E+02  0.49201237238E+02 -0.24418390331E+03  0.25067928006E+03  0.10000000000E+01 0.  0.
    9000005    1    3    3    0    0 -0.28152461132E+02 -0.49201237238E+02 -0.60576742387E+03  0.60841473901E+03  0.10000000000E+01 0.  0.
<mgrwt>
<rscale>  0 0.12500110E+03</rscale>
<asrwt>0</asrwt>
<pdfrwt beam="1">  1        4 0.70328467E-03 0.12500110E+03</pdfrwt>
<pdfrwt beam="2">  1       -4 0.13146490E+00 0.12500110E+03</pdfrwt>
<totfact> 0.35757224E+03</totfact>
</mgrwt>
</event>
<event>
 5    1  0.3308162E-002  0.1250017E+03  0.7818608E-02  0.1235067E+00
         -4   -1    0    0    0  501 -0.00000000000E+00  0.00000000000E+00  0.22903547745E+02  0.22938731423E+02  0.12700000000E+01 0.  1.
          4   -1    0    0  501    0  0.00000000000E+00 -0.00000000000E+00 -0.17038849590E+03  0.17039322884E+03  0.12700000000E+01 0.  1.
         25    2    1    2    0    0  0.00000000000E+00  0.00000000000E+00 -0.14748494816E+03  0.19333196027E+03  0.12500174770E+03 0.  0.
    9000005    1    3    3    0    0  0.17576168827E+02  0.34944163389E+02  0.16365883965E+01  0.39162414215E+02  0.10000000000E+01 0.  0.
    9000005    1    3    3    0    0 -0.17576168827E+02 -0.34944163389E+02 -0.14912153655E+03  0.15416954605E+03  0.10000000000E+01 0.  0.
<mgrwt>
<rscale>  0 0.12500175E+03</rscale>
<asrwt>0</asrwt>
<pdfrwt beam="2">  1        4 0.26216684E-01 0.12500175E+03</pdfrwt>
<pdfrwt beam="1">  1       -4 0.35266934E-02 0.12500175E+03</pdfrwt>
<totfact> 0.91267204E+03</totfact>
</mgrwt>
</event>
<event>
 5    1  0.3308162E-002  0.1250000E+03  0.7818608E-02  0.1235069E+00
          4   -1    0    0  501    0  0.00000000000E+00  0.00000000000E+00  0.16401138229E+03  0.16401629925E+03  0.12700000000E+01 0. -1.
         -4   -1    0    0    0  501 -0.00000000000E+00 -0.00000000000E+00 -0.23794737455E+02  0.23828605301E+02  0.12700000000E+01 0. -1.
         25    2    1    2    0    0  0.00000000000E+00  0.00000000000E+00  0.14021664484E+03  0.18784490456E+03  0.12500000271E+03 0.  0.
    9000005    1    3    3    0    0 -0.23232444705E+02  0.23986208082E+02 -0.92704501420E+01  0.34670245326E+02  0.10000000000E+01 0.  0.
    9000005    1    3    3    0    0  0.23232444705E+02 -0.23986208082E+02  0.14948709498E+03  0.15317465923E+03  0.10000000000E+01 0.  0.
<mgrwt>
<rscale>  0 0.12500000E+03</rscale>
<asrwt>0</asrwt>
<pdfrwt beam="1">  1        4 0.25235504E-01 0.12500000E+03</pdfrwt>
<pdfrwt beam="2">  1       -4 0.36637122E-02 0.12500000E+03</pdfrwt>
<totfact> 0.92223645E+03</totfact>
</mgrwt>
</event>
<event>
 5    1  0.3308162E-002  0.1250037E+03  0.7818608E-02  0.1235064E+00
         -4   -1    0    0    0  501 -0.00000000000E+00  0.00000000000E+00  0.13331624087E+03  0.13332228989E+03  0.12700000000E+01 0.  1.
          4   -1    0    0  501    0  0.00000000000E+00 -0.00000000000E+00 -0.29281867839E+02  0.29309395834E+02  0.12700000000E+01 0.  1.
         25    2    1    2    0    0  0.00000000000E+00  0.00000000000E+00  0.10403437303E+03  0.16263168572E+03  0.12500365766E+03 0.  0.
    9000005    1    3    3    0    0 -0.24947263008E+02 -0.27689377753E+02  0.11728111818E+03  0.12306473197E+03  0.10000000000E+01 0.  0.
    9000005    1    3    3    0    0  0.24947263008E+02  0.27689377753E+02 -0.13246745152E+02  0.39566953750E+02  0.10000000000E+01 0.  0.
<mgrwt>
<rscale>  0 0.12500366E+03</rscale>
<asrwt>0</asrwt>
<pdfrwt beam="2">  1        4 0.45074854E-02 0.12500366E+03</pdfrwt>
<pdfrwt beam="1">  1       -4 0.20512774E-01 0.12500366E+03</pdfrwt>
<totfact> 0.96829843E+03</totfact>
</mgrwt>
</event>
<event>
 5    1  0.3308162E-002  0.1250172E+03  0.7818608E-02  0.1235042E+00
          4   -1    0    0  501    0  0.00000000000E+00  0.00000000000E+00  0.23172088284E+03  0.23172436308E+03  0.12700000000E+01 0.  1.
         -4   -1    0    0    0  501 -0.00000000000E+00 -0.00000000000E+00 -0.16834684947E+02  0.16882521058E+02  0.12700000000E+01 0.  1.
         25    2    1    2    0    0  0.00000000000E+00  0.00000000000E+00  0.21488619790E+03  0.24860688414E+03  0.12501721800E+03 0.  0.
    9000005    1    3    3    0    0  0.48688972221E+01  0.52675003171E+02  0.17363519908E+03  0.18151733933E+03  0.10000000000E+01 0.  0.
    9000005    1    3    3    0    0 -0.48688972221E+01 -0.52675003171E+02  0.41250998822E+02  0.67089544812E+02  0.10000000000E+01 0.  0.
<mgrwt>
<rscale>  0 0.12501722E+03</rscale>
<asrwt>0</asrwt>
<pdfrwt beam="1">  1        4 0.35653311E-01 0.12501722E+03</pdfrwt>
<pdfrwt beam="2">  1       -4 0.25938991E-02 0.12501722E+03</pdfrwt>
<totfact> 0.82500345E+03</totfact>
</mgrwt>
</event>
<event>
 5    1  0.3308162E-002  0.1250018E+03  0.7818608E-02  0.1235066E+00
         -4   -1    0    0    0  501 -0.00000000000E+00  0.00000000000E+00  0.10156598281E+04  0.10156606221E+04  0.12700000000E+01 0. -1.
          4   -1    0    0  501    0  0.00000000000E+00 -0.00000000000E+00 -0.37404767917E+01  0.39501983025E+01  0.12700000000E+01 0. -1.
         25    2    1    2    0    0  0.00000000000E+00  0.00000000000E+00  0.10119193513E+04  0.10196108204E+04  0.12500180623E+03 0.  0.
    9000005    1    3    3    0    0  0.17131641542E+02 -0.42391098633E+02  0.15847132423E+03  0.16493834906E+03  0.10000000000E+01 0.  0.
    9000005    1    3    3    0    0 -0.17131641542E+02  0.42391098633E+02  0.85344802710E+03  0.85467247138E+03  0.10000000000E+01 0.  0.
<mgrwt>
<rscale>  0 0.12500181E+03</rscale>
<asrwt>0</asrwt>
<pdfrwt beam="2">  1        4 0.59165119E-03 0.12500181E+03</pdfrwt>
<pdfrwt beam="1">  1       -4 0.15627163E+00 0.12500181E+03</pdfrwt>
<totfact> 0.29961715E+03</totfact>
</mgrwt>
</event>
<event>
 5    1  0.3308162E-002  0.1250073E+03  0.7818608E-02  0.1235058E+00
         -4   -1    0    0    0  501 -0.00000000000E+00  0.00000000000E+00  0.42368241218E+02  0.42387271249E+02  0.12700000000E+01 0.  1.
          4   -1    0    0  501    0  0.00000000000E+00 -0.00000000000E+00 -0.92164230633E+02  0.92172980359E+02  0.12700000000E+01 0.  1.
         25    2    1    2    0    0  0.00000000000E+00  0.00000000000E+00 -0.49795989415E+02  0.13456025161E+03  0.12500728279E+03 0.  0.
    9000005    1    3    3    0    0  0.36169105628E+02 -0.25684913022E+02 -0.72282288008E+02  0.84815376663E+02  0.10000000000E+01 0.  0.
    9000005    1    3    3    0    0 -0.36169105628E+02  0.25684913022E+02  0.22486298593E+02  0.49744874945E+02  0.10000000000E+01 0.  0.
<mgrwt>
<rscale>  0 0.12500728E+03</rscale>
<asrwt>0</asrwt>
<pdfrwt beam="2">  1        4 0.14181249E-01 0.12500728E+03</pdfrwt>
<pdfrwt beam="1">  1       -4 0.65203279E-02 0.12500728E+03</pdfrwt>
<totfact> 0.10245665E+04</totfact>
</mgrwt>
</event>
<event>
 5    1  0.3308162E-002  0.1250086E+03  0.7818608E-02  0.1235056E+00
          4   -1    0    0  501    0  0.00000000000E+00  0.00000000000E+00  0.99063159515E+01  0.99873918383E+01  0.12700000000E+01 0.  1.
         -4   -1    0    0    0  501 -0.00000000000E+00 -0.00000000000E+00 -0.39268380815E+03  0.39268586184E+03  0.12700000000E+01 0.  1.
         25    2    1    2    0    0  0.00000000000E+00  0.00000000000E+00 -0.38277749220E+03  0.40267325368E+03  0.12500856246E+03 0.  0.
    9000005    1    3    3    0    0 -0.33165985282E+02  0.48895413421E+02 -0.12576536603E+03  0.13895564517E+03  0.10000000000E+01 0.  0.
    9000005    1    3    3    0    0  0.33165985282E+02 -0.48895413421E+02 -0.25701212617E+03  0.26371760850E+03  0.10000000000E+01 0.  0.
<mgrwt>
<rscale>  0 0.12500856E+03</rscale>
<asrwt>0</asrwt>
<pdfrwt beam="1">  1        4 0.15304435E-02 0.12500856E+03</pdfrwt>
<pdfrwt beam="2">  1       -4 0.60419276E-01 0.12500856E+03</pdfrwt>
<totfact> 0.64281475E+03</totfact>
</mgrwt>
</event>
<event>
 5    1  0.3308162E-002  0.1250010E+03  0.7818608E-02  0.1235068E+00
         -4   -1    0    0    0  501 -0.00000000000E+00  0.00000000000E+00  0.23425702073E+02  0.23460102677E+02  0.12700000000E+01 0.  1.
          4   -1    0    0  501    0  0.00000000000E+00 -0.00000000000E+00 -0.16659420082E+03  0.16659904155E+03  0.12700000000E+01 0.  1.
         25    2    1    2    0    0  0.00000000000E+00  0.00000000000E+00 -0.14316849875E+03  0.19005914423E+03  0.12500103709E+03 0.  0.
    9000005    1    3    3    0    0 -0.12549259448E+02 -0.67104000400E+01 -0.16410525937E+03  0.16472416196E+03  0.10000000000E+01 0.  0.
    9000005    1    3    3    0    0  0.12549259448E+02  0.67104000400E+01  0.20936760621E+02  0.25334982271E+02  0.10000000000E+01 0.  0.
<mgrwt>
<rscale>  0 0.12500104E+03</rscale>
<asrwt>0</asrwt>
<pdfrwt beam="2">  1        4 0.25632895E-01 0.12500104E+03</pdfrwt>
<pdfrwt beam="1">  1       -4 0.36069728E-02 0.12500104E+03</pdfrwt>
<totfact> 0.91834892E+03</totfact>
</mgrwt>
</event>
<event>
 5    1  0.3308162E-002  0.1250062E+03  0.7818608E-02  0.1235060E+00
          4   -1    0    0  501    0  0.00000000000E+00  0.00000000000E+00  0.27876392498E+02  0.27905306999E+02  0.12700000000E+01 0.  1.
         -4   -1    0    0    0  501 -0.00000000000E+00 -0.00000000000E+00 -0.14003706871E+03  0.14004282743E+03  0.12700000000E+01 0.  1.
         25    2    1    2    0    0  0.00000000000E+00  0.00000000000E+00 -0.11216067621E+03  0.16794813443E+03  0.12500623412E+03 0.  0.
    9000005    1    3    3    0    0  0.51332936156E+02  0.13813891523E+02 -0.11933027170E+02  0.54491201775E+02  0.10000000000E+01 0.  0.
    9000005    1    3    3    0    0 -0.51332936156E+02 -0.13813891523E+02 -0.10022764904E+03  0.11345693265E+03  0.10000000000E+01 0.  0.
<mgrwt>
<rscale>  0 0.12500623E+03</rscale>
<asrwt>0</asrwt>
<pdfrwt beam="1">  1        4 0.42913430E-02 0.12500623E+03</pdfrwt>
<pdfrwt beam="2">  1       -4 0.21546831E-01 0.12500623E+03</pdfrwt>
<totfact> 0.95818542E+03</totfact>
</mgrwt>
</event>
<event>
 5    1  0.3308162E-002  0.1250035E+03  0.7818608E-02  0.1235064E+00
          4   -1    0    0  501    0  0.00000000000E+00  0.00000000000E+00  0.11599144053E+03  0.11599839299E+03  0.12700000000E+01 0. -1.
         -4   -1    0    0    0  501 -0.00000000000E+00 -0.00000000000E+00 -0.33659000410E+02  0.33682951304E+02  0.12700000000E+01 0. -1.
         25    2    1    2    0    0  0.00000000000E+00  0.00000000000E+00  0.82332440124E+02  0.14968134430E+03  0.12500349649E+03 0.  0.
    9000005    1    3    3    0    0  0.63058360176E+01 -0.17379084038E+02  0.11264784247E+03  0.11415924204E+03  0.10000000000E+01 0.  0.
    9000005    1    3    3    0    0 -0.63058360176E+01  0.17379084038E+02 -0.30315402343E+02  0.35522102261E+02  0.10000000000E+01 0.  0.
<mgrwt>
<rscale>  0 0.12500350E+03</rscale>
<asrwt>0</asrwt>
<pdfrwt beam="1">  1        4 0.17847214E-01 0.12500350E+03</pdfrwt>
<pdfrwt beam="2">  1       -4 0.51806849E-02 0.12500350E+03</pdfrwt>
<totfact> 0.99359435E+03</totfact>
</mgrwt>
</event>
<event>
 5    1  0.3308162E-002  0.1249960E+03  0.7818608E-02  0.1235076E+00
         -4   -1    0    0    0  501 -0.00000000000E+00  0.00000000000E+00  0.24522746021E+02  0.24555609795E+02  0.12700000000E+01 0. -1.
          4   -1    0    0  501    0  0.00000000000E+00 -0.00000000000E+00 -0.15913860776E+03  0.15914367528E+03  0.12700000000E+01 0. -1.
         25    2    1    2    0    0  0.00000000000E+00  0.00000000000E+00 -0.13461586174E+03  0.18369928507E+03  0.12499598835E+03 0.  0.
    9000005    1    3    3    0    0 -0.54476452048E+02 -0.30530529664E+02 -0.63955921779E+02  0.89393271559E+02  0.10000000000E+01 0.  0.
    9000005    1    3    3    0    0  0.54476452048E+02  0.30530529664E+02 -0.70659939965E+02  0.94306013515E+02  0.10000000000E+01 0.  0.
<mgrwt>
<rscale>  0 0.12499599E+03</rscale>
<asrwt>0</asrwt>
<pdfrwt beam="2">  1        4 0.24485780E-01 0.12499599E+03</pdfrwt>
<pdfrwt beam="1">  1       -4 0.37756480E-02 0.12499599E+03</pdfrwt>
<totfact> 0.92963685E+03</totfact>
</mgrwt>
</event>
<event>
 5    1  0.3308162E-002  0.1250010E+03  0.7818608E-02  0.1235068E+00
         -4   -1    0    0    0  501 -0.00000000000E+00  0.00000000000E+00  0.26653303620E+03  0.26653606188E+03  0.12700000000E+01 0. -1.
          4   -1    0    0  501    0  0.00000000000E+00 -0.00000000000E+00 -0.14625392950E+02  0.14680429794E+02  0.12700000000E+01 0. -1.
         25    2    1    2    0    0  0.00000000000E+00  0.00000000000E+00  0.25190764325E+03  0.28121649168E+03  0.12500101786E+03 0.  0.
    9000005    1    3    3    0    0 -0.50011129552E+02 -0.12957099430E+02  0.20505658396E+03  0.21146678730E+03  0.10000000000E+01 0.  0.
    9000005    1    3    3    0    0  0.50011129552E+02  0.12957099430E+02  0.46851059287E+02  0.69749704380E+02  0.10000000000E+01 0.  0.
<mgrwt>
<rscale>  0 0.12500102E+03</rscale>
<asrwt>0</asrwt>
<pdfrwt beam="2">  1        4 0.22545269E-02 0.12500102E+03</pdfrwt>
<pdfrwt beam="1">  1       -4 0.41009547E-01 0.12500102E+03</pdfrwt>
<totfact> 0.78015319E+03</totfact>
</mgrwt>
</event>
<event>
 5    1  0.3308162E-002  0.1249965E+03  0.7818608E-02  0.1235075E+00
         -4   -1    0    0    0  501 -0.00000000000E+00  0.00000000000E+00  0.22690781624E+02  0.22726294698E+02  0.12700000000E+01 0.  1.
          4   -1    0    0  501    0  0.00000000000E+00 -0.00000000000E+00 -0.17196932544E+03  0.17197401488E+03  0.12700000000E+01 0.  1.
         25    2    1    2    0    0  0.00000000000E+00  0.00000000000E+00 -0.14927854382E+03  0.19470030957E+03  0.12499650757E+03 0.  0.
    9000005    1    3    3    0    0  0.40578521212E+02  0.46174426725E+02 -0.57131326833E+02  0.83926649956E+02  0.10000000000E+01 0.  0.
    9000005    1    3    3    0    0 -0.40578521212E+02 -0.46174426725E+02 -0.92147216985E+02  0.11077365962E+03  0.10000000000E+01 0.  0.
<mgrwt>
<rscale>  0 0.12499651E+03</rscale>
<asrwt>0</asrwt>
<pdfrwt beam="2">  1        4 0.26459911E-01 0.12499651E+03</pdfrwt>
<pdfrwt beam="1">  1       -4 0.34939821E-02 0.12499651E+03</pdfrwt>
<totfact> 0.91042967E+03</totfact>
</mgrwt>
</event>
<event>
 5    1  0.3308162E-002  0.1249974E+03  0.7818608E-02  0.1235073E+00
         -4   -1    0    0    0  501 -0.00000000000E+00  0.00000000000E+00  0.13571024123E+03  0.13571618354E+03  0.12700000000E+01 0.  1.
          4   -1    0    0  501    0  0.00000000000E+00 -0.00000000000E+00 -0.28761957852E+02  0.28789982971E+02  0.12700000000E+01 0.  1.
         25    2    1    2    0    0  0.00000000000E+00  0.00000000000E+00  0.10694828337E+03  0.16450616651E+03  0.12499737398E+03 0.  0.
    9000005    1    3    3    0    0  0.25082971374E+02 -0.52804101107E+02  0.82537023153E+02  0.10114736150E+03  0.10000000000E+01 0.  0.
    9000005    1    3    3    0    0 -0.25082971374E+02  0.52804101107E+02  0.24411260221E+02  0.63358805010E+02  0.10000000000E+01 0.  0.
<mgrwt>
<rscale>  0 0.12499737E+03</rscale>
<asrwt>0</asrwt>
<pdfrwt beam="2">  1        4 0.44275294E-02 0.12499737E+03</pdfrwt>
<pdfrwt beam="1">  1       -4 0.20881112E-01 0.12499737E+03</pdfrwt>
<totfact> 0.96486690E+03</totfact>
</mgrwt>
</event>
<event>
 5    1  0.3308162E-002  0.1250068E+03  0.7818608E-02  0.1235059E+00
          4   -1    0    0  501    0  0.00000000000E+00  0.00000000000E+00  0.78931435348E+02  0.78941651782E+02  0.12700000000E+01 0. -1.
         -4   -1    0    0    0  501 -0.00000000000E+00 -0.00000000000E+00 -0.49472987127E+02  0.49489285258E+02  0.12700000000E+01 0. -1.
         25    2    1    2    0    0  0.00000000000E+00  0.00000000000E+00  0.29458448221E+02  0.12843093704E+03  0.12500682148E+03 0.  0.
    9000005    1    3    3    0    0  0.36849960244E+02 -0.23653667295E+02 -0.31082075729E+02  0.53707643573E+02  0.10000000000E+01 0.  0.
    9000005    1    3    3    0    0 -0.36849960244E+02  0.23653667295E+02  0.60540523950E+02  0.74723293467E+02  0.10000000000E+01 0.  0.
<mgrwt>
<rscale>  0 0.12500682E+03</rscale>
<asrwt>0</asrwt>
<pdfrwt beam="1">  1        4 0.12145337E-01 0.12500682E+03</pdfrwt>
<pdfrwt beam="2">  1       -4 0.76132684E-02 0.12500682E+03</pdfrwt>
<totfact> 0.10376594E+04</totfact>
</mgrwt>
</event>
<event>
 5    1  0.3308162E-002  0.1249998E+03  0.7818608E-02  0.1235070E+00
         -4   -1    0    0    0  501 -0.00000000000E+00  0.00000000000E+00  0.17987700538E+03  0.17988148867E+03  0.12700000000E+01 0. -1.
          4   -1    0    0  501    0  0.00000000000E+00 -0.00000000000E+00 -0.21692823827E+02  0.21729967916E+02  0.12700000000E+01 0. -1.
         25    2    1    2    0    0  0.00000000000E+00  0.00000000000E+00  0.15818418156E+03  0.20161145658E+03  0.12499977653E+03 0.  0.
    9000005    1    3    3    0    0 -0.76431774456E+01  0.43769609735E+02  0.14996846759E+03  0.15641527474E+03  0.10000000000E+01 0.  0.
    9000005    1    3    3    0    0  0.76431774456E+01 -0.43769609735E+02  0.82157139613E+01  0.45196181849E+02  0.10000000000E+01 0.  0.
<mgrwt>
<rscale>  0 0.12499978E+03</rscale>
<asrwt>0</asrwt>
<pdfrwt beam="2">  1        4 0.33405596E-02 0.12499978E+03</pdfrwt>
<pdfrwt beam="1">  1       -4 0.27676588E-01 0.12499978E+03</pdfrwt>
<totfact> 0.89864880E+03</totfact>
</mgrwt>
</event>
<event>
 5    1  0.3308162E-002  0.1250020E+03  0.7818608E-02  0.1235066E+00
          4   -1    0    0  501    0  0.00000000000E+00  0.00000000000E+00  0.66142260406E+02  0.66154451941E+02  0.12700000000E+01 0.  1.
         -4   -1    0    0    0  501 -0.00000000000E+00 -0.00000000000E+00 -0.59035715941E+02  0.59049374735E+02  0.12700000000E+01 0.  1.
         25    2    1    2    0    0  0.00000000000E+00  0.00000000000E+00  0.71065444652E+01  0.12520382668E+03  0.12500198094E+03 0.  0.
    9000005    1    3    3    0    0  0.27669453936E+02  0.51598119311E+02 -0.18331705287E+02  0.61359726338E+02  0.10000000000E+01 0.  0.
    9000005    1    3    3    0    0 -0.27669453936E+02 -0.51598119311E+02  0.25438249752E+02  0.63844100338E+02  0.10000000000E+01 0.  0.
<mgrwt>
<rscale>  0 0.12500198E+03</rscale>
<asrwt>0</asrwt>
<pdfrwt beam="1">  1        4 0.10177721E-01 0.12500198E+03</pdfrwt>
<pdfrwt beam="2">  1       -4 0.90844063E-02 0.12500198E+03</pdfrwt>
<totfact> 0.10447969E+04</totfact>
</mgrwt>
</event>
<event>
 5    1  0.3308162E-002  0.1250019E+03  0.7818608E-02  0.1235066E+00
          4   -1    0    0  501    0  0.00000000000E+00  0.00000000000E+00  0.57817073192E+02  0.57831019812E+02  0.12700000000E+01 0. -1.
         -4   -1    0    0    0  501 -0.00000000000E+00 -0.00000000000E+00 -0.67536168869E+02  0.67548108823E+02  0.12700000000E+01 0. -1.
         25    2    1    2    0    0  0.00000000000E+00  0.00000000000E+00 -0.97190956772E+01  0.12537912863E+03  0.12500186029E+03 0.  0.
    9000005    1    3    3    0    0  0.12947188406E+02 -0.58932030342E+02  0.11460773608E+02  0.61424451317E+02  0.10000000000E+01 0.  0.
    9000005    1    3    3    0    0 -0.12947188406E+02  0.58932030342E+02 -0.21179869285E+02  0.63954677318E+02  0.10000000000E+01 0.  0.
<mgrwt>
<rscale>  0 0.12500186E+03</rscale>
<asrwt>0</asrwt>
<pdfrwt beam="1">  1        4 0.88969256E-02 0.12500186E+03</pdfrwt>
<pdfrwt beam="2">  1       -4 0.10392171E-01 0.12500186E+03</pdfrwt>
<totfact> 0.10444191E+04</totfact>
</mgrwt>
</event>
<event>
 5    1  0.3308162E-002  0.1250006E+03  0.7818608E-02  0.1235068E+00
         -4   -1    0    0    0  501 -0.00000000000E+00  0.00000000000E+00  0.90321369960E+02  0.90330298192E+02  0.12700000000E+01 0.  1.
          4   -1    0    0  501    0  0.00000000000E+00 -0.00000000000E+00 -0.43228370827E+02  0.43247022376E+02  0.12700000000E+01 0.  1.
         25    2    1    2    0    0  0.00000000000E+00  0.00000000000E+00  0.47092999133E+02  0.13357732057E+03  0.12500060001E+03 0.  0.
    9000005    1    3    3    0    0  0.43379867000E+02  0.34822407318E+02  0.53976185868E+02  0.77516717895E+02  0.10000000000E+01 0.  0.
    9000005    1    3    3    0    0 -0.43379867000E+02 -0.34822407318E+02 -0.68831867354E+01  0.56060602673E+02  0.10000000000E+01 0.  0.
<mgrwt>
<rscale>  0 0.12500060E+03</rscale>
<asrwt>0</asrwt>
<pdfrwt beam="2">  1        4 0.66526402E-02 0.12500060E+03</pdfrwt>
<pdfrwt beam="1">  1       -4 0.13897717E-01 0.12500060E+03</pdfrwt>
<totfact> 0.10268006E+04</totfact>
</mgrwt>
</event>
<event>
 5    1  0.3308162E-002  0.1250008E+03  0.7818608E-02  0.1235068E+00
          4   -1    0    0  501    0  0.00000000000E+00  0.00000000000E+00  0.49385876985E+03  0.49386040281E+03  0.12700000000E+01 0. -1.
         -4   -1    0    0    0  501 -0.00000000000E+00 -0.00000000000E+00 -0.78571193483E+01  0.79590969622E+01  0.12700000000E+01 0. -1.
         25    2    1    2    0    0  0.00000000000E+00  0.00000000000E+00  0.48600165051E+03  0.50181949977E+03  0.12500082422E+03 0.  0.
    9000005    1    3    3    0    0  0.58127781886E+02 -0.21023321514E+02  0.20610154635E+03  0.21517357292E+03  0.10000000000E+01 0.  0.
    9000005    1    3    3    0    0 -0.58127781886E+02  0.21023321514E+02  0.27990010415E+03  0.28664592685E+03  0.10000000000E+01 0.  0.
<mgrwt>
<rscale>  0 0.12500082E+03</rscale>
<asrwt>0</asrwt>
<pdfrwt beam="1">  1        4 0.75986241E-01 0.12500082E+03</pdfrwt>
<pdfrwt beam="2">  1       -4 0.12167577E-02 0.12500082E+03</pdfrwt>
<totfact> 0.55722461E+03</totfact>
</mgrwt>
</event>
<event>
 5    1  0.3308162E-002  0.1249970E+03  0.7818608E-02  0.1235074E+00
          4   -1    0    0  501    0  0.00000000000E+00  0.00000000000E+00  0.94019378448E+03  0.94019464223E+03  0.12700000000E+01 0.  1.
         -4   -1    0    0    0  501 -0.00000000000E+00 -0.00000000000E+00 -0.40565930606E+01  0.42507466708E+01  0.12700000000E+01 0.  1.
         25    2    1    2    0    0  0.00000000000E+00  0.00000000000E+00  0.93613719142E+03  0.94444538890E+03  0.12499700578E+03 0.  0.
    9000005    1    3    3    0    0  0.25327705219E+02  0.10885350537E+02  0.44334857335E+02  0.52216502017E+02  0.10000000000E+01 0.  0.
    9000005    1    3    3    0    0 -0.25327705219E+02 -0.10885350537E+02  0.89180233409E+03  0.89222888688E+03  0.10000000000E+01 0.  0.
<mgrwt>
<rscale>  0 0.12499701E+03</rscale>
<asrwt>0</asrwt>
<pdfrwt beam="1">  1        4 0.14466019E+00 0.12499701E+03</pdfrwt>
<pdfrwt beam="2">  1       -4 0.63909215E-03 0.12499701E+03</pdfrwt>
<totfact> 0.32516132E+03</totfact>
</mgrwt>
</event>
<event>
 5    1  0.3308162E-002  0.1250566E+03  0.7818608E-02  0.1234981E+00
          4   -1    0    0  501    0  0.00000000000E+00  0.00000000000E+00  0.49621506203E+02  0.49637755568E+02  0.12700000000E+01 0. -1.
         -4   -1    0    0    0  501 -0.00000000000E+00 -0.00000000000E+00 -0.78757897153E+02  0.78768136096E+02  0.12700000000E+01 0. -1.
         25    2    1    2    0    0  0.00000000000E+00  0.00000000000E+00 -0.29136390951E+02  0.12840589166E+03  0.12505656215E+03 0.  0.
    9000005    1    3    3    0    0  0.52997703503E+02  0.56999155590E+01 -0.48116502497E+02  0.71815342556E+02  0.10000000000E+01 0.  0.
    9000005    1    3    3    0    0 -0.52997703503E+02 -0.56999155590E+01  0.18980111546E+02  0.56590549108E+02  0.10000000000E+01 0.  0.
<mgrwt>
<rscale>  0 0.12505656E+03</rscale>
<asrwt>0</asrwt>
<pdfrwt beam="1">  1        4 0.76361154E-02 0.12505656E+03</pdfrwt>
<pdfrwt beam="2">  1       -4 0.12118637E-01 0.12505656E+03</pdfrwt>
<totfact> 0.10365490E+04</totfact>
</mgrwt>
</event>
<event>
 5    1  0.3308162E-002  0.1249974E+03  0.7818608E-02  0.1235073E+00
         -4   -1    0    0    0  501 -0.00000000000E+00  0.00000000000E+00  0.13239892981E+02  0.13300664124E+02  0.12700000000E+01 0.  1.
          4   -1    0    0  501    0  0.00000000000E+00 -0.00000000000E+00 -0.29428634304E+03  0.29428908338E+03  0.12700000000E+01 0.  1.
         25    2    1    2    0    0  0.00000000000E+00  0.00000000000E+00 -0.28104645006E+03  0.30758974751E+03  0.12499738270E+03 0.  0.
    9000005    1    3    3    0    0  0.51949452795E+02  0.28030653345E+02 -0.90055053271E+02  0.10768182666E+03  0.10000000000E+01 0.  0.
    9000005    1    3    3    0    0 -0.51949452795E+02 -0.28030653345E+02 -0.19099139679E+03  0.19990792085E+03  0.10000000000E+01 0.  0.
<mgrwt>
<rscale>  0 0.12499738E+03</rscale>
<asrwt>0</asrwt>
<pdfrwt beam="2">  1        4 0.45279703E-01 0.12499738E+03</pdfrwt>
<pdfrwt beam="1">  1       -4 0.20417923E-02 0.12499738E+03</pdfrwt>
<totfact> 0.74660890E+03</totfact>
</mgrwt>
</event>
<event>
 5    1  0.3308162E-002  0.1250004E+03  0.7818608E-02  0.1235069E+00
         -4   -1    0    0    0  501 -0.00000000000E+00  0.00000000000E+00  0.11786658166E+03  0.11787342352E+03  0.12700000000E+01 0. -1.
          4   -1    0    0  501    0  0.00000000000E+00 -0.00000000000E+00 -0.33121537198E+02  0.33145876461E+02  0.12700000000E+01 0. -1.
         25    2    1    2    0    0  0.00000000000E+00  0.00000000000E+00  0.84745044458E+02  0.15101929998E+03  0.12500042562E+03 0.  0.
    9000005    1    3    3    0    0  0.11245352998E+02  0.27004933010E+02  0.10908990468E+03  0.11294835843E+03  0.10000000000E+01 0.  0.
    9000005    1    3    3    0    0 -0.11245352998E+02 -0.27004933010E+02 -0.24344860218E+02  0.38070941542E+02  0.10000000000E+01 0.  0.
<mgrwt>
<rscale>  0 0.12500043E+03</rscale>
<asrwt>0</asrwt>
<pdfrwt beam="2">  1        4 0.50980198E-02 0.12500043E+03</pdfrwt>
<pdfrwt beam="1">  1       -4 0.18135718E-01 0.12500043E+03</pdfrwt>
<totfact> 0.99099954E+03</totfact>
</mgrwt>
</event>
<event>
 5    1  0.3308162E-002  0.1249972E+03  0.7818608E-02  0.1235074E+00
         -4   -1    0    0    0  501 -0.00000000000E+00  0.00000000000E+00  0.56933784761E+02  0.56947947700E+02  0.12700000000E+01 0. -1.
          4   -1    0    0  501    0  0.00000000000E+00 -0.00000000000E+00 -0.68578734664E+02  0.68590493133E+02  0.12700000000E+01 0. -1.
         25    2    1    2    0    0  0.00000000000E+00  0.00000000000E+00 -0.11644949903E+02  0.12553844083E+03  0.12499718104E+03 0.  0.
    9000005    1    3    3    0    0  0.98613145465E+01  0.61476257534E+02 -0.46100223471E+00  0.62271890031E+02  0.10000000000E+01 0.  0.
    9000005    1    3    3    0    0 -0.98613145465E+01 -0.61476257534E+02 -0.11183947668E+02  0.63266550802E+02  0.10000000000E+01 0.  0.
<mgrwt>
<rscale>  0 0.12499718E+03</rscale>
<asrwt>0</asrwt>
<pdfrwt beam="2">  1        4 0.10552568E-01 0.12499718E+03</pdfrwt>
<pdfrwt beam="1">  1       -4 0.87610378E-02 0.12499718E+03</pdfrwt>
<totfact> 0.10441769E+04</totfact>
</mgrwt>
</event>
<event>
 5    1  0.3308162E-002  0.1250010E+03  0.7818608E-02  0.1235068E+00
          4   -1    0    0  501    0  0.00000000000E+00  0.00000000000E+00  0.40182733372E+02  0.40202797928E+02  0.12700000000E+01 0. -1.
         -4   -1    0    0    0  501 -0.00000000000E+00 -0.00000000000E+00 -0.97165152050E+02  0.97173451482E+02  0.12700000000E+01 0. -1.
         25    2    1    2    0    0  0.00000000000E+00  0.00000000000E+00 -0.56982418678E+02  0.13737624941E+03  0.12500095145E+03 0.  0.
    9000005    1    3    3    0    0  0.40910288981E+02  0.18952317208E+01 -0.80366715181E+02  0.90205612668E+02  0.10000000000E+01 0.  0.
    9000005    1    3    3    0    0 -0.40910288981E+02 -0.18952317208E+01  0.23384296503E+02  0.47170636743E+02  0.10000000000E+01 0.  0.
<mgrwt>
<rscale>  0 0.12500095E+03</rscale>
<asrwt>0</asrwt>
<pdfrwt beam="1">  1        4 0.61841408E-02 0.12500095E+03</pdfrwt>
<pdfrwt beam="2">  1       -4 0.14950667E-01 0.12500095E+03</pdfrwt>
<totfact> 0.10188006E+04</totfact>
</mgrwt>
</event>
<event>
 4    1  0.3308162E-002  0.1251843E+03  0.7818608E-02  0.1234782E+00
         -4   -1    0    0    0  501 -0.00000000000E+00  0.00000000000E+00  0.42308576100E+02  0.42327632955E+02  0.12700000000E+01 0. -1.
          4   -1    0    0  501    0  0.00000000000E+00 -0.00000000000E+00 -0.92555802994E+02  0.92564515706E+02  0.12700000000E+01 0. -1.
    9000005    1    1    2    0    0 -0.34472760814E+02 -0.48428215500E+02 -0.40324440507E+01  0.59589629129E+02  0.10000000000E+01 0.  0.
    9000005    1    1    2    0    0  0.34472760814E+02  0.48428215500E+02 -0.46214782844E+02  0.75302519533E+02  0.10000000000E+01 0.  0.
<mgrwt>
<rscale>  0 0.12518430E+03</rscale>
<asrwt>0</asrwt>
<pdfrwt beam="2">  1        4 0.14241490E-01 0.12518430E+03</pdfrwt>
<pdfrwt beam="1">  1       -4 0.65111479E-02 0.12518430E+03</pdfrwt>
<totfact> 0.10197898E+04</totfact>
</mgrwt>
</event>
<event>
 5    1  0.3308162E-002  0.1250073E+03  0.7818608E-02  0.1235058E+00
         -4   -1    0    0    0  501 -0.00000000000E+00  0.00000000000E+00  0.11363861706E+01  0.17041929259E+01  0.12700000000E+01 0.  1.
          4   -1    0    0  501    0  0.00000000000E+00 -0.00000000000E+00 -0.27500706395E+04  0.27500709328E+04  0.12700000000E+01 0.  1.
         25    2    1    2    0    0  0.00000000000E+00  0.00000000000E+00 -0.27489342534E+04  0.27517751257E+04  0.12500725237E+03 0.  0.
    9000005    1    3    3    0    0  0.13688789405E+02  0.60251645355E+02 -0.15810365293E+04  0.15822437078E+04  0.10000000000E+01 0.  0.
    9000005    1    3    3    0    0 -0.13688789405E+02 -0.60251645355E+02 -0.11678977240E+04  0.11695314179E+04  0.10000000000E+01 0.  0.
<mgrwt>
<rscale>  0 0.12500725E+03</rscale>
<asrwt>0</asrwt>
<pdfrwt beam="2">  1        4 0.42312723E+00 0.12500725E+03</pdfrwt>
<pdfrwt beam="1">  1       -4 0.21853084E-03 0.12500725E+03</pdfrwt>
<totfact> 0.29792582E+02</totfact>
</mgrwt>
</event>
<event>
 4    1  0.3308162E-002  0.1249354E+03  0.7818608E-02  0.1235170E+00
          4   -1    0    0  501    0  0.00000000000E+00  0.00000000000E+00  0.24935397809E+02  0.24967718436E+02  0.12700000000E+01 0.  1.
         -4   -1    0    0    0  501 -0.00000000000E+00 -0.00000000000E+00 -0.15635665833E+03  0.15636181600E+03  0.12700000000E+01 0.  1.
    9000005    1    1    2    0    0  0.13396686109E+02  0.58544672820E+02 -0.40813401134E+02  0.72620132377E+02  0.10000000000E+01 0.  0.
    9000005    1    1    2    0    0 -0.13396686109E+02 -0.58544672820E+02 -0.90607859387E+02  0.10870940206E+03  0.10000000000E+01 0.  0.
<mgrwt>
<rscale>  0 0.12493539E+03</rscale>
<asrwt>0</asrwt>
<pdfrwt beam="1">  1        4 0.38390981E-02 0.12493539E+03</pdfrwt>
<pdfrwt beam="2">  1       -4 0.24057753E-01 0.12493539E+03</pdfrwt>
<totfact> 0.93513609E+03</totfact>
</mgrwt>
</event>
<event>
 5    1  0.3308162E-002  0.1250014E+03  0.7818608E-02  0.1235067E+00
          4   -1    0    0  501    0  0.00000000000E+00  0.00000000000E+00  0.75603147430E+02  0.75613813561E+02  0.12700000000E+01 0.  1.
         -4   -1    0    0    0  501 -0.00000000000E+00 -0.00000000000E+00 -0.51646822120E+02  0.51662434467E+02  0.12700000000E+01 0.  1.
         25    2    1    2    0    0  0.00000000000E+00  0.00000000000E+00  0.23956325310E+02  0.12727624803E+03  0.12500135115E+03 0.  0.
    9000005    1    3    3    0    0  0.49238833494E+02 -0.14622442077E+02  0.48221697388E+02  0.70459993152E+02  0.10000000000E+01 0.  0.
    9000005    1    3    3    0    0 -0.49238833494E+02  0.14622442077E+02 -0.24265372078E+02  0.56816254876E+02  0.10000000000E+01 0.  0.
<mgrwt>
<rscale>  0 0.12500135E+03</rscale>
<asrwt>0</asrwt>
<pdfrwt beam="1">  1        4 0.11633275E-01 0.12500135E+03</pdfrwt>
<pdfrwt beam="2">  1       -4 0.79476864E-02 0.12500135E+03</pdfrwt>
<totfact> 0.10402832E+04</totfact>
</mgrwt>
</event>
<event>
 4    1  0.3308162E-002  0.1250973E+03  0.7818608E-02  0.1234917E+00
          4   -1    0    0  501    0  0.00000000000E+00  0.00000000000E+00  0.12021852408E+03  0.12022523209E+03  0.12700000000E+01 0.  1.
         -4   -1    0    0    0  501 -0.00000000000E+00 -0.00000000000E+00 -0.32523494918E+02  0.32548281394E+02  0.12700000000E+01 0.  1.
    9000005    1    1    2    0    0 -0.50124876963E+02  0.37369485147E+02  0.45719780036E+02  0.77461474277E+02  0.10000000000E+01 0.  0.
    9000005    1    1    2    0    0  0.50124876963E+02 -0.37369485147E+02  0.41975249125E+02  0.75312039209E+02  0.10000000000E+01 0.  0.
<mgrwt>
<rscale>  0 0.12509728E+03</rscale>
<asrwt>0</asrwt>
<pdfrwt beam="1">  1        4 0.18497580E-01 0.12509728E+03</pdfrwt>
<pdfrwt beam="2">  1       -4 0.50060373E-02 0.12509728E+03</pdfrwt>
<totfact> 0.98537867E+03</totfact>
</mgrwt>
</event>
<event>
 5    1  0.3308162E-002  0.1249911E+03  0.7818608E-02  0.1235083E+00
          4   -1    0    0  501    0  0.00000000000E+00  0.00000000000E+00  0.36735157846E+03  0.36735377376E+03  0.12700000000E+01 0. -1.
         -4   -1    0    0    0  501 -0.00000000000E+00 -0.00000000000E+00 -0.10591876021E+02  0.10667742856E+02  0.12700000000E+01 0. -1.
         25    2    1    2    0    0  0.00000000000E+00  0.00000000000E+00  0.35675970244E+03  0.37802151662E+03  0.12499112665E+03 0.  0.
    9000005    1    3    3    0    0  0.19290650384E+02  0.57095487656E+02  0.22832085153E+03  0.23614282785E+03  0.10000000000E+01 0.  0.
    9000005    1    3    3    0    0 -0.19290650384E+02 -0.57095487656E+02  0.12843885091E+03  0.14187868876E+03  0.10000000000E+01 0.  0.
<mgrwt>
<rscale>  0 0.12499113E+03</rscale>
<asrwt>0</asrwt>
<pdfrwt beam="1">  1        4 0.56521632E-01 0.12499113E+03</pdfrwt>
<pdfrwt beam="2">  1       -4 0.16355242E-02 0.12499113E+03</pdfrwt>
<totfact> 0.66761092E+03</totfact>
</mgrwt>
</event>
<event>
 5    1  0.3308162E-002  0.1250121E+03  0.7818608E-02  0.1235050E+00
          4   -1    0    0  501    0  0.00000000000E+00  0.00000000000E+00  0.11309280020E+03  0.11309993085E+03  0.12700000000E+01 0. -1.
         -4   -1    0    0    0  501 -0.00000000000E+00 -0.00000000000E+00 -0.34527024190E+02  0.34550373362E+02  0.12700000000E+01 0. -1.
         25    2    1    2    0    0  0.00000000000E+00  0.00000000000E+00  0.78565776012E+02  0.14765030421E+03  0.12501212410E+03 0.  0.
    9000005    1    3    3    0    0  0.55581316957E+02 -0.23572842305E+02  0.58365631812E+02  0.83979215678E+02  0.10000000000E+01 0.  0.
    9000005    1    3    3    0    0 -0.55581316957E+02  0.23572842305E+02  0.20200144199E+02  0.63671088531E+02  0.10000000000E+01 0.  0.
<mgrwt>
<rscale>  0 0.12501212E+03</rscale>
<asrwt>0</asrwt>
<pdfrwt beam="1">  1        4 0.17401237E-01 0.12501212E+03</pdfrwt>
<pdfrwt beam="2">  1       -4 0.53141946E-02 0.12501212E+03</pdfrwt>
<totfact> 0.99746927E+03</totfact>
</mgrwt>
</event>
<event>
 5    1  0.3308162E-002  0.1249992E+03  0.7818608E-02  0.1235071E+00
         -4   -1    0    0    0  501 -0.00000000000E+00  0.00000000000E+00  0.99603529601E+01  0.10040992535E+02  0.12700000000E+01 0. -1.
          4   -1    0    0  501    0  0.00000000000E+00 -0.00000000000E+00 -0.39051208684E+03  0.39051415194E+03  0.12700000000E+01 0. -1.
         25    2    1    2    0    0  0.00000000000E+00  0.00000000000E+00 -0.38055173388E+03  0.40055514447E+03  0.12499920643E+03 0.  0.
    9000005    1    3    3    0    0 -0.93255226365E+01  0.96478738258E+01 -0.38585708572E+03  0.38609161794E+03  0.10000000000E+01 0.  0.
    9000005    1    3    3    0    0  0.93255226365E+01 -0.96478738258E+01  0.53053518410E+01  0.14463526540E+02  0.10000000000E+01 0.  0.
<mgrwt>
<rscale>  0 0.12499921E+03</rscale>
<asrwt>0</asrwt>
<pdfrwt beam="2">  1        4 0.60085133E-01 0.12499921E+03</pdfrwt>
<pdfrwt beam="1">  1       -4 0.15387242E-02 0.12499921E+03</pdfrwt>
<totfact> 0.64499968E+03</totfact>
</mgrwt>
</event>
<event>
 5    1  0.3308162E-002  0.1249997E+03  0.7818608E-02  0.1235070E+00
          4   -1    0    0  501    0  0.00000000000E+00  0.00000000000E+00  0.56902802967E+02  0.56916973615E+02  0.12700000000E+01 0. -1.
         -4   -1    0    0    0  501 -0.00000000000E+00 -0.00000000000E+00 -0.68618863141E+02  0.68630614734E+02  0.12700000000E+01 0. -1.
         25    2    1    2    0    0  0.00000000000E+00  0.00000000000E+00 -0.11716060175E+02  0.12554758835E+03  0.12499972350E+03 0.  0.
    9000005    1    3    3    0    0 -0.61428898459E+02  0.76844787108E+01  0.27041172726E+01  0.61974777363E+02  0.10000000000E+01 0.  0.
    9000005    1    3    3    0    0  0.61428898459E+02 -0.76844787108E+01 -0.14420177447E+02  0.63572810986E+02  0.10000000000E+01 0.  0.
<mgrwt>
<rscale>  0 0.12499972E+03</rscale>
<asrwt>0</asrwt>
<pdfrwt beam="1">  1        4 0.87562713E-02 0.12499972E+03</pdfrwt>
<pdfrwt beam="2">  1       -4 0.10558742E-01 0.12499972E+03</pdfrwt>
<totfact> 0.10440968E+04</totfact>
</mgrwt>
</event>
<event>
 5    1  0.3308162E-002  0.1249989E+03  0.7818608E-02  0.1235071E+00
         -4   -1    0    0    0  501 -0.00000000000E+00  0.00000000000E+00  0.73758148805E+02  0.73769081702E+02  0.12700000000E+01 0. -1.
          4   -1    0    0  501    0  0.00000000000E+00 -0.00000000000E+00 -0.52936817008E+02  0.52952049016E+02  0.12700000000E+01 0. -1.
         25    2    1    2    0    0  0.00000000000E+00  0.00000000000E+00  0.20821331797E+02  0.12672113072E+03  0.12499886844E+03 0.  0.
    9000005    1    3    3    0    0 -0.61270672560E+02  0.94372045374E+00 -0.20135307172E+01  0.61319166907E+02  0.10000000000E+01 0.  0.
    9000005    1    3    3    0    0  0.61270672560E+02 -0.94372045374E+00  0.22834862514E+02  0.65401963810E+02  0.10000000000E+01 0.  0.
<mgrwt>
<rscale>  0 0.12499887E+03</rscale>
<asrwt>0</asrwt>
<pdfrwt beam="2">  1        4 0.81461384E-02 0.12499887E+03</pdfrwt>
<pdfrwt beam="1">  1       -4 0.11349420E-01 0.12499887E+03</pdfrwt>
<totfact> 0.10415476E+04</totfact>
</mgrwt>
</event>
<event>
 5    1  0.3308162E-002  0.1249998E+03  0.7818608E-02  0.1235070E+00
          4   -1    0    0  501    0  0.00000000000E+00  0.00000000000E+00  0.91946706090E+02  0.91955476513E+02  0.12700000000E+01 0.  1.
         -4   -1    0    0    0  501 -0.00000000000E+00 -0.00000000000E+00 -0.42463423618E+02  0.42482411012E+02  0.12700000000E+01 0.  1.
         25    2    1    2    0    0  0.00000000000E+00  0.00000000000E+00  0.49483282472E+02  0.13443788752E+03  0.12499980143E+03 0.  0.
    9000005    1    3    3    0    0  0.31166461414E+02  0.22195480248E+01  0.82947847006E+02  0.88643217639E+02  0.10000000000E+01 0.  0.
    9000005    1    3    3    0    0 -0.31166461414E+02 -0.22195480248E+01 -0.33464564534E+02  0.45794669886E+02  0.10000000000E+01 0.  0.
<mgrwt>
<rscale>  0 0.12499980E+03</rscale>
<asrwt>0</asrwt>
<pdfrwt beam="1">  1        4 0.14147782E-01 0.12499980E+03</pdfrwt>
<pdfrwt beam="2">  1       -4 0.65349697E-02 0.12499980E+03</pdfrwt>
<totfact> 0.10249978E+04</totfact>
</mgrwt>
</event>
<event>
 5    1  0.3308162E-002  0.1249984E+03  0.7818608E-02  0.1235072E+00
         -4   -1    0    0    0  501 -0.00000000000E+00  0.00000000000E+00  0.21826222726E+02  0.21863140179E+02  0.12700000000E+01 0. -1.
          4   -1    0    0  501    0  0.00000000000E+00 -0.00000000000E+00 -0.17877543703E+03  0.17877994794E+03  0.12700000000E+01 0. -1.
         25    2    1    2    0    0  0.00000000000E+00  0.00000000000E+00 -0.15694921430E+03  0.20064308812E+03  0.12499837175E+03 0.  0.
    9000005    1    3    3    0    0  0.57329693109E+02  0.12265685797E+02 -0.11319992601E+03  0.12748475991E+03  0.10000000000E+01 0.  0.
    9000005    1    3    3    0    0 -0.57329693109E+02 -0.12265685797E+02 -0.43749288287E+02  0.73158328204E+02  0.10000000000E+01 0.  0.
<mgrwt>
<rscale>  0 0.12499837E+03</rscale>
<asrwt>0</asrwt>
<pdfrwt beam="2">  1        4 0.27507099E-01 0.12499837E+03</pdfrwt>
<pdfrwt beam="1">  1       -4 0.33610673E-02 0.12499837E+03</pdfrwt>
<totfact> 0.90030438E+03</totfact>
</mgrwt>
</event>
<event>
 5    1  0.3308162E-002  0.1250007E+03  0.7818608E-02  0.1235068E+00
          4   -1    0    0  501    0  0.00000000000E+00  0.00000000000E+00  0.26326180815E+03  0.26326487143E+03  0.12700000000E+01 0.  1.
         -4   -1    0    0    0  501 -0.00000000000E+00 -0.00000000000E+00 -0.14807725882E+02  0.14862087531E+02  0.12700000000E+01 0.  1.
         25    2    1    2    0    0  0.00000000000E+00  0.00000000000E+00  0.24845408227E+03  0.27812695897E+03  0.12500069723E+03 0.  0.
    9000005    1    3    3    0    0 -0.15046833157E+02  0.55433738031E+02  0.17899951201E+03  0.18799237165E+03  0.10000000000E+01 0.  0.
    9000005    1    3    3    0    0  0.15046833157E+02 -0.55433738031E+02  0.69454570264E+02  0.90134587316E+02  0.10000000000E+01 0.  0.
<mgrwt>
<rscale>  0 0.12500070E+03</rscale>
<asrwt>0</asrwt>
<pdfrwt beam="1">  1        4 0.40506232E-01 0.12500070E+03</pdfrwt>
<pdfrwt beam="2">  1       -4 0.22825291E-02 0.12500070E+03</pdfrwt>
<totfact> 0.78425899E+03</totfact>
</mgrwt>
</event>
<event>
 5    1  0.3308162E-002  0.1249985E+03  0.7818608E-02  0.1235072E+00
          4   -1    0    0  501    0  0.00000000000E+00  0.00000000000E+00  0.25949649339E+03  0.25949960112E+03  0.12700000000E+01 0. -1.
         -4   -1    0    0    0  501 -0.00000000000E+00 -0.00000000000E+00 -0.15022848543E+02  0.15076434537E+02  0.12700000000E+01 0. -1.
         25    2    1    2    0    0  0.00000000000E+00  0.00000000000E+00  0.24447364485E+03  0.27457603566E+03  0.12499854532E+03 0.  0.
    9000005    1    3    3    0    0  0.56058425332E+02  0.14167559960E+02  0.70167227031E+02  0.90926929757E+02  0.10000000000E+01 0.  0.
    9000005    1    3    3    0    0 -0.56058425332E+02 -0.14167559960E+02  0.17430641782E+03  0.18364910590E+03  0.10000000000E+01 0.  0.
<mgrwt>
<rscale>  0 0.12499855E+03</rscale>
<asrwt>0</asrwt>
<pdfrwt beam="1">  1        4 0.39926896E-01 0.12499855E+03</pdfrwt>
<pdfrwt beam="2">  1       -4 0.23155687E-02 0.12499855E+03</pdfrwt>
<totfact> 0.78905377E+03</totfact>
</mgrwt>
</event>
<event>
 5    1  0.3308162E-002  0.1250091E+03  0.7818608E-02  0.1235055E+00
         -4   -1    0    0    0  501 -0.00000000000E+00  0.00000000000E+00  0.50308916160E+02  0.50324943569E+02  0.12700000000E+01 0.  1.
          4   -1    0    0  501    0  0.00000000000E+00 -0.00000000000E+00 -0.77623020091E+02  0.77633408710E+02  0.12700000000E+01 0.  1.
         25    2    1    2    0    0  0.00000000000E+00  0.00000000000E+00 -0.27314103931E+02  0.12795835228E+03  0.12500911825E+03 0.  0.
    9000005    1    3    3    0    0  0.12284365671E+02 -0.57665628038E+02  0.75584755004E+01  0.59450490737E+02  0.10000000000E+01 0.  0.
    9000005    1    3    3    0    0 -0.12284365671E+02  0.57665628038E+02 -0.34872579431E+02  0.68507861542E+02  0.10000000000E+01 0.  0.
<mgrwt>
<rscale>  0 0.12500912E+03</rscale>
<asrwt>0</asrwt>
<pdfrwt beam="2">  1        4 0.11944035E-01 0.12500912E+03</pdfrwt>
<pdfrwt beam="1">  1       -4 0.77418653E-02 0.12500912E+03</pdfrwt>
<totfact> 0.10386249E+04</totfact>
</mgrwt>
</event>
<event>
 5    1  0.3308162E-002  0.1249991E+03  0.7818608E-02  0.1235071E+00
          4   -1    0    0  501    0  0.00000000000E+00  0.00000000000E+00  0.32051812454E+02  0.32076963410E+02  0.12700000000E+01 0.  1.
         -4   -1    0    0    0  501 -0.00000000000E+00 -0.00000000000E+00 -0.12179496312E+03  0.12180158431E+03  0.12700000000E+01 0.  1.
         25    2    1    2    0    0  0.00000000000E+00  0.00000000000E+00 -0.89743150663E+02  0.15387854772E+03  0.12499909743E+03 0.  0.
    9000005    1    3    3    0    0 -0.35074454214E+02 -0.41807452799E+02 -0.73882967881E+01  0.55078737980E+02  0.10000000000E+01 0.  0.
    9000005    1    3    3    0    0  0.35074454214E+02  0.41807452799E+02 -0.82354853874E+02  0.98799809740E+02  0.10000000000E+01 0.  0.
<mgrwt>
<rscale>  0 0.12499910E+03</rscale>
<asrwt>0</asrwt>
<pdfrwt beam="1">  1        4 0.49334921E-02 0.12499910E+03</pdfrwt>
<pdfrwt beam="2">  1       -4 0.18740130E-01 0.12499910E+03</pdfrwt>
<totfact> 0.98538105E+03</totfact>
</mgrwt>
</event>
<event>
 5    1  0.3308162E-002  0.1249978E+03  0.7818608E-02  0.1235073E+00
         -4   -1    0    0    0  501 -0.00000000000E+00  0.00000000000E+00  0.15765734332E+03  0.15766245845E+03  0.12700000000E+01 0.  1.
          4   -1    0    0  501    0  0.00000000000E+00 -0.00000000000E+00 -0.24754152918E+02  0.24786709880E+02  0.12700000000E+01 0.  1.
         25    2    1    2    0    0  0.00000000000E+00  0.00000000000E+00  0.13290319041E+03  0.18244916833E+03  0.12499776399E+03 0.  0.
    9000005    1    3    3    0    0 -0.28820246075E+02 -0.53179896866E+02  0.43539649765E+02  0.74534616898E+02  0.10000000000E+01 0.  0.
    9000005    1    3    3    0    0  0.28820246075E+02  0.53179896866E+02  0.89363540643E+02  0.10791455143E+03  0.10000000000E+01 0.  0.
<mgrwt>
<rscale>  0 0.12499776E+03</rscale>
<asrwt>0</asrwt>
<pdfrwt beam="2">  1        4 0.38112291E-02 0.12499776E+03</pdfrwt>
<pdfrwt beam="1">  1       -4 0.24257873E-01 0.12499776E+03</pdfrwt>
<totfact> 0.93182664E+03</totfact>
</mgrwt>
</event>
<event>
 5    1  0.3308162E-002  0.1250265E+03  0.7818608E-02  0.1235028E+00
          4   -1    0    0  501    0  0.00000000000E+00  0.00000000000E+00  0.19231147236E+03  0.19231566577E+03  0.12700000000E+01 0.  1.
         -4   -1    0    0    0  501 -0.00000000000E+00 -0.00000000000E+00 -0.20296452577E+02  0.20336147305E+02  0.12700000000E+01 0.  1.
         25    2    1    2    0    0  0.00000000000E+00  0.00000000000E+00  0.17201501978E+03  0.21265181307E+03  0.12502650349E+03 0.  0.
    9000005    1    3    3    0    0  0.58950939685E+02 -0.20407999548E+02  0.79374853998E+02  0.10096072099E+03  0.10000000000E+01 0.  0.
    9000005    1    3    3    0    0 -0.58950939685E+02  0.20407999548E+02  0.92640165781E+02  0.11169109209E+03  0.10000000000E+01 0.  0.
<mgrwt>
<rscale>  0 0.12502650E+03</rscale>
<asrwt>0</asrwt>
<pdfrwt beam="1">  1        4 0.29589756E-01 0.12502650E+03</pdfrwt>
<pdfrwt beam="2">  1       -4 0.31259073E-02 0.12502650E+03</pdfrwt>
<totfact> 0.87992492E+03</totfact>
</mgrwt>
</event>
<event>
 5    1  0.3308162E-002  0.1250008E+03  0.7818608E-02  0.1235068E+00
         -4   -1    0    0    0  501 -0.00000000000E+00  0.00000000000E+00  0.15304794219E+04  0.15304799488E+04  0.12700000000E+01 0. -1.
          4   -1    0    0  501    0  0.00000000000E+00 -0.00000000000E+00 -0.23937937943E+01  0.27098244832E+01  0.12700000000E+01 0. -1.
         25    2    1    2    0    0  0.00000000000E+00  0.00000000000E+00  0.15280856281E+04  0.15331897733E+04  0.12500077663E+03 0.  0.
    9000005    1    3    3    0    0  0.12042634837E+02  0.47302848972E+02  0.12426644951E+04  0.12436231873E+04  0.10000000000E+01 0.  0.
    9000005    1    3    3    0    0 -0.12042634837E+02 -0.47302848972E+02  0.28542113300E+03  0.28956658602E+03  0.10000000000E+01 0.  0.
<mgrwt>
<rscale>  0 0.12500078E+03</rscale>
<asrwt>0</asrwt>
<pdfrwt beam="2">  1        4 0.39262665E-03 0.12500078E+03</pdfrwt>
<pdfrwt beam="1">  1       -4 0.23548266E+00 0.12500078E+03</pdfrwt>
<totfact> 0.17286842E+03</totfact>
</mgrwt>
</event>
<event>
 5    1  0.3308162E-002  0.1249976E+03  0.7818608E-02  0.1235073E+00
         -4   -1    0    0    0  501 -0.00000000000E+00  0.00000000000E+00  0.28219874255E+03  0.28220160028E+03  0.12700000000E+01 0. -1.
          4   -1    0    0  501    0  0.00000000000E+00 -0.00000000000E+00 -0.13809590143E+02  0.13867865010E+02  0.12700000000E+01 0. -1.
         25    2    1    2    0    0  0.00000000000E+00  0.00000000000E+00  0.26838915241E+03  0.29606946529E+03  0.12499756455E+03 0.  0.
    9000005    1    3    3    0    0 -0.57348610744E+02  0.19727184036E+02  0.16988688696E+03  0.18039007540E+03  0.10000000000E+01 0.  0.
    9000005    1    3    3    0    0  0.57348610744E+02 -0.19727184036E+02  0.98502265453E+02  0.11567938988E+03  0.10000000000E+01 0.  0.
<mgrwt>
<rscale>  0 0.12499756E+03</rscale>
<asrwt>0</asrwt>
<pdfrwt beam="2">  1        4 0.21292547E-02 0.12499756E+03</pdfrwt>
<pdfrwt beam="1">  1       -4 0.43419897E-01 0.12499756E+03</pdfrwt>
<totfact> 0.76098648E+03</totfact>
</mgrwt>
</event>
<event>
 5    1  0.3308162E-002  0.1250003E+03  0.7818608E-02  0.1235069E+00
         -4   -1    0    0    0  501 -0.00000000000E+00  0.00000000000E+00  0.29968184104E+03  0.29968453205E+03  0.12700000000E+01 0.  1.
          4   -1    0    0  501    0  0.00000000000E+00 -0.00000000000E+00 -0.13001036750E+02  0.13062919145E+02  0.12700000000E+01 0.  1.
         25    2    1    2    0    0  0.00000000000E+00  0.00000000000E+00  0.28668080429E+03  0.31274745119E+03  0.12500033872E+03 0.  0.
    9000005    1    3    3    0    0  0.22478530112E+02  0.58302022449E+02  0.14101877587E+03  0.15424560054E+03  0.10000000000E+01 0.  0.
    9000005    1    3    3    0    0 -0.22478530112E+02 -0.58302022449E+02  0.14566202841E+03  0.15850185065E+03  0.10000000000E+01 0.  0.
<mgrwt>
<rscale>  0 0.12500034E+03</rscale>
<asrwt>0</asrwt>
<pdfrwt beam="2">  1        4 0.20051269E-02 0.12500034E+03</pdfrwt>
<pdfrwt beam="1">  1       -4 0.46109862E-01 0.12500034E+03</pdfrwt>
<totfact> 0.74026550E+03</totfact>
</mgrwt>
</event>
<event>
 5    1  0.3308162E-002  0.1249977E+03  0.7818608E-02  0.1235073E+00
         -4   -1    0    0    0  501 -0.00000000000E+00  0.00000000000E+00  0.12396970212E+03  0.12397620717E+03  0.12700000000E+01 0. -1.
          4   -1    0    0  501    0  0.00000000000E+00 -0.00000000000E+00 -0.31488414924E+02  0.31514015523E+02  0.12700000000E+01 0. -1.
         25    2    1    2    0    0  0.00000000000E+00  0.00000000000E+00  0.92481287195E+02  0.15549022269E+03  0.12499768346E+03 0.  0.
    9000005    1    3    3    0    0  0.31579440375E+02 -0.25938040682E+02  0.10504993259E+03  0.11272325114E+03  0.10000000000E+01 0.  0.
    9000005    1    3    3    0    0 -0.31579440375E+02  0.25938040682E+02 -0.12568645398E+02  0.42766971554E+02  0.10000000000E+01 0.  0.
<mgrwt>
<rscale>  0 0.12499768E+03</rscale>
<asrwt>0</asrwt>
<pdfrwt beam="2">  1        4 0.48468413E-02 0.12499768E+03</pdfrwt>
<pdfrwt beam="1">  1       -4 0.19074731E-01 0.12499768E+03</pdfrwt>
<totfact> 0.98224465E+03</totfact>
</mgrwt>
</event>
<event>
 5    1  0.3308162E-002  0.1250071E+03  0.7818608E-02  0.1235058E+00
         -4   -1    0    0    0  501 -0.00000000000E+00  0.00000000000E+00  0.13826061806E+04  0.13826067639E+04  0.12700000000E+01 0.  1.
          4   -1    0    0  501    0  0.00000000000E+00 -0.00000000000E+00 -0.26822847512E+01  0.29677519247E+01  0.12700000000E+01 0.  1.
         25    2    1    2    0    0  0.00000000000E+00  0.00000000000E+00  0.13799238959E+04  0.13855745158E+04  0.12500712187E+03 0.  0.
    9000005    1    3    3    0    0 -0.25474424371E+02  0.48240049748E+02  0.10279131802E+04  0.10293602648E+04  0.10000000000E+01 0.  0.
    9000005    1    3    3    0    0  0.25474424371E+02 -0.48240049748E+02  0.35201071562E+03  0.35621425098E+03  0.10000000000E+01 0.  0.
<mgrwt>
<rscale>  0 0.12500712E+03</rscale>
<asrwt>0</asrwt>
<pdfrwt beam="2">  1        4 0.43466402E-03 0.12500712E+03</pdfrwt>
<pdfrwt beam="1">  1       -4 0.21273019E+00 0.12500712E+03</pdfrwt>
<totfact> 0.20289526E+03</totfact>
</mgrwt>
</event>
<event>
 5    1  0.3308162E-002  0.1250004E+03  0.7818608E-02  0.1235069E+00
         -4   -1    0    0    0  501 -0.00000000000E+00  0.00000000000E+00  0.14388449063E+02  0.14444388753E+02  0.12700000000E+01 0. -1.
          4   -1    0    0  501    0  0.00000000000E+00 -0.00000000000E+00 -0.27090261008E+03  0.27090558696E+03  0.12700000000E+01 0. -1.
         25    2    1    2    0    0  0.00000000000E+00  0.00000000000E+00 -0.25651416101E+03  0.28534997571E+03  0.12500037536E+03 0.  0.
    9000005    1    3    3    0    0 -0.51203217773E+02  0.35682344867E+02 -0.13557421157E+03  0.14925269206E+03  0.10000000000E+01 0.  0.
    9000005    1    3    3    0    0  0.51203217773E+02 -0.35682344867E+02 -0.12093994945E+03  0.13609728365E+03  0.10000000000E+01 0.  0.
<mgrwt>
<rscale>  0 0.12500038E+03</rscale>
<asrwt>0</asrwt>
<pdfrwt beam="2">  1        4 0.41681853E-01 0.12500038E+03</pdfrwt>
<pdfrwt beam="1">  1       -4 0.22181398E-02 0.12500038E+03</pdfrwt>
<totfact> 0.77473399E+03</totfact>
</mgrwt>
</event>
<event>
 5    1  0.3308162E-002  0.1250000E+03  0.7818608E-02  0.1235069E+00
         -4   -1    0    0    0  501 -0.00000000000E+00  0.00000000000E+00  0.61126287867E+02  0.61139479622E+02  0.12700000000E+01 0. -1.
          4   -1    0    0  501    0  0.00000000000E+00 -0.00000000000E+00 -0.63878185157E+02  0.63890808721E+02  0.12700000000E+01 0. -1.
         25    2    1    2    0    0  0.00000000000E+00  0.00000000000E+00 -0.27518972897E+01  0.12503028834E+03  0.12500000026E+03 0.  0.
    9000005    1    3    3    0    0 -0.46275005405E+02  0.41997454506E+02 -0.16721723074E+01  0.62521664008E+02  0.10000000000E+01 0.  0.
    9000005    1    3    3    0    0  0.46275005405E+02 -0.41997454506E+02 -0.10797249824E+01  0.62508624334E+02  0.10000000000E+01 0.  0.
<mgrwt>
<rscale>  0 0.12500000E+03</rscale>
<asrwt>0</asrwt>
<pdfrwt beam="2">  1        4 0.98293989E-02 0.12500000E+03</pdfrwt>
<pdfrwt beam="1">  1       -4 0.94060301E-02 0.12500000E+03</pdfrwt>
<totfact> 0.10452205E+04</totfact>
</mgrwt>
</event>
<event>
 5    1  0.3308162E-002  0.1250004E+03  0.7818608E-02  0.1235069E+00
         -4   -1    0    0    0  501 -0.00000000000E+00  0.00000000000E+00  0.29864229679E+01  0.32452460836E+01  0.12700000000E+01 0. -1.
          4   -1    0    0  501    0  0.00000000000E+00 -0.00000000000E+00 -0.12534249016E+04  0.12534255450E+04  0.12700000000E+01 0. -1.
         25    2    1    2    0    0  0.00000000000E+00  0.00000000000E+00 -0.12504384787E+04  0.12566707911E+04  0.12500035325E+03 0.  0.
    9000005    1    3    3    0    0  0.17173553951E+02 -0.48940383206E+02 -0.97567289102E+03  0.97705101317E+03  0.10000000000E+01 0.  0.
    9000005    1    3    3    0    0 -0.17173553951E+02  0.48940383206E+02 -0.27476558764E+03  0.27961977794E+03  0.10000000000E+01 0.  0.
<mgrwt>
<rscale>  0 0.12500035E+03</rscale>
<asrwt>0</asrwt>
<pdfrwt beam="2">  1        4 0.19285416E+00 0.12500035E+03</pdfrwt>
<pdfrwt beam="1">  1       -4 0.47940965E-03 0.12500035E+03</pdfrwt>
<totfact> 0.23274695E+03</totfact>
</mgrwt>
</event>
<event>
 5    1  0.3308162E-002  0.1250016E+03  0.7818608E-02  0.1235067E+00
         -4   -1    0    0    0  501 -0.00000000000E+00  0.00000000000E+00  0.33327074754E+02  0.33351264019E+02  0.12700000000E+01 0.  1.
          4   -1    0    0  501    0  0.00000000000E+00 -0.00000000000E+00 -0.11714241632E+03  0.11714930047E+03  0.12700000000E+01 0.  1.
         25    2    1    2    0    0  0.00000000000E+00  0.00000000000E+00 -0.83815341566E+02  0.15050056449E+03  0.12500163371E+03 0.  0.
    9000005    1    3    3    0    0 -0.62144030886E+02  0.14917599497E+01 -0.49640071150E+02  0.79556537043E+02  0.10000000000E+01 0.  0.
    9000005    1    3    3    0    0  0.62144030886E+02 -0.14917599497E+01 -0.34175270416E+02  0.70944027448E+02  0.10000000000E+01 0.  0.
<mgrwt>
<rscale>  0 0.12500163E+03</rscale>
<asrwt>0</asrwt>
<pdfrwt beam="2">  1        4 0.18024300E-01 0.12500163E+03</pdfrwt>
<pdfrwt beam="1">  1       -4 0.51296326E-02 0.12500163E+03</pdfrwt>
<totfact> 0.99200365E+03</totfact>
</mgrwt>
</event>
<event>
 5    1  0.3308162E-002  0.1250164E+03  0.7818608E-02  0.1235044E+00
         -4   -1    0    0    0  501 -0.00000000000E+00  0.00000000000E+00  0.25601110126E+02  0.25632591358E+02  0.12700000000E+01 0.  1.
          4   -1    0    0  501    0  0.00000000000E+00 -0.00000000000E+00 -0.15249351347E+03  0.15249880180E+03  0.12700000000E+01 0.  1.
         25    2    1    2    0    0  0.00000000000E+00  0.00000000000E+00 -0.12689240334E+03  0.17813139316E+03  0.12501644373E+03 0.  0.
    9000005    1    3    3    0    0  0.25790376745E+02  0.15037395601E+02  0.14791804534E+02  0.33332630866E+02  0.10000000000E+01 0.  0.
    9000005    1    3    3    0    0 -0.25790376745E+02 -0.15037395601E+02 -0.14168420788E+03  0.14479876229E+03  0.10000000000E+01 0.  0.
<mgrwt>
<rscale>  0 0.12501644E+03</rscale>
<asrwt>0</asrwt>
<pdfrwt beam="2">  1        4 0.23463368E-01 0.12501644E+03</pdfrwt>
<pdfrwt beam="1">  1       -4 0.39414609E-02 0.12501644E+03</pdfrwt>
<totfact> 0.93919805E+03</totfact>
</mgrwt>
</event>
<event>
 5    1  0.3308162E-002  0.1249967E+03  0.7818608E-02  0.1235074E+00
          4   -1    0    0  501    0  0.00000000000E+00  0.00000000000E+00  0.16627595507E+02  0.16676025676E+02  0.12700000000E+01 0.  1.
         -4   -1    0    0    0  501 -0.00000000000E+00 -0.00000000000E+00 -0.23452148135E+03  0.23452492003E+03  0.12700000000E+01 0.  1.
         25    2    1    2    0    0  0.00000000000E+00  0.00000000000E+00 -0.21789388584E+03  0.25120094570E+03  0.12499667850E+03 0.  0.
    9000005    1    3    3    0    0  0.41239291800E+02  0.44335882922E+02 -0.77898317969E+02  0.98668625434E+02  0.10000000000E+01 0.  0.
    9000005    1    3    3    0    0 -0.41239291800E+02 -0.44335882922E+02 -0.13999556787E+03  0.15253232027E+03  0.10000000000E+01 0.  0.
<mgrwt>
<rscale>  0 0.12499668E+03</rscale>
<asrwt>0</asrwt>
<pdfrwt beam="1">  1        4 0.25620817E-02 0.12499668E+03</pdfrwt>
<pdfrwt beam="2">  1       -4 0.36084216E-01 0.12499668E+03</pdfrwt>
<totfact> 0.82163043E+03</totfact>
</mgrwt>
</event>
<event>
 5    1  0.3308162E-002  0.1250033E+03  0.7818608E-02  0.1235064E+00
          4   -1    0    0  501    0  0.00000000000E+00  0.00000000000E+00  0.11070827153E+02  0.11143433665E+02  0.12700000000E+01 0.  1.
         -4   -1    0    0    0  501 -0.00000000000E+00 -0.00000000000E+00 -0.35163337025E+03  0.35163566369E+03  0.12700000000E+01 0.  1.
         25    2    1    2    0    0  0.00000000000E+00  0.00000000000E+00 -0.34056254310E+03  0.36277909735E+03  0.12500331080E+03 0.  0.
    9000005    1    3    3    0    0 -0.23926009231E+02 -0.51575817324E+02 -0.94996299811E+02  0.11071502079E+03  0.10000000000E+01 0.  0.
    9000005    1    3    3    0    0  0.23926009231E+02  0.51575817324E+02 -0.24556624329E+03  0.25206407656E+03  0.10000000000E+01 0.  0.
<mgrwt>
<rscale>  0 0.12500331E+03</rscale>
<asrwt>0</asrwt>
<pdfrwt beam="1">  1        4 0.17089660E-02 0.12500331E+03</pdfrwt>
<pdfrwt beam="2">  1       -4 0.54103194E-01 0.12500331E+03</pdfrwt>
<totfact> 0.68336206E+03</totfact>
</mgrwt>
</event>
<event>
 5    1  0.3308162E-002  0.1249921E+03  0.7818608E-02  0.1235082E+00
         -4   -1    0    0    0  501 -0.00000000000E+00  0.00000000000E+00  0.48377385459E+02  0.48394052567E+02  0.12700000000E+01 0.  1.
          4   -1    0    0  501    0  0.00000000000E+00 -0.00000000000E+00 -0.80699551315E+02  0.80709543936E+02  0.12700000000E+01 0.  1.
         25    2    1    2    0    0  0.00000000000E+00  0.00000000000E+00 -0.32322165855E+02  0.12910359650E+03  0.12499206465E+03 0.  0.
    9000005    1    3    3    0    0 -0.20194387446E+02  0.46988788645E+02 -0.53244644108E+02  0.73835978146E+02  0.10000000000E+01 0.  0.
    9000005    1    3    3    0    0  0.20194387446E+02 -0.46988788645E+02  0.20922478253E+02  0.55267618357E+02  0.10000000000E+01 0.  0.
<mgrwt>
<rscale>  0 0.12499206E+03</rscale>
<asrwt>0</asrwt>
<pdfrwt beam="2">  1        4 0.12417366E-01 0.12499206E+03</pdfrwt>
<pdfrwt beam="1">  1       -4 0.74447255E-02 0.12499206E+03</pdfrwt>
<totfact> 0.10365578E+04</totfact>
</mgrwt>
</event>
<event>
 5    1  0.3308162E-002  0.1249970E+03  0.7818608E-02  0.1235074E+00
          4   -1    0    0  501    0  0.00000000000E+00  0.00000000000E+00  0.79497885718E+02  0.79508029366E+02  0.12700000000E+01 0. -1.
         -4   -1    0    0    0  501 -0.00000000000E+00 -0.00000000000E+00 -0.49112692673E+02  0.49129110328E+02  0.12700000000E+01 0. -1.
         25    2    1    2    0    0  0.00000000000E+00  0.00000000000E+00  0.30385193044E+02  0.12863713969E+03  0.12499701497E+03 0.  0.
    9000005    1    3    3    0    0 -0.42403261134E+02 -0.25959232411E+02  0.54151957060E+02  0.73521104151E+02  0.10000000000E+01 0.  0.
    9000005    1    3    3    0    0  0.42403261134E+02  0.25959232411E+02 -0.23766764016E+02  0.55116035542E+02  0.10000000000E+01 0.  0.
<mgrwt>
<rscale>  0 0.12499701E+03</rscale>
<asrwt>0</asrwt>
<pdfrwt beam="1">  1        4 0.12232487E-01 0.12499701E+03</pdfrwt>
<pdfrwt beam="2">  1       -4 0.75578421E-02 0.12499701E+03</pdfrwt>
<totfact> 0.10374450E+04</totfact>
</mgrwt>
</event>
<event>
 5    1  0.3308162E-002  0.1250000E+03  0.7818608E-02  0.1235069E+00
         -4   -1    0    0    0  501 -0.00000000000E+00  0.00000000000E+00  0.52628956822E+02  0.52644277905E+02  0.12700000000E+01 0.  1.
          4   -1    0    0  501    0  0.00000000000E+00 -0.00000000000E+00 -0.74190875484E+02  0.74201744623E+02  0.12700000000E+01 0.  1.
         25    2    1    2    0    0  0.00000000000E+00  0.00000000000E+00 -0.21561918662E+02  0.12684602253E+03  0.12499998838E+03 0.  0.
    9000005    1    3    3    0    0  0.61976066868E+02  0.72908805707E+01 -0.74062681693E+01  0.62849364453E+02  0.10000000000E+01 0.  0.
    9000005    1    3    3    0    0 -0.61976066868E+02 -0.72908805707E+01 -0.14155650493E+02  0.63996658075E+02  0.10000000000E+01 0.  0.
<mgrwt>
<rscale>  0 0.12499999E+03</rscale>
<asrwt>0</asrwt>
<pdfrwt beam="2">  1        4 0.11415995E-01 0.12499999E+03</pdfrwt>
<pdfrwt beam="1">  1       -4 0.80987773E-02 0.12499999E+03</pdfrwt>
<totfact> 0.10412495E+04</totfact>
</mgrwt>
</event>
<event>
 5    1  0.3308162E-002  0.1250038E+03  0.7818608E-02  0.1235063E+00
         -4   -1    0    0    0  501 -0.00000000000E+00  0.00000000000E+00  0.37622213216E+02  0.37643642588E+02  0.12700000000E+01 0. -1.
          4   -1    0    0  501    0  0.00000000000E+00 -0.00000000000E+00 -0.10377979407E+03  0.10378756456E+03  0.12700000000E+01 0. -1.
         25    2    1    2    0    0  0.00000000000E+00  0.00000000000E+00 -0.66157580858E+02  0.14143120715E+03  0.12500384335E+03 0.  0.
    9000005    1    3    3    0    0  0.17095339259E+02  0.16696007209E+02  0.32254740724E+02  0.40154396774E+02  0.10000000000E+01 0.  0.
    9000005    1    3    3    0    0 -0.17095339259E+02 -0.16696007209E+02 -0.98412321581E+02  0.10127681038E+03  0.10000000000E+01 0.  0.
<mgrwt>
<rscale>  0 0.12500384E+03</rscale>
<asrwt>0</asrwt>
<pdfrwt beam="2">  1        4 0.15968368E-01 0.12500384E+03</pdfrwt>
<pdfrwt beam="1">  1       -4 0.57902790E-02 0.12500384E+03</pdfrwt>
<totfact> 0.10103134E+04</totfact>
</mgrwt>
</event>
<event>
 5    1  0.3308162E-002  0.1250141E+03  0.7818608E-02  0.1235047E+00
          4   -1    0    0  501    0  0.00000000000E+00  0.00000000000E+00  0.10612369134E+03  0.10613129022E+03  0.12700000000E+01 0.  1.
         -4   -1    0    0    0  501 -0.00000000000E+00 -0.00000000000E+00 -0.36796882558E+02  0.36818792294E+02  0.12700000000E+01 0.  1.
         25    2    1    2    0    0  0.00000000000E+00  0.00000000000E+00  0.69326808785E+02  0.14295008252E+03  0.12501407791E+03 0.  0.
    9000005    1    3    3    0    0 -0.19602088281E+02 -0.37708461293E+02 -0.17736560948E+02  0.46062517434E+02  0.10000000000E+01 0.  0.
    9000005    1    3    3    0    0  0.19602088281E+02  0.37708461293E+02  0.87063369733E+02  0.96887565081E+02  0.10000000000E+01 0.  0.
<mgrwt>
<rscale>  0 0.12501408E+03</rscale>
<asrwt>0</asrwt>
<pdfrwt beam="1">  1        4 0.16328991E-01 0.12501408E+03</pdfrwt>
<pdfrwt beam="2">  1       -4 0.56633289E-02 0.12501408E+03</pdfrwt>
<totfact> 0.10069612E+04</totfact>
</mgrwt>
</event>
<event>
 5    1  0.3308162E-002  0.1249995E+03  0.7818608E-02  0.1235070E+00
         -4   -1    0    0    0  501 -0.00000000000E+00  0.00000000000E+00  0.33346015208E+01  0.35682583010E+01  0.12700000000E+01 0.  1.
          4   -1    0    0  501    0  0.00000000000E+00 -0.00000000000E+00 -0.11315347288E+04  0.11315354415E+04  0.12700000000E+01 0.  1.
         25    2    1    2    0    0  0.00000000000E+00  0.00000000000E+00 -0.11282001273E+04  0.11351036998E+04  0.12499952848E+03 0.  0.
    9000005    1    3    3    0    0 -0.41558466294E+01 -0.30885621186E+02 -0.72219930313E+02  0.78663276004E+02  0.10000000000E+01 0.  0.
    9000005    1    3    3    0    0  0.41558466294E+01  0.30885621186E+02 -0.10559801970E+04  0.10564404238E+04  0.10000000000E+01 0.  0.
<mgrwt>
<rscale>  0 0.12499953E+03</rscale>
<asrwt>0</asrwt>
<pdfrwt beam="2">  1        4 0.17410000E+00 0.12499953E+03</pdfrwt>
<pdfrwt beam="1">  1       -4 0.53104494E-03 0.12499953E+03</pdfrwt>
<totfact> 0.26477517E+03</totfact>
</mgrwt>
</event>
<event>
 5    1  0.3308162E-002  0.1249953E+03  0.7818608E-02  0.1235077E+00
          4   -1    0    0  501    0  0.00000000000E+00  0.00000000000E+00  0.17390690303E+03  0.17391154022E+03  0.12700000000E+01 0. -1.
         -4   -1    0    0    0  501 -0.00000000000E+00 -0.00000000000E+00 -0.22437164963E+02  0.22473078818E+02  0.12700000000E+01 0. -1.
         25    2    1    2    0    0  0.00000000000E+00  0.00000000000E+00  0.15146973807E+03  0.19638461904E+03  0.12499534809E+03 0.  0.
    9000005    1    3    3    0    0  0.42593763595E+02  0.19839583352E+02  0.14045957519E+03  0.14811390896E+03  0.10000000000E+01 0.  0.
    9000005    1    3    3    0    0 -0.42593763595E+02 -0.19839583352E+02  0.11010162877E+02  0.48270710077E+02  0.10000000000E+01 0.  0.
<mgrwt>
<rscale>  0 0.12499535E+03</rscale>
<asrwt>0</asrwt>
<pdfrwt beam="1">  1        4 0.26758026E-01 0.12499535E+03</pdfrwt>
<pdfrwt beam="2">  1       -4 0.34549910E-02 0.12499535E+03</pdfrwt>
<totfact> 0.90757578E+03</totfact>
</mgrwt>
</event>
<event>
 5    1  0.3308162E-002  0.1249679E+03  0.7818608E-02  0.1235120E+00
          4   -1    0    0  501    0  0.00000000000E+00  0.00000000000E+00  0.26272796094E+03  0.26273103044E+03  0.12700000000E+01 0. -1.
         -4   -1    0    0    0  501 -0.00000000000E+00 -0.00000000000E+00 -0.14830097405E+02  0.14884377348E+02  0.12700000000E+01 0. -1.
         25    2    1    2    0    0  0.00000000000E+00  0.00000000000E+00  0.24789786353E+03  0.27761540779E+03  0.12496785147E+03 0.  0.
    9000005    1    3    3    0    0 -0.13566222364E+02  0.37012673106E+02  0.23162293542E+03  0.23495566512E+03  0.10000000000E+01 0.  0.
    9000005    1    3    3    0    0  0.13566222364E+02 -0.37012673106E+02  0.16274928111E+02  0.42659742671E+02  0.10000000000E+01 0.  0.
<mgrwt>
<rscale>  0 0.12496785E+03</rscale>
<asrwt>0</asrwt>
<pdfrwt beam="1">  1        4 0.40424094E-01 0.12496785E+03</pdfrwt>
<pdfrwt beam="2">  1       -4 0.22859652E-02 0.12496785E+03</pdfrwt>
<totfact> 0.78551482E+03</totfact>
</mgrwt>
</event>
<event>
 5    1  0.3308162E-002  0.1249979E+03  0.7818608E-02  0.1235073E+00
          4   -1    0    0  501    0  0.00000000000E+00  0.00000000000E+00  0.10697609532E+04  0.10697617070E+04  0.12700000000E+01 0. -1.
         -4   -1    0    0    0  501 -0.00000000000E+00 -0.00000000000E+00 -0.35401855309E+01  0.37610920745E+01  0.12700000000E+01 0. -1.
         25    2    1    2    0    0  0.00000000000E+00  0.00000000000E+00  0.10662207676E+04  0.10735227991E+04  0.12499789939E+03 0.  0.
    9000005    1    3    3    0    0  0.27036073595E+02 -0.41736025737E+02  0.20808180414E+03  0.21394364290E+03  0.10000000000E+01 0.  0.
    9000005    1    3    3    0    0 -0.27036073595E+02  0.41736025737E+02  0.85813896350E+03  0.85957915621E+03  0.10000000000E+01 0.  0.
<mgrwt>
<rscale>  0 0.12499790E+03</rscale>
<asrwt>0</asrwt>
<pdfrwt beam="1">  1        4 0.16459561E+00 0.12499790E+03</pdfrwt>
<pdfrwt beam="2">  1       -4 0.56169488E-03 0.12499790E+03</pdfrwt>
<totfact> 0.28272820E+03</totfact>
</mgrwt>
</event>
<event>
 5    1  0.3308162E-002  0.1249998E+03  0.7818608E-02  0.1235070E+00
         -4   -1    0    0    0  501 -0.00000000000E+00  0.00000000000E+00  0.25864679081E+02  0.25895839897E+02  0.12700000000E+01 0.  1.
          4   -1    0    0  501    0  0.00000000000E+00 -0.00000000000E+00 -0.15090118156E+03  0.15090652569E+03  0.12700000000E+01 0.  1.
         25    2    1    2    0    0  0.00000000000E+00  0.00000000000E+00 -0.12503650248E+03  0.17680236559E+03  0.12499979810E+03 0.  0.
    9000005    1    3    3    0    0  0.89859324323E+00  0.15715072410E+02  0.23021687156E+02  0.27906433849E+02  0.10000000000E+01 0.  0.
    9000005    1    3    3    0    0 -0.89859324323E+00 -0.15715072410E+02 -0.14805818964E+03  0.14889593174E+03  0.10000000000E+01 0.  0.
<mgrwt>
<rscale>  0 0.12499980E+03</rscale>
<asrwt>0</asrwt>
<pdfrwt beam="2">  1        4 0.23218374E-01 0.12499980E+03</pdfrwt>
<pdfrwt beam="1">  1       -4 0.39819896E-02 0.12499980E+03</pdfrwt>
<totfact> 0.94196202E+03</totfact>
</mgrwt>
</event>
<event>
 5    1  0.3308162E-002  0.1250156E+03  0.7818608E-02  0.1235045E+00
          4   -1    0    0  501    0  0.00000000000E+00  0.00000000000E+00  0.99270036161E+01  0.10007911910E+02  0.12700000000E+01 0.  1.
         -4   -1    0    0    0  501 -0.00000000000E+00 -0.00000000000E+00 -0.39191623018E+03  0.39191828789E+03  0.12700000000E+01 0.  1.
         25    2    1    2    0    0  0.00000000000E+00  0.00000000000E+00 -0.38198922656E+03  0.40192619980E+03  0.12501560251E+03 0.  0.
    9000005    1    3    3    0    0 -0.63894675786E+01 -0.60948416212E+02 -0.15152844068E+03  0.16345459024E+03  0.10000000000E+01 0.  0.
    9000005    1    3    3    0    0  0.63894675786E+01  0.60948416212E+02 -0.23046078588E+03  0.23847160955E+03  0.10000000000E+01 0.  0.
<mgrwt>
<rscale>  0 0.12501560E+03</rscale>
<asrwt>0</asrwt>
<pdfrwt beam="1">  1        4 0.15336136E-02 0.12501560E+03</pdfrwt>
<pdfrwt beam="2">  1       -4 0.60301175E-01 0.12501560E+03</pdfrwt>
<totfact> 0.64343721E+03</totfact>
</mgrwt>
</event>
<event>
 5    1  0.3308162E-002  0.1250060E+03  0.7818608E-02  0.1235060E+00
          4   -1    0    0  501    0  0.00000000000E+00  0.00000000000E+00  0.66449486952E+03  0.66449608315E+03  0.12700000000E+01 0.  1.
         -4   -1    0    0    0  501 -0.00000000000E+00 -0.00000000000E+00 -0.58092747314E+01  0.59464756710E+01  0.12700000000E+01 0.  1.
         25    2    1    2    0    0  0.00000000000E+00  0.00000000000E+00  0.65868559479E+03  0.67044255882E+03  0.12500604743E+03 0.  0.
    9000005    1    3    3    0    0  0.18594670256E+02 -0.40435926122E+02  0.94041895221E+02  0.10404664310E+03  0.10000000000E+01 0.  0.
    9000005    1    3    3    0    0 -0.18594670256E+02  0.40435926122E+02  0.56464369957E+03  0.56639591572E+03  0.10000000000E+01 0.  0.
<mgrwt>
<rscale>  0 0.12500605E+03</rscale>
<asrwt>0</asrwt>
<pdfrwt beam="1">  1        4 0.10224066E+00 0.12500605E+03</pdfrwt>
<pdfrwt beam="2">  1       -4 0.90438153E-03 0.12500605E+03</pdfrwt>
<totfact> 0.44687646E+03</totfact>
</mgrwt>
</event>
<event>
 5    1  0.3308162E-002  0.1250051E+03  0.7818608E-02  0.1235061E+00
         -4   -1    0    0    0  501 -0.00000000000E+00  0.00000000000E+00  0.36948260397E+02  0.36970080421E+02  0.12700000000E+01 0.  1.
          4   -1    0    0  501    0  0.00000000000E+00 -0.00000000000E+00 -0.10567401902E+03  0.10568165023E+03  0.12700000000E+01 0.  1.
         25    2    1    2    0    0  0.00000000000E+00  0.00000000000E+00 -0.68725758619E+02  0.14265173065E+03  0.12500514533E+03 0.  0.
    9000005    1    3    3    0    0 -0.91218856560E+01 -0.48961343775E+02  0.87174866925E+01  0.50570906225E+02  0.10000000000E+01 0.  0.
    9000005    1    3    3    0    0  0.91218856560E+01  0.48961343775E+02 -0.77443245312E+02  0.92080824424E+02  0.10000000000E+01 0.  0.
<mgrwt>
<rscale>  0 0.12500515E+03</rscale>
<asrwt>0</asrwt>
<pdfrwt beam="2">  1        4 0.16259807E-01 0.12500515E+03</pdfrwt>
<pdfrwt beam="1">  1       -4 0.56866133E-02 0.12500515E+03</pdfrwt>
<totfact> 0.10077752E+04</totfact>
</mgrwt>
</event>
<event>
 5    1  0.3308162E-002  0.1249975E+03  0.7818608E-02  0.1235073E+00
          4   -1    0    0  501    0  0.00000000000E+00  0.00000000000E+00  0.66207596337E+02  0.66219775843E+02  0.12700000000E+01 0. -1.
         -4   -1    0    0    0  501 -0.00000000000E+00 -0.00000000000E+00 -0.58973201393E+02  0.58986874664E+02  0.12700000000E+01 0. -1.
         25    2    1    2    0    0  0.00000000000E+00  0.00000000000E+00  0.72343949435E+01  0.12520665051E+03  0.12499747542E+03 0.  0.
    9000005    1    3    3    0    0  0.38420202271E+02  0.15042777141E+02 -0.43394220599E+02  0.59887022535E+02  0.10000000000E+01 0.  0.
    9000005    1    3    3    0    0 -0.38420202271E+02 -0.15042777141E+02  0.50628615542E+02  0.65319627972E+02  0.10000000000E+01 0.  0.
<mgrwt>
<rscale>  0 0.12499748E+03</rscale>
<asrwt>0</asrwt>
<pdfrwt beam="1">  1        4 0.10187773E-01 0.12499748E+03</pdfrwt>
<pdfrwt beam="2">  1       -4 0.90747889E-02 0.12499748E+03</pdfrwt>
<totfact> 0.10448972E+04</totfact>
</mgrwt>
</event>
<event>
 5    1  0.3308162E-002  0.1250036E+03  0.7818608E-02  0.1235064E+00
          4   -1    0    0  501    0  0.00000000000E+00  0.00000000000E+00  0.10471674232E+02  0.10548405625E+02  0.12700000000E+01 0. -1.
         -4   -1    0    0    0  501 -0.00000000000E+00 -0.00000000000E+00 -0.37161224649E+03  0.37161441662E+03  0.12700000000E+01 0. -1.
         25    2    1    2    0    0  0.00000000000E+00  0.00000000000E+00 -0.36114057225E+03  0.38216282224E+03  0.12500363905E+03 0.  0.
    9000005    1    3    3    0    0  0.13642260618E+02 -0.53990719642E+02 -0.26727710829E+03  0.27301861053E+03  0.10000000000E+01 0.  0.
    9000005    1    3    3    0    0 -0.13642260618E+02  0.53990719642E+02 -0.93863463969E+02  0.10914421171E+03  0.10000000000E+01 0.  0.
<mgrwt>
<rscale>  0 0.12500364E+03</rscale>
<asrwt>0</asrwt>
<pdfrwt beam="1">  1        4 0.16170964E-02 0.12500364E+03</pdfrwt>
<pdfrwt beam="2">  1       -4 0.57177174E-01 0.12500364E+03</pdfrwt>
<totfact> 0.66320058E+03</totfact>
</mgrwt>
</event>
<event>
 5    1  0.3308162E-002  0.1249830E+03  0.7818608E-02  0.1235096E+00
          4   -1    0    0  501    0  0.00000000000E+00  0.00000000000E+00  0.45562731003E+02  0.45580427340E+02  0.12700000000E+01 0.  1.
         -4   -1    0    0    0  501 -0.00000000000E+00 -0.00000000000E+00 -0.85671141342E+02  0.85680554146E+02  0.12700000000E+01 0.  1.
         25    2    1    2    0    0  0.00000000000E+00  0.00000000000E+00 -0.40108410339E+02  0.13126098149E+03  0.12498304157E+03 0.  0.
    9000005    1    3    3    0    0 -0.44302812948E+02  0.10643373388E+02  0.24850597475E+02  0.51909274961E+02  0.10000000000E+01 0.  0.
    9000005    1    3    3    0    0  0.44302812948E+02 -0.10643373388E+02 -0.64959007814E+02  0.79351706525E+02  0.10000000000E+01 0.  0.
<mgrwt>
<rscale>  0 0.12498304E+03</rscale>
<asrwt>0</asrwt>
<pdfrwt beam="1">  1        4 0.70117363E-02 0.12498304E+03</pdfrwt>
<pdfrwt beam="2">  1       -4 0.13182261E-01 0.12498304E+03</pdfrwt>
<totfact> 0.10321446E+04</totfact>
</mgrwt>
</event>
<event>
 5    1  0.3308162E-002  0.1250055E+03  0.7818608E-02  0.1235061E+00
         -4   -1    0    0    0  501 -0.00000000000E+00  0.00000000000E+00  0.41796832751E+03  0.41797025695E+03  0.12700000000E+01 0.  1.
          4   -1    0    0  501    0  0.00000000000E+00 -0.00000000000E+00 -0.93015198383E+01  0.93878203702E+01  0.12700000000E+01 0.  1.
         25    2    1    2    0    0  0.00000000000E+00  0.00000000000E+00  0.40866680767E+03  0.42735807733E+03  0.12500546614E+03 0.  0.
    9000005    1    3    3    0    0  0.18291568274E+02 -0.15906206424E+02  0.74082085027E+01  0.25366718864E+02  0.10000000000E+01 0.  0.
    9000005    1    3    3    0    0 -0.18291568274E+02  0.15906206424E+02  0.40125859917E+03  0.40199135846E+03  0.10000000000E+01 0.  0.
<mgrwt>
<rscale>  0 0.12500547E+03</rscale>
<asrwt>0</asrwt>
<pdfrwt beam="2">  1        4 0.14377899E-02 0.12500547E+03</pdfrwt>
<pdfrwt beam="1">  1       -4 0.64309608E-01 0.12500547E+03</pdfrwt>
<totfact> 0.61968725E+03</totfact>
</mgrwt>
</event>
<event>
 5    1  0.3308162E-002  0.1249985E+03  0.7818608E-02  0.1235072E+00
         -4   -1    0    0    0  501 -0.00000000000E+00  0.00000000000E+00  0.30647394439E+02  0.30673696972E+02  0.12700000000E+01 0.  1.
          4   -1    0    0  501    0  0.00000000000E+00 -0.00000000000E+00 -0.12737053170E+03  0.12737686307E+03  0.12700000000E+01 0.  1.
         25    2    1    2    0    0  0.00000000000E+00  0.00000000000E+00 -0.96723137256E+02  0.15805056004E+03  0.12499845698E+03 0.  0.
    9000005    1    3    3    0    0  0.40111727966E+02 -0.42752023201E+01  0.11986189905E+02  0.42093904829E+02  0.10000000000E+01 0.  0.
    9000005    1    3    3    0    0 -0.40111727966E+02  0.42752023201E+01 -0.10870932716E+03  0.11595665521E+03  0.10000000000E+01 0.  0.
<mgrwt>
<rscale>  0 0.12499846E+03</rscale>
<asrwt>0</asrwt>
<pdfrwt beam="2">  1        4 0.19597976E-01 0.12499846E+03</pdfrwt>
<pdfrwt beam="1">  1       -4 0.47174941E-02 0.12499846E+03</pdfrwt>
<totfact> 0.97723333E+03</totfact>
</mgrwt>
</event>
<event>
 5    1  0.3308162E-002  0.1250073E+03  0.7818608E-02  0.1235058E+00
          4   -1    0    0  501    0  0.00000000000E+00  0.00000000000E+00  0.10415008910E+03  0.10415783197E+03  0.12700000000E+01 0. -1.
         -4   -1    0    0    0  501 -0.00000000000E+00 -0.00000000000E+00 -0.37490450383E+02  0.37511955027E+02  0.12700000000E+01 0. -1.
         25    2    1    2    0    0  0.00000000000E+00  0.00000000000E+00  0.66659638721E+02  0.14166978700E+03  0.12500728424E+03 0.  0.
    9000005    1    3    3    0    0  0.31004397623E+02 -0.25667763908E+02  0.87510180065E+02  0.96328284480E+02  0.10000000000E+01 0.  0.
    9000005    1    3    3    0    0 -0.31004397623E+02  0.25667763908E+02 -0.20850541343E+02  0.45341502515E+02  0.10000000000E+01 0.  0.
<mgrwt>
<rscale>  0 0.12500728E+03</rscale>
<asrwt>0</asrwt>
<pdfrwt beam="1">  1        4 0.16025340E-01 0.12500728E+03</pdfrwt>
<pdfrwt beam="2">  1       -4 0.57700114E-02 0.12500728E+03</pdfrwt>
<totfact> 0.10097438E+04</totfact>
</mgrwt>
</event>
<event>
 5    1  0.3308162E-002  0.1250005E+03  0.7818608E-02  0.1235068E+00
          4   -1    0    0  501    0  0.00000000000E+00  0.00000000000E+00  0.15800371192E+02  0.15851328960E+02  0.12700000000E+01 0. -1.
         -4   -1    0    0    0  501 -0.00000000000E+00 -0.00000000000E+00 -0.24677671463E+03  0.24677998254E+03  0.12700000000E+01 0. -1.
         25    2    1    2    0    0  0.00000000000E+00  0.00000000000E+00 -0.23097634344E+03  0.26263131150E+03  0.12500053821E+03 0.  0.
    9000005    1    3    3    0    0 -0.57287544065E+02  0.80522030462E+01 -0.16514494103E+03  0.17498729162E+03  0.10000000000E+01 0.  0.
    9000005    1    3    3    0    0  0.57287544065E+02 -0.80522030462E+01 -0.65831402403E+02  0.87644019883E+02  0.10000000000E+01 0.  0.
<mgrwt>
<rscale>  0 0.12500054E+03</rscale>
<asrwt>0</asrwt>
<pdfrwt beam="1">  1        4 0.24349977E-02 0.12500054E+03</pdfrwt>
<pdfrwt beam="2">  1       -4 0.37969817E-01 0.12500054E+03</pdfrwt>
<totfact> 0.80537243E+03</totfact>
</mgrwt>
</event>
<event>
 5    1  0.3308162E-002  0.1250065E+03  0.7818608E-02  0.1235059E+00
         -4   -1    0    0    0  501 -0.00000000000E+00  0.00000000000E+00  0.32175549625E+03  0.32175800265E+03  0.12700000000E+01 0.  1.
          4   -1    0    0  501    0  0.00000000000E+00 -0.00000000000E+00 -0.12105928956E+02  0.12172362790E+02  0.12700000000E+01 0.  1.
         25    2    1    2    0    0  0.00000000000E+00  0.00000000000E+00  0.30964956730E+03  0.33393036544E+03  0.12500653757E+03 0.  0.
    9000005    1    3    3    0    0  0.12819106241E+02  0.28060060961E+02  0.30001108651E+03  0.30159467590E+03  0.10000000000E+01 0.  0.
    9000005    1    3    3    0    0 -0.12819106241E+02 -0.28060060961E+02  0.96384807928E+01  0.32335689539E+02  0.10000000000E+01 0.  0.
<mgrwt>
<rscale>  0 0.12500654E+03</rscale>
<asrwt>0</asrwt>
<pdfrwt beam="2">  1        4 0.18677535E-02 0.12500654E+03</pdfrwt>
<pdfrwt beam="1">  1       -4 0.49506155E-01 0.12500654E+03</pdfrwt>
<totfact> 0.71518997E+03</totfact>
</mgrwt>
</event>
<event>
 5    1  0.3308162E-002  0.1250015E+03  0.7818608E-02  0.1235067E+00
         -4   -1    0    0    0  501 -0.00000000000E+00  0.00000000000E+00  0.56183979554E+01  0.57601471843E+01  0.12700000000E+01 0.  1.
          4   -1    0    0  501    0  0.00000000000E+00 -0.00000000000E+00 -0.68647349536E+03  0.68647467013E+03  0.12700000000E+01 0.  1.
         25    2    1    2    0    0  0.00000000000E+00  0.00000000000E+00 -0.68085509741E+03  0.69223481732E+03  0.12500151456E+03 0.  0.
    9000005    1    3    3    0    0 -0.44881839100E+02 -0.43332498638E+02 -0.36059289530E+03  0.36595125503E+03  0.10000000000E+01 0.  0.
    9000005    1    3    3    0    0  0.44881839100E+02  0.43332498638E+02 -0.32026220210E+03  0.32628356228E+03  0.10000000000E+01 0.  0.
<mgrwt>
<rscale>  0 0.12500151E+03</rscale>
<asrwt>0</asrwt>
<pdfrwt beam="2">  1        4 0.10562224E+00 0.12500151E+03</pdfrwt>
<pdfrwt beam="1">  1       -4 0.87536362E-03 0.12500151E+03</pdfrwt>
<totfact> 0.43498365E+03</totfact>
</mgrwt>
</event>
<event>
 5    1  0.3308162E-002  0.1250065E+03  0.7818608E-02  0.1235059E+00
         -4   -1    0    0    0  501 -0.00000000000E+00  0.00000000000E+00  0.83414436019E+03  0.83414532699E+03  0.12700000000E+01 0. -1.
          4   -1    0    0  501    0  0.00000000000E+00 -0.00000000000E+00 -0.45963448344E+01  0.47685727253E+01  0.12700000000E+01 0. -1.
         25    2    1    2    0    0  0.00000000000E+00  0.00000000000E+00  0.82954801536E+03  0.83891389971E+03  0.12500648524E+03 0.  0.
    9000005    1    3    3    0    0 -0.44396538100E+02 -0.18546013841E+02  0.14712113864E+03  0.15479223707E+03  0.10000000000E+01 0.  0.
    9000005    1    3    3    0    0  0.44396538100E+02  0.18546013841E+02  0.68242687672E+03  0.68412166264E+03  0.10000000000E+01 0.  0.
<mgrwt>
<rscale>  0 0.12500649E+03</rscale>
<asrwt>0</asrwt>
<pdfrwt beam="2">  1        4 0.72045142E-03 0.12500649E+03</pdfrwt>
<pdfrwt beam="1">  1       -4 0.12834344E+00 0.12500649E+03</pdfrwt>
<totfact> 0.36580081E+03</totfact>
</mgrwt>
</event>
<event>
 5    1  0.3308162E-002  0.1250027E+03  0.7818608E-02  0.1235065E+00
         -4   -1    0    0    0  501 -0.00000000000E+00  0.00000000000E+00  0.43232408643E+02  0.43251058450E+02  0.12700000000E+01 0.  1.
          4   -1    0    0  501    0  0.00000000000E+00 -0.00000000000E+00 -0.90316010753E+02  0.90324939514E+02  0.12700000000E+01 0.  1.
         25    2    1    2    0    0  0.00000000000E+00  0.00000000000E+00 -0.47083602110E+02  0.13357599796E+03  0.12500272655E+03 0.  0.
    9000005    1    3    3    0    0  0.87205960636E+01 -0.30575292005E+02 -0.81032482195E+02  0.87052630331E+02  0.10000000000E+01 0.  0.
    9000005    1    3    3    0    0 -0.87205960636E+01  0.30575292005E+02  0.33948880086E+02  0.46523367633E+02  0.10000000000E+01 0.  0.
<mgrwt>
<rscale>  0 0.12500273E+03</rscale>
<asrwt>0</asrwt>
<pdfrwt beam="2">  1        4 0.13896892E-01 0.12500273E+03</pdfrwt>
<pdfrwt beam="1">  1       -4 0.66532612E-02 0.12500273E+03</pdfrwt>
<totfact> 0.10267542E+04</totfact>
</mgrwt>
</event>
<event>
 5    1  0.3308162E-002  0.1250020E+03  0.7818608E-02  0.1235066E+00
         -4   -1    0    0    0  501 -0.00000000000E+00  0.00000000000E+00  0.35633192386E+03  0.35633418706E+03  0.12700000000E+01 0. -1.
          4   -1    0    0  501    0  0.00000000000E+00 -0.00000000000E+00 -0.10923659471E+02  0.10997237664E+02  0.12700000000E+01 0. -1.
         25    2    1    2    0    0  0.00000000000E+00  0.00000000000E+00  0.34540826439E+03  0.36733142472E+03  0.12500202588E+03 0.  0.
    9000005    1    3    3    0    0  0.30367982379E+02  0.46609502248E+02  0.89033017441E+02  0.10498827672E+03  0.10000000000E+01 0.  0.
    9000005    1    3    3    0    0 -0.30367982379E+02 -0.46609502248E+02  0.25637524695E+03  0.26234314800E+03  0.10000000000E+01 0.  0.
<mgrwt>
<rscale>  0 0.12500203E+03</rscale>
<asrwt>0</asrwt>
<pdfrwt beam="2">  1        4 0.16863967E-02 0.12500203E+03</pdfrwt>
<pdfrwt beam="1">  1       -4 0.54826138E-01 0.12500203E+03</pdfrwt>
<totfact> 0.67856000E+03</totfact>
</mgrwt>
</event>
<event>
 5    1  0.3308162E-002  0.1250005E+03  0.7818608E-02  0.1235068E+00
          4   -1    0    0  501    0  0.00000000000E+00  0.00000000000E+00  0.50464664766E+02  0.50480642725E+02  0.12700000000E+01 0.  1.
         -4   -1    0    0    0  501 -0.00000000000E+00 -0.00000000000E+00 -0.77372831781E+02  0.77383253988E+02  0.12700000000E+01 0.  1.
         25    2    1    2    0    0  0.00000000000E+00  0.00000000000E+00 -0.26908167015E+02  0.12786389671E+03  0.12500050652E+03 0.  0.
    9000005    1    3    3    0    0 -0.57235299983E+02  0.44664433194E+01  0.11798526076E+02  0.58617692701E+02  0.10000000000E+01 0.  0.
    9000005    1    3    3    0    0  0.57235299983E+02 -0.44664433194E+01 -0.38706693091E+02  0.69246204012E+02  0.10000000000E+01 0.  0.
<mgrwt>
<rscale>  0 0.12500051E+03</rscale>
<asrwt>0</asrwt>
<pdfrwt beam="1">  1        4 0.77658254E-02 0.12500051E+03</pdfrwt>
<pdfrwt beam="2">  1       -4 0.11905543E-01 0.12500051E+03</pdfrwt>
<totfact> 0.10390309E+04</totfact>
</mgrwt>
</event>
<event>
 5    1  0.3308162E-002  0.1250022E+03  0.7818608E-02  0.1235066E+00
         -4   -1    0    0    0  501 -0.00000000000E+00  0.00000000000E+00  0.76278759520E+01  0.77328773130E+01  0.12700000000E+01 0. -1.
          4   -1    0    0  501    0  0.00000000000E+00 -0.00000000000E+00 -0.50851317892E+03  0.50851476481E+03  0.12700000000E+01 0. -1.
         25    2    1    2    0    0  0.00000000000E+00  0.00000000000E+00 -0.50088530297E+03  0.51624764213E+03  0.12500216508E+03 0.  0.
    9000005    1    3    3    0    0 -0.61835309480E+02  0.62854483606E+01 -0.22359094634E+03  0.23207116073E+03  0.10000000000E+01 0.  0.
    9000005    1    3    3    0    0  0.61835309480E+02 -0.62854483606E+01 -0.27729435663E+03  0.28417648139E+03  0.10000000000E+01 0.  0.
<mgrwt>
<rscale>  0 0.12500217E+03</rscale>
<asrwt>0</asrwt>
<pdfrwt beam="2">  1        4 0.78240969E-01 0.12500217E+03</pdfrwt>
<pdfrwt beam="1">  1       -4 0.11817188E-02 0.12500217E+03</pdfrwt>
<totfact> 0.54622836E+03</totfact>
</mgrwt>
</event>
<event>
 5    1  0.3308162E-002  0.1250359E+03  0.7818608E-02  0.1235013E+00
          4   -1    0    0  501    0  0.00000000000E+00  0.00000000000E+00  0.16155342744E+03  0.16155841921E+03  0.12700000000E+01 0.  1.
         -4   -1    0    0    0  501 -0.00000000000E+00 -0.00000000000E+00 -0.24171177581E+02  0.24204518703E+02  0.12700000000E+01 0.  1.
         25    2    1    2    0    0  0.00000000000E+00  0.00000000000E+00  0.13738224986E+03  0.18576293791E+03  0.12503594094E+03 0.  0.
    9000005    1    3    3    0    0  0.53145851119E+02 -0.32861138943E+02  0.66049841616E+02  0.90928089837E+02  0.10000000000E+01 0.  0.
    9000005    1    3    3    0    0 -0.53145851119E+02  0.32861138943E+02  0.71332408240E+02  0.94834848074E+02  0.10000000000E+01 0.  0.
<mgrwt>
<rscale>  0 0.12503594E+03</rscale>
<asrwt>0</asrwt>
<pdfrwt beam="1">  1        4 0.24857323E-01 0.12503594E+03</pdfrwt>
<pdfrwt beam="2">  1       -4 0.37215913E-02 0.12503594E+03</pdfrwt>
<totfact> 0.92515287E+03</totfact>
</mgrwt>
</event>
<event>
 5    1  0.3308162E-002  0.1249997E+03  0.7818608E-02  0.1235070E+00
         -4   -1    0    0    0  501 -0.00000000000E+00  0.00000000000E+00  0.68648780955E+02  0.68660527427E+02  0.12700000000E+01 0. -1.
          4   -1    0    0  501    0  0.00000000000E+00 -0.00000000000E+00 -0.56877994757E+02  0.56892171584E+02  0.12700000000E+01 0. -1.
         25    2    1    2    0    0  0.00000000000E+00  0.00000000000E+00  0.11770786198E+02  0.12555269901E+03  0.12499971529E+03 0.  0.
    9000005    1    3    3    0    0 -0.33662926671E+02  0.37535316553E+02 -0.31198659993E+02  0.59299654351E+02  0.10000000000E+01 0.  0.
    9000005    1    3    3    0    0  0.33662926671E+02 -0.37535316553E+02  0.42969446191E+02  0.66253044660E+02  0.10000000000E+01 0.  0.
<mgrwt>
<rscale>  0 0.12499972E+03</rscale>
<asrwt>0</asrwt>
<pdfrwt beam="2">  1        4 0.87524548E-02 0.12499972E+03</pdfrwt>
<pdfrwt beam="1">  1       -4 0.10563345E-01 0.12499972E+03</pdfrwt>
<totfact> 0.10440857E+04</totfact>
</mgrwt>
</event>
<event>
 5    1  0.3308162E-002  0.1250011E+03  0.7818608E-02  0.1235067E+00
         -4   -1    0    0    0  501 -0.00000000000E+00  0.00000000000E+00  0.20144660954E+03  0.20145061279E+03  0.12700000000E+01 0.  1.
          4   -1    0    0  501    0  0.00000000000E+00 -0.00000000000E+00 -0.19366353343E+02  0.19407950479E+02  0.12700000000E+01 0.  1.
         25    2    1    2    0    0  0.00000000000E+00  0.00000000000E+00  0.18208025619E+03  0.22085856327E+03  0.12500114109E+03 0.  0.
    9000005    1    3    3    0    0 -0.26813437873E+02  0.55832322082E+02  0.10572868495E+03  0.12253882430E+03  0.10000000000E+01 0.  0.
    9000005    1    3    3    0    0  0.26813437873E+02 -0.55832322082E+02  0.76351571244E+02  0.98319738970E+02  0.10000000000E+01 0.  0.
<mgrwt>
<rscale>  0 0.12500114E+03</rscale>
<asrwt>0</asrwt>
<pdfrwt beam="2">  1        4 0.29829468E-02 0.12500114E+03</pdfrwt>
<pdfrwt beam="1">  1       -4 0.30995292E-01 0.12500114E+03</pdfrwt>
<totfact> 0.86730465E+03</totfact>
</mgrwt>
</event>
<event>
 5    1  0.3308162E-002  0.1249998E+03  0.7818608E-02  0.1235070E+00
         -4   -1    0    0    0  501 -0.00000000000E+00  0.00000000000E+00  0.55919792563E+01  0.57343815711E+01  0.12700000000E+01 0. -1.
          4   -1    0    0  501    0  0.00000000000E+00 -0.00000000000E+00 -0.68961685061E+03  0.68961802002E+03  0.12700000000E+01 0. -1.
         25    2    1    2    0    0  0.00000000000E+00  0.00000000000E+00 -0.68402487135E+03  0.69535240159E+03  0.12499975111E+03 0.  0.
    9000005    1    3    3    0    0  0.57322930428E+02  0.18328944450E+02 -0.24837067005E+03  0.25555989181E+03  0.10000000000E+01 0.  0.
    9000005    1    3    3    0    0 -0.57322930428E+02 -0.18328944450E+02 -0.43565420130E+03  0.43979250979E+03  0.10000000000E+01 0.  0.
<mgrwt>
<rscale>  0 0.12499975E+03</rscale>
<asrwt>0</asrwt>
<pdfrwt beam="2">  1        4 0.10610588E+00 0.12499975E+03</pdfrwt>
<pdfrwt beam="1">  1       -4 0.87134903E-03 0.12499975E+03</pdfrwt>
<totfact> 0.43333424E+03</totfact>
</mgrwt>
</event>
<event>
 5    1  0.3308162E-002  0.1250027E+03  0.7818608E-02  0.1235065E+00
          4   -1    0    0  501    0  0.00000000000E+00  0.00000000000E+00  0.25442553048E+01  0.28436130285E+01  0.12700000000E+01 0.  1.
         -4   -1    0    0    0  501 -0.00000000000E+00 -0.00000000000E+00 -0.14497798530E+04  0.14497804092E+04  0.12700000000E+01 0.  1.
         25    2    1    2    0    0  0.00000000000E+00  0.00000000000E+00 -0.14472355977E+04  0.14526240222E+04  0.12500269950E+03 0.  0.
    9000005    1    3    3    0    0 -0.38198813191E+02 -0.44743571825E+02 -0.47867579122E+03  0.48227860169E+03  0.10000000000E+01 0.  0.
    9000005    1    3    3    0    0  0.38198813191E+02  0.44743571825E+02 -0.96855980643E+03  0.97034542055E+03  0.10000000000E+01 0.  0.
<mgrwt>
<rscale>  0 0.12500270E+03</rscale>
<asrwt>0</asrwt>
<pdfrwt beam="1">  1        4 0.41449536E-03 0.12500270E+03</pdfrwt>
<pdfrwt beam="2">  1       -4 0.22306550E+00 0.12500270E+03</pdfrwt>
<totfact> 0.18878020E+03</totfact>
</mgrwt>
</event>
<event>
 5    1  0.3308162E-002  0.1250058E+03  0.7818608E-02  0.1235060E+00
          4   -1    0    0  501    0  0.00000000000E+00  0.00000000000E+00  0.40938817654E+02  0.40958511825E+02  0.12700000000E+01 0. -1.
         -4   -1    0    0    0  501 -0.00000000000E+00 -0.00000000000E+00 -0.95378777705E+02  0.95387232566E+02  0.12700000000E+01 0. -1.
         25    2    1    2    0    0  0.00000000000E+00  0.00000000000E+00 -0.54439960051E+02  0.13634574439E+03  0.12500581092E+03 0.  0.
    9000005    1    3    3    0    0  0.37681593070E+02  0.30030550685E+02 -0.70628210157E+02  0.85504856592E+02  0.10000000000E+01 0.  0.
    9000005    1    3    3    0    0 -0.37681593070E+02 -0.30030550685E+02  0.16188250106E+02  0.50840887800E+02  0.10000000000E+01 0.  0.
<mgrwt>
<rscale>  0 0.12500581E+03</rscale>
<asrwt>0</asrwt>
<pdfrwt beam="1">  1        4 0.63004449E-02 0.12500581E+03</pdfrwt>
<pdfrwt beam="2">  1       -4 0.14675823E-01 0.12500581E+03</pdfrwt>
<totfact> 0.10208446E+04</totfact>
</mgrwt>
</event>
<event>
 5    1  0.3308162E-002  0.1249999E+03  0.7818608E-02  0.1235069E+00
         -4   -1    0    0    0  501 -0.00000000000E+00  0.00000000000E+00  0.69353339441E+02  0.69364966602E+02  0.12700000000E+01 0. -1.
          4   -1    0    0  501    0  0.00000000000E+00 -0.00000000000E+00 -0.56300329052E+02  0.56314651303E+02  0.12700000000E+01 0. -1.
         25    2    1    2    0    0  0.00000000000E+00  0.00000000000E+00  0.13053010389E+02  0.12567961791E+03  0.12499994111E+03 0.  0.
    9000005    1    3    3    0    0  0.61036181648E+01  0.15241195818E+01 -0.55986069741E+02  0.56347290088E+02  0.10000000000E+01 0.  0.
    9000005    1    3    3    0    0 -0.61036181648E+01 -0.15241195818E+01  0.69039080131E+02  0.69332327817E+02  0.10000000000E+01 0.  0.
<mgrwt>
<rscale>  0 0.12499994E+03</rscale>
<asrwt>0</asrwt>
<pdfrwt beam="2">  1        4 0.86635852E-02 0.12499994E+03</pdfrwt>
<pdfrwt beam="1">  1       -4 0.10671741E-01 0.12499994E+03</pdfrwt>
<totfact> 0.10438007E+04</totfact>
</mgrwt>
</event>
<event>
 5    1  0.3308162E-002  0.1249997E+03  0.7818608E-02  0.1235070E+00
          4   -1    0    0  501    0  0.00000000000E+00  0.00000000000E+00  0.23926328190E+03  0.23926665243E+03  0.12700000000E+01 0.  1.
         -4   -1    0    0    0  501 -0.00000000000E+00 -0.00000000000E+00 -0.16297897049E+02  0.16347304005E+02  0.12700000000E+01 0.  1.
         25    2    1    2    0    0  0.00000000000E+00  0.00000000000E+00  0.22296538485E+03  0.25561395643E+03  0.12499972753E+03 0.  0.
    9000005    1    3    3    0    0 -0.22597896224E+02 -0.50389290078E+02  0.51671517902E+02  0.75635251243E+02  0.10000000000E+01 0.  0.
    9000005    1    3    3    0    0  0.22597896224E+02  0.50389290078E+02  0.17129386695E+03  0.17997870519E+03  0.10000000000E+01 0.  0.
<mgrwt>
<rscale>  0 0.12499973E+03</rscale>
<asrwt>0</asrwt>
<pdfrwt beam="1">  1        4 0.36813792E-01 0.12499973E+03</pdfrwt>
<pdfrwt beam="2">  1       -4 0.25114288E-02 0.12499973E+03</pdfrwt>
<totfact> 0.81526044E+03</totfact>
</mgrwt>
</event>
<event>
 5    1  0.3308162E-002  0.1249948E+03  0.7818608E-02  0.1235077E+00
          4   -1    0    0  501    0  0.00000000000E+00  0.00000000000E+00  0.94440938983E+01  0.95291032925E+01  0.12700000000E+01 0. -1.
         -4   -1    0    0    0  501 -0.00000000000E+00 -0.00000000000E+00 -0.41164513126E+03  0.41164709034E+03  0.12700000000E+01 0. -1.
         25    2    1    2    0    0  0.00000000000E+00  0.00000000000E+00 -0.40220103736E+03  0.42117619364E+03  0.12499484642E+03 0.  0.
    9000005    1    3    3    0    0 -0.21408946539E+02 -0.16372823050E+02 -0.11131018336E+02  0.29177249626E+02  0.10000000000E+01 0.  0.
    9000005    1    3    3    0    0  0.21408946539E+02  0.16372823050E+02 -0.39107001902E+03  0.39199894401E+03  0.10000000000E+01 0.  0.
<mgrwt>
<rscale>  0 0.12499485E+03</rscale>
<asrwt>0</asrwt>
<pdfrwt beam="1">  1        4 0.14596277E-02 0.12499485E+03</pdfrwt>
<pdfrwt beam="2">  1       -4 0.63336696E-01 0.12499485E+03</pdfrwt>
<totfact> 0.62551157E+03</totfact>
</mgrwt>
</event>
<event>
 5    1  0.3308162E-002  0.1249971E+03  0.7818608E-02  0.1235074E+00
          4   -1    0    0  501    0  0.00000000000E+00  0.00000000000E+00  0.10293641359E+03  0.10294424774E+03  0.12700000000E+01 0. -1.
         -4   -1    0    0    0  501 -0.00000000000E+00 -0.00000000000E+00 -0.37926507292E+02  0.37947764827E+02  0.12700000000E+01 0. -1.
         25    2    1    2    0    0  0.00000000000E+00  0.00000000000E+00  0.65009906293E+02  0.14089201256E+03  0.12499708512E+03 0.  0.
    9000005    1    3    3    0    0  0.58107583660E+01 -0.56725900302E+02  0.36911208681E+01  0.57150827213E+02  0.10000000000E+01 0.  0.
    9000005    1    3    3    0    0 -0.58107583660E+01  0.56725900302E+02  0.61318785425E+02  0.83741185350E+02  0.10000000000E+01 0.  0.
<mgrwt>
<rscale>  0 0.12499709E+03</rscale>
<asrwt>0</asrwt>
<pdfrwt beam="1">  1        4 0.15838609E-01 0.12499709E+03</pdfrwt>
<pdfrwt beam="2">  1       -4 0.58370851E-02 0.12499709E+03</pdfrwt>
<totfact> 0.10115796E+04</totfact>
</mgrwt>
</event>
<event>
 5    1  0.3308162E-002  0.1249989E+03  0.7818608E-02  0.1235071E+00
          4   -1    0    0  501    0  0.00000000000E+00  0.00000000000E+00  0.20288567467E+03  0.20288964953E+03  0.12700000000E+01 0.  1.
         -4   -1    0    0    0  501 -0.00000000000E+00 -0.00000000000E+00 -0.19227996628E+02  0.19269892432E+02  0.12700000000E+01 0.  1.
         25    2    1    2    0    0  0.00000000000E+00  0.00000000000E+00  0.18365767804E+03  0.22215954196E+03  0.12499887752E+03 0.  0.
    9000005    1    3    3    0    0  0.17692026204E+02 -0.45122874355E+02  0.21719258711E+02  0.53120690698E+02  0.10000000000E+01 0.  0.
    9000005    1    3    3    0    0 -0.17692026204E+02  0.45122874355E+02  0.16193841933E+03  0.16903885126E+03  0.10000000000E+01 0.  0.
<mgrwt>
<rscale>  0 0.12499888E+03</rscale>
<asrwt>0</asrwt>
<pdfrwt beam="1">  1        4 0.31216706E-01 0.12499888E+03</pdfrwt>
<pdfrwt beam="2">  1       -4 0.29616822E-02 0.12499888E+03</pdfrwt>
<totfact> 0.86529951E+03</totfact>
</mgrwt>
</event>
<event>
 5    1  0.3308162E-002  0.1249965E+03  0.7818608E-02  0.1235075E+00
          4   -1    0    0  501    0  0.00000000000E+00  0.00000000000E+00  0.11789003477E+03  0.11789687526E+03  0.12700000000E+01 0. -1.
         -4   -1    0    0    0  501 -0.00000000000E+00 -0.00000000000E+00 -0.33112860390E+02  0.33137206026E+02  0.12700000000E+01 0. -1.
         25    2    1    2    0    0  0.00000000000E+00  0.00000000000E+00  0.84777174376E+02  0.15103408129E+03  0.12499649762E+03 0.  0.
    9000005    1    3    3    0    0  0.53048423997E+02  0.29413332653E+02  0.60543434771E+02  0.85707566295E+02  0.10000000000E+01 0.  0.
    9000005    1    3    3    0    0 -0.53048423997E+02 -0.29413332653E+02  0.24233739605E+02  0.65326514997E+02  0.10000000000E+01 0.  0.
<mgrwt>
<rscale>  0 0.12499650E+03</rscale>
<asrwt>0</asrwt>
<pdfrwt beam="1">  1        4 0.18139328E-01 0.12499650E+03</pdfrwt>
<pdfrwt beam="2">  1       -4 0.50966850E-02 0.12499650E+03</pdfrwt>
<totfact> 0.99105778E+03</totfact>
</mgrwt>
</event>
<event>
 5    1  0.3308162E-002  0.1249973E+03  0.7818608E-02  0.1235074E+00
          4   -1    0    0  501    0  0.00000000000E+00  0.00000000000E+00  0.13687749621E+02  0.13746541008E+02  0.12700000000E+01 0.  1.
         -4   -1    0    0    0  501 -0.00000000000E+00 -0.00000000000E+00 -0.28469876704E+03  0.28470159967E+03  0.12700000000E+01 0.  1.
         25    2    1    2    0    0  0.00000000000E+00  0.00000000000E+00 -0.27101101742E+03  0.29844814068E+03  0.12499728441E+03 0.  0.
    9000005    1    3    3    0    0  0.28284388948E+02 -0.35598367084E+02 -0.23786331126E+03  0.24217185064E+03  0.10000000000E+01 0.  0.
    9000005    1    3    3    0    0 -0.28284388948E+02  0.35598367084E+02 -0.33147706162E+02  0.56276290043E+02  0.10000000000E+01 0.  0.
<mgrwt>
<rscale>  0 0.12499728E+03</rscale>
<asrwt>0</asrwt>
<pdfrwt beam="1">  1        4 0.21105482E-02 0.12499728E+03</pdfrwt>
<pdfrwt beam="2">  1       -4 0.43804546E-01 0.12499728E+03</pdfrwt>
<totfact> 0.75798486E+03</totfact>
</mgrwt>
</event>
<event>
 5    1  0.3308162E-002  0.1249995E+03  0.7818608E-02  0.1235070E+00
         -4   -1    0    0    0  501 -0.00000000000E+00  0.00000000000E+00  0.99934769776E+02  0.99942839214E+02  0.12700000000E+01 0. -1.
          4   -1    0    0  501    0  0.00000000000E+00 -0.00000000000E+00 -0.39067748386E+02  0.39088385282E+02  0.12700000000E+01 0. -1.
         25    2    1    2    0    0  0.00000000000E+00  0.00000000000E+00  0.60867021390E+02  0.13903122450E+03  0.12499954837E+03 0.  0.
    9000005    1    3    3    0    0 -0.57191219530E+02  0.15888948183E+02  0.86967725757E+01  0.59999400988E+02  0.10000000000E+01 0.  0.
    9000005    1    3    3    0    0  0.57191219530E+02 -0.15888948183E+02  0.52170248814E+02  0.79031823508E+02  0.10000000000E+01 0.  0.
<mgrwt>
<rscale>  0 0.12499955E+03</rscale>
<asrwt>0</asrwt>
<pdfrwt beam="2">  1        4 0.60126311E-02 0.12499955E+03</pdfrwt>
<pdfrwt beam="1">  1       -4 0.15376788E-01 0.12499955E+03</pdfrwt>
<totfact> 0.10153807E+04</totfact>
</mgrwt>
</event>
<event>
 5    1  0.3308162E-002  0.1249991E+03  0.7818608E-02  0.1235071E+00
          4   -1    0    0  501    0  0.00000000000E+00  0.00000000000E+00  0.23140649256E+02  0.23175472983E+02  0.12700000000E+01 0.  1.
         -4   -1    0    0    0  501 -0.00000000000E+00 -0.00000000000E+00 -0.16863814102E+03  0.16864292309E+03  0.12700000000E+01 0.  1.
         25    2    1    2    0    0  0.00000000000E+00  0.00000000000E+00 -0.14549749176E+03  0.19181839607E+03  0.12499910784E+03 0.  0.
    9000005    1    3    3    0    0 -0.12976332239E+02 -0.39506352301E+02 -0.14433316290E+03  0.15020718686E+03  0.10000000000E+01 0.  0.
    9000005    1    3    3    0    0  0.12976332239E+02  0.39506352301E+02 -0.11643288647E+01  0.41611209213E+02  0.10000000000E+01 0.  0.
<mgrwt>
<rscale>  0 0.12499911E+03</rscale>
<asrwt>0</asrwt>
<pdfrwt beam="1">  1        4 0.35631466E-02 0.12499911E+03</pdfrwt>
<pdfrwt beam="2">  1       -4 0.25947375E-01 0.12499911E+03</pdfrwt>
<totfact> 0.91533708E+03</totfact>
</mgrwt>
</event>
<event>
 5    1  0.3308162E-002  0.1250051E+03  0.7818608E-02  0.1235061E+00
          4   -1    0    0  501    0  0.00000000000E+00  0.00000000000E+00  0.33022705498E+02  0.33047117550E+02  0.12700000000E+01 0. -1.
         -4   -1    0    0    0  501 -0.00000000000E+00 -0.00000000000E+00 -0.11822787281E+03  0.11823469376E+03  0.12700000000E+01 0. -1.
         25    2    1    2    0    0  0.00000000000E+00  0.00000000000E+00 -0.85205167313E+02  0.15128181131E+03  0.12500506349E+03 0.  0.
    9000005    1    3    3    0    0  0.31031488692E+02 -0.52279751842E+02 -0.25088408710E+02  0.65776545931E+02  0.10000000000E+01 0.  0.
    9000005    1    3    3    0    0 -0.31031488692E+02  0.52279751842E+02 -0.60116758603E+02  0.85505265382E+02  0.10000000000E+01 0.  0.
<mgrwt>
<rscale>  0 0.12500506E+03</rscale>
<asrwt>0</asrwt>
<pdfrwt beam="1">  1        4 0.50828188E-02 0.12500506E+03</pdfrwt>
<pdfrwt beam="2">  1       -4 0.18191306E-01 0.12500506E+03</pdfrwt>
<totfact> 0.99037515E+03</totfact>
</mgrwt>
</event>
<event>
 5    1  0.3308162E-002  0.1250027E+03  0.7818608E-02  0.1235065E+00
          4   -1    0    0  501    0  0.00000000000E+00  0.00000000000E+00  0.29771792957E+02  0.29798868366E+02  0.12700000000E+01 0. -1.
         -4   -1    0    0    0  501 -0.00000000000E+00 -0.00000000000E+00 -0.13112232041E+03  0.13112847063E+03  0.12700000000E+01 0. -1.
         25    2    1    2    0    0  0.00000000000E+00  0.00000000000E+00 -0.10135052745E+03  0.16092733900E+03  0.12500271606E+03 0.  0.
    9000005    1    3    3    0    0 -0.16394339762E+02  0.56787160494E+02 -0.24548405884E+02  0.64009219685E+02  0.10000000000E+01 0.  0.
    9000005    1    3    3    0    0  0.16394339762E+02 -0.56787160494E+02 -0.76802121569E+02  0.96918119311E+02  0.10000000000E+01 0.  0.
<mgrwt>
<rscale>  0 0.12500272E+03</rscale>
<asrwt>0</asrwt>
<pdfrwt beam="1">  1        4 0.45828317E-02 0.12500272E+03</pdfrwt>
<pdfrwt beam="2">  1       -4 0.20175220E-01 0.12500272E+03</pdfrwt>
<totfact> 0.97158368E+03</totfact>
</mgrwt>
</event>
<event>
 5    1  0.3308162E-002  0.1250099E+03  0.7818608E-02  0.1235054E+00
         -4   -1    0    0    0  501 -0.00000000000E+00  0.00000000000E+00  0.35235952490E+03  0.35236181360E+03  0.12700000000E+01 0.  1.
          4   -1    0    0  501    0  0.00000000000E+00 -0.00000000000E+00 -0.11049042737E+02  0.11121791465E+02  0.12700000000E+01 0.  1.
         25    2    1    2    0    0  0.00000000000E+00  0.00000000000E+00  0.34131048216E+03  0.36348360507E+03  0.12500994329E+03 0.  0.
    9000005    1    3    3    0    0 -0.21942276371E+02  0.36985306493E+02  0.38797962736E+02  0.57928044168E+02  0.10000000000E+01 0.  0.
    9000005    1    3    3    0    0  0.21942276371E+02 -0.36985306493E+02  0.30251251943E+03  0.30555556090E+03  0.10000000000E+01 0.  0.
<mgrwt>
<rscale>  0 0.12500994E+03</rscale>
<asrwt>0</asrwt>
<pdfrwt beam="2">  1        4 0.17056249E-02 0.12500994E+03</pdfrwt>
<pdfrwt beam="1">  1       -4 0.54214929E-01 0.12500994E+03</pdfrwt>
<totfact> 0.68251218E+03</totfact>
</mgrwt>
</event>
<event>
 5    1  0.3308162E-002  0.1249865E+03  0.7818608E-02  0.1235090E+00
          4   -1    0    0  501    0  0.00000000000E+00  0.00000000000E+00  0.11489048668E+03  0.11489750576E+03  0.12700000000E+01 0. -1.
         -4   -1    0    0    0  501 -0.00000000000E+00 -0.00000000000E+00 -0.33972478214E+02  0.33996208259E+02  0.12700000000E+01 0. -1.
         25    2    1    2    0    0  0.00000000000E+00  0.00000000000E+00  0.80918008463E+02  0.14889371401E+03  0.12498645518E+03 0.  0.
    9000005    1    3    3    0    0 -0.24101990018E+02  0.49569161908E+02  0.75523820792E+02  0.93503236532E+02  0.10000000000E+01 0.  0.
    9000005    1    3    3    0    0  0.24101990018E+02 -0.49569161908E+02  0.53941876708E+01  0.55390477482E+02  0.10000000000E+01 0.  0.
<mgrwt>
<rscale>  0 0.12498646E+03</rscale>
<asrwt>0</asrwt>
<pdfrwt beam="1">  1        4 0.17677824E-01 0.12498646E+03</pdfrwt>
<pdfrwt beam="2">  1       -4 0.52289005E-02 0.12498646E+03</pdfrwt>
<totfact> 0.99555026E+03</totfact>
</mgrwt>
</event>
<event>
 5    1  0.3308162E-002  0.1249982E+03  0.7818608E-02  0.1235072E+00
         -4   -1    0    0    0  501 -0.00000000000E+00  0.00000000000E+00  0.21689687951E+03  0.21690059761E+03  0.12700000000E+01 0.  1.
          4   -1    0    0  501    0  0.00000000000E+00 -0.00000000000E+00 -0.17982911708E+02  0.18027701282E+02  0.12700000000E+01 0.  1.
         25    2    1    2    0    0  0.00000000000E+00  0.00000000000E+00  0.19891396781E+03  0.23492829889E+03  0.12499815611E+03 0.  0.
    9000005    1    3    3    0    0 -0.56750106950E+02 -0.25815950608E+02  0.10745224735E+03  0.12423374504E+03  0.10000000000E+01 0.  0.
    9000005    1    3    3    0    0  0.56750106950E+02  0.25815950608E+02  0.91461720454E+02  0.11069455385E+03  0.10000000000E+01 0.  0.
<mgrwt>
<rscale>  0 0.12499816E+03</rscale>
<asrwt>0</asrwt>
<pdfrwt beam="2">  1        4 0.27703331E-02 0.12499816E+03</pdfrwt>
<pdfrwt beam="1">  1       -4 0.33372482E-01 0.12499816E+03</pdfrwt>
<totfact> 0.84562029E+03</totfact>
</mgrwt>
</event>
<event>
 5    1  0.3308162E-002  0.1250042E+03  0.7818608E-02  0.1235063E+00
          4   -1    0    0  501    0  0.00000000000E+00  0.00000000000E+00  0.81937689936E+03  0.81937788359E+03  0.12700000000E+01 0. -1.
         -4   -1    0    0    0  501 -0.00000000000E+00 -0.00000000000E+00 -0.46820817321E+01  0.48512667774E+01  0.12700000000E+01 0. -1.
         25    2    1    2    0    0  0.00000000000E+00  0.00000000000E+00  0.81469481763E+03  0.82422915036E+03  0.12500418567E+03 0.  0.
    9000005    1    3    3    0    0 -0.43108930380E+02  0.37944128020E+01  0.70462605035E+03  0.70595442366E+03  0.10000000000E+01 0.  0.
    9000005    1    3    3    0    0  0.43108930380E+02 -0.37944128020E+01  0.11006876728E+03  0.11827472670E+03  0.10000000000E+01 0.  0.
<mgrwt>
<rscale>  0 0.12500419E+03</rscale>
<asrwt>0</asrwt>
<pdfrwt beam="1">  1        4 0.12607108E+00 0.12500419E+03</pdfrwt>
<pdfrwt beam="2">  1       -4 0.73341020E-03 0.12500419E+03</pdfrwt>
<totfact> 0.37202287E+03</totfact>
</mgrwt>
</event>
<event>
 5    1  0.3308162E-002  0.1249996E+03  0.7818608E-02  0.1235070E+00
         -4   -1    0    0    0  501 -0.00000000000E+00  0.00000000000E+00  0.16062049092E+02  0.16112179276E+02  0.12700000000E+01 0.  1.
          4   -1    0    0  501    0  0.00000000000E+00 -0.00000000000E+00 -0.24276520920E+03  0.24276853111E+03  0.12700000000E+01 0.  1.
         25    2    1    2    0    0  0.00000000000E+00  0.00000000000E+00 -0.22670316011E+03  0.25888071039E+03  0.12499959763E+03 0.  0.
    9000005    1    3    3    0    0 -0.37948664498E+02 -0.67402577858E+00 -0.21616987878E+03  0.21947886445E+03  0.10000000000E+01 0.  0.
    9000005    1    3    3    0    0  0.37948664498E+02  0.67402577858E+00 -0.10533281330E+02  0.39401845941E+02  0.10000000000E+01 0.  0.
<mgrwt>
<rscale>  0 0.12499960E+03</rscale>
<asrwt>0</asrwt>
<pdfrwt beam="2">  1        4 0.37352603E-01 0.12499960E+03</pdfrwt>
<pdfrwt beam="1">  1       -4 0.24751964E-02 0.12499960E+03</pdfrwt>
<totfact> 0.81064121E+03</totfact>
</mgrwt>
</event>
<event>
 5    1  0.3308162E-002  0.1250058E+03  0.7818608E-02  0.1235060E+00
          4   -1    0    0  501    0  0.00000000000E+00  0.00000000000E+00  0.16694593480E+03  0.16695076534E+03  0.12700000000E+01 0.  1.
         -4   -1    0    0    0  501 -0.00000000000E+00 -0.00000000000E+00 -0.23378065290E+02  0.23412535888E+02  0.12700000000E+01 0.  1.
         25    2    1    2    0    0  0.00000000000E+00  0.00000000000E+00  0.14356786951E+03  0.19036330123E+03  0.12500581305E+03 0.  0.
    9000005    1    3    3    0    0  0.56430549312E+02  0.23674295505E+02  0.91090593145E+02  0.10974231327E+03  0.10000000000E+01 0.  0.
    9000005    1    3    3    0    0 -0.56430549312E+02 -0.23674295505E+02  0.52477276368E+02  0.80620987952E+02  0.10000000000E+01 0.  0.
<mgrwt>
<rscale>  0 0.12500581E+03</rscale>
<asrwt>0</asrwt>
<pdfrwt beam="1">  1        4 0.25687013E-01 0.12500581E+03</pdfrwt>
<pdfrwt beam="2">  1       -4 0.35996487E-02 0.12500581E+03</pdfrwt>
<totfact> 0.91772190E+03</totfact>
</mgrwt>
</event>
<event>
 5    1  0.3308162E-002  0.1250024E+03  0.7818608E-02  0.1235066E+00
          4   -1    0    0  501    0  0.00000000000E+00  0.00000000000E+00  0.64747026189E+03  0.64747150743E+03  0.12700000000E+01 0. -1.
         -4   -1    0    0    0  501 -0.00000000000E+00 -0.00000000000E+00 -0.59652274133E+01  0.60989210596E+01  0.12700000000E+01 0. -1.
         25    2    1    2    0    0  0.00000000000E+00  0.00000000000E+00  0.64150503448E+03  0.65357042849E+03  0.12500238292E+03 0.  0.
    9000005    1    3    3    0    0  0.41075067351E+02 -0.66325105051E+01  0.76955381199E+02  0.87488753843E+02  0.10000000000E+01 0.  0.
    9000005    1    3    3    0    0 -0.41075067351E+02  0.66325105051E+01  0.56454965328E+03  0.56608167465E+03  0.10000000000E+01 0.  0.
<mgrwt>
<rscale>  0 0.12500238E+03</rscale>
<asrwt>0</asrwt>
<pdfrwt beam="1">  1        4 0.99621104E-01 0.12500238E+03</pdfrwt>
<pdfrwt beam="2">  1       -4 0.92810802E-03 0.12500238E+03</pdfrwt>
<totfact> 0.45649184E+03</totfact>
</mgrwt>
</event>
<event>
 5    1  0.3308162E-002  0.1249998E+03  0.7818608E-02  0.1235070E+00
         -4   -1    0    0    0  501 -0.00000000000E+00  0.00000000000E+00  0.19920310880E+02  0.19960753632E+02  0.12700000000E+01 0. -1.
          4   -1    0    0  501    0  0.00000000000E+00 -0.00000000000E+00 -0.19585186744E+03  0.19585598505E+03  0.12700000000E+01 0. -1.
         25    2    1    2    0    0  0.00000000000E+00  0.00000000000E+00 -0.17593155656E+03  0.21581673868E+03  0.12499980841E+03 0.  0.
    9000005    1    3    3    0    0 -0.17201077165E+02 -0.29280332776E+02 -0.17853941672E+03  0.18174305562E+03  0.10000000000E+01 0.  0.
    9000005    1    3    3    0    0  0.17201077165E+02  0.29280332776E+02  0.26078601550E+01  0.34073683066E+02  0.10000000000E+01 0.  0.
<mgrwt>
<rscale>  0 0.12499981E+03</rscale>
<asrwt>0</asrwt>
<pdfrwt beam="2">  1        4 0.30134483E-01 0.12499981E+03</pdfrwt>
<pdfrwt beam="1">  1       -4 0.30680911E-02 0.12499981E+03</pdfrwt>
<totfact> 0.87535030E+03</totfact>
</mgrwt>
</event>
<event>
 5    1  0.3308162E-002  0.1249976E+03  0.7818608E-02  0.1235073E+00
         -4   -1    0    0    0  501 -0.00000000000E+00  0.00000000000E+00  0.31170092441E+02  0.31195954270E+02  0.12700000000E+01 0.  1.
          4   -1    0    0  501    0  0.00000000000E+00 -0.00000000000E+00 -0.12523453571E+03  0.12524097506E+03  0.12700000000E+01 0.  1.
         25    2    1    2    0    0  0.00000000000E+00  0.00000000000E+00 -0.94064443270E+02  0.15643692933E+03  0.12499757346E+03 0.  0.
    9000005    1    3    3    0    0 -0.17355138550E+02  0.19840877117E+02 -0.11794202081E+03  0.12085603631E+03  0.10000000000E+01 0.  0.
    9000005    1    3    3    0    0  0.17355138550E+02 -0.19840877117E+02  0.23877577545E+02  0.35580893023E+02  0.10000000000E+01 0.  0.
<mgrwt>
<rscale>  0 0.12499757E+03</rscale>
<asrwt>0</asrwt>
<pdfrwt beam="2">  1        4 0.19269336E-01 0.12499757E+03</pdfrwt>
<pdfrwt beam="1">  1       -4 0.47978836E-02 0.12499757E+03</pdfrwt>
<totfact> 0.98039498E+03</totfact>
</mgrwt>
</event>
<event>
 5    1  0.3308162E-002  0.1250006E+03  0.7818608E-02  0.1235068E+00
          4   -1    0    0  501    0  0.00000000000E+00  0.00000000000E+00  0.12163525274E+03  0.12164188263E+03  0.12700000000E+01 0. -1.
         -4   -1    0    0    0  501 -0.00000000000E+00 -0.00000000000E+00 -0.32094718853E+02  0.32119836212E+02  0.12700000000E+01 0. -1.
         25    2    1    2    0    0  0.00000000000E+00  0.00000000000E+00  0.89540533886E+02  0.15376171884E+03  0.12500063588E+03 0.  0.
    9000005    1    3    3    0    0 -0.59738244571E+02  0.17512617183E+02  0.38039527861E+02  0.72961327461E+02  0.10000000000E+01 0.  0.
    9000005    1    3    3    0    0  0.59738244571E+02 -0.17512617183E+02  0.51501006025E+02  0.80800391377E+02  0.10000000000E+01 0.  0.
<mgrwt>
<rscale>  0 0.12500064E+03</rscale>
<asrwt>0</asrwt>
<pdfrwt beam="1">  1        4 0.18715558E-01 0.12500064E+03</pdfrwt>
<pdfrwt beam="2">  1       -4 0.49400912E-02 0.12500064E+03</pdfrwt>
<totfact> 0.98557662E+03</totfact>
</mgrwt>
</event>
<event>
 5    1  0.3308162E-002  0.1249998E+03  0.7818608E-02  0.1235070E+00
         -4   -1    0    0    0  501 -0.00000000000E+00  0.00000000000E+00  0.32258566248E+02  0.32283556129E+02  0.12700000000E+01 0.  1.
          4   -1    0    0  501    0  0.00000000000E+00 -0.00000000000E+00 -0.12101621982E+03  0.12102288362E+03  0.12700000000E+01 0.  1.
         25    2    1    2    0    0  0.00000000000E+00  0.00000000000E+00 -0.88757653573E+02  0.15330643975E+03  0.12499977360E+03 0.  0.
    9000005    1    3    3    0    0  0.47549354437E+02  0.36395281902E+02 -0.22450389608E+02  0.63957623828E+02  0.10000000000E+01 0.  0.
    9000005    1    3    3    0    0 -0.47549354437E+02 -0.36395281902E+02 -0.66307263965E+02  0.89348815922E+02  0.10000000000E+01 0.  0.
<mgrwt>
<rscale>  0 0.12499977E+03</rscale>
<asrwt>0</asrwt>
<pdfrwt beam="2">  1        4 0.18620315E-01 0.12499977E+03</pdfrwt>
<pdfrwt beam="1">  1       -4 0.49652913E-02 0.12499977E+03</pdfrwt>
<totfact> 0.98649148E+03</totfact>
</mgrwt>
</event>
<event>
 5    1  0.3308162E-002  0.1250019E+03  0.7818608E-02  0.1235066E+00
         -4   -1    0    0    0  501 -0.00000000000E+00  0.00000000000E+00  0.93349750413E+02  0.93358389030E+02  0.12700000000E+01 0.  1.
          4   -1    0    0  501    0  0.00000000000E+00 -0.00000000000E+00 -0.41826394395E+02  0.41845670841E+02  0.12700000000E+01 0.  1.
         25    2    1    2    0    0  0.00000000000E+00  0.00000000000E+00  0.51523356018E+02  0.13520405987E+03  0.12500192635E+03 0.  0.
    9000005    1    3    3    0    0 -0.15539146909E+02 -0.56551221455E+02  0.49107163586E+02  0.76498491817E+02  0.10000000000E+01 0.  0.
    9000005    1    3    3    0    0  0.15539146909E+02  0.56551221455E+02  0.24161924314E+01  0.58705568054E+02  0.10000000000E+01 0.  0.
<mgrwt>
<rscale>  0 0.12500193E+03</rscale>
<asrwt>0</asrwt>
<pdfrwt beam="2">  1        4 0.64369773E-02 0.12500193E+03</pdfrwt>
<pdfrwt beam="1">  1       -4 0.14363647E-01 0.12500193E+03</pdfrwt>
<totfact> 0.10233327E+04</totfact>
</mgrwt>
</event>
<event>
 5    1  0.3308162E-002  0.1249991E+03  0.7818608E-02  0.1235071E+00
         -4   -1    0    0    0  501 -0.00000000000E+00  0.00000000000E+00  0.18073436952E+03  0.18073883154E+03  0.12700000000E+01 0.  1.
          4   -1    0    0  501    0  0.00000000000E+00 -0.00000000000E+00 -0.21589501899E+02  0.21626823444E+02  0.12700000000E+01 0.  1.
         25    2    1    2    0    0  0.00000000000E+00  0.00000000000E+00  0.15914486762E+03  0.20236565498E+03  0.12499907770E+03 0.  0.
    9000005    1    3    3    0    0 -0.82026990617E+01 -0.51559334475E+02  0.13517398502E+03  0.14490912832E+03  0.10000000000E+01 0.  0.
    9000005    1    3    3    0    0  0.82026990617E+01  0.51559334475E+02  0.23970882596E+02  0.57456526660E+02  0.10000000000E+01 0.  0.
<mgrwt>
<rscale>  0 0.12499908E+03</rscale>
<asrwt>0</asrwt>
<pdfrwt beam="2">  1        4 0.33246760E-02 0.12499908E+03</pdfrwt>
<pdfrwt beam="1">  1       -4 0.27808501E-01 0.12499908E+03</pdfrwt>
<totfact> 0.89739900E+03</totfact>
</mgrwt>
</event>
<event>
 5    1  0.3308162E-002  0.1249971E+03  0.7818608E-02  0.1235074E+00
          4   -1    0    0  501    0  0.00000000000E+00  0.00000000000E+00  0.96117615945E+02  0.96126005820E+02  0.12700000000E+01 0. -1.
         -4   -1    0    0    0  501 -0.00000000000E+00 -0.00000000000E+00 -0.40618306604E+02  0.40638156102E+02  0.12700000000E+01 0. -1.
         25    2    1    2    0    0  0.00000000000E+00  0.00000000000E+00  0.55499309341E+02  0.13676416192E+03  0.12499705056E+03 0.  0.
    9000005    1    3    3    0    0 -0.59805758094E+02 -0.17422963286E+02  0.22303378843E+02  0.66171965806E+02  0.10000000000E+01 0.  0.
    9000005    1    3    3    0    0  0.59805758094E+02  0.17422963286E+02  0.33195930498E+02  0.70592196116E+02  0.10000000000E+01 0.  0.
<mgrwt>
<rscale>  0 0.12499705E+03</rscale>
<asrwt>0</asrwt>
<pdfrwt beam="1">  1        4 0.14789498E-01 0.12499705E+03</pdfrwt>
<pdfrwt beam="2">  1       -4 0.62511425E-02 0.12499705E+03</pdfrwt>
<totfact> 0.10201698E+04</totfact>
</mgrwt>
</event>
<event>
 5    1  0.3308162E-002  0.1250034E+03  0.7818608E-02  0.1235064E+00
          4   -1    0    0  501    0  0.00000000000E+00  0.00000000000E+00  0.57253780106E+03  0.57253920961E+03  0.12700000000E+01 0. -1.
         -4   -1    0    0    0  501 -0.00000000000E+00 -0.00000000000E+00 -0.67625367866E+01  0.68807560478E+01  0.12700000000E+01 0. -1.
         25    2    1    2    0    0  0.00000000000E+00  0.00000000000E+00  0.56577526428E+03  0.57941996566E+03  0.12500338772E+03 0.  0.
    9000005    1    3    3    0    0  0.18036164386E+02  0.47673833550E+02  0.11528920009E+03  0.12605830908E+03  0.10000000000E+01 0.  0.
    9000005    1    3    3    0    0 -0.18036164386E+02 -0.47673833550E+02  0.45048606419E+03  0.45336165658E+03  0.10000000000E+01 0.  0.
<mgrwt>
<rscale>  0 0.12500339E+03</rscale>
<asrwt>0</asrwt>
<pdfrwt beam="1">  1        4 0.88091986E-01 0.12500339E+03</pdfrwt>
<pdfrwt beam="2">  1       -4 0.10495919E-02 0.12500339E+03</pdfrwt>
<totfact> 0.50189245E+03</totfact>
</mgrwt>
</event>
<event>
 4    1  0.3308162E-002  0.1250967E+03  0.7818608E-02  0.1234918E+00
         -4   -1    0    0    0  501 -0.00000000000E+00  0.00000000000E+00  0.81792478429E+03  0.81792577026E+03  0.12700000000E+01 0.  1.
          4   -1    0    0  501    0  0.00000000000E+00 -0.00000000000E+00 -0.46978945716E+01  0.48665299142E+01  0.12700000000E+01 0.  1.
    9000005    1    1    2    0    0 -0.72707665783E+01 -0.13062319954E+02  0.80603225732E+03  0.80617150042E+03  0.10000000000E+01 0.  0.
    9000005    1    1    2    0    0  0.72707665783E+01  0.13062319954E+02  0.71946324027E+01  0.16620799759E+02  0.10000000000E+01 0.  0.
<mgrwt>
<rscale>  0 0.12509674E+03</rscale>
<asrwt>0</asrwt>
<pdfrwt beam="2">  1        4 0.73580088E-03 0.12509674E+03</pdfrwt>
<pdfrwt beam="1">  1       -4 0.12584762E+00 0.12509674E+03</pdfrwt>
<totfact> 0.37188613E+03</totfact>
</mgrwt>
</event>
<event>
 5    1  0.3308162E-002  0.1250000E+03  0.7818608E-02  0.1235069E+00
          4   -1    0    0  501    0  0.00000000000E+00  0.00000000000E+00  0.53626073532E+02  0.53641109817E+02  0.12700000000E+01 0. -1.
         -4   -1    0    0    0  501 -0.00000000000E+00 -0.00000000000E+00 -0.72811621067E+02  0.72822696066E+02  0.12700000000E+01 0. -1.
         25    2    1    2    0    0  0.00000000000E+00  0.00000000000E+00 -0.19185547535E+02  0.12646380588E+03  0.12500003586E+03 0.  0.
    9000005    1    3    3    0    0  0.24221212502E+02 -0.86865281824E+01  0.48022581509E+02  0.54491203343E+02  0.10000000000E+01 0.  0.
    9000005    1    3    3    0    0 -0.24221212502E+02  0.86865281824E+01 -0.67208129044E+02  0.71972602541E+02  0.10000000000E+01 0.  0.
<mgrwt>
<rscale>  0 0.12500004E+03</rscale>
<asrwt>0</asrwt>
<pdfrwt beam="1">  1        4 0.82521737E-02 0.12500004E+03</pdfrwt>
<pdfrwt beam="2">  1       -4 0.11203796E-01 0.12500004E+03</pdfrwt>
<totfact> 0.10420809E+04</totfact>
</mgrwt>
</event>
<event>
 5    1  0.3308162E-002  0.1249987E+03  0.7818608E-02  0.1235071E+00
          4   -1    0    0  501    0  0.00000000000E+00  0.00000000000E+00  0.81315598618E+01  0.82301376529E+01  0.12700000000E+01 0.  1.
         -4   -1    0    0    0  501 -0.00000000000E+00 -0.00000000000E+00 -0.47737794994E+03  0.47737963927E+03  0.12700000000E+01 0.  1.
         25    2    1    2    0    0  0.00000000000E+00  0.00000000000E+00 -0.46924639008E+03  0.48560977693E+03  0.12499872336E+03 0.  0.
    9000005    1    3    3    0    0  0.43907243130E+02 -0.44464487484E+02 -0.23274567489E+03  0.24099063431E+03  0.10000000000E+01 0.  0.
    9000005    1    3    3    0    0 -0.43907243130E+02  0.44464487484E+02 -0.23650071519E+03  0.24461914261E+03  0.10000000000E+01 0.  0.
<mgrwt>
<rscale>  0 0.12499872E+03</rscale>
<asrwt>0</asrwt>
<pdfrwt beam="1">  1        4 0.12587224E-02 0.12499872E+03</pdfrwt>
<pdfrwt beam="2">  1       -4 0.73450453E-01 0.12499872E+03</pdfrwt>
<totfact> 0.57000026E+03</totfact>
</mgrwt>
</event>
<event>
 5    1  0.3308162E-002  0.1250008E+03  0.7818608E-02  0.1235068E+00
         -4   -1    0    0    0  501 -0.00000000000E+00  0.00000000000E+00  0.17720630576E+02  0.17766081391E+02  0.12700000000E+01 0. -1.
          4   -1    0    0  501    0  0.00000000000E+00 -0.00000000000E+00 -0.22010819303E+03  0.22011185688E+03  0.12700000000E+01 0. -1.
         25    2    1    2    0    0  0.00000000000E+00  0.00000000000E+00 -0.20238756246E+03  0.23787793827E+03  0.12500075232E+03 0.  0.
    9000005    1    3    3    0    0 -0.24558657564E+02  0.18840651790E+02  0.21171518853E+01  0.31041587480E+02  0.10000000000E+01 0.  0.
    9000005    1    3    3    0    0  0.24558657564E+02 -0.18840651790E+02 -0.20450471434E+03  0.20683635079E+03  0.10000000000E+01 0.  0.
<mgrwt>
<rscale>  0 0.12500075E+03</rscale>
<asrwt>0</asrwt>
<pdfrwt beam="2">  1        4 0.33866575E-01 0.12500075E+03</pdfrwt>
<pdfrwt beam="1">  1       -4 0.27300291E-02 0.12500075E+03</pdfrwt>
<totfact> 0.84113019E+03</totfact>
</mgrwt>
</event>
<event>
 5    1  0.3308162E-002  0.1249984E+03  0.7818608E-02  0.1235072E+00
         -4   -1    0    0    0  501 -0.00000000000E+00  0.00000000000E+00  0.17163763123E+02  0.17210684604E+02  0.12700000000E+01 0. -1.
          4   -1    0    0  501    0  0.00000000000E+00 -0.00000000000E+00 -0.22722177436E+03  0.22722532351E+03  0.12700000000E+01 0. -1.
         25    2    1    2    0    0  0.00000000000E+00  0.00000000000E+00 -0.21005801124E+03  0.24443600811E+03  0.12499837590E+03 0.  0.
    9000005    1    3    3    0    0 -0.32051849417E+02  0.30132026110E+02 -0.18236619391E+02  0.47632282492E+02  0.10000000000E+01 0.  0.
    9000005    1    3    3    0    0  0.32051849417E+02 -0.30132026110E+02 -0.19182139185E+03  0.19680372562E+03  0.10000000000E+01 0.  0.
<mgrwt>
<rscale>  0 0.12499838E+03</rscale>
<asrwt>0</asrwt>
<pdfrwt beam="2">  1        4 0.34961076E-01 0.12499838E+03</pdfrwt>
<pdfrwt beam="1">  1       -4 0.26444615E-02 0.12499838E+03</pdfrwt>
<totfact> 0.83144117E+03</totfact>
</mgrwt>
</event>
<event>
 5    1  0.3308162E-002  0.1249995E+03  0.7818608E-02  0.1235070E+00
          4   -1    0    0  501    0  0.00000000000E+00  0.00000000000E+00  0.13213777790E+02  0.13274668489E+02  0.12700000000E+01 0. -1.
         -4   -1    0    0    0  501 -0.00000000000E+00 -0.00000000000E+00 -0.29487545465E+03  0.29487818953E+03  0.12700000000E+01 0. -1.
         25    2    1    2    0    0  0.00000000000E+00  0.00000000000E+00 -0.28166167686E+03  0.30815285801E+03  0.12499953475E+03 0.  0.
    9000005    1    3    3    0    0 -0.37320625406E+02  0.19060742108E+01 -0.17353502405E+02  0.41214151032E+02  0.10000000000E+01 0.  0.
    9000005    1    3    3    0    0  0.37320625406E+02 -0.19060742108E+01 -0.26430817446E+03  0.26693870698E+03  0.10000000000E+01 0.  0.
<mgrwt>
<rscale>  0 0.12499953E+03</rscale>
<asrwt>0</asrwt>
<pdfrwt beam="1">  1        4 0.20377834E-02 0.12499953E+03</pdfrwt>
<pdfrwt beam="2">  1       -4 0.45370344E-01 0.12499953E+03</pdfrwt>
<totfact> 0.74588181E+03</totfact>
</mgrwt>
</event>
<event>
 5    1  0.3308162E-002  0.1250294E+03  0.7818608E-02  0.1235023E+00
         -4   -1    0    0    0  501 -0.00000000000E+00  0.00000000000E+00  0.99550862894E+02  0.99558963449E+02  0.12700000000E+01 0. -1.
          4   -1    0    0  501    0  0.00000000000E+00 -0.00000000000E+00 -0.39237239377E+02  0.39257787176E+02  0.12700000000E+01 0. -1.
         25    2    1    2    0    0  0.00000000000E+00  0.00000000000E+00  0.60313623517E+02  0.13881675062E+03  0.12502942483E+03 0.  0.
    9000005    1    3    3    0    0  0.35879211791E+02 -0.50460384340E+02  0.39676779279E+02  0.73544646579E+02  0.10000000000E+01 0.  0.
    9000005    1    3    3    0    0 -0.35879211791E+02  0.50460384340E+02  0.20636844238E+02  0.65272104046E+02  0.10000000000E+01 0.  0.
<mgrwt>
<rscale>  0 0.12502942E+03</rscale>
<asrwt>0</asrwt>
<pdfrwt beam="2">  1        4 0.60387021E-02 0.12502942E+03</pdfrwt>
<pdfrwt beam="1">  1       -4 0.15317721E-01 0.12502942E+03</pdfrwt>
<totfact> 0.10151436E+04</totfact>
</mgrwt>
</event>
<event>
 5    1  0.3308162E-002  0.1249935E+03  0.7818608E-02  0.1235079E+00
          4   -1    0    0  501    0  0.00000000000E+00  0.00000000000E+00  0.50598062966E+03  0.50598222349E+03  0.12700000000E+01 0.  1.
         -4   -1    0    0    0  501 -0.00000000000E+00 -0.00000000000E+00 -0.76654971090E+01  0.77699900854E+01  0.12700000000E+01 0.  1.
         25    2    1    2    0    0  0.00000000000E+00  0.00000000000E+00  0.49831513255E+03  0.51375221358E+03  0.12499346234E+03 0.  0.
    9000005    1    3    3    0    0 -0.35269640063E+02 -0.42149321976E+02  0.37138627729E+03  0.37543212411E+03  0.10000000000E+01 0.  0.
    9000005    1    3    3    0    0  0.35269640063E+02  0.42149321976E+02  0.12692885526E+03  0.13832008947E+03  0.10000000000E+01 0.  0.
<mgrwt>
<rscale>  0 0.12499346E+03</rscale>
<asrwt>0</asrwt>
<pdfrwt beam="1">  1        4 0.77851356E-01 0.12499346E+03</pdfrwt>
<pdfrwt beam="2">  1       -4 0.11874674E-02 0.12499346E+03</pdfrwt>
<totfact> 0.54820796E+03</totfact>
</mgrwt>
</event>
<event>
 5    1  0.3308162E-002  0.1250082E+03  0.7818608E-02  0.1235056E+00
          4   -1    0    0  501    0  0.00000000000E+00  0.00000000000E+00  0.96861577772E+02  0.96869903213E+02  0.12700000000E+01 0. -1.
         -4   -1    0    0    0  501 -0.00000000000E+00 -0.00000000000E+00 -0.40313406679E+02  0.40333406230E+02  0.12700000000E+01 0. -1.
         25    2    1    2    0    0  0.00000000000E+00  0.00000000000E+00  0.56548171093E+02  0.13720330944E+03  0.12500820960E+03 0.  0.
    9000005    1    3    3    0    0 -0.54149786463E+02  0.82847949171E+01 -0.47425309278E+01  0.54993897847E+02  0.10000000000E+01 0.  0.
    9000005    1    3    3    0    0  0.54149786463E+02 -0.82847949171E+01  0.61290702020E+02  0.82209411596E+02  0.10000000000E+01 0.  0.
<mgrwt>
<rscale>  0 0.12500821E+03</rscale>
<asrwt>0</asrwt>
<pdfrwt beam="1">  1        4 0.14903960E-01 0.12500821E+03</pdfrwt>
<pdfrwt beam="2">  1       -4 0.62042415E-02 0.12500821E+03</pdfrwt>
<totfact> 0.10189950E+04</totfact>
</mgrwt>
</event>
<event>
 5    1  0.3308162E-002  0.1249998E+03  0.7818608E-02  0.1235070E+00
          4   -1    0    0  501    0  0.00000000000E+00  0.00000000000E+00  0.20636931037E+02  0.20675972108E+02  0.12700000000E+01 0. -1.
         -4   -1    0    0    0  501 -0.00000000000E+00 -0.00000000000E+00 -0.18906368043E+03  0.18906794588E+03  0.12700000000E+01 0. -1.
         25    2    1    2    0    0  0.00000000000E+00  0.00000000000E+00 -0.16842674940E+03  0.20974391799E+03  0.12499976488E+03 0.  0.
    9000005    1    3    3    0    0 -0.23232356022E+02 -0.57315852733E+02 -0.99257616084E+02  0.11695265577E+03  0.10000000000E+01 0.  0.
    9000005    1    3    3    0    0  0.23232356022E+02  0.57315852733E+02 -0.69169133311E+02  0.92791262217E+02  0.10000000000E+01 0.  0.
<mgrwt>
<rscale>  0 0.12499976E+03</rscale>
<asrwt>0</asrwt>
<pdfrwt beam="1">  1        4 0.31782439E-02 0.12499976E+03</pdfrwt>
<pdfrwt beam="2">  1       -4 0.29090050E-01 0.12499976E+03</pdfrwt>
<totfact> 0.88518185E+03</totfact>
</mgrwt>
</event>
<event>
 5    1  0.3308162E-002  0.1250018E+03  0.7818608E-02  0.1235067E+00
          4   -1    0    0  501    0  0.00000000000E+00  0.00000000000E+00  0.36429755651E+02  0.36451886052E+02  0.12700000000E+01 0. -1.
         -4   -1    0    0    0  501 -0.00000000000E+00 -0.00000000000E+00 -0.10717148274E+03  0.10717900733E+03  0.12700000000E+01 0. -1.
         25    2    1    2    0    0  0.00000000000E+00  0.00000000000E+00 -0.70741727086E+02  0.14363089338E+03  0.12500176632E+03 0.  0.
    9000005    1    3    3    0    0 -0.21646497254E+02 -0.21228491596E+02 -0.98160337583E+02  0.10274079800E+03  0.10000000000E+01 0.  0.
    9000005    1    3    3    0    0  0.21646497254E+02  0.21228491596E+02  0.27418610498E+02  0.40890095383E+02  0.10000000000E+01 0.  0.
<mgrwt>
<rscale>  0 0.12500177E+03</rscale>
<asrwt>0</asrwt>
<pdfrwt beam="1">  1        4 0.56068590E-02 0.12500177E+03</pdfrwt>
<pdfrwt beam="2">  1       -4 0.16490201E-01 0.12500177E+03</pdfrwt>
<totfact> 0.10058480E+04</totfact>
</mgrwt>
</event>
<event>
 5    1  0.3308162E-002  0.1250038E+03  0.7818608E-02  0.1235063E+00
          4   -1    0    0  501    0  0.00000000000E+00  0.00000000000E+00  0.38697305223E+01  0.40728017771E+01  0.12700000000E+01 0. -1.
         -4   -1    0    0    0  501 -0.00000000000E+00 -0.00000000000E+00 -0.98348515740E+03  0.98348597739E+03  0.12700000000E+01 0. -1.
         25    2    1    2    0    0  0.00000000000E+00  0.00000000000E+00 -0.97961542688E+03  0.98755877917E+03  0.12500383089E+03 0.  0.
    9000005    1    3    3    0    0  0.54702193192E+02  0.20850292233E+02 -0.31700662367E+03  0.32236821195E+03  0.10000000000E+01 0.  0.
    9000005    1    3    3    0    0 -0.54702193192E+02 -0.20850292233E+02 -0.66260880321E+03  0.66519056722E+03  0.10000000000E+01 0.  0.
<mgrwt>
<rscale>  0 0.12500383E+03</rscale>
<asrwt>0</asrwt>
<pdfrwt beam="1">  1        4 0.61102788E-03 0.12500383E+03</pdfrwt>
<pdfrwt beam="2">  1       -4 0.15132090E+00 0.12500383E+03</pdfrwt>
<totfact> 0.31016312E+03</totfact>
</mgrwt>
</event>
<event>
 5    1  0.3308162E-002  0.1249962E+03  0.7818608E-02  0.1235075E+00
          4   -1    0    0  501    0  0.00000000000E+00  0.00000000000E+00  0.46969829036E+02  0.46986995431E+02  0.12700000000E+01 0. -1.
         -4   -1    0    0    0  501 -0.00000000000E+00 -0.00000000000E+00 -0.83122829721E+02  0.83132531062E+02  0.12700000000E+01 0. -1.
         25    2    1    2    0    0  0.00000000000E+00  0.00000000000E+00 -0.36153000685E+02  0.13011952649E+03  0.12499620681E+03 0.  0.
    9000005    1    3    3    0    0  0.15847704278E+02 -0.36927457011E+02 -0.67894332114E+02  0.78901376068E+02  0.10000000000E+01 0.  0.
    9000005    1    3    3    0    0 -0.15847704278E+02  0.36927457011E+02  0.31741331429E+02  0.51218150426E+02  0.10000000000E+01 0.  0.
<mgrwt>
<rscale>  0 0.12499621E+03</rscale>
<asrwt>0</asrwt>
<pdfrwt beam="1">  1        4 0.72281943E-02 0.12499621E+03</pdfrwt>
<pdfrwt beam="2">  1       -4 0.12790194E-01 0.12499621E+03</pdfrwt>
<totfact> 0.10342837E+04</totfact>
</mgrwt>
</event>
<event>
 5    1  0.3308162E-002  0.1250001E+03  0.7818608E-02  0.1235069E+00
         -4   -1    0    0    0  501 -0.00000000000E+00  0.00000000000E+00  0.80361465787E+02  0.80371500443E+02  0.12700000000E+01 0.  1.
          4   -1    0    0  501    0  0.00000000000E+00 -0.00000000000E+00 -0.48587218399E+02  0.48603813551E+02  0.12700000000E+01 0.  1.
         25    2    1    2    0    0  0.00000000000E+00  0.00000000000E+00  0.31774247389E+02  0.12897531399E+03  0.12500011529E+03 0.  0.
    9000005    1    3    3    0    0 -0.80956512501E+01  0.29502063242E+02  0.72111749815E+02  0.78339107514E+02  0.10000000000E+01 0.  0.
    9000005    1    3    3    0    0  0.80956512501E+01 -0.29502063242E+02 -0.40337502427E+02  0.50636206480E+02  0.10000000000E+01 0.  0.
<mgrwt>
<rscale>  0 0.12500012E+03</rscale>
<asrwt>0</asrwt>
<pdfrwt beam="2">  1        4 0.74770051E-02 0.12500012E+03</pdfrwt>
<pdfrwt beam="1">  1       -4 0.12365351E-01 0.12500012E+03</pdfrwt>
<totfact> 0.10366450E+04</totfact>
</mgrwt>
</event>
<event>
 5    1  0.3308162E-002  0.1249982E+03  0.7818608E-02  0.1235072E+00
          4   -1    0    0  501    0  0.00000000000E+00  0.00000000000E+00  0.32247694548E+02  0.32272692848E+02  0.12700000000E+01 0.  1.
         -4   -1    0    0    0  501 -0.00000000000E+00 -0.00000000000E+00 -0.12105385475E+03  0.12106051647E+03  0.12700000000E+01 0.  1.
         25    2    1    2    0    0  0.00000000000E+00  0.00000000000E+00 -0.88806160198E+02  0.15333320932E+03  0.12499815595E+03 0.  0.
    9000005    1    3    3    0    0 -0.29973233861E+02 -0.17145457088E+02  0.19487873600E+02  0.39662812107E+02  0.10000000000E+01 0.  0.
    9000005    1    3    3    0    0  0.29973233861E+02  0.17145457088E+02 -0.10829403380E+03  0.11367039721E+03  0.10000000000E+01 0.  0.
<mgrwt>
<rscale>  0 0.12499816E+03</rscale>
<asrwt>0</asrwt>
<pdfrwt beam="1">  1        4 0.49636192E-02 0.12499816E+03</pdfrwt>
<pdfrwt beam="2">  1       -4 0.18626105E-01 0.12499816E+03</pdfrwt>
<totfact> 0.98647467E+03</totfact>
</mgrwt>
</event>
<event>
 4    1  0.3308162E-002  0.1250859E+03  0.7818608E-02  0.1234935E+00
          4   -1    0    0  501    0  0.00000000000E+00  0.00000000000E+00  0.34958868235E+03  0.34959098919E+03  0.12700000000E+01 0. -1.
         -4   -1    0    0    0  501 -0.00000000000E+00 -0.00000000000E+00 -0.11150824118E+02  0.11222913102E+02  0.12700000000E+01 0. -1.
    9000005    1    1    2    0    0  0.12530629676E+02  0.33877170389E+02  0.31646959082E+03  0.31852579372E+03  0.10000000000E+01 0.  0.
    9000005    1    1    2    0    0 -0.12530629676E+02 -0.33877170389E+02  0.21968267410E+02  0.42288108572E+02  0.10000000000E+01 0.  0.
<mgrwt>
<rscale>  0 0.12508592E+03</rscale>
<asrwt>0</asrwt>
<pdfrwt beam="1">  1        4 0.53788601E-01 0.12508592E+03</pdfrwt>
<pdfrwt beam="2">  1       -4 0.17212340E-02 0.12508592E+03</pdfrwt>
<totfact> 0.68420932E+03</totfact>
</mgrwt>
</event>
<event>
 5    1  0.3308162E-002  0.1249985E+03  0.7818608E-02  0.1235072E+00
          4   -1    0    0  501    0  0.00000000000E+00  0.00000000000E+00  0.18088278783E+02  0.18132808093E+02  0.12700000000E+01 0. -1.
         -4   -1    0    0    0  501 -0.00000000000E+00 -0.00000000000E+00 -0.21563775870E+03  0.21564149850E+03  0.12700000000E+01 0. -1.
         25    2    1    2    0    0  0.00000000000E+00  0.00000000000E+00 -0.19754947992E+03  0.23377430660E+03  0.12499851763E+03 0.  0.
    9000005    1    3    3    0    0 -0.36502154353E+02 -0.50598496708E+02 -0.92151370740E+02  0.11129011758E+03  0.10000000000E+01 0.  0.
    9000005    1    3    3    0    0  0.36502154353E+02  0.50598496708E+02 -0.10539810918E+03  0.12248418902E+03  0.10000000000E+01 0.  0.
<mgrwt>
<rscale>  0 0.12499852E+03</rscale>
<asrwt>0</asrwt>
<pdfrwt beam="1">  1        4 0.27865253E-02 0.12499852E+03</pdfrwt>
<pdfrwt beam="2">  1       -4 0.33178751E-01 0.12499852E+03</pdfrwt>
<totfact> 0.84736201E+03</totfact>
</mgrwt>
</event>
<event>
 5    1  0.3308162E-002  0.1250102E+03  0.7818608E-02  0.1235053E+00
         -4   -1    0    0    0  501 -0.00000000000E+00  0.00000000000E+00  0.33298944293E+04  0.33298946715E+04  0.12700000000E+01 0.  1.
          4   -1    0    0  501    0  0.00000000000E+00 -0.00000000000E+00 -0.82928865146E+00  0.15167793734E+01  0.12700000000E+01 0.  1.
         25    2    1    2    0    0  0.00000000000E+00  0.00000000000E+00  0.33290651407E+04  0.33314114509E+04  0.12501017650E+03 0.  0.
    9000005    1    3    3    0    0 -0.13688975189E+02  0.60735121838E+02  0.15191958944E+04  0.15204714100E+04  0.10000000000E+01 0.  0.
    9000005    1    3    3    0    0  0.13688975189E+02 -0.60735121838E+02  0.18098692463E+04  0.18109400409E+04  0.10000000000E+01 0.  0.
<mgrwt>
<rscale>  0 0.12501018E+03</rscale>
<asrwt>0</asrwt>
<pdfrwt beam="2">  1        4 0.18048460E-03 0.12501018E+03</pdfrwt>
<pdfrwt beam="1">  1       -4 0.51234662E+00 0.12501018E+03</pdfrwt>
<totfact> 0.86853293E+01</totfact>
</mgrwt>
</event>
<event>
 5    1  0.3308162E-002  0.1250002E+03  0.7818608E-02  0.1235069E+00
         -4   -1    0    0    0  501 -0.00000000000E+00  0.00000000000E+00  0.18167810520E+03  0.18168254404E+03  0.12700000000E+01 0. -1.
          4   -1    0    0  501    0  0.00000000000E+00 -0.00000000000E+00 -0.21477544228E+02  0.21515059982E+02  0.12700000000E+01 0. -1.
         25    2    1    2    0    0  0.00000000000E+00  0.00000000000E+00  0.16020056097E+03  0.20319760402E+03  0.12500018618E+03 0.  0.
    9000005    1    3    3    0    0  0.61514204831E+02  0.27855081437E+01  0.62781561216E+02  0.87944760391E+02  0.10000000000E+01 0.  0.
    9000005    1    3    3    0    0 -0.61514204831E+02 -0.27855081437E+01  0.97418999755E+02  0.11525284363E+03  0.10000000000E+01 0.  0.
<mgrwt>
<rscale>  0 0.12500019E+03</rscale>
<asrwt>0</asrwt>
<pdfrwt beam="2">  1        4 0.33074649E-02 0.12500019E+03</pdfrwt>
<pdfrwt beam="1">  1       -4 0.27953705E-01 0.12500019E+03</pdfrwt>
<totfact> 0.89598619E+03</totfact>
</mgrwt>
</event>
<event>
 5    1  0.3308162E-002  0.1249981E+03  0.7818608E-02  0.1235072E+00
          4   -1    0    0  501    0  0.00000000000E+00  0.00000000000E+00  0.10004703490E+03  0.10005509528E+03  0.12700000000E+01 0.  1.
         -4   -1    0    0    0  501 -0.00000000000E+00 -0.00000000000E+00 -0.39022961125E+02  0.39043621694E+02  0.12700000000E+01 0.  1.
         25    2    1    2    0    0  0.00000000000E+00  0.00000000000E+00  0.61024073771E+02  0.13909871697E+03  0.12499806192E+03 0.  0.
    9000005    1    3    3    0    0 -0.45132033739E+01  0.60764169813E+01  0.99540496047E+02  0.99832871346E+02  0.10000000000E+01 0.  0.
    9000005    1    3    3    0    0  0.45132033739E+01 -0.60764169813E+01 -0.38516422275E+02  0.39265845628E+02  0.10000000000E+01 0.  0.
<mgrwt>
<rscale>  0 0.12499806E+03</rscale>
<asrwt>0</asrwt>
<pdfrwt beam="1">  1        4 0.15394061E-01 0.12499806E+03</pdfrwt>
<pdfrwt beam="2">  1       -4 0.60057419E-02 0.12499806E+03</pdfrwt>
<totfact> 0.10152743E+04</totfact>
</mgrwt>
</event>
<event>
 5    1  0.3308162E-002  0.1250074E+03  0.7818608E-02  0.1235058E+00
         -4   -1    0    0    0  501 -0.00000000000E+00  0.00000000000E+00  0.80906991293E+02  0.80916958297E+02  0.12700000000E+01 0. -1.
          4   -1    0    0  501    0  0.00000000000E+00 -0.00000000000E+00 -0.48265160026E+02  0.48281865874E+02  0.12700000000E+01 0. -1.
         25    2    1    2    0    0  0.00000000000E+00  0.00000000000E+00  0.32641831268E+02  0.12919882417E+03  0.12500738786E+03 0.  0.
    9000005    1    3    3    0    0  0.51736987139E+02  0.87945708447E+01  0.51394763059E+02  0.73460751319E+02  0.10000000000E+01 0.  0.
    9000005    1    3    3    0    0 -0.51736987139E+02 -0.87945708447E+01 -0.18752931791E+02  0.55738072852E+02  0.10000000000E+01 0.  0.
<mgrwt>
<rscale>  0 0.12500739E+03</rscale>
<asrwt>0</asrwt>
<pdfrwt beam="2">  1        4 0.74274611E-02 0.12500739E+03</pdfrwt>
<pdfrwt beam="1">  1       -4 0.12449281E-01 0.12500739E+03</pdfrwt>
<totfact> 0.10359949E+04</totfact>
</mgrwt>
</event>
<event>
 5    1  0.3308162E-002  0.1250049E+03  0.7818608E-02  0.1235062E+00
         -4   -1    0    0    0  501 -0.00000000000E+00  0.00000000000E+00  0.24983006522E+03  0.24983329319E+03  0.12700000000E+01 0. -1.
          4   -1    0    0  501    0  0.00000000000E+00 -0.00000000000E+00 -0.15607720349E+02  0.15659305045E+02  0.12700000000E+01 0. -1.
         25    2    1    2    0    0  0.00000000000E+00  0.00000000000E+00  0.23422234487E+03  0.26549259823E+03  0.12500485143E+03 0.  0.
    9000005    1    3    3    0    0 -0.26420735245E+02 -0.40154208558E+02  0.32286027070E+02  0.57912030354E+02  0.10000000000E+01 0.  0.
    9000005    1    3    3    0    0  0.26420735245E+02  0.40154208558E+02  0.20193631780E+03  0.20758056788E+03  0.10000000000E+01 0.  0.
<mgrwt>
<rscale>  0 0.12500485E+03</rscale>
<asrwt>0</asrwt>
<pdfrwt beam="2">  1        4 0.24054042E-02 0.12500485E+03</pdfrwt>
<pdfrwt beam="1">  1       -4 0.38439609E-01 0.12500485E+03</pdfrwt>
<totfact> 0.80132729E+03</totfact>
</mgrwt>
</event>
<event>
 5    1  0.3308162E-002  0.1250027E+03  0.7818608E-02  0.1235065E+00
          4   -1    0    0  501    0  0.00000000000E+00  0.00000000000E+00  0.11748634897E+03  0.11749321297E+03  0.12700000000E+01 0.  1.
         -4   -1    0    0    0  501 -0.00000000000E+00 -0.00000000000E+00 -0.33230010623E+02  0.33254270493E+02  0.12700000000E+01 0.  1.
         25    2    1    2    0    0  0.00000000000E+00  0.00000000000E+00  0.84256338344E+02  0.15074748346E+03  0.12500269285E+03 0.  0.
    9000005    1    3    3    0    0 -0.55083301606E+02  0.29500962219E+02  0.40958072531E+02  0.74719747009E+02  0.10000000000E+01 0.  0.
    9000005    1    3    3    0    0  0.55083301606E+02 -0.29500962219E+02  0.43298265814E+02  0.76027736453E+02  0.10000000000E+01 0.  0.
<mgrwt>
<rscale>  0 0.12500269E+03</rscale>
<asrwt>0</asrwt>
<pdfrwt beam="1">  1        4 0.18077217E-01 0.12500269E+03</pdfrwt>
<pdfrwt beam="2">  1       -4 0.51147035E-02 0.12500269E+03</pdfrwt>
<totfact> 0.99148898E+03</totfact>
</mgrwt>
</event>
<event>
 5    1  0.3308162E-002  0.1250012E+03  0.7818608E-02  0.1235067E+00
         -4   -1    0    0    0  501 -0.00000000000E+00  0.00000000000E+00  0.20734685964E+03  0.20735074898E+03  0.12700000000E+01 0.  1.
          4   -1    0    0  501    0  0.00000000000E+00 -0.00000000000E+00 -0.18814105777E+02  0.18856921175E+02  0.12700000000E+01 0.  1.
         25    2    1    2    0    0  0.00000000000E+00  0.00000000000E+00  0.18853275387E+03  0.22620767016E+03  0.12500124303E+03 0.  0.
    9000005    1    3    3    0    0  0.58463830179E+01  0.32244817986E+02 -0.20267039243E+01  0.32848379110E+02  0.10000000000E+01 0.  0.
    9000005    1    3    3    0    0 -0.58463830179E+01 -0.32244817986E+02  0.19055945779E+03  0.19335929105E+03  0.10000000000E+01 0.  0.
<mgrwt>
<rscale>  0 0.12500124E+03</rscale>
<asrwt>0</asrwt>
<pdfrwt beam="2">  1        4 0.28980702E-02 0.12500124E+03</pdfrwt>
<pdfrwt beam="1">  1       -4 0.31903112E-01 0.12500124E+03</pdfrwt>
<totfact> 0.85892949E+03</totfact>
</mgrwt>
</event>
<event>
 5    1  0.3308162E-002  0.1249973E+03  0.7818608E-02  0.1235073E+00
         -4   -1    0    0    0  501 -0.00000000000E+00  0.00000000000E+00  0.58674141656E+01  0.60032865158E+01  0.12700000000E+01 0.  1.
          4   -1    0    0  501    0  0.00000000000E+00 -0.00000000000E+00 -0.65796818686E+03  0.65796941253E+03  0.12700000000E+01 0.  1.
         25    2    1    2    0    0  0.00000000000E+00  0.00000000000E+00 -0.65210077270E+03  0.66397269904E+03  0.12499730927E+03 0.  0.
    9000005    1    3    3    0    0 -0.46235288639E+02 -0.30348733852E+02 -0.17151764054E+03  0.18021667120E+03  0.10000000000E+01 0.  0.
    9000005    1    3    3    0    0  0.46235288639E+02  0.30348733852E+02 -0.48058313216E+03  0.48375602785E+03  0.10000000000E+01 0.  0.
<mgrwt>
<rscale>  0 0.12499731E+03</rscale>
<asrwt>0</asrwt>
<pdfrwt beam="2">  1        4 0.10123636E+00 0.12499731E+03</pdfrwt>
<pdfrwt beam="1">  1       -4 0.91322563E-03 0.12499731E+03</pdfrwt>
<totfact> 0.45060568E+03</totfact>
</mgrwt>
</event>
<event>
 5    1  0.3308162E-002  0.1249992E+03  0.7818608E-02  0.1235071E+00
          4   -1    0    0  501    0  0.00000000000E+00  0.00000000000E+00  0.86357505172E+02  0.86366843173E+02  0.12700000000E+01 0.  1.
         -4   -1    0    0    0  501 -0.00000000000E+00 -0.00000000000E+00 -0.45212160915E+02  0.45229994413E+02  0.12700000000E+01 0.  1.
         25    2    1    2    0    0  0.00000000000E+00  0.00000000000E+00  0.41145344257E+02  0.13159683759E+03  0.12499915323E+03 0.  0.
    9000005    1    3    3    0    0 -0.15649764653E+02  0.58983397905E+02  0.63995259836E+01  0.61367013084E+02  0.10000000000E+01 0.  0.
    9000005    1    3    3    0    0  0.15649764653E+02 -0.58983397905E+02  0.34745818274E+02  0.70229824502E+02  0.10000000000E+01 0.  0.
<mgrwt>
<rscale>  0 0.12499915E+03</rscale>
<asrwt>0</asrwt>
<pdfrwt beam="1">  1        4 0.13287860E-01 0.12499915E+03</pdfrwt>
<pdfrwt beam="2">  1       -4 0.69578073E-02 0.12499915E+03</pdfrwt>
<totfact> 0.10310508E+04</totfact>
</mgrwt>
</event>
<event>
 5    1  0.3308162E-002  0.1249998E+03  0.7818608E-02  0.1235070E+00
         -4   -1    0    0    0  501 -0.00000000000E+00  0.00000000000E+00  0.43733114467E+03  0.43733298869E+03  0.12700000000E+01 0. -1.
          4   -1    0    0  501    0  0.00000000000E+00 -0.00000000000E+00 -0.88849716511E+01  0.89752783378E+01  0.12700000000E+01 0. -1.
         25    2    1    2    0    0  0.00000000000E+00  0.00000000000E+00  0.42844617302E+03  0.44630826703E+03  0.12499978418E+03 0.  0.
    9000005    1    3    3    0    0 -0.56722876282E+02  0.13006434120E+02  0.13291468378E+03  0.14509984558E+03  0.10000000000E+01 0.  0.
    9000005    1    3    3    0    0  0.56722876282E+02 -0.13006434120E+02  0.29553148924E+03  0.30120842145E+03  0.10000000000E+01 0.  0.
<mgrwt>
<rscale>  0 0.12499978E+03</rscale>
<asrwt>0</asrwt>
<pdfrwt beam="2">  1        4 0.13740073E-02 0.12499978E+03</pdfrwt>
<pdfrwt beam="1">  1       -4 0.67288798E-01 0.12499978E+03</pdfrwt>
<totfact> 0.60285237E+03</totfact>
</mgrwt>
</event>
<event>
 5    1  0.3308162E-002  0.1250214E+03  0.7818608E-02  0.1235036E+00
         -4   -1    0    0    0  501 -0.00000000000E+00  0.00000000000E+00  0.13802677389E+03  0.13803261647E+03  0.12700000000E+01 0.  1.
          4   -1    0    0  501    0  0.00000000000E+00 -0.00000000000E+00 -0.28289676063E+02  0.28318168581E+02  0.12700000000E+01 0.  1.
         25    2    1    2    0    0  0.00000000000E+00  0.00000000000E+00  0.10973709782E+03  0.16635078505E+03  0.12502141036E+03 0.  0.
    9000005    1    3    3    0    0 -0.20193004795E+02 -0.52906449768E+02  0.90065764828E+02  0.10639404055E+03  0.10000000000E+01 0.  0.
    9000005    1    3    3    0    0  0.20193004795E+02  0.52906449768E+02  0.19671332995E+02  0.59956744504E+02  0.10000000000E+01 0.  0.
<mgrwt>
<rscale>  0 0.12502141E+03</rscale>
<asrwt>0</asrwt>
<pdfrwt beam="2">  1        4 0.43548990E-02 0.12502141E+03</pdfrwt>
<pdfrwt beam="1">  1       -4 0.21237530E-01 0.12502141E+03</pdfrwt>
<totfact> 0.96085969E+03</totfact>
</mgrwt>
</event>
<event>
 5    1  0.3308162E-002  0.1250015E+03  0.7818608E-02  0.1235067E+00
         -4   -1    0    0    0  501 -0.00000000000E+00  0.00000000000E+00  0.15319544321E+03  0.15320070731E+03  0.12700000000E+01 0.  1.
          4   -1    0    0  501    0  0.00000000000E+00 -0.00000000000E+00 -0.25477573503E+02  0.25509207193E+02  0.12700000000E+01 0.  1.
         25    2    1    2    0    0  0.00000000000E+00  0.00000000000E+00  0.12771786970E+03  0.17870991450E+03  0.12500151719E+03 0.  0.
    9000005    1    3    3    0    0 -0.76110519429E+01 -0.62027280237E+02  0.63598361748E+02  0.89168734556E+02  0.10000000000E+01 0.  0.
    9000005    1    3    3    0    0  0.76110519429E+01  0.62027280237E+02  0.64119507954E+02  0.89541179943E+02  0.10000000000E+01 0.  0.
<mgrwt>
<rscale>  0 0.12500152E+03</rscale>
<asrwt>0</asrwt>
<pdfrwt beam="2">  1        4 0.39224650E-02 0.12500152E+03</pdfrwt>
<pdfrwt beam="1">  1       -4 0.23571368E-01 0.12500152E+03</pdfrwt>
<totfact> 0.93846547E+03</totfact>
</mgrwt>
</event>
<event>
 5    1  0.3308162E-002  0.1249993E+03  0.7818608E-02  0.1235070E+00
         -4   -1    0    0    0  501 -0.00000000000E+00  0.00000000000E+00  0.18358719330E+03  0.18359158598E+03  0.12700000000E+01 0.  1.
          4   -1    0    0  501    0  0.00000000000E+00 -0.00000000000E+00 -0.21253509149E+02  0.21291419660E+02  0.12700000000E+01 0.  1.
         25    2    1    2    0    0  0.00000000000E+00  0.00000000000E+00  0.16233368415E+03  0.20488300564E+03  0.12499928396E+03 0.  0.
    9000005    1    3    3    0    0  0.49847887983E+02  0.16221710346E+02  0.25408237279E+02  0.58262632489E+02  0.10000000000E+01 0.  0.
    9000005    1    3    3    0    0 -0.49847887983E+02 -0.16221710346E+02  0.13692544687E+03  0.14662037315E+03  0.10000000000E+01 0.  0.
<mgrwt>
<rscale>  0 0.12499928E+03</rscale>
<asrwt>0</asrwt>
<pdfrwt beam="2">  1        4 0.32730248E-02 0.12499928E+03</pdfrwt>
<pdfrwt beam="1">  1       -4 0.28247437E-01 0.12499928E+03</pdfrwt>
<totfact> 0.89319862E+03</totfact>
</mgrwt>
</event>
<event>
 5    1  0.3308162E-002  0.1249857E+03  0.7818608E-02  0.1235092E+00
         -4   -1    0    0    0  501 -0.00000000000E+00  0.00000000000E+00  0.22412605068E+02  0.22448558215E+02  0.12700000000E+01 0. -1.
          4   -1    0    0  501    0  0.00000000000E+00 -0.00000000000E+00 -0.17407031767E+03  0.17407495050E+03  0.12700000000E+01 0. -1.
         25    2    1    2    0    0  0.00000000000E+00  0.00000000000E+00 -0.15165771260E+03  0.19652350872E+03  0.12498570994E+03 0.  0.
    9000005    1    3    3    0    0 -0.35280070642E+01  0.62365532762E+02 -0.78290207916E+02  0.10016118593E+03  0.10000000000E+01 0.  0.
    9000005    1    3    3    0    0  0.35280070642E+01 -0.62365532762E+02 -0.73367504681E+02  0.96362322791E+02  0.10000000000E+01 0.  0.
<mgrwt>
<rscale>  0 0.12498571E+03</rscale>
<asrwt>0</asrwt>
<pdfrwt beam="2">  1        4 0.26783170E-01 0.12498571E+03</pdfrwt>
<pdfrwt beam="1">  1       -4 0.34512152E-02 0.12498571E+03</pdfrwt>
<totfact> 0.90753500E+03</totfact>
</mgrwt>
</event>
<event>
 5    1  0.3308162E-002  0.1249649E+03  0.7818608E-02  0.1235124E+00
          4   -1    0    0  501    0  0.00000000000E+00  0.00000000000E+00  0.67424986529E+02  0.67436946168E+02  0.12700000000E+01 0.  1.
         -4   -1    0    0    0  501 -0.00000000000E+00 -0.00000000000E+00 -0.57878172658E+02  0.57892104558E+02  0.12700000000E+01 0.  1.
         25    2    1    2    0    0  0.00000000000E+00  0.00000000000E+00  0.95468138720E+01  0.12532905073E+03  0.12496491228E+03 0.  0.
    9000005    1    3    3    0    0  0.40454248599E+02 -0.15017657833E+02  0.50082268234E+02  0.66115882116E+02  0.10000000000E+01 0.  0.
    9000005    1    3    3    0    0 -0.40454248599E+02  0.15017657833E+02 -0.40535454363E+02  0.59213168610E+02  0.10000000000E+01 0.  0.
<mgrwt>
<rscale>  0 0.12496491E+03</rscale>
<asrwt>0</asrwt>
<pdfrwt beam="1">  1        4 0.10375066E-01 0.12496491E+03</pdfrwt>
<pdfrwt beam="2">  1       -4 0.89063260E-02 0.12496491E+03</pdfrwt>
<totfact> 0.10454007E+04</totfact>
</mgrwt>
</event>
<event>
 5    1  0.3308162E-002  0.1250005E+03  0.7818608E-02  0.1235068E+00
          4   -1    0    0  501    0  0.00000000000E+00  0.00000000000E+00  0.20772822210E+02  0.20811608361E+02  0.12700000000E+01 0.  1.
         -4   -1    0    0    0  501 -0.00000000000E+00 -0.00000000000E+00 -0.18783137506E+03  0.18783566849E+03  0.12700000000E+01 0.  1.
         25    2    1    2    0    0  0.00000000000E+00  0.00000000000E+00 -0.16705855285E+03  0.20864727685E+03  0.12500050423E+03 0.  0.
    9000005    1    3    3    0    0  0.81572519766E+00  0.18564617477E+02 -0.18312121620E+03  0.18406436442E+03  0.10000000000E+01 0.  0.
    9000005    1    3    3    0    0 -0.81572519766E+00 -0.18564617477E+02  0.16062663345E+02  0.24582912427E+02  0.10000000000E+01 0.  0.
<mgrwt>
<rscale>  0 0.12500050E+03</rscale>
<asrwt>0</asrwt>
<pdfrwt beam="1">  1        4 0.31991327E-02 0.12500050E+03</pdfrwt>
<pdfrwt beam="2">  1       -4 0.28900447E-01 0.12500050E+03</pdfrwt>
<totfact> 0.88696276E+03</totfact>
</mgrwt>
</event>
<event>
 5    1  0.3308162E-002  0.1249962E+03  0.7818608E-02  0.1235075E+00
         -4   -1    0    0    0  501 -0.00000000000E+00  0.00000000000E+00  0.58063966775E+01  0.59436640531E+01  0.12700000000E+01 0.  1.
          4   -1    0    0  501    0  0.00000000000E+00 -0.00000000000E+00 -0.66471151239E+03  0.66471272562E+03  0.12700000000E+01 0.  1.
         25    2    1    2    0    0  0.00000000000E+00  0.00000000000E+00 -0.65890511571E+03  0.67065638968E+03  0.12499616594E+03 0.  0.
    9000005    1    3    3    0    0 -0.52597674411E+02 -0.23001885431E+02 -0.19700085291E+03  0.20519731513E+03  0.10000000000E+01 0.  0.
    9000005    1    3    3    0    0  0.52597674411E+02  0.23001885431E+02 -0.46190426280E+03  0.46545907455E+03  0.10000000000E+01 0.  0.
<mgrwt>
<rscale>  0 0.12499617E+03</rscale>
<asrwt>0</asrwt>
<pdfrwt beam="2">  1        4 0.10227390E+00 0.12499617E+03</pdfrwt>
<pdfrwt beam="1">  1       -4 0.90394468E-03 0.12499617E+03</pdfrwt>
<totfact> 0.44685383E+03</totfact>
</mgrwt>
</event>
<event>
 5    1  0.3308162E-002  0.1249989E+03  0.7818608E-02  0.1235071E+00
          4   -1    0    0  501    0  0.00000000000E+00  0.00000000000E+00  0.43707098412E+02  0.43725545755E+02  0.12700000000E+01 0.  1.
         -4   -1    0    0    0  501 -0.00000000000E+00 -0.00000000000E+00 -0.89330027364E+02  0.89339054667E+02  0.12700000000E+01 0.  1.
         25    2    1    2    0    0  0.00000000000E+00  0.00000000000E+00 -0.45622928952E+02  0.13306460042E+03  0.12499894495E+03 0.  0.
    9000005    1    3    3    0    0 -0.56265057560E+02 -0.24880810826E+02 -0.34490850851E+02  0.70536729737E+02  0.10000000000E+01 0.  0.
    9000005    1    3    3    0    0  0.56265057560E+02  0.24880810826E+02 -0.11132078100E+02  0.62527870685E+02  0.10000000000E+01 0.  0.
<mgrwt>
<rscale>  0 0.12499894E+03</rscale>
<asrwt>0</asrwt>
<pdfrwt beam="1">  1        4 0.67262824E-02 0.12499894E+03</pdfrwt>
<pdfrwt beam="2">  1       -4 0.13745195E-01 0.12499894E+03</pdfrwt>
<totfact> 0.10279272E+04</totfact>
</mgrwt>
</event>
<event>
 5    1  0.3308162E-002  0.1249982E+03  0.7818608E-02  0.1235072E+00
         -4   -1    0    0    0  501 -0.00000000000E+00  0.00000000000E+00  0.14625411216E+03  0.14625962609E+03  0.12700000000E+01 0. -1.
          4   -1    0    0  501    0  0.00000000000E+00 -0.00000000000E+00 -0.26686780620E+02  0.26716982612E+02  0.12700000000E+01 0. -1.
         25    2    1    2    0    0  0.00000000000E+00  0.00000000000E+00  0.11956733154E+03  0.17297660870E+03  0.12499824153E+03 0.  0.
    9000005    1    3    3    0    0  0.31425816385E+02 -0.50013771705E+02  0.31552780590E+02  0.66974153661E+02  0.10000000000E+01 0.  0.
    9000005    1    3    3    0    0 -0.31425816385E+02  0.50013771705E+02  0.88014550946E+02  0.10600245504E+03  0.10000000000E+01 0.  0.
<mgrwt>
<rscale>  0 0.12499824E+03</rscale>
<asrwt>0</asrwt>
<pdfrwt beam="2">  1        4 0.41084059E-02 0.12499824E+03</pdfrwt>
<pdfrwt beam="1">  1       -4 0.22503380E-01 0.12499824E+03</pdfrwt>
<totfact> 0.94900476E+03</totfact>
</mgrwt>
</event>
<event>
 5    1  0.3308162E-002  0.1249985E+03  0.7818608E-02  0.1235072E+00
         -4   -1    0    0    0  501 -0.00000000000E+00  0.00000000000E+00  0.55983899615E+01  0.57406332543E+01  0.12700000000E+01 0. -1.
          4   -1    0    0  501    0  0.00000000000E+00 -0.00000000000E+00 -0.68883301214E+03  0.68883418289E+03  0.12700000000E+01 0. -1.
         25    2    1    2    0    0  0.00000000000E+00  0.00000000000E+00 -0.68323462218E+03  0.69457481614E+03  0.12499850509E+03 0.  0.
    9000005    1    3    3    0    0 -0.43237359302E+02 -0.10763125575E+02 -0.98146440083E+02  0.10779164074E+03  0.10000000000E+01 0.  0.
    9000005    1    3    3    0    0  0.43237359302E+02  0.10763125575E+02 -0.58508818210E+03  0.58678317541E+03  0.10000000000E+01 0.  0.
<mgrwt>
<rscale>  0 0.12499851E+03</rscale>
<asrwt>0</asrwt>
<pdfrwt beam="2">  1        4 0.10598528E+00 0.12499851E+03</pdfrwt>
<pdfrwt beam="1">  1       -4 0.87232316E-03 0.12499851E+03</pdfrwt>
<totfact> 0.43376068E+03</totfact>
</mgrwt>
</event>
<event>
 5    1  0.3308162E-002  0.1250104E+03  0.7818608E-02  0.1235053E+00
         -4   -1    0    0    0  501 -0.00000000000E+00  0.00000000000E+00  0.14603684874E+03  0.14604237088E+03  0.12700000000E+01 0. -1.
          4   -1    0    0  501    0  0.00000000000E+00 -0.00000000000E+00 -0.26731744898E+02  0.26761896145E+02  0.12700000000E+01 0. -1.
         25    2    1    2    0    0  0.00000000000E+00  0.00000000000E+00  0.11930510385E+03  0.17280426702E+03  0.12501042715E+03 0.  0.
    9000005    1    3    3    0    0 -0.55059316292E+02  0.10153794960E+02  0.98042058470E+02  0.11290647940E+03  0.10000000000E+01 0.  0.
    9000005    1    3    3    0    0  0.55059316292E+02 -0.10153794960E+02  0.21263045376E+02  0.59897787616E+02  0.10000000000E+01 0.  0.
<mgrwt>
<rscale>  0 0.12501043E+03</rscale>
<asrwt>0</asrwt>
<pdfrwt beam="2">  1        4 0.41153204E-02 0.12501043E+03</pdfrwt>
<pdfrwt beam="1">  1       -4 0.22469951E-01 0.12501043E+03</pdfrwt>
<totfact> 0.94906323E+03</totfact>
</mgrwt>
</event>
<event>
 5    1  0.3308162E-002  0.1249693E+03  0.7818608E-02  0.1235117E+00
          4   -1    0    0  501    0  0.00000000000E+00  0.00000000000E+00  0.85633519585E+02  0.85642936524E+02  0.12700000000E+01 0. -1.
         -4   -1    0    0    0  501 -0.00000000000E+00 -0.00000000000E+00 -0.45572717947E+02  0.45590410407E+02  0.12700000000E+01 0. -1.
         25    2    1    2    0    0  0.00000000000E+00  0.00000000000E+00  0.40060801638E+02  0.13123334693E+03  0.12496929030E+03 0.  0.
    9000005    1    3    3    0    0 -0.11630086968E+02  0.55341960238E+02  0.47919852230E+02  0.74130315820E+02  0.10000000000E+01 0.  0.
    9000005    1    3    3    0    0  0.11630086968E+02 -0.55341960238E+02 -0.78590505918E+01  0.57103031111E+02  0.10000000000E+01 0.  0.
<mgrwt>
<rscale>  0 0.12496929E+03</rscale>
<asrwt>0</asrwt>
<pdfrwt beam="1">  1        4 0.13176473E-01 0.12496929E+03</pdfrwt>
<pdfrwt beam="2">  1       -4 0.70132728E-02 0.12496929E+03</pdfrwt>
<totfact> 0.10325241E+04</totfact>
</mgrwt>
</event>
<event>
 5    1  0.3308162E-002  0.1249868E+03  0.7818608E-02  0.1235090E+00
          4   -1    0    0  501    0  0.00000000000E+00  0.00000000000E+00  0.11673424209E+03  0.11674115032E+03  0.12700000000E+01 0. -1.
         -4   -1    0    0    0  501 -0.00000000000E+00 -0.00000000000E+00 -0.33435742354E+02  0.33459853060E+02  0.12700000000E+01 0. -1.
         25    2    1    2    0    0  0.00000000000E+00  0.00000000000E+00  0.83298499741E+02  0.15020100338E+03  0.12498680473E+03 0.  0.
    9000005    1    3    3    0    0  0.14349764310E+02 -0.56017844597E+02  0.70100451818E+02  0.90878974433E+02  0.10000000000E+01 0.  0.
    9000005    1    3    3    0    0 -0.14349764310E+02  0.56017844597E+02  0.13198047923E+02  0.59322028944E+02  0.10000000000E+01 0.  0.
<mgrwt>
<rscale>  0 0.12498680E+03</rscale>
<asrwt>0</asrwt>
<pdfrwt beam="1">  1        4 0.17961500E-01 0.12498680E+03</pdfrwt>
<pdfrwt beam="2">  1       -4 0.51463464E-02 0.12498680E+03</pdfrwt>
<totfact> 0.99293129E+03</totfact>
</mgrwt>
</event>
<event>
 5    1  0.3308162E-002  0.1250012E+03  0.7818608E-02  0.1235067E+00
         -4   -1    0    0    0  501 -0.00000000000E+00  0.00000000000E+00  0.57026980574E+02  0.57041120372E+02  0.12700000000E+01 0. -1.
          4   -1    0    0  501    0  0.00000000000E+00 -0.00000000000E+00 -0.68471024575E+02  0.68482801537E+02  0.12700000000E+01 0. -1.
         25    2    1    2    0    0  0.00000000000E+00  0.00000000000E+00 -0.11444044002E+02  0.12552392191E+03  0.12500115531E+03 0.  0.
    9000005    1    3    3    0    0 -0.25614367812E+02 -0.51518866015E+02  0.18773287484E+02  0.60528718117E+02  0.10000000000E+01 0.  0.
    9000005    1    3    3    0    0  0.25614367812E+02  0.51518866015E+02 -0.30217331486E+02  0.64995203793E+02  0.10000000000E+01 0.  0.
<mgrwt>
<rscale>  0 0.12500116E+03</rscale>
<asrwt>0</asrwt>
<pdfrwt beam="2">  1        4 0.10535997E-01 0.12500116E+03</pdfrwt>
<pdfrwt beam="1">  1       -4 0.87753752E-02 0.12500116E+03</pdfrwt>
<totfact> 0.10441154E+04</totfact>
</mgrwt>
</event>
<event>
 4    1  0.3308162E-002  0.1251464E+03  0.7818608E-02  0.1234841E+00
         -4   -1    0    0    0  501 -0.00000000000E+00  0.00000000000E+00  0.12469996271E+03  0.12470642966E+03  0.12700000000E+01 0.  1.
          4   -1    0    0  501    0  0.00000000000E+00 -0.00000000000E+00 -0.31378490967E+02  0.31404181177E+02  0.12700000000E+01 0.  1.
    9000005    1    1    2    0    0  0.58543746854E+02 -0.20013434330E+02  0.35059119551E+02  0.71119967049E+02  0.10000000000E+01 0.  0.
    9000005    1    1    2    0    0 -0.58543746854E+02  0.20013434330E+02  0.58262352189E+02  0.84990643791E+02  0.10000000000E+01 0.  0.
<mgrwt>
<rscale>  0 0.12514642E+03</rscale>
<asrwt>0</asrwt>
<pdfrwt beam="2">  1        4 0.48299338E-02 0.12514642E+03</pdfrwt>
<pdfrwt beam="1">  1       -4 0.19187083E-01 0.12514642E+03</pdfrwt>
<totfact> 0.97775623E+03</totfact>
</mgrwt>
</event>
<event>
 5    1  0.3308162E-002  0.1250054E+03  0.7818608E-02  0.1235061E+00
          4   -1    0    0  501    0  0.00000000000E+00  0.00000000000E+00  0.95677031304E+01  0.96516238629E+01  0.12700000000E+01 0.  1.
         -4   -1    0    0    0  501 -0.00000000000E+00 -0.00000000000E+00 -0.40644219411E+03  0.40644417828E+03  0.12700000000E+01 0.  1.
         25    2    1    2    0    0  0.00000000000E+00  0.00000000000E+00 -0.39687449098E+03  0.41609580214E+03  0.12500541975E+03 0.  0.
    9000005    1    3    3    0    0  0.34720276837E+02  0.47600291389E+02 -0.26780555245E+03  0.27421177817E+03  0.10000000000E+01 0.  0.
    9000005    1    3    3    0    0 -0.34720276837E+02 -0.47600291389E+02 -0.12906893853E+03  0.14188402397E+03  0.10000000000E+01 0.  0.
<mgrwt>
<rscale>  0 0.12500542E+03</rscale>
<asrwt>0</asrwt>
<pdfrwt beam="1">  1        4 0.14785627E-02 0.12500542E+03</pdfrwt>
<pdfrwt beam="2">  1       -4 0.62536163E-01 0.12500542E+03</pdfrwt>
<totfact> 0.63009340E+03</totfact>
</mgrwt>
</event>
<event>
 5    1  0.3308162E-002  0.1250033E+03  0.7818608E-02  0.1235064E+00
          4   -1    0    0  501    0  0.00000000000E+00  0.00000000000E+00  0.40543831890E+02  0.40563717832E+02  0.12700000000E+01 0. -1.
         -4   -1    0    0    0  501 -0.00000000000E+00 -0.00000000000E+00 -0.96303786043E+02  0.96312159701E+02  0.12700000000E+01 0. -1.
         25    2    1    2    0    0  0.00000000000E+00  0.00000000000E+00 -0.55759954152E+02  0.13687587753E+03  0.12500333341E+03 0.  0.
    9000005    1    3    3    0    0 -0.61999092436E+02 -0.12184398756E+01 -0.36367735080E+02  0.71895648084E+02  0.10000000000E+01 0.  0.
    9000005    1    3    3    0    0  0.61999092436E+02  0.12184398756E+01 -0.19392219072E+02  0.64980229448E+02  0.10000000000E+01 0.  0.
<mgrwt>
<rscale>  0 0.12500333E+03</rscale>
<asrwt>0</asrwt>
<pdfrwt beam="1">  1        4 0.62396864E-02 0.12500333E+03</pdfrwt>
<pdfrwt beam="2">  1       -4 0.14818141E-01 0.12500333E+03</pdfrwt>
<totfact> 0.10197915E+04</totfact>
</mgrwt>
</event>
<event>
 4    1  0.3308162E-002  0.1248752E+03  0.7818608E-02  0.1235265E+00
          4   -1    0    0  501    0  0.00000000000E+00  0.00000000000E+00  0.59888231805E+02  0.59901696209E+02  0.12700000000E+01 0. -1.
         -4   -1    0    0    0  501 -0.00000000000E+00 -0.00000000000E+00 -0.65068474727E+02  0.65080867413E+02  0.12700000000E+01 0. -1.
    9000005    1    1    2    0    0 -0.14952696476E+02 -0.49808358138E+02  0.31979357738E+02  0.61058455545E+02  0.10000000000E+01 0.  0.
    9000005    1    1    2    0    0  0.14952696476E+02  0.49808358138E+02 -0.37159600660E+02  0.63924108077E+02  0.10000000000E+01 0.  0.
<mgrwt>
<rscale>  0 0.12487516E+03</rscale>
<asrwt>0</asrwt>
<pdfrwt beam="1">  1        4 0.92155632E-02 0.12487516E+03</pdfrwt>
<pdfrwt beam="2">  1       -4 0.10012524E-01 0.12487516E+03</pdfrwt>
<totfact> 0.10482789E+04</totfact>
</mgrwt>
</event>
<event>
 5    1  0.3308162E-002  0.1250004E+03  0.7818608E-02  0.1235069E+00
         -4   -1    0    0    0  501 -0.00000000000E+00  0.00000000000E+00  0.77835418151E+01  0.78864708956E+01  0.12700000000E+01 0. -1.
          4   -1    0    0  501    0  0.00000000000E+00 -0.00000000000E+00 -0.49846325488E+03  0.49846487275E+03  0.12700000000E+01 0. -1.
         25    2    1    2    0    0  0.00000000000E+00  0.00000000000E+00 -0.49067971306E+03  0.50635134364E+03  0.12500040959E+03 0.  0.
    9000005    1    3    3    0    0  0.33630499001E+02 -0.21874188116E+02 -0.43943118857E+03  0.44125985548E+03  0.10000000000E+01 0.  0.
    9000005    1    3    3    0    0 -0.33630499001E+02  0.21874188116E+02 -0.51248524492E+02  0.65091488164E+02  0.10000000000E+01 0.  0.
<mgrwt>
<rscale>  0 0.12500041E+03</rscale>
<asrwt>0</asrwt>
<pdfrwt beam="2">  1        4 0.76694671E-01 0.12500041E+03</pdfrwt>
<pdfrwt beam="1">  1       -4 0.12055104E-02 0.12500041E+03</pdfrwt>
<totfact> 0.55374438E+03</totfact>
</mgrwt>
</event>
<event>
 5    1  0.3308162E-002  0.1249983E+03  0.7818608E-02  0.1235072E+00
          4   -1    0    0  501    0  0.00000000000E+00  0.00000000000E+00  0.84881931580E+02  0.84891431892E+02  0.12700000000E+01 0.  1.
         -4   -1    0    0    0  501 -0.00000000000E+00 -0.00000000000E+00 -0.45997733123E+02  0.46015262169E+02  0.12700000000E+01 0.  1.
         25    2    1    2    0    0  0.00000000000E+00  0.00000000000E+00  0.38884198456E+02  0.13090669406E+03  0.12499832663E+03 0.  0.
    9000005    1    3    3    0    0 -0.60120989269E+01  0.62172687020E+02  0.21417266513E+02  0.66040045803E+02  0.10000000000E+01 0.  0.
    9000005    1    3    3    0    0  0.60120989269E+01 -0.62172687020E+02  0.17466931943E+02  0.64866648258E+02  0.10000000000E+01 0.  0.
<mgrwt>
<rscale>  0 0.12499833E+03</rscale>
<asrwt>0</asrwt>
<pdfrwt beam="1">  1        4 0.13060838E-01 0.12499833E+03</pdfrwt>
<pdfrwt beam="2">  1       -4 0.70786535E-02 0.12499833E+03</pdfrwt>
<totfact> 0.10325480E+04</totfact>
</mgrwt>
</event>
<event>
 5    1  0.3308162E-002  0.1250003E+03  0.7818608E-02  0.1235069E+00
          4   -1    0    0  501    0  0.00000000000E+00  0.00000000000E+00  0.50000893875E+03  0.50001055162E+03  0.12700000000E+01 0. -1.
         -4   -1    0    0    0  501 -0.00000000000E+00 -0.00000000000E+00 -0.77591472004E+01  0.78623956449E+01  0.12700000000E+01 0. -1.
         25    2    1    2    0    0  0.00000000000E+00  0.00000000000E+00  0.49224979155E+03  0.50787294727E+03  0.12500029313E+03 0.  0.
    9000005    1    3    3    0    0  0.57063987709E+02 -0.25150550177E+02  0.22966134945E+03  0.23797937789E+03  0.10000000000E+01 0.  0.
    9000005    1    3    3    0    0 -0.57063987709E+02  0.25150550177E+02  0.26258844210E+03  0.26989356938E+03  0.10000000000E+01 0.  0.
<mgrwt>
<rscale>  0 0.12500029E+03</rscale>
<asrwt>0</asrwt>
<pdfrwt beam="1">  1        4 0.76932539E-01 0.12500029E+03</pdfrwt>
<pdfrwt beam="2">  1       -4 0.12017809E-02 0.12500029E+03</pdfrwt>
<totfact> 0.55258288E+03</totfact>
</mgrwt>
</event>
<event>
 5    1  0.3308162E-002  0.1249960E+03  0.7818608E-02  0.1235076E+00
          4   -1    0    0  501    0  0.00000000000E+00  0.00000000000E+00  0.86150096256E+02  0.86159456735E+02  0.12700000000E+01 0.  1.
         -4   -1    0    0    0  501 -0.00000000000E+00 -0.00000000000E+00 -0.45318760191E+02  0.45336551757E+02  0.12700000000E+01 0.  1.
         25    2    1    2    0    0  0.00000000000E+00  0.00000000000E+00  0.40831336065E+02  0.13149600849E+03  0.12499600891E+03 0.  0.
    9000005    1    3    3    0    0  0.59894450901E+02 -0.16242414953E+02  0.12696579874E+02  0.63351120217E+02  0.10000000000E+01 0.  0.
    9000005    1    3    3    0    0 -0.59894450901E+02  0.16242414953E+02  0.28134756191E+02  0.68144888276E+02  0.10000000000E+01 0.  0.
<mgrwt>
<rscale>  0 0.12499601E+03</rscale>
<asrwt>0</asrwt>
<pdfrwt beam="1">  1        4 0.13255949E-01 0.12499601E+03</pdfrwt>
<pdfrwt beam="2">  1       -4 0.69742056E-02 0.12499601E+03</pdfrwt>
<totfact> 0.10313396E+04</totfact>
</mgrwt>
</event>
<event>
 5    1  0.3308162E-002  0.1250093E+03  0.7818608E-02  0.1235055E+00
         -4   -1    0    0    0  501 -0.00000000000E+00  0.00000000000E+00  0.83259557811E+01  0.84222585848E+01  0.12700000000E+01 0. -1.
          4   -1    0    0  501    0  0.00000000000E+00 -0.00000000000E+00 -0.46643983965E+03  0.46644156860E+03  0.12700000000E+01 0. -1.
         25    2    1    2    0    0  0.00000000000E+00  0.00000000000E+00 -0.45811388387E+03  0.47486382718E+03  0.12500929473E+03 0.  0.
    9000005    1    3    3    0    0  0.19740663294E+02 -0.15912060875E+02 -0.44604286428E+03  0.44676405881E+03  0.10000000000E+01 0.  0.
    9000005    1    3    3    0    0 -0.19740663294E+02  0.15912060875E+02 -0.12071019591E+02  0.28099768372E+02  0.10000000000E+01 0.  0.
<mgrwt>
<rscale>  0 0.12500929E+03</rscale>
<asrwt>0</asrwt>
<pdfrwt beam="2">  1        4 0.71767496E-01 0.12500929E+03</pdfrwt>
<pdfrwt beam="1">  1       -4 0.12884575E-02 0.12500929E+03</pdfrwt>
<totfact> 0.57856940E+03</totfact>
</mgrwt>
</event>
<event>
 5    1  0.3308162E-002  0.1249995E+03  0.7818608E-02  0.1235070E+00
          4   -1    0    0  501    0  0.00000000000E+00  0.00000000000E+00  0.95992164696E+02  0.96000565535E+02  0.12700000000E+01 0.  1.
         -4   -1    0    0    0  501 -0.00000000000E+00 -0.00000000000E+00 -0.40673012194E+02  0.40692835007E+02  0.12700000000E+01 0.  1.
         25    2    1    2    0    0  0.00000000000E+00  0.00000000000E+00  0.55319152502E+02  0.13669340054E+03  0.12499950847E+03 0.  0.
    9000005    1    3    3    0    0  0.14861415873E+02  0.57928400731E+02  0.78346610870E+01  0.60323653797E+02  0.10000000000E+01 0.  0.
    9000005    1    3    3    0    0 -0.14861415873E+02 -0.57928400731E+02  0.47484491415E+02  0.76369746746E+02  0.10000000000E+01 0.  0.
<mgrwt>
<rscale>  0 0.12499951E+03</rscale>
<asrwt>0</asrwt>
<pdfrwt beam="1">  1        4 0.14770196E-01 0.12499951E+03</pdfrwt>
<pdfrwt beam="2">  1       -4 0.62595575E-02 0.12499951E+03</pdfrwt>
<totfact> 0.10202613E+04</totfact>
</mgrwt>
</event>
<event>
 5    1  0.3308162E-002  0.1250053E+03  0.7818608E-02  0.1235061E+00
          4   -1    0    0  501    0  0.00000000000E+00  0.00000000000E+00  0.31810239396E+03  0.31810492914E+03  0.12700000000E+01 0. -1.
         -4   -1    0    0    0  501 -0.00000000000E+00 -0.00000000000E+00 -0.12245476181E+02  0.12311157009E+02  0.12700000000E+01 0. -1.
         25    2    1    2    0    0  0.00000000000E+00  0.00000000000E+00  0.30585691778E+03  0.33041608615E+03  0.12500534322E+03 0.  0.
    9000005    1    3    3    0    0 -0.62291718509E+02  0.47216138132E+01  0.14832582689E+03  0.16094751552E+03  0.10000000000E+01 0.  0.
    9000005    1    3    3    0    0  0.62291718509E+02 -0.47216138132E+01  0.15753109089E+03  0.16946857062E+03  0.10000000000E+01 0.  0.
<mgrwt>
<rscale>  0 0.12500534E+03</rscale>
<asrwt>0</asrwt>
<pdfrwt beam="1">  1        4 0.48944068E-01 0.12500534E+03</pdfrwt>
<pdfrwt beam="2">  1       -4 0.18891671E-02 0.12500534E+03</pdfrwt>
<totfact> 0.71925650E+03</totfact>
</mgrwt>
</event>
<event>
 5    1  0.3308162E-002  0.1250037E+03  0.7818608E-02  0.1235063E+00
          4   -1    0    0  501    0  0.00000000000E+00  0.00000000000E+00  0.51274809115E+03  0.51274966394E+03  0.12700000000E+01 0. -1.
         -4   -1    0    0    0  501 -0.00000000000E+00 -0.00000000000E+00 -0.75641986456E+01  0.76700717826E+01  0.12700000000E+01 0. -1.
         25    2    1    2    0    0  0.00000000000E+00  0.00000000000E+00  0.50518389250E+03  0.52041973573E+03  0.12500374431E+03 0.  0.
    9000005    1    3    3    0    0 -0.57880198269E+02 -0.13786375760E+02  0.33216335863E+03  0.33745174222E+03  0.10000000000E+01 0.  0.
    9000005    1    3    3    0    0  0.57880198269E+02  0.13786375760E+02  0.17302053387E+03  0.18296799351E+03  0.10000000000E+01 0.  0.
<mgrwt>
<rscale>  0 0.12500374E+03</rscale>
<asrwt>0</asrwt>
<pdfrwt beam="1">  1        4 0.78892589E-01 0.12500374E+03</pdfrwt>
<pdfrwt beam="2">  1       -4 0.11719879E-02 0.12500374E+03</pdfrwt>
<totfact> 0.54309666E+03</totfact>
</mgrwt>
</event>
<event>
 5    1  0.3308162E-002  0.1249993E+03  0.7818608E-02  0.1235070E+00
          4   -1    0    0  501    0  0.00000000000E+00  0.00000000000E+00  0.19112622437E+03  0.19113044379E+03  0.12700000000E+01 0. -1.
         -4   -1    0    0    0  501 -0.00000000000E+00 -0.00000000000E+00 -0.20413655647E+02  0.20453122912E+02  0.12700000000E+01 0. -1.
         25    2    1    2    0    0  0.00000000000E+00  0.00000000000E+00  0.17071256873E+03  0.21158356670E+03  0.12499929831E+03 0.  0.
    9000005    1    3    3    0    0 -0.26827829934E+02  0.29978631334E+02  0.16630020021E+03  0.17109999236E+03  0.10000000000E+01 0.  0.
    9000005    1    3    3    0    0  0.26827829934E+02 -0.29978631334E+02  0.44123685172E+01  0.40483574343E+02  0.10000000000E+01 0.  0.
<mgrwt>
<rscale>  0 0.12499930E+03</rscale>
<asrwt>0</asrwt>
<pdfrwt beam="1">  1        4 0.29407396E-01 0.12499930E+03</pdfrwt>
<pdfrwt beam="2">  1       -4 0.31439228E-02 0.12499930E+03</pdfrwt>
<totfact> 0.88219297E+03</totfact>
</mgrwt>
</event>
<event>
 5    1  0.3308162E-002  0.1250018E+03  0.7818608E-02  0.1235066E+00
         -4   -1    0    0    0  501 -0.00000000000E+00  0.00000000000E+00  0.16400952401E+02  0.16450049837E+02  0.12700000000E+01 0.  1.
          4   -1    0    0  501    0  0.00000000000E+00 -0.00000000000E+00 -0.23777240189E+03  0.23777579355E+03  0.12700000000E+01 0.  1.
         25    2    1    2    0    0  0.00000000000E+00  0.00000000000E+00 -0.22137144949E+03  0.25422584339E+03  0.12500184318E+03 0.  0.
    9000005    1    3    3    0    0  0.41279670084E+02 -0.41312224204E+02 -0.65452857622E+02  0.87725638225E+02  0.10000000000E+01 0.  0.
    9000005    1    3    3    0    0 -0.41279670084E+02  0.41312224204E+02 -0.15591859187E+03  0.16650020517E+03  0.10000000000E+01 0.  0.
<mgrwt>
<rscale>  0 0.12500184E+03</rscale>
<asrwt>0</asrwt>
<pdfrwt beam="2">  1        4 0.36584405E-01 0.12500184E+03</pdfrwt>
<pdfrwt beam="1">  1       -4 0.25272612E-02 0.12500184E+03</pdfrwt>
<totfact> 0.81719920E+03</totfact>
</mgrwt>
</event>
<event>
 5    1  0.3308162E-002  0.1249999E+03  0.7818608E-02  0.1235070E+00
          4   -1    0    0  501    0  0.00000000000E+00  0.00000000000E+00  0.57507646224E+03  0.57507786457E+03  0.12700000000E+01 0. -1.
         -4   -1    0    0    0  501 -0.00000000000E+00 -0.00000000000E+00 -0.67317736471E+01  0.68505238074E+01  0.12700000000E+01 0. -1.
         25    2    1    2    0    0  0.00000000000E+00  0.00000000000E+00  0.56834468859E+03  0.58192838838E+03  0.12499985661E+03 0.  0.
    9000005    1    3    3    0    0 -0.52641604893E+02  0.24928908956E+02  0.38957980344E+03  0.39391117313E+03  0.10000000000E+01 0.  0.
    9000005    1    3    3    0    0  0.52641604893E+02 -0.24928908956E+02  0.17876488515E+03  0.18801721525E+03  0.10000000000E+01 0.  0.
<mgrwt>
<rscale>  0 0.12499986E+03</rscale>
<asrwt>0</asrwt>
<pdfrwt beam="1">  1        4 0.88482547E-01 0.12499986E+03</pdfrwt>
<pdfrwt beam="2">  1       -4 0.10449000E-02 0.12499986E+03</pdfrwt>
<totfact> 0.50028736E+03</totfact>
</mgrwt>
</event>
<event>
 5    1  0.3308162E-002  0.1250111E+03  0.7818608E-02  0.1235052E+00
         -4   -1    0    0    0  501 -0.00000000000E+00  0.00000000000E+00  0.27202932408E+02  0.27232561972E+02  0.12700000000E+01 0. -1.
          4   -1    0    0  501    0  0.00000000000E+00 -0.00000000000E+00 -0.14351151951E+03  0.14351713881E+03  0.12700000000E+01 0. -1.
         25    2    1    2    0    0  0.00000000000E+00  0.00000000000E+00 -0.11630858710E+03  0.17074970078E+03  0.12501109104E+03 0.  0.
    9000005    1    3    3    0    0 -0.50699139816E+02  0.12033571917E+02 -0.10528660168E+03  0.11747969239E+03  0.10000000000E+01 0.  0.
    9000005    1    3    3    0    0  0.50699139816E+02 -0.12033571917E+02 -0.11021985422E+02  0.53270008390E+02  0.10000000000E+01 0.  0.
<mgrwt>
<rscale>  0 0.12501109E+03</rscale>
<asrwt>0</asrwt>
<pdfrwt beam="2">  1        4 0.22081406E-01 0.12501109E+03</pdfrwt>
<pdfrwt beam="1">  1       -4 0.41877781E-02 0.12501109E+03</pdfrwt>
<totfact> 0.95285367E+03</totfact>
</mgrwt>
</event>
<event>
 4    1  0.3308162E-002  0.1248949E+03  0.7818608E-02  0.1235234E+00
          4   -1    0    0  501    0  0.00000000000E+00  0.00000000000E+00  0.25978210813E+03  0.25978521245E+03  0.12700000000E+01 0. -1.
         -4   -1    0    0    0  501 -0.00000000000E+00 -0.00000000000E+00 -0.14981293985E+02  0.15035028083E+02  0.12700000000E+01 0. -1.
    9000005    1    1    2    0    0 -0.61386375876E+02  0.11300748478E+02  0.11879317949E+03  0.13419692081E+03  0.10000000000E+01 0.  0.
    9000005    1    1    2    0    0  0.61386375876E+02 -0.11300748478E+02  0.12600763465E+03  0.14062331972E+03  0.10000000000E+01 0.  0.
<mgrwt>
<rscale>  0 0.12489486E+03</rscale>
<asrwt>0</asrwt>
<pdfrwt beam="1">  1        4 0.39970847E-01 0.12489486E+03</pdfrwt>
<pdfrwt beam="2">  1       -4 0.23091868E-02 0.12489486E+03</pdfrwt>
<totfact> 0.79054632E+03</totfact>
</mgrwt>
</event>
<event>
 5    1  0.3308162E-002  0.1249993E+03  0.7818608E-02  0.1235070E+00
          4   -1    0    0  501    0  0.00000000000E+00  0.00000000000E+00  0.98757637498E+01  0.99570884119E+01  0.12700000000E+01 0. -1.
         -4   -1    0    0    0  501 -0.00000000000E+00 -0.00000000000E+00 -0.39383007259E+03  0.39383212030E+03  0.12700000000E+01 0. -1.
         25    2    1    2    0    0  0.00000000000E+00  0.00000000000E+00 -0.38395430884E+03  0.40378920871E+03  0.12499925516E+03 0.  0.
    9000005    1    3    3    0    0  0.46472134442E+02  0.22827910686E+02 -0.30501252992E+03  0.30937746555E+03  0.10000000000E+01 0.  0.
    9000005    1    3    3    0    0 -0.46472134442E+02 -0.22827910686E+02 -0.78941778926E+02  0.94411743156E+02  0.10000000000E+01 0.  0.
<mgrwt>
<rscale>  0 0.12499926E+03</rscale>
<asrwt>0</asrwt>
<pdfrwt beam="1">  1        4 0.15257618E-02 0.12499926E+03</pdfrwt>
<pdfrwt beam="2">  1       -4 0.60595643E-01 0.12499926E+03</pdfrwt>
<totfact> 0.64186977E+03</totfact>
</mgrwt>
</event>
<event>
 5    1  0.3308162E-002  0.1249983E+03  0.7818608E-02  0.1235072E+00
          4   -1    0    0  501    0  0.00000000000E+00  0.00000000000E+00  0.74705625077E+02  0.74716419335E+02  0.12700000000E+01 0. -1.
         -4   -1    0    0    0  501 -0.00000000000E+00 -0.00000000000E+00 -0.52264878869E+02  0.52280306648E+02  0.12700000000E+01 0. -1.
         25    2    1    2    0    0  0.00000000000E+00  0.00000000000E+00  0.22440746208E+02  0.12699672598E+03  0.12499832527E+03 0.  0.
    9000005    1    3    3    0    0 -0.39183519619E+02  0.27765036695E+02 -0.29405149654E+02  0.56319697252E+02  0.10000000000E+01 0.  0.
    9000005    1    3    3    0    0  0.39183519619E+02 -0.27765036695E+02  0.51845895863E+02  0.70677028731E+02  0.10000000000E+01 0.  0.
<mgrwt>
<rscale>  0 0.12499833E+03</rscale>
<asrwt>0</asrwt>
<pdfrwt beam="1">  1        4 0.11495190E-01 0.12499833E+03</pdfrwt>
<pdfrwt beam="2">  1       -4 0.80427677E-02 0.12499833E+03</pdfrwt>
<totfact> 0.10409610E+04</totfact>
</mgrwt>
</event>
<event>
 5    1  0.3308162E-002  0.1250041E+03  0.7818608E-02  0.1235063E+00
         -4   -1    0    0    0  501 -0.00000000000E+00  0.00000000000E+00  0.25587674327E+03  0.25587989496E+03  0.12700000000E+01 0. -1.
          4   -1    0    0  501    0  0.00000000000E+00 -0.00000000000E+00 -0.15237485221E+02  0.15290319024E+02  0.12700000000E+01 0. -1.
         25    2    1    2    0    0  0.00000000000E+00  0.00000000000E+00  0.24063925805E+03  0.27117021399E+03  0.12500412969E+03 0.  0.
    9000005    1    3    3    0    0 -0.50481369591E+01 -0.57286650376E+00  0.25543864862E+03  0.25549112523E+03  0.10000000000E+01 0.  0.
    9000005    1    3    3    0    0  0.50481369591E+01  0.57286650376E+00 -0.14799390574E+02  0.15679088754E+02  0.10000000000E+01 0.  0.
<mgrwt>
<rscale>  0 0.12500413E+03</rscale>
<asrwt>0</asrwt>
<pdfrwt beam="2">  1        4 0.23485352E-02 0.12500413E+03</pdfrwt>
<pdfrwt beam="1">  1       -4 0.39369957E-01 0.12500413E+03</pdfrwt>
<totfact> 0.79356305E+03</totfact>
</mgrwt>
</event>
<event>
 5    1  0.3308162E-002  0.1250045E+03  0.7818608E-02  0.1235062E+00
          4   -1    0    0  501    0  0.00000000000E+00  0.00000000000E+00  0.81909313589E+01  0.82888030816E+01  0.12700000000E+01 0. -1.
         -4   -1    0    0    0  501 -0.00000000000E+00 -0.00000000000E+00 -0.47400219413E+03  0.47400389549E+03  0.12700000000E+01 0. -1.
         25    2    1    2    0    0  0.00000000000E+00  0.00000000000E+00 -0.46581126278E+03  0.48229269858E+03  0.12500445821E+03 0.  0.
    9000005    1    3    3    0    0  0.10812923394E+02  0.60238387660E+02 -0.18411102115E+03  0.19401920206E+03  0.10000000000E+01 0.  0.
    9000005    1    3    3    0    0 -0.10812923394E+02 -0.60238387660E+02 -0.28170024162E+03  0.28827349651E+03  0.10000000000E+01 0.  0.
<mgrwt>
<rscale>  0 0.12500446E+03</rscale>
<asrwt>0</asrwt>
<pdfrwt beam="1">  1        4 0.12678031E-02 0.12500446E+03</pdfrwt>
<pdfrwt beam="2">  1       -4 0.72931053E-01 0.12500446E+03</pdfrwt>
<totfact> 0.57259287E+03</totfact>
</mgrwt>
</event>
<event>
 5    1  0.3308162E-002  0.1250015E+03  0.7818608E-02  0.1235067E+00
         -4   -1    0    0    0  501 -0.00000000000E+00  0.00000000000E+00  0.68780980068E+02  0.68792703968E+02  0.12700000000E+01 0.  1.
          4   -1    0    0  501    0  0.00000000000E+00 -0.00000000000E+00 -0.56770256862E+02  0.56784460587E+02  0.12700000000E+01 0.  1.
         25    2    1    2    0    0  0.00000000000E+00  0.00000000000E+00  0.12010723207E+02  0.12557716455E+03  0.12500146713E+03 0.  0.
    9000005    1    3    3    0    0  0.31912257987E+02 -0.21502818318E+02 -0.43461421511E+02  0.58057373048E+02  0.10000000000E+01 0.  0.
    9000005    1    3    3    0    0 -0.31912257987E+02  0.21502818318E+02  0.55472144718E+02  0.67519791506E+02  0.10000000000E+01 0.  0.
<mgrwt>
<rscale>  0 0.12500147E+03</rscale>
<asrwt>0</asrwt>
<pdfrwt beam="2">  1        4 0.87358801E-02 0.12500147E+03</pdfrwt>
<pdfrwt beam="1">  1       -4 0.10583684E-01 0.12500147E+03</pdfrwt>
<totfact> 0.10439905E+04</totfact>
</mgrwt>
</event>
<event>
 5    1  0.3308162E-002  0.1249973E+03  0.7818608E-02  0.1235073E+00
         -4   -1    0    0    0  501 -0.00000000000E+00  0.00000000000E+00  0.10218328212E+03  0.10219117400E+03  0.12700000000E+01 0.  1.
          4   -1    0    0  501    0  0.00000000000E+00 -0.00000000000E+00 -0.38206331539E+02  0.38227433470E+02  0.12700000000E+01 0.  1.
         25    2    1    2    0    0  0.00000000000E+00  0.00000000000E+00  0.63976950579E+02  0.14041860747E+03  0.12499734045E+03 0.  0.
    9000005    1    3    3    0    0 -0.32438965629E+02  0.78026932361E+01  0.91345893935E+02  0.97253487606E+02  0.10000000000E+01 0.  0.
    9000005    1    3    3    0    0  0.32438965629E+02 -0.78026932361E+01 -0.27368943356E+02  0.43165119868E+02  0.10000000000E+01 0.  0.
<mgrwt>
<rscale>  0 0.12499734E+03</rscale>
<asrwt>0</asrwt>
<pdfrwt beam="2">  1        4 0.58801275E-02 0.12499734E+03</pdfrwt>
<pdfrwt beam="1">  1       -4 0.15722735E-01 0.12499734E+03</pdfrwt>
<totfact> 0.10125524E+04</totfact>
</mgrwt>
</event>
<event>
 5    1  0.3308162E-002  0.1249969E+03  0.7818608E-02  0.1235074E+00
          4   -1    0    0  501    0  0.00000000000E+00  0.00000000000E+00  0.40686990840E+01  0.42623012841E+01  0.12700000000E+01 0.  1.
         -4   -1    0    0    0  501 -0.00000000000E+00 -0.00000000000E+00 -0.93752254011E+03  0.93752340030E+03  0.12700000000E+01 0.  1.
         25    2    1    2    0    0  0.00000000000E+00  0.00000000000E+00 -0.93345384103E+03  0.94178570159E+03  0.12499693751E+03 0.  0.
    9000005    1    3    3    0    0  0.47047455437E+02  0.39735187270E+02 -0.54671674903E+03  0.55017501928E+03  0.10000000000E+01 0.  0.
    9000005    1    3    3    0    0 -0.47047455437E+02 -0.39735187270E+02 -0.38673709199E+03  0.39161068230E+03  0.10000000000E+01 0.  0.
<mgrwt>
<rscale>  0 0.12499694E+03</rscale>
<asrwt>0</asrwt>
<pdfrwt beam="1">  1        4 0.64091309E-03 0.12499694E+03</pdfrwt>
<pdfrwt beam="2">  1       -4 0.14424903E+00 0.12499694E+03</pdfrwt>
<totfact> 0.32611636E+03</totfact>
</mgrwt>
</event>
<event>
 4    1  0.3308162E-002  0.1266898E+03  0.7818608E-02  0.1232452E+00
         -4   -1    0    0    0  501 -0.00000000000E+00  0.00000000000E+00  0.19828195060E+02  0.19868825314E+02  0.12700000000E+01 0. -1.
          4   -1    0    0  501    0  0.00000000000E+00 -0.00000000000E+00 -0.20211757812E+03  0.20212156808E+03  0.12700000000E+01 0. -1.
    9000005    1    1    2    0    0 -0.65268176232E+01  0.20599154594E+02 -0.19546751692E+03  0.19666081127E+03  0.10000000000E+01 0.  0.
    9000005    1    1    2    0    0  0.65268176232E+01 -0.20599154594E+02  0.13178133867E+02  0.25329582123E+02  0.10000000000E+01 0.  0.
<mgrwt>
<rscale>  0 0.12668984E+03</rscale>
<asrwt>0</asrwt>
<pdfrwt beam="2">  1        4 0.31098443E-01 0.12668984E+03</pdfrwt>
<pdfrwt beam="1">  1       -4 0.30539240E-02 0.12668984E+03</pdfrwt>
<totfact> 0.83367378E+03</totfact>
</mgrwt>
</event>
<event>
 5    1  0.3308162E-002  0.1250075E+03  0.7818608E-02  0.1235058E+00
         -4   -1    0    0    0  501 -0.00000000000E+00  0.00000000000E+00  0.54756861880E+02  0.54771587735E+02  0.12700000000E+01 0. -1.
          4   -1    0    0  501    0  0.00000000000E+00 -0.00000000000E+00 -0.71316644712E+02  0.71327951835E+02  0.12700000000E+01 0. -1.
         25    2    1    2    0    0  0.00000000000E+00  0.00000000000E+00 -0.16559782832E+02  0.12609953957E+03  0.12500746967E+03 0.  0.
    9000005    1    3    3    0    0  0.49511125309E+02  0.38098623074E+02 -0.99858959651E+01  0.63273807596E+02  0.10000000000E+01 0.  0.
    9000005    1    3    3    0    0 -0.49511125309E+02 -0.38098623074E+02 -0.65738868668E+01  0.62825731974E+02  0.10000000000E+01 0.  0.
<mgrwt>
<rscale>  0 0.12500747E+03</rscale>
<asrwt>0</asrwt>
<pdfrwt beam="2">  1        4 0.10973794E-01 0.12500747E+03</pdfrwt>
<pdfrwt beam="1">  1       -4 0.84261352E-02 0.12500747E+03</pdfrwt>
<totfact> 0.10427019E+04</totfact>
</mgrwt>
</event>
<event>
 5    1  0.3308162E-002  0.1250568E+03  0.7818608E-02  0.1234981E+00
         -4   -1    0    0    0  501 -0.00000000000E+00  0.00000000000E+00  0.50426286101E+01  0.52000964702E+01  0.12700000000E+01 0.  1.
          4   -1    0    0  501    0  0.00000000000E+00 -0.00000000000E+00 -0.76327209696E+03  0.76327315353E+03  0.12700000000E+01 0.  1.
         25    2    1    2    0    0  0.00000000000E+00  0.00000000000E+00 -0.75822946835E+03  0.76847325000E+03  0.12505682424E+03 0.  0.
    9000005    1    3    3    0    0  0.61960421704E+02  0.40841385406E+01 -0.42386288748E+03  0.42838828349E+03  0.10000000000E+01 0.  0.
    9000005    1    3    3    0    0 -0.61960421704E+02 -0.40841385406E+01 -0.33436658087E+03  0.34008496651E+03  0.10000000000E+01 0.  0.
<mgrwt>
<rscale>  0 0.12505682E+03</rscale>
<asrwt>0</asrwt>
<pdfrwt beam="2">  1        4 0.11743858E+00 0.12505682E+03</pdfrwt>
<pdfrwt beam="1">  1       -4 0.78798381E-03 0.12505682E+03</pdfrwt>
<totfact> 0.39656509E+03</totfact>
</mgrwt>
</event>
<event>
 5    1  0.3308162E-002  0.1249960E+03  0.7818608E-02  0.1235075E+00
          4   -1    0    0  501    0  0.00000000000E+00  0.00000000000E+00  0.93709814186E+03  0.93709900244E+03  0.12700000000E+01 0. -1.
         -4   -1    0    0    0  501 -0.00000000000E+00 -0.00000000000E+00 -0.40705679880E+01  0.42640853351E+01  0.12700000000E+01 0. -1.
         25    2    1    2    0    0  0.00000000000E+00  0.00000000000E+00  0.93302757388E+03  0.94136308778E+03  0.12499603763E+03 0.  0.
    9000005    1    3    3    0    0  0.29042026384E+02 -0.27984174985E+02  0.82599862321E+03  0.82698323979E+03  0.10000000000E+01 0.  0.
    9000005    1    3    3    0    0 -0.29042026384E+02  0.27984174985E+02  0.10702895066E+03  0.11437984799E+03  0.10000000000E+01 0.  0.
<mgrwt>
<rscale>  0 0.12499604E+03</rscale>
<asrwt>0</asrwt>
<pdfrwt beam="1">  1        4 0.14418396E+00 0.12499604E+03</pdfrwt>
<pdfrwt beam="2">  1       -4 0.64119310E-03 0.12499604E+03</pdfrwt>
<totfact> 0.32627421E+03</totfact>
</mgrwt>
</event>
<event>
 5    1  0.3308162E-002  0.1250075E+03  0.7818608E-02  0.1235057E+00
          4   -1    0    0  501    0  0.00000000000E+00  0.00000000000E+00  0.43103551506E+03  0.43103738601E+03  0.12700000000E+01 0. -1.
         -4   -1    0    0    0  501 -0.00000000000E+00 -0.00000000000E+00 -0.90171834072E+01  0.91061790340E+01  0.12700000000E+01 0. -1.
         25    2    1    2    0    0  0.00000000000E+00  0.00000000000E+00  0.42201833165E+03  0.44014356505E+03  0.12500754219E+03 0.  0.
    9000005    1    3    3    0    0 -0.18075862685E+02 -0.25522099742E+02  0.40151774139E+03  0.40273516241E+03  0.10000000000E+01 0.  0.
    9000005    1    3    3    0    0  0.18075862685E+02  0.25522099742E+02  0.20500590258E+02  0.37408402639E+02  0.10000000000E+01 0.  0.
<mgrwt>
<rscale>  0 0.12500754E+03</rscale>
<asrwt>0</asrwt>
<pdfrwt beam="1">  1        4 0.66320155E-01 0.12500754E+03</pdfrwt>
<pdfrwt beam="2">  1       -4 0.13942485E-02 0.12500754E+03</pdfrwt>
<totfact> 0.60817062E+03</totfact>
</mgrwt>
</event>
<event>
 5    1  0.3308162E-002  0.1250022E+03  0.7818608E-02  0.1235066E+00
          4   -1    0    0  501    0  0.00000000000E+00  0.00000000000E+00  0.36930627807E+02  0.36952458243E+02  0.12700000000E+01 0.  1.
         -4   -1    0    0    0  501 -0.00000000000E+00 -0.00000000000E+00 -0.10571939082E+03  0.10572701876E+03  0.12700000000E+01 0.  1.
         25    2    1    2    0    0  0.00000000000E+00  0.00000000000E+00 -0.68788763015E+02  0.14267947700E+03  0.12500215694E+03 0.  0.
    9000005    1    3    3    0    0 -0.13187662488E+02 -0.73831024413E+01 -0.10360750748E+03  0.10470883559E+03  0.10000000000E+01 0.  0.
    9000005    1    3    3    0    0  0.13187662488E+02  0.73831024413E+01  0.34818744464E+02  0.37970641417E+02  0.10000000000E+01 0.  0.
<mgrwt>
<rscale>  0 0.12500216E+03</rscale>
<asrwt>0</asrwt>
<pdfrwt beam="1">  1        4 0.56839011E-02 0.12500216E+03</pdfrwt>
<pdfrwt beam="2">  1       -4 0.16266788E-01 0.12500216E+03</pdfrwt>
<totfact> 0.10077861E+04</totfact>
</mgrwt>
</event>
<event>
 5    1  0.3308162E-002  0.1249987E+03  0.7818608E-02  0.1235071E+00
          4   -1    0    0  501    0  0.00000000000E+00  0.00000000000E+00  0.71521982908E+02  0.71533257574E+02  0.12700000000E+01 0. -1.
         -4   -1    0    0    0  501 -0.00000000000E+00 -0.00000000000E+00 -0.54591974145E+02  0.54606744465E+02  0.12700000000E+01 0. -1.
         25    2    1    2    0    0  0.00000000000E+00  0.00000000000E+00  0.16930008763E+02  0.12614000204E+03  0.12499869966E+03 0.  0.
    9000005    1    3    3    0    0  0.55621062273E+01  0.40278452262E+02 -0.39422231127E+02  0.56642766964E+02  0.10000000000E+01 0.  0.
    9000005    1    3    3    0    0 -0.55621062273E+01 -0.40278452262E+02  0.56352239891E+02  0.69497235074E+02  0.10000000000E+01 0.  0.
<mgrwt>
<rscale>  0 0.12499870E+03</rscale>
<asrwt>0</asrwt>
<pdfrwt beam="1">  1        4 0.11005385E-01 0.12499870E+03</pdfrwt>
<pdfrwt beam="2">  1       -4 0.84007688E-02 0.12499870E+03</pdfrwt>
<totfact> 0.10428197E+04</totfact>
</mgrwt>
</event>
<event>
 5    1  0.3308162E-002  0.1250052E+03  0.7818608E-02  0.1235061E+00
          4   -1    0    0  501    0  0.00000000000E+00  0.00000000000E+00  0.22189378666E+02  0.22225692915E+02  0.12700000000E+01 0. -1.
         -4   -1    0    0    0  501 -0.00000000000E+00 -0.00000000000E+00 -0.17587354813E+03  0.17587813347E+03  0.12700000000E+01 0. -1.
         25    2    1    2    0    0  0.00000000000E+00  0.00000000000E+00 -0.15368416947E+03  0.19810382639E+03  0.12500520823E+03 0.  0.
    9000005    1    3    3    0    0 -0.10814643675E+02 -0.49330003825E+02 -0.13518143684E+03  0.14431017518E+03  0.10000000000E+01 0.  0.
    9000005    1    3    3    0    0  0.10814643675E+02  0.49330003825E+02 -0.18502732629E+02  0.53793651205E+02  0.10000000000E+01 0.  0.
<mgrwt>
<rscale>  0 0.12500521E+03</rscale>
<asrwt>0</asrwt>
<pdfrwt beam="1">  1        4 0.34168968E-02 0.12500521E+03</pdfrwt>
<pdfrwt beam="2">  1       -4 0.27060614E-01 0.12500521E+03</pdfrwt>
<totfact> 0.90445538E+03</totfact>
</mgrwt>
</event>
<event>
 5    1  0.3308162E-002  0.1249928E+03  0.7818608E-02  0.1235081E+00
          4   -1    0    0  501    0  0.00000000000E+00  0.00000000000E+00  0.13496390262E+03  0.13496987779E+03  0.12700000000E+01 0. -1.
         -4   -1    0    0    0  501 -0.00000000000E+00 -0.00000000000E+00 -0.28919044701E+02  0.28946917736E+02  0.12700000000E+01 0. -1.
         25    2    1    2    0    0  0.00000000000E+00  0.00000000000E+00  0.10604485792E+03  0.16391679553E+03  0.12499281565E+03 0.  0.
    9000005    1    3    3    0    0 -0.38449263727E+02 -0.47144383991E+02  0.34298080134E+02  0.69844807423E+02  0.10000000000E+01 0.  0.
    9000005    1    3    3    0    0  0.38449263727E+02  0.47144383991E+02  0.71746777789E+02  0.94071988105E+02  0.10000000000E+01 0.  0.
<mgrwt>
<rscale>  0 0.12499282E+03</rscale>
<asrwt>0</asrwt>
<pdfrwt beam="1">  1        4 0.20766282E-01 0.12499282E+03</pdfrwt>
<pdfrwt beam="2">  1       -4 0.44516874E-02 0.12499282E+03</pdfrwt>
<totfact> 0.96608520E+03</totfact>
</mgrwt>
</event>
<event>
 5    1  0.3308162E-002  0.1249971E+03  0.7818608E-02  0.1235074E+00
         -4   -1    0    0    0  501 -0.00000000000E+00  0.00000000000E+00  0.24048772759E+03  0.24049108096E+03  0.12700000000E+01 0. -1.
          4   -1    0    0  501    0  0.00000000000E+00 -0.00000000000E+00 -0.16213971317E+02  0.16263633231E+02  0.12700000000E+01 0. -1.
         25    2    1    2    0    0  0.00000000000E+00  0.00000000000E+00  0.22427375628E+03  0.25675471419E+03  0.12499706199E+03 0.  0.
    9000005    1    3    3    0    0 -0.15369946559E+02 -0.32602294365E+02  0.72794292546E+01  0.36784982607E+02  0.10000000000E+01 0.  0.
    9000005    1    3    3    0    0  0.15369946559E+02  0.32602294365E+02  0.21699432702E+03  0.21996973159E+03  0.10000000000E+01 0.  0.
<mgrwt>
<rscale>  0 0.12499706E+03</rscale>
<asrwt>0</asrwt>
<pdfrwt beam="2">  1        4 0.24985353E-02 0.12499706E+03</pdfrwt>
<pdfrwt beam="1">  1       -4 0.37002189E-01 0.12499706E+03</pdfrwt>
<totfact> 0.81368981E+03</totfact>
</mgrwt>
</event>
<event>
 5    1  0.3308162E-002  0.1250050E+03  0.7818608E-02  0.1235061E+00
          4   -1    0    0  501    0  0.00000000000E+00  0.00000000000E+00  0.14245246236E+03  0.14245812344E+03  0.12700000000E+01 0. -1.
         -4   -1    0    0    0  501 -0.00000000000E+00 -0.00000000000E+00 -0.27402702699E+02  0.27432116492E+02  0.12700000000E+01 0. -1.
         25    2    1    2    0    0  0.00000000000E+00  0.00000000000E+00  0.11504975966E+03  0.16989023993E+03  0.12500498560E+03 0.  0.
    9000005    1    3    3    0    0 -0.18998715987E+02 -0.29034848140E+02 -0.13115114186E+02  0.37107678933E+02  0.10000000000E+01 0.  0.
    9000005    1    3    3    0    0  0.18998715987E+02  0.29034848140E+02  0.12816487385E+03  0.13278256100E+03  0.10000000000E+01 0.  0.
<mgrwt>
<rscale>  0 0.12500499E+03</rscale>
<asrwt>0</asrwt>
<pdfrwt beam="1">  1        4 0.21918461E-01 0.12500499E+03</pdfrwt>
<pdfrwt beam="2">  1       -4 0.42184986E-02 0.12500499E+03</pdfrwt>
<totfact> 0.95458416E+03</totfact>
</mgrwt>
</event>
<event>
 5    1  0.3308162E-002  0.1250011E+03  0.7818608E-02  0.1235067E+00
          4   -1    0    0  501    0  0.00000000000E+00  0.00000000000E+00  0.20529305624E+04  0.20529309553E+04  0.12700000000E+01 0.  1.
         -4   -1    0    0    0  501 -0.00000000000E+00 -0.00000000000E+00 -0.16904544920E+01  0.21143642992E+01  0.12700000000E+01 0.  1.
         25    2    1    2    0    0  0.00000000000E+00  0.00000000000E+00  0.20512401079E+04  0.20550453196E+04  0.12500114009E+03 0.  0.
    9000005    1    3    3    0    0  0.13817296405E+02 -0.53356659725E+02  0.54140891965E+03  0.54420811194E+03  0.10000000000E+01 0.  0.
    9000005    1    3    3    0    0 -0.13817296405E+02  0.53356659725E+02  0.15098311883E+04  0.15108372076E+04  0.10000000000E+01 0.  0.
<mgrwt>
<rscale>  0 0.12500114E+03</rscale>
<asrwt>0</asrwt>
<pdfrwt beam="1">  1        4 0.31586820E+00 0.12500114E+03</pdfrwt>
<pdfrwt beam="2">  1       -4 0.29270850E-03 0.12500114E+03</pdfrwt>
<totfact> 0.91595430E+02</totfact>
</mgrwt>
</event>
<event>
 5    1  0.3308162E-002  0.1249956E+03  0.7818608E-02  0.1235076E+00
         -4   -1    0    0    0  501 -0.00000000000E+00  0.00000000000E+00  0.11979473643E+02  0.12046604865E+02  0.12700000000E+01 0. -1.
          4   -1    0    0  501    0  0.00000000000E+00 -0.00000000000E+00 -0.32507642884E+03  0.32507890963E+03  0.12700000000E+01 0. -1.
         25    2    1    2    0    0  0.00000000000E+00  0.00000000000E+00 -0.31309695520E+03  0.33712551450E+03  0.12499563661E+03 0.  0.
    9000005    1    3    3    0    0 -0.12424551595E+00 -0.54132096400E+02 -0.24075143596E+03  0.24676416518E+03  0.10000000000E+01 0.  0.
    9000005    1    3    3    0    0  0.12424551595E+00  0.54132096400E+02 -0.72345519234E+02  0.90361349320E+02  0.10000000000E+01 0.  0.
<mgrwt>
<rscale>  0 0.12499564E+03</rscale>
<asrwt>0</asrwt>
<pdfrwt beam="2">  1        4 0.50017107E-01 0.12499564E+03</pdfrwt>
<pdfrwt beam="1">  1       -4 0.18483510E-02 0.12499564E+03</pdfrwt>
<totfact> 0.71171402E+03</totfact>
</mgrwt>
</event>
<event>
 5    1  0.3308162E-002  0.1249972E+03  0.7818608E-02  0.1235074E+00
         -4   -1    0    0    0  501 -0.00000000000E+00  0.00000000000E+00  0.57300141729E+02  0.57314214137E+02  0.12700000000E+01 0. -1.
          4   -1    0    0  501    0  0.00000000000E+00 -0.00000000000E+00 -0.68140346317E+02  0.68152180422E+02  0.12700000000E+01 0. -1.
         25    2    1    2    0    0  0.00000000000E+00  0.00000000000E+00 -0.10840204588E+02  0.12546639456E+03  0.12499722448E+03 0.  0.
    9000005    1    3    3    0    0 -0.42111892841E+02  0.45311586244E+02  0.34746012589E+01  0.61964701408E+02  0.10000000000E+01 0.  0.
    9000005    1    3    3    0    0  0.42111892841E+02 -0.45311586244E+02 -0.14314805847E+02  0.63501693151E+02  0.10000000000E+01 0.  0.
<mgrwt>
<rscale>  0 0.12499722E+03</rscale>
<asrwt>0</asrwt>
<pdfrwt beam="2">  1        4 0.10485123E-01 0.12499722E+03</pdfrwt>
<pdfrwt beam="1">  1       -4 0.88173993E-02 0.12499722E+03</pdfrwt>
<totfact> 0.10443351E+04</totfact>
</mgrwt>
</event>
<event>
 5    1  0.3308162E-002  0.1249973E+03  0.7818608E-02  0.1235074E+00
          4   -1    0    0  501    0  0.00000000000E+00  0.00000000000E+00  0.33946681083E+02  0.33970429149E+02  0.12700000000E+01 0. -1.
         -4   -1    0    0    0  501 -0.00000000000E+00 -0.00000000000E+00 -0.11499764021E+03  0.11500465275E+03  0.12700000000E+01 0. -1.
         25    2    1    2    0    0  0.00000000000E+00  0.00000000000E+00 -0.81050959123E+02  0.14897508189E+03  0.12499726817E+03 0.  0.
    9000005    1    3    3    0    0  0.23646154339E+01 -0.23217387670E+02 -0.10961484973E+03  0.11207610707E+03  0.10000000000E+01 0.  0.
    9000005    1    3    3    0    0 -0.23646154339E+01  0.23217387670E+02  0.28563890604E+02  0.36898974820E+02  0.10000000000E+01 0.  0.
<mgrwt>
<rscale>  0 0.12499727E+03</rscale>
<asrwt>0</asrwt>
<pdfrwt beam="1">  1        4 0.52249326E-02 0.12499727E+03</pdfrwt>
<pdfrwt beam="2">  1       -4 0.17694311E-01 0.12499727E+03</pdfrwt>
<totfact> 0.99514512E+03</totfact>
</mgrwt>
</event>
<event>
 5    1  0.3308162E-002  0.1249880E+03  0.7818608E-02  0.1235088E+00
         -4   -1    0    0    0  501 -0.00000000000E+00  0.00000000000E+00  0.48833103076E+03  0.48833268220E+03  0.12700000000E+01 0. -1.
          4   -1    0    0  501    0  0.00000000000E+00 -0.00000000000E+00 -0.79455516661E+01  0.80464085951E+01  0.12700000000E+01 0. -1.
         25    2    1    2    0    0  0.00000000000E+00  0.00000000000E+00  0.48038547909E+03  0.49637909079E+03  0.12498797243E+03 0.  0.
    9000005    1    3    3    0    0  0.50712445906E+02 -0.36045117733E+02  0.26317746595E+03  0.27043369107E+03  0.10000000000E+01 0.  0.
    9000005    1    3    3    0    0 -0.50712445906E+02  0.36045117733E+02  0.21720801314E+03  0.22594539972E+03  0.10000000000E+01 0.  0.
<mgrwt>
<rscale>  0 0.12498797E+03</rscale>
<asrwt>0</asrwt>
<pdfrwt beam="2">  1        4 0.12302778E-02 0.12498797E+03</pdfrwt>
<pdfrwt beam="1">  1       -4 0.75135737E-01 0.12498797E+03</pdfrwt>
<totfact> 0.56161254E+03</totfact>
</mgrwt>
</event>
<event>
 5    1  0.3308162E-002  0.1249942E+03  0.7818608E-02  0.1235078E+00
         -4   -1    0    0    0  501 -0.00000000000E+00  0.00000000000E+00  0.14199970406E+04  0.14199976085E+04  0.12700000000E+01 0.  1.
          4   -1    0    0  501    0  0.00000000000E+00 -0.00000000000E+00 -0.26034400379E+01  0.28966877690E+01  0.12700000000E+01 0.  1.
         25    2    1    2    0    0  0.00000000000E+00  0.00000000000E+00  0.14173936005E+04  0.14228942963E+04  0.12499423790E+03 0.  0.
    9000005    1    3    3    0    0 -0.58726081470E+02  0.18609089239E+02  0.82800244426E+03  0.83029157442E+03  0.10000000000E+01 0.  0.
    9000005    1    3    3    0    0  0.58726081470E+02 -0.18609089239E+02  0.58939115626E+03  0.59260272184E+03  0.10000000000E+01 0.  0.
<mgrwt>
<rscale>  0 0.12499424E+03</rscale>
<asrwt>0</asrwt>
<pdfrwt beam="2">  1        4 0.42312963E-03 0.12499424E+03</pdfrwt>
<pdfrwt beam="1">  1       -4 0.21848410E+00 0.12499424E+03</pdfrwt>
<totfact> 0.19497291E+03</totfact>
</mgrwt>
</event>
<event>
 5    1  0.3308162E-002  0.1250003E+03  0.7818608E-02  0.1235069E+00
         -4   -1    0    0    0  501 -0.00000000000E+00  0.00000000000E+00  0.13331303931E+03  0.13331908847E+03  0.12700000000E+01 0. -1.
          4   -1    0    0  501    0  0.00000000000E+00 -0.00000000000E+00 -0.29281003597E+02  0.29308532403E+02  0.12700000000E+01 0. -1.
         25    2    1    2    0    0  0.00000000000E+00  0.00000000000E+00  0.10403203571E+03  0.16262762087E+03  0.12500031446E+03 0.  0.
    9000005    1    3    3    0    0 -0.21485840168E+02 -0.47353960000E+02  0.97107699520E+02  0.11015872258E+03  0.10000000000E+01 0.  0.
    9000005    1    3    3    0    0  0.21485840168E+02  0.47353960000E+02  0.69243361904E+01  0.52468898284E+02  0.10000000000E+01 0.  0.
<mgrwt>
<rscale>  0 0.12500031E+03</rscale>
<asrwt>0</asrwt>
<pdfrwt beam="2">  1        4 0.45073528E-02 0.12500031E+03</pdfrwt>
<pdfrwt beam="1">  1       -4 0.20512281E-01 0.12500031E+03</pdfrwt>
<totfact> 0.96837895E+03</totfact>
</mgrwt>
</event>
<event>
 5    1  0.3308162E-002  0.1249986E+03  0.7818608E-02  0.1235071E+00
          4   -1    0    0  501    0  0.00000000000E+00  0.00000000000E+00  0.15520831919E+02  0.15572704437E+02  0.12700000000E+01 0. -1.
         -4   -1    0    0    0  501 -0.00000000000E+00 -0.00000000000E+00 -0.25119889791E+03  0.25120210829E+03  0.12700000000E+01 0. -1.
         25    2    1    2    0    0  0.00000000000E+00  0.00000000000E+00 -0.23567806599E+03  0.26677481273E+03  0.12499859967E+03 0.  0.
    9000005    1    3    3    0    0  0.41151282349E+02 -0.36920613325E+02 -0.55667454494E+02  0.78462890700E+02  0.10000000000E+01 0.  0.
    9000005    1    3    3    0    0 -0.41151282349E+02  0.36920613325E+02 -0.18001061150E+03  0.18831192203E+03  0.10000000000E+01 0.  0.
<mgrwt>
<rscale>  0 0.12499860E+03</rscale>
<asrwt>0</asrwt>
<pdfrwt beam="1">  1        4 0.23920576E-02 0.12499860E+03</pdfrwt>
<pdfrwt beam="2">  1       -4 0.38650219E-01 0.12499860E+03</pdfrwt>
<totfact> 0.79967106E+03</totfact>
</mgrwt>
</event>
<event>
 5    1  0.3308162E-002  0.1249617E+03  0.7818608E-02  0.1235129E+00
          4   -1    0    0  501    0  0.00000000000E+00  0.00000000000E+00  0.42976580506E+02  0.42995341282E+02  0.12700000000E+01 0. -1.
         -4   -1    0    0    0  501 -0.00000000000E+00 -0.00000000000E+00 -0.90793847844E+02  0.90802729620E+02  0.12700000000E+01 0. -1.
         25    2    1    2    0    0  0.00000000000E+00  0.00000000000E+00 -0.47817267339E+02  0.13379807090E+03  0.12496172503E+03 0.  0.
    9000005    1    3    3    0    0  0.46375164121E+02  0.20905729827E+02  0.14920790128E+02  0.53022027167E+02  0.10000000000E+01 0.  0.
    9000005    1    3    3    0    0 -0.46375164121E+02 -0.20905729827E+02 -0.62738057467E+02  0.80776043735E+02  0.10000000000E+01 0.  0.
<mgrwt>
<rscale>  0 0.12496173E+03</rscale>
<asrwt>0</asrwt>
<pdfrwt beam="1">  1        4 0.66139080E-02 0.12496173E+03</pdfrwt>
<pdfrwt beam="2">  1       -4 0.13970411E-01 0.12496173E+03</pdfrwt>
<totfact> 0.10272332E+04</totfact>
</mgrwt>
</event>
<event>
 5    1  0.3308162E-002  0.1249986E+03  0.7818608E-02  0.1235071E+00
          4   -1    0    0  501    0  0.00000000000E+00  0.00000000000E+00  0.12798896272E+02  0.12861751272E+02  0.12700000000E+01 0. -1.
         -4   -1    0    0    0  501 -0.00000000000E+00 -0.00000000000E+00 -0.30438344800E+03  0.30438609744E+03  0.12700000000E+01 0. -1.
         25    2    1    2    0    0  0.00000000000E+00  0.00000000000E+00 -0.29158455173E+03  0.31724784871E+03  0.12499858682E+03 0.  0.
    9000005    1    3    3    0    0 -0.93224711760E+01 -0.50984815036E+02 -0.23439766432E+03  0.24006171055E+03  0.10000000000E+01 0.  0.
    9000005    1    3    3    0    0  0.93224711760E+01  0.50984815036E+02 -0.57186887401E+02  0.77186138158E+02  0.10000000000E+01 0.  0.
<mgrwt>
<rscale>  0 0.12499859E+03</rscale>
<asrwt>0</asrwt>
<pdfrwt beam="1">  1        4 0.19741000E-02 0.12499859E+03</pdfrwt>
<pdfrwt beam="2">  1       -4 0.46833256E-01 0.12499859E+03</pdfrwt>
<totfact> 0.73486961E+03</totfact>
</mgrwt>
</event>
<event>
 5    1  0.3308162E-002  0.1249993E+03  0.7818608E-02  0.1235070E+00
         -4   -1    0    0    0  501 -0.00000000000E+00  0.00000000000E+00  0.62990108089E+02  0.63002909592E+02  0.12700000000E+01 0.  1.
          4   -1    0    0  501    0  0.00000000000E+00 -0.00000000000E+00 -0.61987383241E+02  0.62000391782E+02  0.12700000000E+01 0.  1.
         25    2    1    2    0    0  0.00000000000E+00  0.00000000000E+00  0.10027248475E+01  0.12500330137E+03  0.12499927959E+03 0.  0.
    9000005    1    3    3    0    0  0.15550477858E+02  0.60515767741E+02  0.16102116460E+01  0.62510545417E+02  0.10000000000E+01 0.  0.
    9000005    1    3    3    0    0 -0.15550477858E+02 -0.60515767741E+02 -0.60748679844E+00  0.62492755957E+02  0.10000000000E+01 0.  0.
<mgrwt>
<rscale>  0 0.12499928E+03</rscale>
<asrwt>0</asrwt>
<pdfrwt beam="2">  1        4 0.95385058E-02 0.12499928E+03</pdfrwt>
<pdfrwt beam="1">  1       -4 0.96927713E-02 0.12499928E+03</pdfrwt>
<totfact> 0.10452961E+04</totfact>
</mgrwt>
</event>
<event>
 5    1  0.3308162E-002  0.1249949E+03  0.7818608E-02  0.1235077E+00
          4   -1    0    0  501    0  0.00000000000E+00  0.00000000000E+00  0.52465885577E+02  0.52481254267E+02  0.12700000000E+01 0.  1.
         -4   -1    0    0    0  501 -0.00000000000E+00 -0.00000000000E+00 -0.74415347298E+02  0.74426183655E+02  0.12700000000E+01 0.  1.
         25    2    1    2    0    0  0.00000000000E+00  0.00000000000E+00 -0.21949461721E+02  0.12690743792E+03  0.12499487562E+03 0.  0.
    9000005    1    3    3    0    0  0.43600948289E+02 -0.19475899720E+02 -0.51897492480E+02  0.70531575108E+02  0.10000000000E+01 0.  0.
    9000005    1    3    3    0    0 -0.43600948289E+02  0.19475899720E+02  0.29948030759E+02  0.56375862813E+02  0.10000000000E+01 0.  0.
<mgrwt>
<rscale>  0 0.12499488E+03</rscale>
<asrwt>0</asrwt>
<pdfrwt beam="1">  1        4 0.80736905E-02 0.12499488E+03</pdfrwt>
<pdfrwt beam="2">  1       -4 0.11450531E-01 0.12499488E+03</pdfrwt>
<totfact> 0.10412362E+04</totfact>
</mgrwt>
</event>
<event>
 5    1  0.3308162E-002  0.1250141E+03  0.7818608E-02  0.1235047E+00
          4   -1    0    0  501    0  0.00000000000E+00  0.00000000000E+00  0.43547804334E+02  0.43566319127E+02  0.12700000000E+01 0. -1.
         -4   -1    0    0    0  501 -0.00000000000E+00 -0.00000000000E+00 -0.89678383926E+02  0.89687376166E+02  0.12700000000E+01 0. -1.
         25    2    1    2    0    0  0.00000000000E+00  0.00000000000E+00 -0.46130579592E+02  0.13325369529E+03  0.12501406695E+03 0.  0.
    9000005    1    3    3    0    0 -0.51657936736E+01  0.25752489830E+02 -0.83515175620E+02  0.87553759003E+02  0.10000000000E+01 0.  0.
    9000005    1    3    3    0    0  0.51657936736E+01 -0.25752489830E+02  0.37384596028E+02  0.45699936290E+02  0.10000000000E+01 0.  0.
<mgrwt>
<rscale>  0 0.12501407E+03</rscale>
<asrwt>0</asrwt>
<pdfrwt beam="1">  1        4 0.67017781E-02 0.12501407E+03</pdfrwt>
<pdfrwt beam="2">  1       -4 0.13798790E-01 0.12501407E+03</pdfrwt>
<totfact> 0.10271751E+04</totfact>
</mgrwt>
</event>
<event>
 5    1  0.3308162E-002  0.1249960E+03  0.7818608E-02  0.1235075E+00
         -4   -1    0    0    0  501 -0.00000000000E+00  0.00000000000E+00  0.17759298503E+02  0.17804650610E+02  0.12700000000E+01 0. -1.
          4   -1    0    0  501    0  0.00000000000E+00 -0.00000000000E+00 -0.21961353720E+03  0.21961720930E+03  0.12700000000E+01 0. -1.
         25    2    1    2    0    0  0.00000000000E+00  0.00000000000E+00 -0.20185423870E+03  0.23742185991E+03  0.12499602347E+03 0.  0.
    9000005    1    3    3    0    0 -0.19336398241E+02  0.59145318401E+02 -0.90026199850E+02  0.10944305206E+03  0.10000000000E+01 0.  0.
    9000005    1    3    3    0    0  0.19336398241E+02 -0.59145318401E+02 -0.11182803885E+03  0.12797880785E+03  0.10000000000E+01 0.  0.
<mgrwt>
<rscale>  0 0.12499602E+03</rscale>
<asrwt>0</asrwt>
<pdfrwt beam="2">  1        4 0.33790467E-01 0.12499602E+03</pdfrwt>
<pdfrwt beam="1">  1       -4 0.27359710E-02 0.12499602E+03</pdfrwt>
<totfact> 0.84190306E+03</totfact>
</mgrwt>
</event>
<event>
 5    1  0.3308162E-002  0.1250009E+03  0.7818608E-02  0.1235068E+00
          4   -1    0    0  501    0  0.00000000000E+00  0.00000000000E+00  0.73395579201E+01  0.74486247364E+01  0.12700000000E+01 0.  1.
         -4   -1    0    0    0  501 -0.00000000000E+00 -0.00000000000E+00 -0.52819101538E+03  0.52819254220E+03  0.12700000000E+01 0.  1.
         25    2    1    2    0    0  0.00000000000E+00  0.00000000000E+00 -0.52085145746E+03  0.53564116693E+03  0.12500087588E+03 0.  0.
    9000005    1    3    3    0    0 -0.24469517128E+02 -0.50003599503E+02 -0.38209444461E+03  0.38612987690E+03  0.10000000000E+01 0.  0.
    9000005    1    3    3    0    0  0.24469517128E+02  0.50003599503E+02 -0.13875701285E+03  0.14951129003E+03  0.10000000000E+01 0.  0.
<mgrwt>
<rscale>  0 0.12500088E+03</rscale>
<asrwt>0</asrwt>
<pdfrwt beam="1">  1        4 0.11376704E-02 0.12500088E+03</pdfrwt>
<pdfrwt beam="2">  1       -4 0.81268634E-01 0.12500088E+03</pdfrwt>
<totfact> 0.53200333E+03</totfact>
</mgrwt>
</event>
<event>
 5    1  0.3308162E-002  0.1250017E+03  0.7818608E-02  0.1235067E+00
          4   -1    0    0  501    0  0.00000000000E+00  0.00000000000E+00  0.59449500943E+03  0.59449636596E+03  0.12700000000E+01 0.  1.
         -4   -1    0    0    0  501 -0.00000000000E+00 -0.00000000000E+00 -0.65081415102E+01  0.66308978213E+01  0.12700000000E+01 0.  1.
         25    2    1    2    0    0  0.00000000000E+00  0.00000000000E+00  0.58798686792E+03  0.60112726378E+03  0.12500172164E+03 0.  0.
    9000005    1    3    3    0    0 -0.41111662958E+01  0.15295911332E+02  0.58470605055E+03  0.58492138971E+03  0.10000000000E+01 0.  0.
    9000005    1    3    3    0    0  0.41111662958E+01 -0.15295911332E+02  0.32808173731E+01  0.16205874071E+02  0.10000000000E+01 0.  0.
<mgrwt>
<rscale>  0 0.12500172E+03</rscale>
<asrwt>0</asrwt>
<pdfrwt beam="1">  1        4 0.91470276E-01 0.12500172E+03</pdfrwt>
<pdfrwt beam="2">  1       -4 0.10108001E-02 0.12500172E+03</pdfrwt>
<totfact> 0.48794706E+03</totfact>
</mgrwt>
</event>
<event>
 5    1  0.3308162E-002  0.1249985E+03  0.7818608E-02  0.1235072E+00
          4   -1    0    0  501    0  0.00000000000E+00  0.00000000000E+00  0.15134992902E+02  0.15188183241E+02  0.12700000000E+01 0.  1.
         -4   -1    0    0    0  501 -0.00000000000E+00 -0.00000000000E+00 -0.25758023668E+03  0.25758336753E+03  0.12700000000E+01 0.  1.
         25    2    1    2    0    0  0.00000000000E+00  0.00000000000E+00 -0.24244524378E+03  0.27277155077E+03  0.12499849071E+03 0.  0.
    9000005    1    3    3    0    0  0.16621129635E+02  0.55730684799E+02 -0.71318236783E+02  0.92029680410E+02  0.10000000000E+01 0.  0.
    9000005    1    3    3    0    0 -0.16621129635E+02 -0.55730684799E+02 -0.17112700699E+03  0.18074187036E+03  0.10000000000E+01 0.  0.
<mgrwt>
<rscale>  0 0.12499849E+03</rscale>
<asrwt>0</asrwt>
<pdfrwt beam="1">  1        4 0.23327930E-02 0.12499849E+03</pdfrwt>
<pdfrwt beam="2">  1       -4 0.39632058E-01 0.12499849E+03</pdfrwt>
<totfact> 0.79149070E+03</totfact>
</mgrwt>
</event>
<event>
 5    1  0.3308162E-002  0.1250046E+03  0.7818608E-02  0.1235062E+00
          4   -1    0    0  501    0  0.00000000000E+00  0.00000000000E+00  0.62040962179E+03  0.62041092166E+03  0.12700000000E+01 0. -1.
         -4   -1    0    0    0  501 -0.00000000000E+00 -0.00000000000E+00 -0.62313537575E+01  0.63594551380E+01  0.12700000000E+01 0. -1.
         25    2    1    2    0    0  0.00000000000E+00  0.00000000000E+00  0.61417826803E+03  0.62677037679E+03  0.12500464112E+03 0.  0.
    9000005    1    3    3    0    0 -0.23272965634E+02  0.54471436127E+02  0.20721507069E+03  0.21551764152E+03  0.10000000000E+01 0.  0.
    9000005    1    3    3    0    0  0.23272965634E+02 -0.54471436127E+02  0.40696319734E+03  0.41125273528E+03  0.10000000000E+01 0.  0.
<mgrwt>
<rscale>  0 0.12500464E+03</rscale>
<asrwt>0</asrwt>
<pdfrwt beam="1">  1        4 0.95457635E-01 0.12500464E+03</pdfrwt>
<pdfrwt beam="2">  1       -4 0.96862328E-03 0.12500464E+03</pdfrwt>
<totfact> 0.47215424E+03</totfact>
</mgrwt>
</event>
<event>
 5    1  0.3308162E-002  0.1250071E+03  0.7818608E-02  0.1235058E+00
         -4   -1    0    0    0  501 -0.00000000000E+00  0.00000000000E+00  0.64572704490E+03  0.64572829380E+03  0.12700000000E+01 0.  1.
          4   -1    0    0  501    0  0.00000000000E+00 -0.00000000000E+00 -0.59821527869E+01  0.61154764300E+01  0.12700000000E+01 0.  1.
         25    2    1    2    0    0  0.00000000000E+00  0.00000000000E+00  0.63974489212E+03  0.65184377023E+03  0.12500709502E+03 0.  0.
    9000005    1    3    3    0    0  0.46095540992E+02  0.23266048475E+02  0.50346163664E+03  0.50610347507E+03  0.10000000000E+01 0.  0.
    9000005    1    3    3    0    0 -0.46095540992E+02 -0.23266048475E+02  0.13628325548E+03  0.14574029516E+03  0.10000000000E+01 0.  0.
<mgrwt>
<rscale>  0 0.12500710E+03</rscale>
<asrwt>0</asrwt>
<pdfrwt beam="2">  1        4 0.93068323E-03 0.12500710E+03</pdfrwt>
<pdfrwt beam="1">  1       -4 0.99352942E-01 0.12500710E+03</pdfrwt>
<totfact> 0.45743200E+03</totfact>
</mgrwt>
</event>
<event>
 5    1  0.3308162E-002  0.1249955E+03  0.7818608E-02  0.1235076E+00
         -4   -1    0    0    0  501 -0.00000000000E+00  0.00000000000E+00  0.91514816932E+02  0.91523628742E+02  0.12700000000E+01 0. -1.
          4   -1    0    0  501    0  0.00000000000E+00 -0.00000000000E+00 -0.42660947933E+02  0.42679847452E+02  0.12700000000E+01 0. -1.
         25    2    1    2    0    0  0.00000000000E+00  0.00000000000E+00  0.48853868999E+02  0.13420347619E+03  0.12499548994E+03 0.  0.
    9000005    1    3    3    0    0  0.47325431444E+02 -0.17760899235E+02  0.63873363450E+02  0.81461356246E+02  0.10000000000E+01 0.  0.
    9000005    1    3    3    0    0 -0.47325431444E+02  0.17760899235E+02 -0.15019494451E+02  0.52742119948E+02  0.10000000000E+01 0.  0.
<mgrwt>
<rscale>  0 0.12499549E+03</rscale>
<asrwt>0</asrwt>
<pdfrwt beam="2">  1        4 0.65653545E-02 0.12499549E+03</pdfrwt>
<pdfrwt beam="1">  1       -4 0.14081334E-01 0.12499549E+03</pdfrwt>
<totfact> 0.10255930E+04</totfact>
</mgrwt>
</event>
<event>
 5    1  0.3308162E-002  0.1249977E+03  0.7818608E-02  0.1235073E+00
          4   -1    0    0  501    0  0.00000000000E+00  0.00000000000E+00  0.57504859738E+01  0.58890567101E+01  0.12700000000E+01 0.  1.
         -4   -1    0    0    0  501 -0.00000000000E+00 -0.00000000000E+00 -0.67103991556E+03  0.67104111735E+03  0.12700000000E+01 0.  1.
         25    2    1    2    0    0  0.00000000000E+00  0.00000000000E+00 -0.66528942959E+03  0.67693017406E+03  0.12499774172E+03 0.  0.
    9000005    1    3    3    0    0  0.45451064290E+01  0.12164811397E+02 -0.66367852534E+03  0.66380631635E+03  0.10000000000E+01 0.  0.
    9000005    1    3    3    0    0 -0.45451064290E+01 -0.12164811397E+02 -0.16109042491E+01  0.13123857713E+02  0.10000000000E+01 0.  0.
<mgrwt>
<rscale>  0 0.12499774E+03</rscale>
<asrwt>0</asrwt>
<pdfrwt beam="1">  1        4 0.89544242E-03 0.12499774E+03</pdfrwt>
<pdfrwt beam="2">  1       -4 0.10324760E+00 0.12499774E+03</pdfrwt>
<totfact> 0.44335035E+03</totfact>
</mgrwt>
</event>
<event>
 5    1  0.3308162E-002  0.1249849E+03  0.7818608E-02  0.1235093E+00
          4   -1    0    0  501    0  0.00000000000E+00  0.00000000000E+00  0.18950448090E+03  0.18950873643E+03  0.12700000000E+01 0.  1.
         -4   -1    0    0    0  501 -0.00000000000E+00 -0.00000000000E+00 -0.20583929879E+02  0.20623071286E+02  0.12700000000E+01 0.  1.
         25    2    1    2    0    0  0.00000000000E+00  0.00000000000E+00  0.16892055102E+03  0.21013180771E+03  0.12498489530E+03 0.  0.
    9000005    1    3    3    0    0 -0.29646282787E+02 -0.53364625077E+02  0.10686713961E+03  0.12307831174E+03  0.10000000000E+01 0.  0.
    9000005    1    3    3    0    0  0.29646282787E+02  0.53364625077E+02  0.62053411415E+02  0.87053495972E+02  0.10000000000E+01 0.  0.
<mgrwt>
<rscale>  0 0.12498490E+03</rscale>
<asrwt>0</asrwt>
<pdfrwt beam="1">  1        4 0.29157872E-01 0.12498490E+03</pdfrwt>
<pdfrwt beam="2">  1       -4 0.31700969E-02 0.12498490E+03</pdfrwt>
<totfact> 0.88484237E+03</totfact>
</mgrwt>
</event>
<event>
 5    1  0.3308162E-002  0.1250016E+03  0.7818608E-02  0.1235067E+00
          4   -1    0    0  501    0  0.00000000000E+00  0.00000000000E+00  0.10863749808E+04  0.10863757231E+04  0.12700000000E+01 0.  1.
         -4   -1    0    0    0  501 -0.00000000000E+00 -0.00000000000E+00 -0.34828623448E+01  0.37071862797E+01  0.12700000000E+01 0.  1.
         25    2    1    2    0    0  0.00000000000E+00  0.00000000000E+00  0.10828921184E+04  0.10900829094E+04  0.12500163669E+03 0.  0.
    9000005    1    3    3    0    0  0.51563093504E+02 -0.32927484079E+02  0.43032132521E+03  0.43464976102E+03  0.10000000000E+01 0.  0.
    9000005    1    3    3    0    0 -0.51563093504E+02  0.32927484079E+02  0.65257079322E+03  0.65543314837E+03  0.10000000000E+01 0.  0.
<mgrwt>
<rscale>  0 0.12500164E+03</rscale>
<asrwt>0</asrwt>
<pdfrwt beam="1">  1        4 0.16715229E+00 0.12500164E+03</pdfrwt>
<pdfrwt beam="2">  1       -4 0.55313657E-03 0.12500164E+03</pdfrwt>
<totfact> 0.27774396E+03</totfact>
</mgrwt>
</event>
<event>
 5    1  0.3308162E-002  0.1249982E+03  0.7818608E-02  0.1235072E+00
          4   -1    0    0  501    0  0.00000000000E+00  0.00000000000E+00  0.83158723888E+01  0.84122906266E+01  0.12700000000E+01 0. -1.
         -4   -1    0    0    0  501 -0.00000000000E+00 -0.00000000000E+00 -0.46691603266E+03  0.46691775984E+03  0.12700000000E+01 0. -1.
         25    2    1    2    0    0  0.00000000000E+00  0.00000000000E+00 -0.45860016027E+03  0.47533005047E+03  0.12499819949E+03 0.  0.
    9000005    1    3    3    0    0  0.74936956952E+01  0.29902297525E+02 -0.22591691435E+02  0.38232020537E+02  0.10000000000E+01 0.  0.
    9000005    1    3    3    0    0 -0.74936956952E+01 -0.29902297525E+02 -0.43600846884E+03  0.43709802993E+03  0.10000000000E+01 0.  0.
<mgrwt>
<rscale>  0 0.12499820E+03</rscale>
<asrwt>0</asrwt>
<pdfrwt beam="1">  1        4 0.12869150E-02 0.12499820E+03</pdfrwt>
<pdfrwt beam="2">  1       -4 0.71840765E-01 0.12499820E+03</pdfrwt>
<totfact> 0.57832878E+03</totfact>
</mgrwt>
</event>
<event>
 5    1  0.3308162E-002  0.1249984E+03  0.7818608E-02  0.1235072E+00
         -4   -1    0    0    0  501 -0.00000000000E+00  0.00000000000E+00  0.23467179964E+02  0.23501519854E+02  0.12700000000E+01 0. -1.
          4   -1    0    0  501    0  0.00000000000E+00 -0.00000000000E+00 -0.16629319653E+03  0.16629804602E+03  0.12700000000E+01 0. -1.
         25    2    1    2    0    0  0.00000000000E+00  0.00000000000E+00 -0.14282601656E+03  0.18979956588E+03  0.12499841679E+03 0.  0.
    9000005    1    3    3    0    0 -0.17347749435E+02  0.59745227448E+02 -0.62466660775E+02  0.88167569558E+02  0.10000000000E+01 0.  0.
    9000005    1    3    3    0    0  0.17347749435E+02 -0.59745227448E+02 -0.80359355788E+02  0.10163199632E+03  0.10000000000E+01 0.  0.
<mgrwt>
<rscale>  0 0.12499842E+03</rscale>
<asrwt>0</asrwt>
<pdfrwt beam="2">  1        4 0.25586583E-01 0.12499842E+03</pdfrwt>
<pdfrwt beam="1">  1       -4 0.36133501E-02 0.12499842E+03</pdfrwt>
<totfact> 0.91885460E+03</totfact>
</mgrwt>
</event>
<event>
 5    1  0.3308162E-002  0.1249948E+03  0.7818608E-02  0.1235077E+00
         -4   -1    0    0    0  501 -0.00000000000E+00  0.00000000000E+00  0.73039014094E+02  0.73050054619E+02  0.12700000000E+01 0.  1.
          4   -1    0    0  501    0  0.00000000000E+00 -0.00000000000E+00 -0.53454597370E+02  0.53469681877E+02  0.12700000000E+01 0.  1.
         25    2    1    2    0    0  0.00000000000E+00  0.00000000000E+00  0.19584416724E+02  0.12651973650E+03  0.12499477727E+03 0.  0.
    9000005    1    3    3    0    0  0.27598775315E+02  0.46483642217E+02 -0.21935096090E+02  0.58348691786E+02  0.10000000000E+01 0.  0.
    9000005    1    3    3    0    0 -0.27598775315E+02 -0.46483642217E+02  0.41519512813E+02  0.68171044710E+02  0.10000000000E+01 0.  0.
<mgrwt>
<rscale>  0 0.12499478E+03</rscale>
<asrwt>0</asrwt>
<pdfrwt beam="2">  1        4 0.82257938E-02 0.12499478E+03</pdfrwt>
<pdfrwt beam="1">  1       -4 0.11238781E-01 0.12499478E+03</pdfrwt>
<totfact> 0.10420826E+04</totfact>
</mgrwt>
</event>
<event>
 5    1  0.3308162E-002  0.1250024E+03  0.7818608E-02  0.1235066E+00
         -4   -1    0    0    0  501 -0.00000000000E+00  0.00000000000E+00  0.23634502068E+02  0.23668599198E+02  0.12700000000E+01 0. -1.
          4   -1    0    0  501    0  0.00000000000E+00 -0.00000000000E+00 -0.16512804170E+03  0.16513292541E+03  0.12700000000E+01 0. -1.
         25    2    1    2    0    0  0.00000000000E+00  0.00000000000E+00 -0.14149353963E+03  0.18880152461E+03  0.12500237573E+03 0.  0.
    9000005    1    3    3    0    0 -0.58114181091E+02 -0.16449499618E+02 -0.46507377978E+02  0.76235033206E+02  0.10000000000E+01 0.  0.
    9000005    1    3    3    0    0  0.58114181091E+02  0.16449499618E+02 -0.94986161654E+02  0.11256649141E+03  0.10000000000E+01 0.  0.
<mgrwt>
<rscale>  0 0.12500238E+03</rscale>
<asrwt>0</asrwt>
<pdfrwt beam="2">  1        4 0.25407312E-01 0.12500238E+03</pdfrwt>
<pdfrwt beam="1">  1       -4 0.36390759E-02 0.12500238E+03</pdfrwt>
<totfact> 0.92051365E+03</totfact>
</mgrwt>
</event>
<event>
 5    1  0.3308162E-002  0.1249966E+03  0.7818608E-02  0.1235075E+00
         -4   -1    0    0    0  501 -0.00000000000E+00  0.00000000000E+00  0.64374706723E+01  0.65615492573E+01  0.12700000000E+01 0.  1.
          4   -1    0    0  501    0  0.00000000000E+00 -0.00000000000E+00 -0.60084892414E+03  0.60085026632E+03  0.12700000000E+01 0.  1.
         25    2    1    2    0    0  0.00000000000E+00  0.00000000000E+00 -0.59441145347E+03  0.60741181558E+03  0.12499655072E+03 0.  0.
    9000005    1    3    3    0    0  0.14230663022E+02  0.34217693942E+02 -0.52700058004E+02  0.64433364512E+02  0.10000000000E+01 0.  0.
    9000005    1    3    3    0    0 -0.14230663022E+02 -0.34217693942E+02 -0.54171139546E+03  0.54297845107E+03  0.10000000000E+01 0.  0.
<mgrwt>
<rscale>  0 0.12499655E+03</rscale>
<asrwt>0</asrwt>
<pdfrwt beam="2">  1        4 0.92447899E-01 0.12499655E+03</pdfrwt>
<pdfrwt beam="1">  1       -4 0.10000283E-02 0.12499655E+03</pdfrwt>
<totfact> 0.48406750E+03</totfact>
</mgrwt>
</event>
<event>
 5    1  0.3308162E-002  0.1250018E+03  0.7818608E-02  0.1235066E+00
          4   -1    0    0  501    0  0.00000000000E+00  0.00000000000E+00  0.13747670471E+04  0.13747676337E+04  0.12700000000E+01 0. -1.
         -4   -1    0    0    0  501 -0.00000000000E+00 -0.00000000000E+00 -0.26989493620E+01  0.29828220964E+01  0.12700000000E+01 0. -1.
         25    2    1    2    0    0  0.00000000000E+00  0.00000000000E+00  0.13720680977E+04  0.13777504558E+04  0.12500181454E+03 0.  0.
    9000005    1    3    3    0    0 -0.48590454501E+02 -0.35580549091E+02  0.50214567163E+03  0.50574527509E+03  0.10000000000E+01 0.  0.
    9000005    1    3    3    0    0  0.48590454501E+02  0.35580549091E+02  0.86992242608E+03  0.87200518069E+03  0.10000000000E+01 0.  0.
<mgrwt>
<rscale>  0 0.12500181E+03</rscale>
<asrwt>0</asrwt>
<pdfrwt beam="1">  1        4 0.21152460E+00 0.12500181E+03</pdfrwt>
<pdfrwt beam="2">  1       -4 0.43710427E-03 0.12500181E+03</pdfrwt>
<totfact> 0.20462644E+03</totfact>
</mgrwt>
</event>
<event>
 5    1  0.3308162E-002  0.1249960E+03  0.7818608E-02  0.1235076E+00
          4   -1    0    0  501    0  0.00000000000E+00  0.00000000000E+00  0.49903716013E+02  0.49919873517E+02  0.12700000000E+01 0.  1.
         -4   -1    0    0    0  501 -0.00000000000E+00 -0.00000000000E+00 -0.78236700025E+02  0.78247007169E+02  0.12700000000E+01 0.  1.
         25    2    1    2    0    0  0.00000000000E+00  0.00000000000E+00 -0.28332984012E+02  0.12816688069E+03  0.12499596522E+03 0.  0.
    9000005    1    3    3    0    0 -0.31061811434E+02  0.38745601060E+02  0.24729170911E+02  0.55485039651E+02  0.10000000000E+01 0.  0.
    9000005    1    3    3    0    0  0.31061811434E+02 -0.38745601060E+02 -0.53062154923E+02  0.72681841035E+02  0.10000000000E+01 0.  0.
<mgrwt>
<rscale>  0 0.12499597E+03</rscale>
<asrwt>0</asrwt>
<pdfrwt beam="1">  1        4 0.76795305E-02 0.12499597E+03</pdfrwt>
<pdfrwt beam="2">  1       -4 0.12038451E-01 0.12499597E+03</pdfrwt>
<totfact> 0.10384831E+04</totfact>
</mgrwt>
</event>
<event>
 5    1  0.3308162E-002  0.1249938E+03  0.7818608E-02  0.1235079E+00
         -4   -1    0    0    0  501 -0.00000000000E+00  0.00000000000E+00  0.41528833512E+02  0.41548248012E+02  0.12700000000E+01 0. -1.
          4   -1    0    0  501    0  0.00000000000E+00 -0.00000000000E+00 -0.94006078683E+02  0.94014656992E+02  0.12700000000E+01 0. -1.
         25    2    1    2    0    0  0.00000000000E+00  0.00000000000E+00 -0.52477245171E+02  0.13556290500E+03  0.12499375965E+03 0.  0.
    9000005    1    3    3    0    0  0.47599710037E+02 -0.30784761136E+02 -0.54757039394E+02  0.78821109336E+02  0.10000000000E+01 0.  0.
    9000005    1    3    3    0    0 -0.47599710037E+02  0.30784761136E+02  0.22797942228E+01  0.56741795667E+02  0.10000000000E+01 0.  0.
<mgrwt>
<rscale>  0 0.12499376E+03</rscale>
<asrwt>0</asrwt>
<pdfrwt beam="2">  1        4 0.14464627E-01 0.12499376E+03</pdfrwt>
<pdfrwt beam="1">  1       -4 0.63912047E-02 0.12499376E+03</pdfrwt>
<totfact> 0.10227659E+04</totfact>
</mgrwt>
</event>
<event>
 5    1  0.3308162E-002  0.1250105E+03  0.7818608E-02  0.1235053E+00
         -4   -1    0    0    0  501 -0.00000000000E+00  0.00000000000E+00  0.18898336319E+02  0.18940961317E+02  0.12700000000E+01 0. -1.
          4   -1    0    0  501    0  0.00000000000E+00 -0.00000000000E+00 -0.20645533687E+03  0.20645924301E+03  0.12700000000E+01 0. -1.
         25    2    1    2    0    0  0.00000000000E+00  0.00000000000E+00 -0.18755700055E+03  0.22540020432E+03  0.12501049417E+03 0.  0.
    9000005    1    3    3    0    0 -0.60913609787E+02 -0.13379469267E+02 -0.10108649634E+03  0.11878113402E+03  0.10000000000E+01 0.  0.
    9000005    1    3    3    0    0  0.60913609787E+02  0.13379469267E+02 -0.86470504210E+02  0.10661907031E+03  0.10000000000E+01 0.  0.
<mgrwt>
<rscale>  0 0.12501049E+03</rscale>
<asrwt>0</asrwt>
<pdfrwt beam="2">  1        4 0.31765937E-01 0.12501049E+03</pdfrwt>
<pdfrwt beam="1">  1       -4 0.29110158E-02 0.12501049E+03</pdfrwt>
<totfact> 0.86000796E+03</totfact>
</mgrwt>
</event>
<event>
 5    1  0.3308162E-002  0.1249945E+03  0.7818608E-02  0.1235078E+00
          4   -1    0    0  501    0  0.00000000000E+00  0.00000000000E+00  0.12649374825E+02  0.12712969105E+02  0.12700000000E+01 0.  1.
         -4   -1    0    0    0  501 -0.00000000000E+00 -0.00000000000E+00 -0.30794353856E+03  0.30794615737E+03  0.12700000000E+01 0.  1.
         25    2    1    2    0    0  0.00000000000E+00  0.00000000000E+00 -0.29529416373E+03  0.32065912648E+03  0.12499452891E+03 0.  0.
    9000005    1    3    3    0    0 -0.51481374615E+02 -0.20283070066E+02 -0.73154847941E+02  0.91729856867E+02  0.10000000000E+01 0.  0.
    9000005    1    3    3    0    0  0.51481374615E+02  0.20283070066E+02 -0.22213931579E+03  0.22892926961E+03  0.10000000000E+01 0.  0.
<mgrwt>
<rscale>  0 0.12499453E+03</rscale>
<asrwt>0</asrwt>
<pdfrwt beam="1">  1        4 0.19511512E-02 0.12499453E+03</pdfrwt>
<pdfrwt beam="2">  1       -4 0.47381017E-01 0.12499453E+03</pdfrwt>
<totfact> 0.73086665E+03</totfact>
</mgrwt>
</event>
<event>
 5    1  0.3308162E-002  0.1250022E+03  0.7818608E-02  0.1235066E+00
          4   -1    0    0  501    0  0.00000000000E+00  0.00000000000E+00  0.16018598882E+03  0.16019102320E+03  0.12700000000E+01 0.  1.
         -4   -1    0    0    0  501 -0.00000000000E+00 -0.00000000000E+00 -0.24364608594E+02  0.24397685381E+02  0.12700000000E+01 0.  1.
         25    2    1    2    0    0  0.00000000000E+00  0.00000000000E+00  0.13582138022E+03  0.18458870858E+03  0.12500217602E+03 0.  0.
    9000005    1    3    3    0    0 -0.57349988063E+02  0.13184859671E+01  0.31301241584E+02  0.65356922057E+02  0.10000000000E+01 0.  0.
    9000005    1    3    3    0    0  0.57349988063E+02 -0.13184859671E+01  0.10452013864E+03  0.11923178652E+03  0.10000000000E+01 0.  0.
<mgrwt>
<rscale>  0 0.12500218E+03</rscale>
<asrwt>0</asrwt>
<pdfrwt beam="1">  1        4 0.24646929E-01 0.12500218E+03</pdfrwt>
<pdfrwt beam="2">  1       -4 0.37513331E-02 0.12500218E+03</pdfrwt>
<totfact> 0.92792956E+03</totfact>
</mgrwt>
</event>
<event>
 5    1  0.3308162E-002  0.1250079E+03  0.7818608E-02  0.1235057E+00
          4   -1    0    0  501    0  0.00000000000E+00  0.00000000000E+00  0.36693706530E+02  0.36715677835E+02  0.12700000000E+01 0.  1.
         -4   -1    0    0    0  501 -0.00000000000E+00 -0.00000000000E+00 -0.10641133873E+03  0.10641891707E+03  0.12700000000E+01 0.  1.
         25    2    1    2    0    0  0.00000000000E+00  0.00000000000E+00 -0.69717632199E+02  0.14313459490E+03  0.12500785583E+03 0.  0.
    9000005    1    3    3    0    0  0.31857674898E+02  0.48266624936E+02 -0.77349484229E+01  0.58355873395E+02  0.10000000000E+01 0.  0.
    9000005    1    3    3    0    0 -0.31857674898E+02 -0.48266624936E+02 -0.61982683777E+02  0.84778721509E+02  0.10000000000E+01 0.  0.
<mgrwt>
<rscale>  0 0.12500786E+03</rscale>
<asrwt>0</asrwt>
<pdfrwt beam="1">  1        4 0.56474587E-02 0.12500786E+03</pdfrwt>
<pdfrwt beam="2">  1       -4 0.16373248E-01 0.12500786E+03</pdfrwt>
<totfact> 0.10067246E+04</totfact>
</mgrwt>
</event>
<event>
 5    1  0.3308162E-002  0.1249929E+03  0.7818608E-02  0.1235080E+00
         -4   -1    0    0    0  501 -0.00000000000E+00  0.00000000000E+00  0.24393708988E+03  0.24394039584E+03  0.12700000000E+01 0.  1.
          4   -1    0    0  501    0  0.00000000000E+00 -0.00000000000E+00 -0.15982917977E+02  0.16033295577E+02  0.12700000000E+01 0.  1.
         25    2    1    2    0    0  0.00000000000E+00  0.00000000000E+00  0.22795417191E+03  0.25997369141E+03  0.12499286275E+03 0.  0.
    9000005    1    3    3    0    0  0.54254297584E+02 -0.54040646916E+01  0.17747635607E+03  0.18566526246E+03  0.10000000000E+01 0.  0.
    9000005    1    3    3    0    0 -0.54254297584E+02  0.54040646916E+01  0.50477815837E+02  0.74308428951E+02  0.10000000000E+01 0.  0.
<mgrwt>
<rscale>  0 0.12499286E+03</rscale>
<asrwt>0</asrwt>
<pdfrwt beam="2">  1        4 0.24630401E-02 0.12499286E+03</pdfrwt>
<pdfrwt beam="1">  1       -4 0.37532910E-01 0.12499286E+03</pdfrwt>
<totfact> 0.80922609E+03</totfact>
</mgrwt>
</event>
<event>
 5    1  0.3308162E-002  0.1250023E+03  0.7818608E-02  0.1235066E+00
          4   -1    0    0  501    0  0.00000000000E+00  0.00000000000E+00  0.40361108280E+01  0.42312043931E+01  0.12700000000E+01 0. -1.
         -4   -1    0    0    0  501 -0.00000000000E+00 -0.00000000000E+00 -0.94482553423E+03  0.94482638778E+03  0.12700000000E+01 0. -1.
         25    2    1    2    0    0  0.00000000000E+00  0.00000000000E+00 -0.94078942340E+03  0.94905759217E+03  0.12500229623E+03 0.  0.
    9000005    1    3    3    0    0  0.17836799939E+02  0.44666624504E+02 -0.16744922544E+03  0.17422256420E+03  0.10000000000E+01 0.  0.
    9000005    1    3    3    0    0 -0.17836799939E+02 -0.44666624504E+02 -0.77334019797E+03  0.77483502797E+03  0.10000000000E+01 0.  0.
<mgrwt>
<rscale>  0 0.12500230E+03</rscale>
<asrwt>0</asrwt>
<pdfrwt beam="1">  1        4 0.63601373E-03 0.12500230E+03</pdfrwt>
<pdfrwt beam="2">  1       -4 0.14537268E+00 0.12500230E+03</pdfrwt>
<totfact> 0.32347871E+03</totfact>
</mgrwt>
</event>
<event>
 5    1  0.3308162E-002  0.1250112E+03  0.7818608E-02  0.1235052E+00
         -4   -1    0    0    0  501 -0.00000000000E+00  0.00000000000E+00  0.13646921448E+02  0.13705887969E+02  0.12700000000E+01 0. -1.
          4   -1    0    0  501    0  0.00000000000E+00 -0.00000000000E+00 -0.28561056330E+03  0.28561338688E+03  0.12700000000E+01 0. -1.
         25    2    1    2    0    0  0.00000000000E+00  0.00000000000E+00 -0.27196364185E+03  0.29931927485E+03  0.12501122274E+03 0.  0.
    9000005    1    3    3    0    0 -0.41304096099E+02  0.21527988634E+02 -0.23575623224E+03  0.24031538379E+03  0.10000000000E+01 0.  0.
    9000005    1    3    3    0    0  0.41304096099E+02 -0.21527988634E+02 -0.36207409610E+02  0.59003891057E+02  0.10000000000E+01 0.  0.
<mgrwt>
<rscale>  0 0.12501122E+03</rscale>
<asrwt>0</asrwt>
<pdfrwt beam="2">  1        4 0.43944836E-01 0.12501122E+03</pdfrwt>
<pdfrwt beam="1">  1       -4 0.21042797E-02 0.12501122E+03</pdfrwt>
<totfact> 0.75665455E+03</totfact>
</mgrwt>
</event>
<event>
 5    1  0.3308162E-002  0.1250033E+03  0.7818608E-02  0.1235064E+00
          4   -1    0    0  501    0  0.00000000000E+00  0.00000000000E+00  0.47539106462E+02  0.47556067365E+02  0.12700000000E+01 0.  1.
         -4   -1    0    0    0  501 -0.00000000000E+00 -0.00000000000E+00 -0.82137013511E+02  0.82146831275E+02  0.12700000000E+01 0.  1.
         25    2    1    2    0    0  0.00000000000E+00  0.00000000000E+00 -0.34597907049E+02  0.12970289864E+03  0.12500330693E+03 0.  0.
    9000005    1    3    3    0    0  0.26974726761E+01 -0.34206160118E+02 -0.71494029535E+02  0.79307843294E+02  0.10000000000E+01 0.  0.
    9000005    1    3    3    0    0 -0.26974726761E+01  0.34206160118E+02  0.36896122486E+02  0.50395055346E+02  0.10000000000E+01 0.  0.
<mgrwt>
<rscale>  0 0.12500331E+03</rscale>
<asrwt>0</asrwt>
<pdfrwt beam="1">  1        4 0.73157686E-02 0.12500331E+03</pdfrwt>
<pdfrwt beam="2">  1       -4 0.12638524E-01 0.12500331E+03</pdfrwt>
<totfact> 0.10350095E+04</totfact>
</mgrwt>
</event>
<event>
 5    1  0.3308162E-002  0.1249964E+03  0.7818608E-02  0.1235075E+00
          4   -1    0    0  501    0  0.00000000000E+00  0.00000000000E+00  0.44332238549E+03  0.44332420459E+03  0.12700000000E+01 0.  1.
         -4   -1    0    0    0  501 -0.00000000000E+00 -0.00000000000E+00 -0.87631817348E+01  0.88547306067E+01  0.12700000000E+01 0.  1.
         25    2    1    2    0    0  0.00000000000E+00  0.00000000000E+00  0.43455920376E+03  0.45217893520E+03  0.12499635142E+03 0.  0.
    9000005    1    3    3    0    0 -0.42480616325E+02  0.34078185107E+02  0.32813787324E+03  0.33262800441E+03  0.10000000000E+01 0.  0.
    9000005    1    3    3    0    0  0.42480616325E+02 -0.34078185107E+02  0.10642133051E+03  0.11955093079E+03  0.10000000000E+01 0.  0.
<mgrwt>
<rscale>  0 0.12499635E+03</rscale>
<asrwt>0</asrwt>
<pdfrwt beam="1">  1        4 0.68210609E-01 0.12499635E+03</pdfrwt>
<pdfrwt beam="2">  1       -4 0.13553643E-02 0.12499635E+03</pdfrwt>
<totfact> 0.59780309E+03</totfact>
</mgrwt>
</event>
<event>
 5    1  0.3308162E-002  0.1250006E+03  0.7818608E-02  0.1235068E+00
          4   -1    0    0  501    0  0.00000000000E+00  0.00000000000E+00  0.14120291327E+02  0.14177289133E+02  0.12700000000E+01 0. -1.
         -4   -1    0    0    0  501 -0.00000000000E+00 -0.00000000000E+00 -0.27602777449E+03  0.27603069610E+03  0.12700000000E+01 0. -1.
         25    2    1    2    0    0  0.00000000000E+00  0.00000000000E+00 -0.26190748317E+03  0.29020798524E+03  0.12500057983E+03 0.  0.
    9000005    1    3    3    0    0 -0.56072361359E+02 -0.12406072983E+01 -0.19494203195E+03  0.20285227294E+03  0.10000000000E+01 0.  0.
    9000005    1    3    3    0    0  0.56072361359E+02  0.12406072983E+01 -0.66965451215E+02  0.87355712299E+02  0.10000000000E+01 0.  0.
<mgrwt>
<rscale>  0 0.12500058E+03</rscale>
<asrwt>0</asrwt>
<pdfrwt beam="1">  1        4 0.21769619E-02 0.12500058E+03</pdfrwt>
<pdfrwt beam="2">  1       -4 0.42470416E-01 0.12500058E+03</pdfrwt>
<totfact> 0.76842793E+03</totfact>
</mgrwt>
</event>
<event>
 5    1  0.3308162E-002  0.1249988E+03  0.7818608E-02  0.1235071E+00
          4   -1    0    0  501    0  0.00000000000E+00  0.00000000000E+00  0.11890784863E+03  0.11891463058E+03  0.12700000000E+01 0.  1.
         -4   -1    0    0    0  501 -0.00000000000E+00 -0.00000000000E+00 -0.32830434835E+02  0.32854989750E+02  0.12700000000E+01 0.  1.
         25    2    1    2    0    0  0.00000000000E+00  0.00000000000E+00  0.86077413793E+02  0.15176962033E+03  0.12499878595E+03 0.  0.
    9000005    1    3    3    0    0  0.15837666943E+02  0.52577567108E+02  0.79259659793E+02  0.96427827559E+02  0.10000000000E+01 0.  0.
    9000005    1    3    3    0    0 -0.15837666943E+02 -0.52577567108E+02  0.68177540007E+01  0.55341792769E+02  0.10000000000E+01 0.  0.
<mgrwt>
<rscale>  0 0.12499879E+03</rscale>
<asrwt>0</asrwt>
<pdfrwt beam="1">  1        4 0.18295925E-01 0.12499879E+03</pdfrwt>
<pdfrwt beam="2">  1       -4 0.50532467E-02 0.12499879E+03</pdfrwt>
<totfact> 0.98954817E+03</totfact>
</mgrwt>
</event>
<event>
 5    1  0.3308162E-002  0.1250000E+03  0.7818608E-02  0.1235069E+00
          4   -1    0    0  501    0  0.00000000000E+00  0.00000000000E+00  0.25353078039E+03  0.25353396125E+03  0.12700000000E+01 0.  1.
         -4   -1    0    0    0  501 -0.00000000000E+00 -0.00000000000E+00 -0.15377933391E+02  0.15430286303E+02  0.12700000000E+01 0.  1.
         25    2    1    2    0    0  0.00000000000E+00  0.00000000000E+00  0.23815284700E+03  0.26896424755E+03  0.12499995170E+03 0.  0.
    9000005    1    3    3    0    0 -0.22507659453E+02 -0.57903205728E+02  0.13364958842E+03  0.14738584888E+03  0.10000000000E+01 0.  0.
    9000005    1    3    3    0    0  0.22507659453E+02  0.57903205728E+02  0.10450325859E+03  0.12157839867E+03  0.10000000000E+01 0.  0.
<mgrwt>
<rscale>  0 0.12499995E+03</rscale>
<asrwt>0</asrwt>
<pdfrwt beam="1">  1        4 0.39009006E-01 0.12499995E+03</pdfrwt>
<pdfrwt beam="2">  1       -4 0.23701078E-02 0.12499995E+03</pdfrwt>
<totfact> 0.79664371E+03</totfact>
</mgrwt>
</event>
<event>
 5    1  0.3308162E-002  0.1249916E+03  0.7818608E-02  0.1235082E+00
         -4   -1    0    0    0  501 -0.00000000000E+00  0.00000000000E+00  0.12428579252E+02  0.12493297492E+02  0.12700000000E+01 0. -1.
          4   -1    0    0  501    0  0.00000000000E+00 -0.00000000000E+00 -0.31337137140E+03  0.31337394485E+03  0.12700000000E+01 0. -1.
         25    2    1    2    0    0  0.00000000000E+00  0.00000000000E+00 -0.30094279215E+03  0.32586724234E+03  0.12499158167E+03 0.  0.
    9000005    1    3    3    0    0 -0.49657046608E+02  0.37741895606E+02 -0.14056062277E+03  0.15378088840E+03  0.10000000000E+01 0.  0.
    9000005    1    3    3    0    0  0.49657046608E+02 -0.37741895606E+02 -0.16038216937E+03  0.17208635395E+03  0.10000000000E+01 0.  0.
<mgrwt>
<rscale>  0 0.12499158E+03</rscale>
<asrwt>0</asrwt>
<pdfrwt beam="2">  1        4 0.48216151E-01 0.12499158E+03</pdfrwt>
<pdfrwt beam="1">  1       -4 0.19172656E-02 0.12499158E+03</pdfrwt>
<totfact> 0.72477208E+03</totfact>
</mgrwt>
</event>
<event>
 5    1  0.3308162E-002  0.1250021E+03  0.7818608E-02  0.1235066E+00
          4   -1    0    0  501    0  0.00000000000E+00  0.00000000000E+00  0.50419323062E+03  0.50419483010E+03  0.12700000000E+01 0.  1.
         -4   -1    0    0    0  501 -0.00000000000E+00 -0.00000000000E+00 -0.76941153259E+01  0.77982248395E+01  0.12700000000E+01 0.  1.
         25    2    1    2    0    0  0.00000000000E+00  0.00000000000E+00  0.49649911529E+03  0.51199305494E+03  0.12500206727E+03 0.  0.
    9000005    1    3    3    0    0 -0.24539523678E+02 -0.25142837612E+02  0.45993264052E+03  0.46127365448E+03  0.10000000000E+01 0.  0.
    9000005    1    3    3    0    0  0.24539523678E+02  0.25142837612E+02  0.36566474776E+02  0.50719400460E+02  0.10000000000E+01 0.  0.
<mgrwt>
<rscale>  0 0.12500207E+03</rscale>
<asrwt>0</asrwt>
<pdfrwt beam="1">  1        4 0.77576348E-01 0.12500207E+03</pdfrwt>
<pdfrwt beam="2">  1       -4 0.11918411E-02 0.12500207E+03</pdfrwt>
<totfact> 0.54943202E+03</totfact>
</mgrwt>
</event>
<event>
 5    1  0.3308162E-002  0.1249997E+03  0.7818608E-02  0.1235070E+00
         -4   -1    0    0    0  501 -0.00000000000E+00  0.00000000000E+00  0.15990531367E+02  0.16040885057E+02  0.12700000000E+01 0. -1.
          4   -1    0    0  501    0  0.00000000000E+00 -0.00000000000E+00 -0.24384814437E+03  0.24385145153E+03  0.12700000000E+01 0. -1.
         25    2    1    2    0    0  0.00000000000E+00  0.00000000000E+00 -0.22785761300E+03  0.25989233658E+03  0.12499973925E+03 0.  0.
    9000005    1    3    3    0    0 -0.15422347312E+02  0.57747693696E+02 -0.76011440281E+02  0.96702554141E+02  0.10000000000E+01 0.  0.
    9000005    1    3    3    0    0  0.15422347312E+02 -0.57747693696E+02 -0.15184617272E+03  0.16318978244E+03  0.10000000000E+01 0.  0.
<mgrwt>
<rscale>  0 0.12499974E+03</rscale>
<asrwt>0</asrwt>
<pdfrwt beam="2">  1        4 0.37519224E-01 0.12499974E+03</pdfrwt>
<pdfrwt beam="1">  1       -4 0.24642097E-02 0.12499974E+03</pdfrwt>
<totfact> 0.80921643E+03</totfact>
</mgrwt>
</event>
<event>
 5    1  0.3308162E-002  0.1249932E+03  0.7818608E-02  0.1235080E+00
          4   -1    0    0  501    0  0.00000000000E+00  0.00000000000E+00  0.10195835715E+02  0.10274627289E+02  0.12700000000E+01 0. -1.
         -4   -1    0    0    0  501 -0.00000000000E+00 -0.00000000000E+00 -0.38152588380E+03  0.38152799755E+03  0.12700000000E+01 0. -1.
         25    2    1    2    0    0  0.00000000000E+00  0.00000000000E+00 -0.37133004809E+03  0.39180262483E+03  0.12499316867E+03 0.  0.
    9000005    1    3    3    0    0 -0.42791195477E+02 -0.27931771046E+02 -0.29840375583E+03  0.30274918949E+03  0.10000000000E+01 0.  0.
    9000005    1    3    3    0    0  0.42791195477E+02  0.27931771046E+02 -0.72926292260E+02  0.89053435346E+02  0.10000000000E+01 0.  0.
<mgrwt>
<rscale>  0 0.12499317E+03</rscale>
<asrwt>0</asrwt>
<pdfrwt beam="1">  1        4 0.15748139E-02 0.12499317E+03</pdfrwt>
<pdfrwt beam="2">  1       -4 0.58702502E-01 0.12499317E+03</pdfrwt>
<totfact> 0.65367808E+03</totfact>
</mgrwt>
</event>
<event>
 5    1  0.3308162E-002  0.1250239E+03  0.7818608E-02  0.1235032E+00
         -4   -1    0    0    0  501 -0.00000000000E+00  0.00000000000E+00  0.76211137449E+01  0.77262070068E+01  0.12700000000E+01 0.  1.
          4   -1    0    0  501    0  0.00000000000E+00 -0.00000000000E+00 -0.50913562314E+03  0.50913720710E+03  0.12700000000E+01 0.  1.
         25    2    1    2    0    0  0.00000000000E+00  0.00000000000E+00 -0.50151450940E+03  0.51686341411E+03  0.12502394053E+03 0.  0.
    9000005    1    3    3    0    0  0.21976548028E+02 -0.50613849870E+02 -0.12937917468E+03  0.14065810073E+03  0.10000000000E+01 0.  0.
    9000005    1    3    3    0    0 -0.21976548028E+02  0.50613849870E+02 -0.37213533472E+03  0.37620531337E+03  0.10000000000E+01 0.  0.
<mgrwt>
<rscale>  0 0.12502394E+03</rscale>
<asrwt>0</asrwt>
<pdfrwt beam="2">  1        4 0.78336737E-01 0.12502394E+03</pdfrwt>
<pdfrwt beam="1">  1       -4 0.11806854E-02 0.12502394E+03</pdfrwt>
<totfact> 0.54550612E+03</totfact>
</mgrwt>
</event>
<event>
 5    1  0.3308162E-002  0.1250090E+03  0.7818608E-02  0.1235055E+00
         -4   -1    0    0    0  501 -0.00000000000E+00  0.00000000000E+00  0.65885733755E+02  0.65897972749E+02  0.12700000000E+01 0.  1.
          4   -1    0    0  501    0  0.00000000000E+00 -0.00000000000E+00 -0.59272263195E+02  0.59285867491E+02  0.12700000000E+01 0.  1.
         25    2    1    2    0    0  0.00000000000E+00  0.00000000000E+00  0.66134705600E+01  0.12518384024E+03  0.12500902313E+03 0.  0.
    9000005    1    3    3    0    0 -0.52864715119E+02  0.21137824458E+02 -0.22503874531E+02  0.61228343897E+02  0.10000000000E+01 0.  0.
    9000005    1    3    3    0    0  0.52864715119E+02 -0.21137824458E+02  0.29117345091E+02  0.63955496344E+02  0.10000000000E+01 0.  0.
<mgrwt>
<rscale>  0 0.12500902E+03</rscale>
<asrwt>0</asrwt>
<pdfrwt beam="2">  1        4 0.91207978E-02 0.12500902E+03</pdfrwt>
<pdfrwt beam="1">  1       -4 0.10138255E-01 0.12500902E+03</pdfrwt>
<totfact> 0.10446740E+04</totfact>
</mgrwt>
</event>
<event>
 5    1  0.3308162E-002  0.1250019E+03  0.7818608E-02  0.1235066E+00
          4   -1    0    0  501    0  0.00000000000E+00  0.00000000000E+00  0.27238892247E+02  0.27268482738E+02  0.12700000000E+01 0. -1.
         -4   -1    0    0    0  501 -0.00000000000E+00 -0.00000000000E+00 -0.14330127738E+03  0.14330690493E+03  0.12700000000E+01 0. -1.
         25    2    1    2    0    0  0.00000000000E+00  0.00000000000E+00 -0.11606238514E+03  0.17057538767E+03  0.12500194252E+03 0.  0.
    9000005    1    3    3    0    0  0.19905433514E+02  0.17949240206E+02  0.19003895950E+02  0.32871713807E+02  0.10000000000E+01 0.  0.
    9000005    1    3    3    0    0 -0.19905433514E+02 -0.17949240206E+02 -0.13506628109E+03  0.13770367386E+03  0.10000000000E+01 0.  0.
<mgrwt>
<rscale>  0 0.12500194E+03</rscale>
<asrwt>0</asrwt>
<pdfrwt beam="1">  1        4 0.41933080E-02 0.12500194E+03</pdfrwt>
<pdfrwt beam="2">  1       -4 0.22049059E-01 0.12500194E+03</pdfrwt>
<totfact> 0.95337344E+03</totfact>
</mgrwt>
</event>
<event>
 5    1  0.3308162E-002  0.1249993E+03  0.7818608E-02  0.1235070E+00
         -4   -1    0    0    0  501 -0.00000000000E+00  0.00000000000E+00  0.22607733532E+02  0.22643376857E+02  0.12700000000E+01 0. -1.
          4   -1    0    0  501    0  0.00000000000E+00 -0.00000000000E+00 -0.17260773193E+03  0.17261240402E+03  0.12700000000E+01 0. -1.
         25    2    1    2    0    0  0.00000000000E+00  0.00000000000E+00 -0.14999999839E+03  0.19525578087E+03  0.12499928178E+03 0.  0.
    9000005    1    3    3    0    0  0.24243713961E+02 -0.42152860647E+02 -0.13688908199E+02  0.50527294951E+02  0.10000000000E+01 0.  0.
    9000005    1    3    3    0    0 -0.24243713961E+02  0.42152860647E+02 -0.13631109019E+03  0.14472848592E+03  0.10000000000E+01 0.  0.
<mgrwt>
<rscale>  0 0.12499928E+03</rscale>
<asrwt>0</asrwt>
<pdfrwt beam="2">  1        4 0.26558136E-01 0.12499928E+03</pdfrwt>
<pdfrwt beam="1">  1       -4 0.34812142E-02 0.12499928E+03</pdfrwt>
<totfact> 0.90942245E+03</totfact>
</mgrwt>
</event>
<event>
 5    1  0.3308162E-002  0.1250031E+03  0.7818608E-02  0.1235064E+00
          4   -1    0    0  501    0  0.00000000000E+00  0.00000000000E+00  0.20578548743E+02  0.20617700366E+02  0.12700000000E+01 0. -1.
         -4   -1    0    0    0  501 -0.00000000000E+00 -0.00000000000E+00 -0.18960906577E+03  0.18961331895E+03  0.12700000000E+01 0. -1.
         25    2    1    2    0    0  0.00000000000E+00  0.00000000000E+00 -0.16903051702E+03  0.21023101931E+03  0.12500306314E+03 0.  0.
    9000005    1    3    3    0    0 -0.11490033910E+02  0.54841622037E+02 -0.13105657456E+03  0.14253578541E+03  0.10000000000E+01 0.  0.
    9000005    1    3    3    0    0  0.11490033910E+02 -0.54841622037E+02 -0.37973942467E+02  0.67695233904E+02  0.10000000000E+01 0.  0.
<mgrwt>
<rscale>  0 0.12500306E+03</rscale>
<asrwt>0</asrwt>
<pdfrwt beam="1">  1        4 0.31692695E-02 0.12500306E+03</pdfrwt>
<pdfrwt beam="2">  1       -4 0.29173963E-01 0.12500306E+03</pdfrwt>
<totfact> 0.88432111E+03</totfact>
</mgrwt>
</event>
<event>
 5    1  0.3308162E-002  0.1250012E+03  0.7818608E-02  0.1235067E+00
         -4   -1    0    0    0  501 -0.00000000000E+00  0.00000000000E+00  0.50787443554E+02  0.50803319997E+02  0.12700000000E+01 0.  1.
          4   -1    0    0  501    0  0.00000000000E+00 -0.00000000000E+00 -0.76882043201E+02  0.76892531931E+02  0.12700000000E+01 0.  1.
         25    2    1    2    0    0  0.00000000000E+00  0.00000000000E+00 -0.26094599648E+02  0.12769585193E+03  0.12500120987E+03 0.  0.
    9000005    1    3    3    0    0  0.35256589820E+02  0.10738572863E+02  0.38508255883E+02  0.53312567411E+02  0.10000000000E+01 0.  0.
    9000005    1    3    3    0    0 -0.35256589820E+02 -0.10738572863E+02 -0.64602855530E+02  0.74383284517E+02  0.10000000000E+01 0.  0.
<mgrwt>
<rscale>  0 0.12500121E+03</rscale>
<asrwt>0</asrwt>
<pdfrwt beam="2">  1        4 0.11830035E-01 0.12500121E+03</pdfrwt>
<pdfrwt beam="1">  1       -4 0.78154810E-02 0.12500121E+03</pdfrwt>
<totfact> 0.10393777E+04</totfact>
</mgrwt>
</event>
<event>
 5    1  0.3308162E-002  0.1249919E+03  0.7818608E-02  0.1235082E+00
         -4   -1    0    0    0  501 -0.00000000000E+00  0.00000000000E+00  0.32983066818E+02  0.33007508187E+02  0.12700000000E+01 0. -1.
          4   -1    0    0  501    0  0.00000000000E+00 -0.00000000000E+00 -0.11834488244E+03  0.11835169665E+03  0.12700000000E+01 0. -1.
         25    2    1    2    0    0  0.00000000000E+00  0.00000000000E+00 -0.85361815618E+02  0.15135920483E+03  0.12499187702E+03 0.  0.
    9000005    1    3    3    0    0  0.18433879793E+02 -0.57639024354E+02 -0.23816568265E+02  0.65040710149E+02  0.10000000000E+01 0.  0.
    9000005    1    3    3    0    0 -0.18433879793E+02  0.57639024354E+02 -0.61545247353E+02  0.86318494684E+02  0.10000000000E+01 0.  0.
<mgrwt>
<rscale>  0 0.12499188E+03</rscale>
<asrwt>0</asrwt>
<pdfrwt beam="2">  1        4 0.18209309E-01 0.12499188E+03</pdfrwt>
<pdfrwt beam="1">  1       -4 0.50767223E-02 0.12499188E+03</pdfrwt>
<totfact> 0.99051552E+03</totfact>
</mgrwt>
</event>
<event>
 5    1  0.3308162E-002  0.1249985E+03  0.7818608E-02  0.1235072E+00
          4   -1    0    0  501    0  0.00000000000E+00  0.00000000000E+00  0.93426584616E+03  0.93426670935E+03  0.12700000000E+01 0. -1.
         -4   -1    0    0    0  501 -0.00000000000E+00 -0.00000000000E+00 -0.40836627488E+01  0.42765875936E+01  0.12700000000E+01 0. -1.
         25    2    1    2    0    0  0.00000000000E+00  0.00000000000E+00  0.93018218341E+03  0.93854329694E+03  0.12499850361E+03 0.  0.
    9000005    1    3    3    0    0  0.47875995104E+01  0.52088951704E+02  0.20837541847E+03  0.21484295432E+03  0.10000000000E+01 0.  0.
    9000005    1    3    3    0    0 -0.47875995104E+01 -0.52088951704E+02  0.72180676494E+03  0.72370034262E+03  0.10000000000E+01 0.  0.
<mgrwt>
<rscale>  0 0.12499850E+03</rscale>
<asrwt>0</asrwt>
<pdfrwt beam="1">  1        4 0.14374822E+00 0.12499850E+03</pdfrwt>
<pdfrwt beam="2">  1       -4 0.64316210E-03 0.12499850E+03</pdfrwt>
<totfact> 0.32727298E+03</totfact>
</mgrwt>
</event>
<event>
 4    1  0.3308162E-002  0.1250938E+03  0.7818608E-02  0.1234923E+00
          4   -1    0    0  501    0  0.00000000000E+00  0.00000000000E+00  0.22357931893E+02  0.22393972817E+02  0.12700000000E+01 0. -1.
         -4   -1    0    0    0  501 -0.00000000000E+00 -0.00000000000E+00 -0.17479725170E+03  0.17480186527E+03  0.12700000000E+01 0. -1.
    9000005    1    1    2    0    0  0.43323304757E+02 -0.54577552545E+01 -0.56438102080E+01  0.44040304508E+02  0.10000000000E+01 0.  0.
    9000005    1    1    2    0    0 -0.43323304757E+02  0.54577552545E+01 -0.14679550960E+03  0.15315553358E+03  0.10000000000E+01 0.  0.
<mgrwt>
<rscale>  0 0.12509377E+03</rscale>
<asrwt>0</asrwt>
<pdfrwt beam="1">  1        4 0.34428092E-02 0.12509377E+03</pdfrwt>
<pdfrwt beam="2">  1       -4 0.26895011E-01 0.12509377E+03</pdfrwt>
<totfact> 0.90420183E+03</totfact>
</mgrwt>
</event>
<event>
 5    1  0.3308162E-002  0.1249713E+03  0.7818608E-02  0.1235114E+00
          4   -1    0    0  501    0  0.00000000000E+00  0.00000000000E+00  0.11745740507E+03  0.11746427076E+03  0.12700000000E+01 0.  1.
         -4   -1    0    0    0  501 -0.00000000000E+00 -0.00000000000E+00 -0.33221486177E+02  0.33245752267E+02  0.12700000000E+01 0.  1.
         25    2    1    2    0    0  0.00000000000E+00  0.00000000000E+00  0.84235918895E+02  0.15071002303E+03  0.12497128074E+03 0.  0.
    9000005    1    3    3    0    0 -0.14026330089E+02  0.60629774574E+02  0.35430847414E+02  0.71617403256E+02  0.10000000000E+01 0.  0.
    9000005    1    3    3    0    0  0.14026330089E+02 -0.60629774574E+02  0.48805071482E+02  0.79092619776E+02  0.10000000000E+01 0.  0.
<mgrwt>
<rscale>  0 0.12497128E+03</rscale>
<asrwt>0</asrwt>
<pdfrwt beam="1">  1        4 0.18072765E-01 0.12497128E+03</pdfrwt>
<pdfrwt beam="2">  1       -4 0.51133927E-02 0.12497128E+03</pdfrwt>
<totfact> 0.99226469E+03</totfact>
</mgrwt>
</event>
<event>
 5    1  0.3308162E-002  0.1250000E+03  0.7818608E-02  0.1235069E+00
         -4   -1    0    0    0  501 -0.00000000000E+00  0.00000000000E+00  0.82542891782E+02  0.82552661275E+02  0.12700000000E+01 0. -1.
          4   -1    0    0  501    0  0.00000000000E+00 -0.00000000000E+00 -0.47302808877E+02  0.47319854477E+02  0.12700000000E+01 0. -1.
         25    2    1    2    0    0  0.00000000000E+00  0.00000000000E+00  0.35240082904E+02  0.12987251575E+03  0.12500002762E+03 0.  0.
    9000005    1    3    3    0    0 -0.41292860046E+02  0.92249896783E+01  0.65402398193E+02  0.77901697124E+02  0.10000000000E+01 0.  0.
    9000005    1    3    3    0    0  0.41292860046E+02 -0.92249896783E+01 -0.30162315289E+02  0.51970818629E+02  0.10000000000E+01 0.  0.
<mgrwt>
<rscale>  0 0.12500003E+03</rscale>
<asrwt>0</asrwt>
<pdfrwt beam="2">  1        4 0.72794179E-02 0.12500003E+03</pdfrwt>
<pdfrwt beam="1">  1       -4 0.12700969E-01 0.12500003E+03</pdfrwt>
<totfact> 0.10347229E+04</totfact>
</mgrwt>
</event>
<event>
 5    1  0.3308162E-002  0.1250028E+03  0.7818608E-02  0.1235065E+00
          4   -1    0    0  501    0  0.00000000000E+00  0.00000000000E+00  0.26225833606E+03  0.26226141107E+03  0.12700000000E+01 0. -1.
         -4   -1    0    0    0  501 -0.00000000000E+00 -0.00000000000E+00 -0.14865082235E+02  0.14919234895E+02  0.12700000000E+01 0. -1.
         25    2    1    2    0    0  0.00000000000E+00  0.00000000000E+00  0.24739325383E+03  0.27718064596E+03  0.12500275379E+03 0.  0.
    9000005    1    3    3    0    0 -0.61952135547E+02  0.70645766751E+01  0.11443471049E+03  0.13032374422E+03  0.10000000000E+01 0.  0.
    9000005    1    3    3    0    0  0.61952135547E+02 -0.70645766751E+01  0.13295854334E+03  0.14685690175E+03  0.10000000000E+01 0.  0.
<mgrwt>
<rscale>  0 0.12500275E+03</rscale>
<asrwt>0</asrwt>
<pdfrwt beam="1">  1        4 0.40351834E-01 0.12500275E+03</pdfrwt>
<pdfrwt beam="2">  1       -4 0.22913381E-02 0.12500275E+03</pdfrwt>
<totfact> 0.78548616E+03</totfact>
</mgrwt>
</event>
<event>
 5    1  0.3308162E-002  0.1249997E+03  0.7818608E-02  0.1235070E+00
         -4   -1    0    0    0  501 -0.00000000000E+00  0.00000000000E+00  0.21230557153E+02  0.21268508575E+02  0.12700000000E+01 0. -1.
          4   -1    0    0  501    0  0.00000000000E+00 -0.00000000000E+00 -0.18378657063E+03  0.18379095855E+03  0.12700000000E+01 0. -1.
         25    2    1    2    0    0  0.00000000000E+00  0.00000000000E+00 -0.16255601348E+03  0.20505946712E+03  0.12499971016E+03 0.  0.
    9000005    1    3    3    0    0 -0.54552291621E+02 -0.32682271739E+01 -0.13099828828E+03  0.14194430374E+03  0.10000000000E+01 0.  0.
    9000005    1    3    3    0    0  0.54552291621E+02  0.32682271739E+01 -0.31557725194E+02  0.63115163387E+02  0.10000000000E+01 0.  0.
<mgrwt>
<rscale>  0 0.12499971E+03</rscale>
<asrwt>0</asrwt>
<pdfrwt beam="2">  1        4 0.28278113E-01 0.12499971E+03</pdfrwt>
<pdfrwt beam="1">  1       -4 0.32694966E-02 0.12499971E+03</pdfrwt>
<totfact> 0.89289724E+03</totfact>
</mgrwt>
</event>
<event>
 5    1  0.3308162E-002  0.1249995E+03  0.7818608E-02  0.1235070E+00
         -4   -1    0    0    0  501 -0.00000000000E+00  0.00000000000E+00  0.11449497663E+03  0.11450201995E+03  0.12700000000E+01 0.  1.
          4   -1    0    0  501    0  0.00000000000E+00 -0.00000000000E+00 -0.34097035347E+02  0.34120678766E+02  0.12700000000E+01 0.  1.
         25    2    1    2    0    0  0.00000000000E+00  0.00000000000E+00  0.80397941278E+02  0.14862269871E+03  0.12499951044E+03 0.  0.
    9000005    1    3    3    0    0  0.23428724166E+02 -0.56119346827E+02  0.57302743335E+02  0.83563691864E+02  0.10000000000E+01 0.  0.
    9000005    1    3    3    0    0 -0.23428724166E+02  0.56119346827E+02  0.23095197943E+02  0.65059006850E+02  0.10000000000E+01 0.  0.
<mgrwt>
<rscale>  0 0.12499951E+03</rscale>
<asrwt>0</asrwt>
<pdfrwt beam="2">  1        4 0.52480582E-02 0.12499951E+03</pdfrwt>
<pdfrwt beam="1">  1       -4 0.17616972E-01 0.12499951E+03</pdfrwt>
<totfact> 0.99580051E+03</totfact>
</mgrwt>
</event>
<event>
 5    1  0.3308162E-002  0.1250005E+03  0.7818608E-02  0.1235068E+00
         -4   -1    0    0    0  501 -0.00000000000E+00  0.00000000000E+00  0.23688106607E+02  0.23722126688E+02  0.12700000000E+01 0. -1.
          4   -1    0    0  501    0  0.00000000000E+00 -0.00000000000E+00 -0.16475000420E+03  0.16475489912E+03  0.12700000000E+01 0. -1.
         25    2    1    2    0    0  0.00000000000E+00  0.00000000000E+00 -0.14106189759E+03  0.18847702580E+03  0.12500052122E+03 0.  0.
    9000005    1    3    3    0    0  0.21709240341E+02 -0.34769717909E+02 -0.14165513026E+03  0.14746999806E+03  0.10000000000E+01 0.  0.
    9000005    1    3    3    0    0 -0.21709240341E+02  0.34769717909E+02  0.59323266501E+00  0.41007027746E+02  0.10000000000E+01 0.  0.
<mgrwt>
<rscale>  0 0.12500052E+03</rscale>
<asrwt>0</asrwt>
<pdfrwt beam="2">  1        4 0.25349147E-01 0.12500052E+03</pdfrwt>
<pdfrwt beam="1">  1       -4 0.36473177E-02 0.12500052E+03</pdfrwt>
<totfact> 0.92111909E+03</totfact>
</mgrwt>
</event>
<event>
 5    1  0.3308162E-002  0.1250057E+03  0.7818608E-02  0.1235060E+00
         -4   -1    0    0    0  501 -0.00000000000E+00  0.00000000000E+00  0.35701871731E+03  0.35702097615E+03  0.12700000000E+01 0.  1.
          4   -1    0    0  501    0  0.00000000000E+00 -0.00000000000E+00 -0.10903154268E+02  0.10976869908E+02  0.12700000000E+01 0.  1.
         25    2    1    2    0    0  0.00000000000E+00  0.00000000000E+00  0.34611556304E+03  0.36799784606E+03  0.12500572676E+03 0.  0.
    9000005    1    3    3    0    0  0.10985560714E+02 -0.38668518618E+02  0.31392239706E+03  0.31648729556E+03  0.10000000000E+01 0.  0.
    9000005    1    3    3    0    0 -0.10985560714E+02  0.38668518618E+02  0.32193165982E+02  0.51510550494E+02  0.10000000000E+01 0.  0.
<mgrwt>
<rscale>  0 0.12500573E+03</rscale>
<asrwt>0</asrwt>
<pdfrwt beam="2">  1        4 0.16832525E-02 0.12500573E+03</pdfrwt>
<pdfrwt beam="1">  1       -4 0.54931802E-01 0.12500573E+03</pdfrwt>
<totfact> 0.67780336E+03</totfact>
</mgrwt>
</event>
<event>
 5    1  0.3308162E-002  0.1249960E+03  0.7818608E-02  0.1235076E+00
         -4   -1    0    0    0  501 -0.00000000000E+00  0.00000000000E+00  0.84667203354E+01  0.85614399045E+01  0.12700000000E+01 0.  1.
          4   -1    0    0  501    0  0.00000000000E+00 -0.00000000000E+00 -0.45867396983E+03  0.45867572804E+03  0.12700000000E+01 0.  1.
         25    2    1    2    0    0  0.00000000000E+00  0.00000000000E+00 -0.45020724949E+03  0.46723716795E+03  0.12499601441E+03 0.  0.
    9000005    1    3    3    0    0 -0.53500204288E+02 -0.21227238166E+01 -0.10465923960E+03  0.11756417077E+03  0.10000000000E+01 0.  0.
    9000005    1    3    3    0    0  0.53500204288E+02  0.21227238166E+01 -0.34554800989E+03  0.34967299718E+03  0.10000000000E+01 0.  0.
<mgrwt>
<rscale>  0 0.12499601E+03</rscale>
<asrwt>0</asrwt>
<pdfrwt beam="2">  1        4 0.70572628E-01 0.12499601E+03</pdfrwt>
<pdfrwt beam="1">  1       -4 0.13099941E-02 0.12499601E+03</pdfrwt>
<totfact> 0.58504233E+03</totfact>
</mgrwt>
</event>
<event>
 5    1  0.3308162E-002  0.1250011E+03  0.7818608E-02  0.1235068E+00
          4   -1    0    0  501    0  0.00000000000E+00  0.00000000000E+00  0.46278825873E+02  0.46296248489E+02  0.12700000000E+01 0.  1.
         -4   -1    0    0    0  501 -0.00000000000E+00 -0.00000000000E+00 -0.84370198246E+02  0.84379756175E+02  0.12700000000E+01 0.  1.
         25    2    1    2    0    0  0.00000000000E+00  0.00000000000E+00 -0.38091372374E+02  0.13067600466E+03  0.12500106218E+03 0.  0.
    9000005    1    3    3    0    0  0.39492534063E+02 -0.19237450830E+02  0.27419650015E+02  0.51793599683E+02  0.10000000000E+01 0.  0.
    9000005    1    3    3    0    0 -0.39492534063E+02  0.19237450830E+02 -0.65511022389E+02  0.78882404981E+02  0.10000000000E+01 0.  0.
<mgrwt>
<rscale>  0 0.12500106E+03</rscale>
<asrwt>0</asrwt>
<pdfrwt beam="1">  1        4 0.71218948E-02 0.12500106E+03</pdfrwt>
<pdfrwt beam="2">  1       -4 0.12982106E-01 0.12500106E+03</pdfrwt>
<totfact> 0.10329793E+04</totfact>
</mgrwt>
</event>
<event>
 5    1  0.3308162E-002  0.1250194E+03  0.7818608E-02  0.1235039E+00
         -4   -1    0    0    0  501 -0.00000000000E+00  0.00000000000E+00  0.10837068058E+03  0.10837812191E+03  0.12700000000E+01 0.  1.
          4   -1    0    0  501    0  0.00000000000E+00 -0.00000000000E+00 -0.36036596989E+02  0.36058968684E+02  0.12700000000E+01 0.  1.
         25    2    1    2    0    0  0.00000000000E+00  0.00000000000E+00  0.72334083591E+02  0.14443709060E+03  0.12501941246E+03 0.  0.
    9000005    1    3    3    0    0 -0.10900847982E+02  0.23181793207E+02 -0.29698603376E+02  0.39233035385E+02  0.10000000000E+01 0.  0.
    9000005    1    3    3    0    0  0.10900847982E+02 -0.23181793207E+02  0.10203268697E+03  0.10520405521E+03  0.10000000000E+01 0.  0.
<mgrwt>
<rscale>  0 0.12501941E+03</rscale>
<asrwt>0</asrwt>
<pdfrwt beam="2">  1        4 0.55463852E-02 0.12501941E+03</pdfrwt>
<pdfrwt beam="1">  1       -4 0.16674706E-01 0.12501941E+03</pdfrwt>
<totfact> 0.10038049E+04</totfact>
</mgrwt>
</event>
<event>
 5    1  0.3308162E-002  0.1249994E+03  0.7818608E-02  0.1235070E+00
          4   -1    0    0  501    0  0.00000000000E+00  0.00000000000E+00  0.17172149583E+04  0.17172154279E+04  0.12700000000E+01 0.  1.
         -4   -1    0    0    0  501 -0.00000000000E+00 -0.00000000000E+00 -0.20969668178E+01  0.24515647727E+01  0.12700000000E+01 0.  1.
         25    2    1    2    0    0  0.00000000000E+00  0.00000000000E+00  0.17151179915E+04  0.17196669927E+04  0.12499936429E+03 0.  0.
    9000005    1    3    3    0    0  0.50354389709E+02  0.35072282386E+02  0.10200948801E+04  0.10219394277E+04  0.10000000000E+01 0.  0.
    9000005    1    3    3    0    0 -0.50354389709E+02 -0.35072282386E+02  0.69502311140E+03  0.69772756498E+03  0.10000000000E+01 0.  0.
<mgrwt>
<rscale>  0 0.12499936E+03</rscale>
<asrwt>0</asrwt>
<pdfrwt beam="1">  1        4 0.26421359E+00 0.12499936E+03</pdfrwt>
<pdfrwt beam="2">  1       -4 0.34992402E-03 0.12499936E+03</pdfrwt>
<totfact> 0.13982665E+03</totfact>
</mgrwt>
</event>
<event>
 5    1  0.3308162E-002  0.1249931E+03  0.7818608E-02  0.1235080E+00
         -4   -1    0    0    0  501 -0.00000000000E+00  0.00000000000E+00  0.11087020684E+03  0.11087748042E+03  0.12700000000E+01 0. -1.
          4   -1    0    0  501    0  0.00000000000E+00 -0.00000000000E+00 -0.35208845682E+02  0.35231742992E+02  0.12700000000E+01 0. -1.
         25    2    1    2    0    0  0.00000000000E+00  0.00000000000E+00  0.75661361158E+02  0.14610922341E+03  0.12499305418E+03 0.  0.
    9000005    1    3    3    0    0 -0.51900524606E+02  0.13680786337E+02  0.42486863307E+00  0.53684344855E+02  0.10000000000E+01 0.  0.
    9000005    1    3    3    0    0  0.51900524606E+02 -0.13680786337E+02  0.75236492525E+02  0.92424878559E+02  0.10000000000E+01 0.  0.
<mgrwt>
<rscale>  0 0.12499305E+03</rscale>
<asrwt>0</asrwt>
<pdfrwt beam="2">  1        4 0.54190664E-02 0.12499305E+03</pdfrwt>
<pdfrwt beam="1">  1       -4 0.17059276E-01 0.12499305E+03</pdfrwt>
<totfact> 0.10010065E+04</totfact>
</mgrwt>
</event>
<event>
 5    1  0.3308162E-002  0.1250152E+03  0.7818608E-02  0.1235046E+00
          4   -1    0    0  501    0  0.00000000000E+00  0.00000000000E+00  0.10148365403E+02  0.10227522689E+02  0.12700000000E+01 0. -1.
         -4   -1    0    0    0  501 -0.00000000000E+00 -0.00000000000E+00 -0.38343188365E+03  0.38343398689E+03  0.12700000000E+01 0. -1.
         25    2    1    2    0    0  0.00000000000E+00  0.00000000000E+00 -0.37328351825E+03  0.39366150957E+03  0.12501519558E+03 0.  0.
    9000005    1    3    3    0    0  0.46410391942E+02  0.22763845385E+02 -0.29726140687E+03  0.30172414745E+03  0.10000000000E+01 0.  0.
    9000005    1    3    3    0    0 -0.46410391942E+02 -0.22763845385E+02 -0.76022111372E+02  0.91937362124E+02  0.10000000000E+01 0.  0.
<mgrwt>
<rscale>  0 0.12501520E+03</rscale>
<asrwt>0</asrwt>
<pdfrwt beam="1">  1        4 0.15675381E-02 0.12501520E+03</pdfrwt>
<pdfrwt beam="2">  1       -4 0.58995760E-01 0.12501520E+03</pdfrwt>
<totfact> 0.65152107E+03</totfact>
</mgrwt>
</event>
<event>
 5    1  0.3308162E-002  0.1250057E+03  0.7818608E-02  0.1235060E+00
          4   -1    0    0  501    0  0.00000000000E+00  0.00000000000E+00  0.19711849138E+02  0.19752718710E+02  0.12700000000E+01 0. -1.
         -4   -1    0    0    0  501 -0.00000000000E+00 -0.00000000000E+00 -0.19793760765E+03  0.19794168187E+03  0.12700000000E+01 0. -1.
         25    2    1    2    0    0  0.00000000000E+00  0.00000000000E+00 -0.17822575851E+03  0.21769440058E+03  0.12500572406E+03 0.  0.
    9000005    1    3    3    0    0 -0.38648159400E+02 -0.29296491556E+02 -0.15775536331E+03  0.16504459790E+03  0.10000000000E+01 0.  0.
    9000005    1    3    3    0    0  0.38648159400E+02  0.29296491556E+02 -0.20470395195E+02  0.52649802677E+02  0.10000000000E+01 0.  0.
<mgrwt>
<rscale>  0 0.12500572E+03</rscale>
<asrwt>0</asrwt>
<pdfrwt beam="1">  1        4 0.30360495E-02 0.12500572E+03</pdfrwt>
<pdfrwt beam="2">  1       -4 0.30455396E-01 0.12500572E+03</pdfrwt>
<totfact> 0.87223346E+03</totfact>
</mgrwt>
</event>
<event>
 5    1  0.3308162E-002  0.1250014E+03  0.7818608E-02  0.1235067E+00
         -4   -1    0    0    0  501 -0.00000000000E+00  0.00000000000E+00  0.65399589415E+03  0.65399712726E+03  0.12700000000E+01 0. -1.
          4   -1    0    0  501    0  0.00000000000E+00 -0.00000000000E+00 -0.59042659332E+01  0.60393092495E+01  0.12700000000E+01 0. -1.
         25    2    1    2    0    0  0.00000000000E+00  0.00000000000E+00  0.64809162822E+03  0.66003643651E+03  0.12500135582E+03 0.  0.
    9000005    1    3    3    0    0 -0.46930639780E+02 -0.38082358647E+02  0.40796396188E+03  0.41241768292E+03  0.10000000000E+01 0.  0.
    9000005    1    3    3    0    0  0.46930639780E+02  0.38082358647E+02  0.24012766634E+03  0.24761875359E+03  0.10000000000E+01 0.  0.
<mgrwt>
<rscale>  0 0.12500136E+03</rscale>
<asrwt>0</asrwt>
<pdfrwt beam="2">  1        4 0.91883208E-03 0.12500136E+03</pdfrwt>
<pdfrwt beam="1">  1       -4 0.10062516E+00 0.12500136E+03</pdfrwt>
<totfact> 0.45280456E+03</totfact>
</mgrwt>
</event>
<event>
 5    1  0.3308162E-002  0.1249661E+03  0.7818608E-02  0.1235122E+00
         -4   -1    0    0    0  501 -0.00000000000E+00  0.00000000000E+00  0.30804484458E+03  0.30804746253E+03  0.12700000000E+01 0. -1.
          4   -1    0    0  501    0  0.00000000000E+00 -0.00000000000E+00 -0.12639413836E+02  0.12703057983E+02  0.12700000000E+01 0. -1.
         25    2    1    2    0    0  0.00000000000E+00  0.00000000000E+00  0.29540543075E+03  0.32075052052E+03  0.12496610699E+03 0.  0.
    9000005    1    3    3    0    0 -0.21753170762E+02  0.25453171996E+01 -0.24756273905E+01  0.22063721554E+02  0.10000000000E+01 0.  0.
    9000005    1    3    3    0    0  0.21753170762E+02 -0.25453171996E+01  0.29788105814E+03  0.29868679896E+03  0.10000000000E+01 0.  0.
<mgrwt>
<rscale>  0 0.12496611E+03</rscale>
<asrwt>0</asrwt>
<pdfrwt beam="2">  1        4 0.19496224E-02 0.12496611E+03</pdfrwt>
<pdfrwt beam="1">  1       -4 0.47396608E-01 0.12496611E+03</pdfrwt>
<totfact> 0.73121871E+03</totfact>
</mgrwt>
</event>
<event>
 5    1  0.3308162E-002  0.1250122E+03  0.7818608E-02  0.1235050E+00
         -4   -1    0    0    0  501 -0.00000000000E+00  0.00000000000E+00  0.15886631699E+02  0.15937313661E+02  0.12700000000E+01 0.  1.
          4   -1    0    0  501    0  0.00000000000E+00 -0.00000000000E+00 -0.24548666549E+03  0.24548995058E+03  0.12700000000E+01 0.  1.
         25    2    1    2    0    0  0.00000000000E+00  0.00000000000E+00 -0.22960003380E+03  0.26142726424E+03  0.12501215529E+03 0.  0.
    9000005    1    3    3    0    0 -0.28906383763E+02  0.27655774236E+02 -0.14387103250E+02  0.42525399596E+02  0.10000000000E+01 0.  0.
    9000005    1    3    3    0    0  0.28906383763E+02 -0.27655774236E+02 -0.21521293055E+03  0.21890186464E+03  0.10000000000E+01 0.  0.
<mgrwt>
<rscale>  0 0.12501216E+03</rscale>
<asrwt>0</asrwt>
<pdfrwt beam="2">  1        4 0.37771328E-01 0.12501216E+03</pdfrwt>
<pdfrwt beam="1">  1       -4 0.24482487E-02 0.12501216E+03</pdfrwt>
<totfact> 0.80684351E+03</totfact>
</mgrwt>
</event>
<event>
 5    1  0.3308162E-002  0.1250032E+03  0.7818608E-02  0.1235064E+00
          4   -1    0    0  501    0  0.00000000000E+00  0.00000000000E+00  0.10650585661E+02  0.10726037242E+02  0.12700000000E+01 0.  1.
         -4   -1    0    0    0  501 -0.00000000000E+00 -0.00000000000E+00 -0.36541128546E+03  0.36541349242E+03  0.12700000000E+01 0.  1.
         25    2    1    2    0    0  0.00000000000E+00  0.00000000000E+00 -0.35476069980E+03  0.37613952966E+03  0.12500316657E+03 0.  0.
    9000005    1    3    3    0    0 -0.24105253518E+01  0.17248879539E+02  0.32150380557E+01  0.17738966924E+02  0.10000000000E+01 0.  0.
    9000005    1    3    3    0    0  0.24105253518E+01 -0.17248879539E+02 -0.35797573785E+03  0.35840056274E+03  0.10000000000E+01 0.  0.
<mgrwt>
<rscale>  0 0.12500317E+03</rscale>
<asrwt>0</asrwt>
<pdfrwt beam="1">  1        4 0.16445257E-02 0.12500317E+03</pdfrwt>
<pdfrwt beam="2">  1       -4 0.56223085E-01 0.12500317E+03</pdfrwt>
<totfact> 0.66936801E+03</totfact>
</mgrwt>
</event>
<event>
 5    1  0.3308162E-002  0.1249997E+03  0.7818608E-02  0.1235070E+00
          4   -1    0    0  501    0  0.00000000000E+00  0.00000000000E+00  0.35964819210E+02  0.35987235526E+02  0.12700000000E+01 0. -1.
         -4   -1    0    0    0  501 -0.00000000000E+00 -0.00000000000E+00 -0.10855259717E+03  0.10856002603E+03  0.12700000000E+01 0. -1.
         25    2    1    2    0    0  0.00000000000E+00  0.00000000000E+00 -0.72587777961E+02  0.14454726156E+03  0.12499970126E+03 0.  0.
    9000005    1    3    3    0    0  0.10739393572E+02  0.23828489618E+01 -0.10742981870E+03  0.10799619665E+03  0.10000000000E+01 0.  0.
    9000005    1    3    3    0    0 -0.10739393572E+02 -0.23828489618E+01  0.34842040741E+02  0.36551064916E+02  0.10000000000E+01 0.  0.
<mgrwt>
<rscale>  0 0.12499970E+03</rscale>
<asrwt>0</asrwt>
<pdfrwt beam="1">  1        4 0.55353450E-02 0.12499970E+03</pdfrwt>
<pdfrwt beam="2">  1       -4 0.16702695E-01 0.12499970E+03</pdfrwt>
<totfact> 0.10040263E+04</totfact>
</mgrwt>
</event>
<event>
 5    1  0.3308162E-002  0.1250039E+03  0.7818608E-02  0.1235063E+00
          4   -1    0    0  501    0  0.00000000000E+00  0.00000000000E+00  0.16169347372E+03  0.16169846117E+03  0.12700000000E+01 0.  1.
         -4   -1    0    0    0  501 -0.00000000000E+00 -0.00000000000E+00 -0.24137813890E+02  0.24171201034E+02  0.12700000000E+01 0.  1.
         25    2    1    2    0    0  0.00000000000E+00  0.00000000000E+00  0.13755565983E+03  0.18586966220E+03  0.12500388704E+03 0.  0.
    9000005    1    3    3    0    0  0.17665644717E+02 -0.58477031576E+02  0.49172315900E+02  0.78425473389E+02  0.10000000000E+01 0.  0.
    9000005    1    3    3    0    0 -0.17665644717E+02  0.58477031576E+02  0.88383343930E+02  0.10744418881E+03  0.10000000000E+01 0.  0.
<mgrwt>
<rscale>  0 0.12500389E+03</rscale>
<asrwt>0</asrwt>
<pdfrwt beam="1">  1        4 0.24878870E-01 0.12500389E+03</pdfrwt>
<pdfrwt beam="2">  1       -4 0.37164618E-02 0.12500389E+03</pdfrwt>
<totfact> 0.92562926E+03</totfact>
</mgrwt>
</event>
<event>
 5    1  0.3308162E-002  0.1249868E+03  0.7818608E-02  0.1235090E+00
         -4   -1    0    0    0  501 -0.00000000000E+00  0.00000000000E+00  0.11295592471E+03  0.11296306399E+03  0.12700000000E+01 0. -1.
          4   -1    0    0  501    0  0.00000000000E+00 -0.00000000000E+00 -0.34554860795E+02  0.34578191169E+02  0.12700000000E+01 0. -1.
         25    2    1    2    0    0  0.00000000000E+00  0.00000000000E+00  0.78401063915E+02  0.14754125516E+03  0.12498677991E+03 0.  0.
    9000005    1    3    3    0    0  0.58894886235E+01 -0.23619319374E+02  0.10713430527E+03  0.10986954851E+03  0.10000000000E+01 0.  0.
    9000005    1    3    3    0    0 -0.58894886235E+01  0.23619319374E+02 -0.28733241351E+02  0.37671706658E+02  0.10000000000E+01 0.  0.
<mgrwt>
<rscale>  0 0.12498678E+03</rscale>
<asrwt>0</asrwt>
<pdfrwt beam="2">  1        4 0.53184763E-02 0.12498678E+03</pdfrwt>
<pdfrwt beam="1">  1       -4 0.17380178E-01 0.12498678E+03</pdfrwt>
<totfact> 0.99825795E+03</totfact>
</mgrwt>
</event>
<event>
 5    1  0.3308162E-002  0.1250139E+03  0.7818608E-02  0.1235048E+00
          4   -1    0    0  501    0  0.00000000000E+00  0.00000000000E+00  0.96836194622E+02  0.96844522245E+02  0.12700000000E+01 0.  1.
         -4   -1    0    0    0  501 -0.00000000000E+00 -0.00000000000E+00 -0.40327632430E+02  0.40347624929E+02  0.12700000000E+01 0.  1.
         25    2    1    2    0    0  0.00000000000E+00  0.00000000000E+00  0.56508562192E+02  0.13719214717E+03  0.12501386981E+03 0.  0.
    9000005    1    3    3    0    0  0.52342414787E+02  0.31661219343E+02  0.42306157927E+02  0.74383951189E+02  0.10000000000E+01 0.  0.
    9000005    1    3    3    0    0 -0.52342414787E+02 -0.31661219343E+02  0.14202404265E+02  0.62808195985E+02  0.10000000000E+01 0.  0.
<mgrwt>
<rscale>  0 0.12501387E+03</rscale>
<asrwt>0</asrwt>
<pdfrwt beam="1">  1        4 0.14900055E-01 0.12501387E+03</pdfrwt>
<pdfrwt beam="2">  1       -4 0.62064296E-02 0.12501387E+03</pdfrwt>
<totfact> 0.10188883E+04</totfact>
</mgrwt>
</event>
<event>
 5    1  0.3308162E-002  0.1250001E+03  0.7818608E-02  0.1235069E+00
         -4   -1    0    0    0  501 -0.00000000000E+00  0.00000000000E+00  0.27485096297E+02  0.27514422008E+02  0.12700000000E+01 0. -1.
          4   -1    0    0  501    0  0.00000000000E+00 -0.00000000000E+00 -0.14201476714E+03  0.14202044566E+03  0.12700000000E+01 0. -1.
         25    2    1    2    0    0  0.00000000000E+00  0.00000000000E+00 -0.11452967084E+03  0.16953486767E+03  0.12500010341E+03 0.  0.
    9000005    1    3    3    0    0  0.34519246861E+02 -0.50713304714E+02 -0.73417573811E+02  0.95679453506E+02  0.10000000000E+01 0.  0.
    9000005    1    3    3    0    0 -0.34519246861E+02  0.50713304714E+02 -0.41112097032E+02  0.73855414163E+02  0.10000000000E+01 0.  0.
<mgrwt>
<rscale>  0 0.12500010E+03</rscale>
<asrwt>0</asrwt>
<pdfrwt beam="2">  1        4 0.21851118E-01 0.12500010E+03</pdfrwt>
<pdfrwt beam="1">  1       -4 0.42311690E-02 0.12500010E+03</pdfrwt>
<totfact> 0.95535164E+03</totfact>
</mgrwt>
</event>
<event>
 5    1  0.3308162E-002  0.1249992E+03  0.7818608E-02  0.1235070E+00
         -4   -1    0    0    0  501 -0.00000000000E+00  0.00000000000E+00  0.37089411932E+02  0.37111148964E+02  0.12700000000E+01 0.  1.
          4   -1    0    0  501    0  0.00000000000E+00 -0.00000000000E+00 -0.10526209548E+03  0.10526975655E+03  0.12700000000E+01 0.  1.
         25    2    1    2    0    0  0.00000000000E+00  0.00000000000E+00 -0.68172683549E+02  0.14238090552E+03  0.12499922989E+03 0.  0.
    9000005    1    3    3    0    0  0.32276246045E+02 -0.18317892753E+02 -0.91355976225E+02  0.98611437702E+02  0.10000000000E+01 0.  0.
    9000005    1    3    3    0    0 -0.32276246045E+02  0.18317892753E+02  0.23183292676E+02  0.43769467816E+02  0.10000000000E+01 0.  0.
<mgrwt>
<rscale>  0 0.12499923E+03</rscale>
<asrwt>0</asrwt>
<pdfrwt beam="2">  1        4 0.16196430E-01 0.12499923E+03</pdfrwt>
<pdfrwt beam="1">  1       -4 0.57083248E-02 0.12499923E+03</pdfrwt>
<totfact> 0.10084651E+04</totfact>
</mgrwt>
</event>
<event>
 5    1  0.3308162E-002  0.1249982E+03  0.7818608E-02  0.1235072E+00
          4   -1    0    0  501    0  0.00000000000E+00  0.00000000000E+00  0.38049324043E+02  0.38070513000E+02  0.12700000000E+01 0. -1.
         -4   -1    0    0    0  501 -0.00000000000E+00 -0.00000000000E+00 -0.10260613413E+03  0.10261399349E+03  0.12700000000E+01 0. -1.
         25    2    1    2    0    0  0.00000000000E+00  0.00000000000E+00 -0.64556810086E+02  0.14068450649E+03  0.12499819454E+03 0.  0.
    9000005    1    3    3    0    0 -0.55332242287E+02  0.28807362062E+02 -0.36431458589E+02  0.72247991809E+02  0.10000000000E+01 0.  0.
    9000005    1    3    3    0    0  0.55332242287E+02 -0.28807362062E+02 -0.28125351497E+02  0.68436514686E+02  0.10000000000E+01 0.  0.
<mgrwt>
<rscale>  0 0.12499819E+03</rscale>
<asrwt>0</asrwt>
<pdfrwt beam="1">  1        4 0.58559767E-02 0.12499819E+03</pdfrwt>
<pdfrwt beam="2">  1       -4 0.15787793E-01 0.12499819E+03</pdfrwt>
<totfact> 0.10119830E+04</totfact>
</mgrwt>
</event>
<event>
 5    1  0.3308162E-002  0.1250038E+03  0.7818608E-02  0.1235063E+00
         -4   -1    0    0    0  501 -0.00000000000E+00  0.00000000000E+00  0.73246733076E+01  0.74339585056E+01  0.12700000000E+01 0. -1.
          4   -1    0    0  501    0  0.00000000000E+00 -0.00000000000E+00 -0.52927358319E+03  0.52927510688E+03  0.12700000000E+01 0. -1.
         25    2    1    2    0    0  0.00000000000E+00  0.00000000000E+00 -0.52194890989E+03  0.53670906539E+03  0.12500382530E+03 0.  0.
    9000005    1    3    3    0    0 -0.50210113894E+02 -0.36203842303E+02 -0.29783778749E+03  0.30420407853E+03  0.10000000000E+01 0.  0.
    9000005    1    3    3    0    0  0.50210113894E+02  0.36203842303E+02 -0.22411112239E+03  0.23250498686E+03  0.10000000000E+01 0.  0.
<mgrwt>
<rscale>  0 0.12500383E+03</rscale>
<asrwt>0</asrwt>
<pdfrwt beam="2">  1        4 0.81435199E-01 0.12500383E+03</pdfrwt>
<pdfrwt beam="1">  1       -4 0.11353970E-02 0.12500383E+03</pdfrwt>
<totfact> 0.53120145E+03</totfact>
</mgrwt>
</event>
<event>
 5    1  0.3308162E-002  0.1249983E+03  0.7818608E-02  0.1235072E+00
         -4   -1    0    0    0  501 -0.00000000000E+00  0.00000000000E+00  0.14590317411E+04  0.14590322938E+04  0.12700000000E+01 0.  1.
          4   -1    0    0  501    0  0.00000000000E+00 -0.00000000000E+00 -0.25260204804E+01  0.28273095811E+01  0.12700000000E+01 0.  1.
         25    2    1    2    0    0  0.00000000000E+00  0.00000000000E+00  0.14565057206E+04  0.14618596034E+04  0.12499834353E+03 0.  0.
    9000005    1    3    3    0    0 -0.49134870833E+02  0.16472293596E+02  0.11366715164E+04  0.11378526742E+04  0.10000000000E+01 0.  0.
    9000005    1    3    3    0    0  0.49134870833E+02 -0.16472293596E+02  0.31983420423E+03  0.32400692923E+03  0.10000000000E+01 0.  0.
<mgrwt>
<rscale>  0 0.12499834E+03</rscale>
<asrwt>0</asrwt>
<pdfrwt beam="2">  1        4 0.41183711E-03 0.12499834E+03</pdfrwt>
<pdfrwt beam="1">  1       -4 0.22448966E+00 0.12499834E+03</pdfrwt>
<totfact> 0.18691805E+03</totfact>
</mgrwt>
</event>
<event>
 5    1  0.3308162E-002  0.1250095E+03  0.7818608E-02  0.1235054E+00
          4   -1    0    0  501    0  0.00000000000E+00  0.00000000000E+00  0.23395029010E+02  0.23429474650E+02  0.12700000000E+01 0. -1.
         -4   -1    0    0    0  501 -0.00000000000E+00 -0.00000000000E+00 -0.16683485676E+03  0.16683969051E+03  0.12700000000E+01 0. -1.
         25    2    1    2    0    0  0.00000000000E+00  0.00000000000E+00 -0.14343982775E+03  0.19026916516E+03  0.12500948374E+03 0.  0.
    9000005    1    3    3    0    0  0.38673866243E+02 -0.48864882831E+02 -0.78923198527E+02  0.10056498382E+03  0.10000000000E+01 0.  0.
    9000005    1    3    3    0    0 -0.38673866243E+02  0.48864882831E+02 -0.64516629220E+02  0.89704181342E+02  0.10000000000E+01 0.  0.
<mgrwt>
<rscale>  0 0.12500948E+03</rscale>
<asrwt>0</asrwt>
<pdfrwt beam="1">  1        4 0.36022568E-02 0.12500948E+03</pdfrwt>
<pdfrwt beam="2">  1       -4 0.25669922E-01 0.12500948E+03</pdfrwt>
<totfact> 0.91781004E+03</totfact>
</mgrwt>
</event>
<event>
 5    1  0.3308162E-002  0.1249984E+03  0.7818608E-02  0.1235072E+00
         -4   -1    0    0    0  501 -0.00000000000E+00  0.00000000000E+00  0.63495710498E+01  0.64753341625E+01  0.12700000000E+01 0. -1.
          4   -1    0    0  501    0  0.00000000000E+00 -0.00000000000E+00 -0.60902465077E+03  0.60902597493E+03  0.12700000000E+01 0. -1.
         25    2    1    2    0    0  0.00000000000E+00  0.00000000000E+00 -0.60267507972E+03  0.61550130909E+03  0.12499843913E+03 0.  0.
    9000005    1    3    3    0    0 -0.25254297198E+02  0.28946818404E+02 -0.58632504339E+02  0.70103269451E+02  0.10000000000E+01 0.  0.
    9000005    1    3    3    0    0  0.25254297198E+02 -0.28946818404E+02 -0.54404257538E+03  0.54539803964E+03  0.10000000000E+01 0.  0.
<mgrwt>
<rscale>  0 0.12499844E+03</rscale>
<asrwt>0</asrwt>
<pdfrwt beam="2">  1        4 0.93705830E-01 0.12499844E+03</pdfrwt>
<pdfrwt beam="1">  1       -4 0.98663351E-03 0.12499844E+03</pdfrwt>
<totfact> 0.47905174E+03</totfact>
</mgrwt>
</event>
<event>
 5    1  0.3308162E-002  0.1250001E+03  0.7818608E-02  0.1235069E+00
         -4   -1    0    0    0  501 -0.00000000000E+00  0.00000000000E+00  0.56582062053E+02  0.56596313008E+02  0.12700000000E+01 0.  1.
          4   -1    0    0  501    0  0.00000000000E+00 -0.00000000000E+00 -0.69008193868E+02  0.69019879172E+02  0.12700000000E+01 0.  1.
         25    2    1    2    0    0  0.00000000000E+00  0.00000000000E+00 -0.12426131815E+02  0.12561619218E+03  0.12500007594E+03 0.  0.
    9000005    1    3    3    0    0 -0.64189476908E+01 -0.12839659444E+02 -0.67333856113E+02  0.68854251307E+02  0.10000000000E+01 0.  0.
    9000005    1    3    3    0    0  0.64189476908E+01  0.12839659444E+02  0.54907724298E+02  0.56761940873E+02  0.10000000000E+01 0.  0.
<mgrwt>
<rscale>  0 0.12500008E+03</rscale>
<asrwt>0</asrwt>
<pdfrwt beam="2">  1        4 0.10618640E-01 0.12500008E+03</pdfrwt>
<pdfrwt beam="1">  1       -4 0.87069278E-02 0.12500008E+03</pdfrwt>
<totfact> 0.10439372E+04</totfact>
</mgrwt>
</event>
<event>
 5    1  0.3308162E-002  0.1250027E+03  0.7818608E-02  0.1235065E+00
          4   -1    0    0  501    0  0.00000000000E+00  0.00000000000E+00  0.88906934941E+01  0.89809426457E+01  0.12700000000E+01 0. -1.
         -4   -1    0    0    0  501 -0.00000000000E+00 -0.00000000000E+00 -0.43707320529E+03  0.43707505040E+03  0.12700000000E+01 0. -1.
         25    2    1    2    0    0  0.00000000000E+00  0.00000000000E+00 -0.42818251179E+03  0.44605599305E+03  0.12500274207E+03 0.  0.
    9000005    1    3    3    0    0 -0.61760126119E+02 -0.70362137803E+01 -0.19107599119E+03  0.20093495438E+03  0.10000000000E+01 0.  0.
    9000005    1    3    3    0    0  0.61760126119E+02  0.70362137803E+01 -0.23710652060E+03  0.24512103866E+03  0.10000000000E+01 0.  0.
<mgrwt>
<rscale>  0 0.12500274E+03</rscale>
<asrwt>0</asrwt>
<pdfrwt beam="1">  1        4 0.13748835E-02 0.12500274E+03</pdfrwt>
<pdfrwt beam="2">  1       -4 0.67249099E-01 0.12500274E+03</pdfrwt>
<totfact> 0.60303357E+03</totfact>
</mgrwt>
</event>
<event>
 5    1  0.3308162E-002  0.1250155E+03  0.7818608E-02  0.1235045E+00
         -4   -1    0    0    0  501 -0.00000000000E+00  0.00000000000E+00  0.13435352349E+03  0.13435952580E+03  0.12700000000E+01 0.  1.
          4   -1    0    0  501    0  0.00000000000E+00 -0.00000000000E+00 -0.29061115329E+02  0.29088852232E+02  0.12700000000E+01 0.  1.
         25    2    1    2    0    0  0.00000000000E+00  0.00000000000E+00  0.10529240816E+03  0.16344837804E+03  0.12501552330E+03 0.  0.
    9000005    1    3    3    0    0 -0.45103748435E+02 -0.33959277276E+02  0.87694931502E+02  0.10430235686E+03  0.10000000000E+01 0.  0.
    9000005    1    3    3    0    0  0.45103748435E+02  0.33959277276E+02  0.17597476660E+02  0.59146021174E+02  0.10000000000E+01 0.  0.
<mgrwt>
<rscale>  0 0.12501552E+03</rscale>
<asrwt>0</asrwt>
<pdfrwt beam="2">  1        4 0.44735360E-02 0.12501552E+03</pdfrwt>
<pdfrwt beam="1">  1       -4 0.20672369E-01 0.12501552E+03</pdfrwt>
<totfact> 0.96648340E+03</totfact>
</mgrwt>
</event>
<event>
 5    1  0.3308162E-002  0.1250002E+03  0.7818608E-02  0.1235069E+00
         -4   -1    0    0    0  501 -0.00000000000E+00  0.00000000000E+00  0.49319984524E+03  0.49320148037E+03  0.12700000000E+01 0. -1.
          4   -1    0    0  501    0  0.00000000000E+00 -0.00000000000E+00 -0.78676724264E+01  0.79695150046E+01  0.12700000000E+01 0. -1.
         25    2    1    2    0    0  0.00000000000E+00  0.00000000000E+00  0.48533217281E+03  0.50117099538E+03  0.12500019457E+03 0.  0.
    9000005    1    3    3    0    0 -0.61662080931E+02 -0.99929865235E+01  0.24982721078E+03  0.25752030454E+03  0.10000000000E+01 0.  0.
    9000005    1    3    3    0    0  0.61662080931E+02  0.99929865235E+01  0.23550496203E+03  0.24365069083E+03  0.10000000000E+01 0.  0.
<mgrwt>
<rscale>  0 0.12500019E+03</rscale>
<asrwt>0</asrwt>
<pdfrwt beam="2">  1        4 0.12183704E-02 0.12500019E+03</pdfrwt>
<pdfrwt beam="1">  1       -4 0.75884893E-01 0.12500019E+03</pdfrwt>
<totfact> 0.55773369E+03</totfact>
</mgrwt>
</event>
<event>
 5    1  0.3308162E-002  0.1249982E+03  0.7818608E-02  0.1235072E+00
          4   -1    0    0  501    0  0.00000000000E+00  0.00000000000E+00  0.84437072071E+02  0.84446622430E+02  0.12700000000E+01 0. -1.
         -4   -1    0    0    0  501 -0.00000000000E+00 -0.00000000000E+00 -0.46240077855E+02  0.46257515066E+02  0.12700000000E+01 0. -1.
         25    2    1    2    0    0  0.00000000000E+00  0.00000000000E+00  0.38196994215E+02  0.13070413750E+03  0.12499824475E+03 0.  0.
    9000005    1    3    3    0    0  0.35643666776E+02 -0.49733881185E+02  0.32374945764E+02  0.69231979838E+02  0.10000000000E+01 0.  0.
    9000005    1    3    3    0    0 -0.35643666776E+02  0.49733881185E+02  0.58220484511E+01  0.61472157658E+02  0.10000000000E+01 0.  0.
<mgrwt>
<rscale>  0 0.12499824E+03</rscale>
<asrwt>0</asrwt>
<pdfrwt beam="1">  1        4 0.12992395E-01 0.12499824E+03</pdfrwt>
<pdfrwt beam="2">  1       -4 0.71159341E-02 0.12499824E+03</pdfrwt>
<totfact> 0.10329845E+04</totfact>
</mgrwt>
</event>
<event>
 5    1  0.3308162E-002  0.1249876E+03  0.7818608E-02  0.1235089E+00
         -4   -1    0    0    0  501 -0.00000000000E+00  0.00000000000E+00  0.82195797097E+01  0.83171143196E+01  0.12700000000E+01 0.  1.
          4   -1    0    0  501    0  0.00000000000E+00 -0.00000000000E+00 -0.47224190938E+03  0.47224361708E+03  0.12700000000E+01 0.  1.
         25    2    1    2    0    0  0.00000000000E+00  0.00000000000E+00 -0.46402232967E+03  0.48056073140E+03  0.12498757591E+03 0.  0.
    9000005    1    3    3    0    0  0.32514580680E+02  0.17237699888E+02 -0.42617270788E+03  0.42775987796E+03  0.10000000000E+01 0.  0.
    9000005    1    3    3    0    0 -0.32514580680E+02 -0.17237699888E+02 -0.37849621795E+02  0.52800853443E+02  0.10000000000E+01 0.  0.
<mgrwt>
<rscale>  0 0.12498758E+03</rscale>
<asrwt>0</asrwt>
<pdfrwt beam="2">  1        4 0.72660214E-01 0.12498758E+03</pdfrwt>
<pdfrwt beam="1">  1       -4 0.12721851E-02 0.12498758E+03</pdfrwt>
<totfact> 0.57420506E+03</totfact>
</mgrwt>
</event>
<event>
 5    1  0.3308162E-002  0.1249975E+03  0.7818608E-02  0.1235073E+00
          4   -1    0    0  501    0  0.00000000000E+00  0.00000000000E+00  0.67709260117E+02  0.67721169553E+02  0.12700000000E+01 0.  1.
         -4   -1    0    0    0  501 -0.00000000000E+00 -0.00000000000E+00 -0.57665276379E+02  0.57679259703E+02  0.12700000000E+01 0.  1.
         25    2    1    2    0    0  0.00000000000E+00  0.00000000000E+00  0.10043983738E+02  0.12540042926E+03  0.12499754417E+03 0.  0.
    9000005    1    3    3    0    0  0.19338648779E+02 -0.28746930944E+02  0.57196609122E+02  0.66879155724E+02  0.10000000000E+01 0.  0.
    9000005    1    3    3    0    0 -0.19338648779E+02  0.28746930944E+02 -0.47152625384E+02  0.58521273533E+02  0.10000000000E+01 0.  0.
<mgrwt>
<rscale>  0 0.12499754E+03</rscale>
<asrwt>0</asrwt>
<pdfrwt beam="1">  1        4 0.10418801E-01 0.12499754E+03</pdfrwt>
<pdfrwt beam="2">  1       -4 0.88735727E-02 0.12499754E+03</pdfrwt>
<totfact> 0.10444736E+04</totfact>
</mgrwt>
</event>
<event>
 5    1  0.3308162E-002  0.1249876E+03  0.7818608E-02  0.1235089E+00
         -4   -1    0    0    0  501 -0.00000000000E+00  0.00000000000E+00  0.80669574676E+02  0.80679571011E+02  0.12700000000E+01 0.  1.
          4   -1    0    0  501    0  0.00000000000E+00 -0.00000000000E+00 -0.48391874893E+02  0.48408537012E+02  0.12700000000E+01 0.  1.
         25    2    1    2    0    0  0.00000000000E+00  0.00000000000E+00  0.32277699783E+02  0.12908810802E+03  0.12498755830E+03 0.  0.
    9000005    1    3    3    0    0 -0.55349713005E+02  0.26087793045E+02  0.30621524768E+01  0.61274305002E+02  0.10000000000E+01 0.  0.
    9000005    1    3    3    0    0  0.55349713005E+02 -0.26087793045E+02  0.29215547307E+02  0.67813803021E+02  0.10000000000E+01 0.  0.
<mgrwt>
<rscale>  0 0.12498756E+03</rscale>
<asrwt>0</asrwt>
<pdfrwt beam="2">  1        4 0.74469546E-02 0.12498756E+03</pdfrwt>
<pdfrwt beam="1">  1       -4 0.12412754E-01 0.12498756E+03</pdfrwt>
<totfact> 0.10366965E+04</totfact>
</mgrwt>
</event>
<event>
 5    1  0.3308162E-002  0.1249983E+03  0.7818608E-02  0.1235072E+00
         -4   -1    0    0    0  501 -0.00000000000E+00  0.00000000000E+00  0.27552333136E+02  0.27581587359E+02  0.12700000000E+01 0.  1.
          4   -1    0    0  501    0  0.00000000000E+00 -0.00000000000E+00 -0.14166441743E+03  0.14167010999E+03  0.12700000000E+01 0.  1.
         25    2    1    2    0    0  0.00000000000E+00  0.00000000000E+00 -0.11411208429E+03  0.16925169735E+03  0.12499827709E+03 0.  0.
    9000005    1    3    3    0    0  0.51301106057E+02  0.35670224957E+02 -0.55719805464E+02  0.83724937457E+02  0.10000000000E+01 0.  0.
    9000005    1    3    3    0    0 -0.51301106057E+02 -0.35670224957E+02 -0.58392278829E+02  0.85526759894E+02  0.10000000000E+01 0.  0.
<mgrwt>
<rscale>  0 0.12499828E+03</rscale>
<asrwt>0</asrwt>
<pdfrwt beam="2">  1        4 0.21797213E-01 0.12499828E+03</pdfrwt>
<pdfrwt beam="1">  1       -4 0.42415088E-02 0.12499828E+03</pdfrwt>
<totfact> 0.95591890E+03</totfact>
</mgrwt>
</event>
<event>
 5    1  0.3308162E-002  0.1250006E+03  0.7818608E-02  0.1235068E+00
         -4   -1    0    0    0  501 -0.00000000000E+00  0.00000000000E+00  0.41306759242E+02  0.41326278070E+02  0.12700000000E+01 0.  1.
          4   -1    0    0  501    0  0.00000000000E+00 -0.00000000000E+00 -0.94521705141E+02  0.94530236658E+02  0.12700000000E+01 0.  1.
         25    2    1    2    0    0  0.00000000000E+00  0.00000000000E+00 -0.53214945898E+02  0.13585651473E+03  0.12500064851E+03 0.  0.
    9000005    1    3    3    0    0  0.12079165596E+01 -0.50422109747E+02  0.13494692619E+02  0.52220254142E+02  0.10000000000E+01 0.  0.
    9000005    1    3    3    0    0 -0.12079165596E+01  0.50422109747E+02 -0.66709638517E+02  0.83636260586E+02  0.10000000000E+01 0.  0.
<mgrwt>
<rscale>  0 0.12500065E+03</rscale>
<asrwt>0</asrwt>
<pdfrwt beam="2">  1        4 0.14543958E-01 0.12500065E+03</pdfrwt>
<pdfrwt beam="1">  1       -4 0.63570438E-02 0.12500065E+03</pdfrwt>
<totfact> 0.10219900E+04</totfact>
</mgrwt>
</event>
