<event>
 5    1  0.3266594E-002  0.1250035E+03  0.7818608E-02  0.1235064E+00
         -4   -1    0    0    0  501 -0.00000000000E+00  0.00000000000E+00  0.78418136833E+02  0.78428420132E+02  0.12700000000E+01 0. -1.
          4   -1    0    0  501    0  0.00000000000E+00 -0.00000000000E+00 -0.49794257168E+02  0.49810450178E+02  0.12700000000E+01 0. -1.
         25    2    1    2    0    0  0.00000000000E+00  0.00000000000E+00  0.28623879665E+02  0.12823887031E+03  0.12500352544E+03 0.  0.
    9000005    1    3    3    0    0  0.26610133419E-01  0.41570840809E+01 -0.49657281737E+02  0.49841024123E+02  0.10000000000E+01 0.  0.
    9000005    1    3    3    0    0 -0.26610133419E-01 -0.41570840809E+01  0.78281161402E+02  0.78397846186E+02  0.10000000000E+01 0.  0.
<mgrwt>
<rscale>  0 0.12500353E+03</rscale>
<asrwt>0</asrwt>
<pdfrwt beam="2">  1        4 0.76626916E-02 0.12500353E+03</pdfrwt>
<pdfrwt beam="1">  1       -4 0.12066365E-01 0.12500353E+03</pdfrwt>
<totfact> 0.10381506E+04</totfact>
</mgrwt>
</event>
<event>
 5    1  0.3266594E-002  0.1250492E+03  0.7818608E-02  0.1234992E+00
         -4   -1    0    0    0  501 -0.00000000000E+00  0.00000000000E+00  0.98386309183E+02  0.98394505612E+02  0.12700000000E+01 0. -1.
          4   -1    0    0  501    0  0.00000000000E+00 -0.00000000000E+00 -0.39714427651E+02  0.39734728685E+02  0.12700000000E+01 0. -1.
         25    2    1    2    0    0  0.00000000000E+00  0.00000000000E+00  0.58671881532E+02  0.13812923430E+03  0.12504917307E+03 0.  0.
    9000005    1    3    3    0    0 -0.54470253102E+02 -0.19127396721E+02  0.55833852561E+02  0.80319890875E+02  0.10000000000E+01 0.  0.
    9000005    1    3    3    0    0  0.54470253102E+02  0.19127396721E+02  0.28380289706E+01  0.57809343421E+02  0.10000000000E+01 0.  0.
<mgrwt>
<rscale>  0 0.12504917E+03</rscale>
<asrwt>0</asrwt>
<pdfrwt beam="2">  1        4 0.61121041E-02 0.12504917E+03</pdfrwt>
<pdfrwt beam="1">  1       -4 0.15138547E-01 0.12504917E+03</pdfrwt>
<totfact> 0.10161243E+04</totfact>
</mgrwt>
</event>
<event>
 5    1  0.3266594E-002  0.1250009E+03  0.7818608E-02  0.1235068E+00
          4   -1    0    0  501    0  0.00000000000E+00  0.00000000000E+00  0.20174190243E+03  0.20174589983E+03  0.12700000000E+01 0.  1.
         -4   -1    0    0    0  501 -0.00000000000E+00 -0.00000000000E+00 -0.19337876532E+02  0.19379534792E+02  0.12700000000E+01 0.  1.
         25    2    1    2    0    0  0.00000000000E+00  0.00000000000E+00  0.18240402590E+03  0.22112543462E+03  0.12500091668E+03 0.  0.
    9000005    1    3    3    0    0  0.23582191510E+02  0.56430642804E+02  0.11390927071E+03  0.12929369342E+03  0.10000000000E+01 0.  0.
    9000005    1    3    3    0    0 -0.23582191510E+02 -0.56430642804E+02  0.68494755190E+02  0.91831741202E+02  0.10000000000E+01 0.  0.
<mgrwt>
<rscale>  0 0.12500092E+03</rscale>
<asrwt>0</asrwt>
<pdfrwt beam="1">  1        4 0.31040726E-01 0.12500092E+03</pdfrwt>
<pdfrwt beam="2">  1       -4 0.29785701E-02 0.12500092E+03</pdfrwt>
<totfact> 0.86688803E+03</totfact>
</mgrwt>
</event>
<event>
 5    1  0.3266594E-002  0.1249993E+03  0.7818608E-02  0.1235070E+00
          4   -1    0    0  501    0  0.00000000000E+00  0.00000000000E+00  0.61213145731E+01  0.62516711448E+01  0.12700000000E+01 0. -1.
         -4   -1    0    0    0  501 -0.00000000000E+00 -0.00000000000E+00 -0.63127741740E+03  0.63127869488E+03  0.12700000000E+01 0. -1.
         25    2    1    2    0    0  0.00000000000E+00  0.00000000000E+00 -0.62515610282E+03  0.63753036603E+03  0.12499925884E+03 0.  0.
    9000005    1    3    3    0    0  0.55061798863E+02 -0.28372318835E+02 -0.35476366468E+03  0.36013198684E+03  0.10000000000E+01 0.  0.
    9000005    1    3    3    0    0 -0.55061798863E+02  0.28372318835E+02 -0.27039243815E+03  0.27739837919E+03  0.10000000000E+01 0.  0.
<mgrwt>
<rscale>  0 0.12499926E+03</rscale>
<asrwt>0</asrwt>
<pdfrwt beam="1">  1        4 0.95186690E-03 0.12499926E+03</pdfrwt>
<pdfrwt beam="2">  1       -4 0.97129677E-01 0.12499926E+03</pdfrwt>
<totfact> 0.46581915E+03</totfact>
</mgrwt>
</event>
<event>
 5    1  0.3266594E-002  0.1249645E+03  0.7818608E-02  0.1235125E+00
          4   -1    0    0  501    0  0.00000000000E+00  0.00000000000E+00  0.10403491971E+02  0.10480722551E+02  0.12700000000E+01 0. -1.
         -4   -1    0    0    0  501 -0.00000000000E+00 -0.00000000000E+00 -0.37379589458E+03  0.37379805203E+03  0.12700000000E+01 0. -1.
         25    2    1    2    0    0  0.00000000000E+00  0.00000000000E+00 -0.36339240260E+03  0.38427877458E+03  0.12496454826E+03 0.  0.
    9000005    1    3    3    0    0 -0.57365182063E+02 -0.23737543141E+02 -0.16021456700E+03  0.17182532569E+03  0.10000000000E+01 0.  0.
    9000005    1    3    3    0    0  0.57365182063E+02  0.23737543141E+02 -0.20317783560E+03  0.21245344889E+03  0.10000000000E+01 0.  0.
<mgrwt>
<rscale>  0 0.12496455E+03</rscale>
<asrwt>0</asrwt>
<pdfrwt beam="1">  1        4 0.16066443E-02 0.12496455E+03</pdfrwt>
<pdfrwt beam="2">  1       -4 0.57513157E-01 0.12496455E+03</pdfrwt>
<totfact> 0.66162898E+03</totfact>
</mgrwt>
</event>
<event>
 5    1  0.3266594E-002  0.1250022E+03  0.7818608E-02  0.1235066E+00
          4   -1    0    0  501    0  0.00000000000E+00  0.00000000000E+00  0.10872200552E+03  0.10872942281E+03  0.12700000000E+01 0.  1.
         -4   -1    0    0    0  501 -0.00000000000E+00 -0.00000000000E+00 -0.35910202446E+02  0.35932652834E+02  0.12700000000E+01 0.  1.
         25    2    1    2    0    0  0.00000000000E+00  0.00000000000E+00  0.72811803075E+02  0.14466207564E+03  0.12500222983E+03 0.  0.
    9000005    1    3    3    0    0 -0.81142790245E+01 -0.23558400636E+02 -0.29918729751E+02  0.38948301048E+02  0.10000000000E+01 0.  0.
    9000005    1    3    3    0    0  0.81142790245E+01  0.23558400636E+02  0.10273053283E+03  0.10571377460E+03  0.10000000000E+01 0.  0.
<mgrwt>
<rscale>  0 0.12500223E+03</rscale>
<asrwt>0</asrwt>
<pdfrwt beam="1">  1        4 0.16728760E-01 0.12500223E+03</pdfrwt>
<pdfrwt beam="2">  1       -4 0.55269441E-02 0.12500223E+03</pdfrwt>
<totfact> 0.10037355E+04</totfact>
</mgrwt>
</event>
<event>
 5    1  0.3266594E-002  0.1250010E+03  0.7818608E-02  0.1235068E+00
         -4   -1    0    0    0  501 -0.00000000000E+00  0.00000000000E+00  0.36526100966E+02  0.36548173030E+02  0.12700000000E+01 0.  1.
          4   -1    0    0  501    0  0.00000000000E+00 -0.00000000000E+00 -0.10688762934E+03  0.10689517391E+03  0.12700000000E+01 0.  1.
         25    2    1    2    0    0  0.00000000000E+00  0.00000000000E+00 -0.70361528373E+02  0.14344334694E+03  0.12500099642E+03 0.  0.
    9000005    1    3    3    0    0 -0.13070751838E+01 -0.55166265543E+02 -0.15227406758E+01  0.55211810681E+02  0.10000000000E+01 0.  0.
    9000005    1    3    3    0    0  0.13070751838E+01  0.55166265543E+02 -0.68838787697E+02  0.88231536262E+02  0.10000000000E+01 0.  0.
<mgrwt>
<rscale>  0 0.12500100E+03</rscale>
<asrwt>0</asrwt>
<pdfrwt beam="2">  1        4 0.16446529E-01 0.12500100E+03</pdfrwt>
<pdfrwt beam="1">  1       -4 0.56216784E-02 0.12500100E+03</pdfrwt>
<totfact> 0.10062487E+04</totfact>
</mgrwt>
</event>
<event>
 5    1  0.3266594E-002  0.1249998E+03  0.7818608E-02  0.1235070E+00
          4   -1    0    0  501    0  0.00000000000E+00  0.00000000000E+00  0.92606218735E+02  0.92614926705E+02  0.12700000000E+01 0.  1.
         -4   -1    0    0    0  501 -0.00000000000E+00 -0.00000000000E+00 -0.42160920344E+02  0.42180043910E+02  0.12700000000E+01 0.  1.
         25    2    1    2    0    0  0.00000000000E+00  0.00000000000E+00  0.50445298392E+02  0.13479497061E+03  0.12499982389E+03 0.  0.
    9000005    1    3    3    0    0  0.60499886586E+02  0.15297118527E+02  0.21645986179E+02  0.66058964795E+02  0.10000000000E+01 0.  0.
    9000005    1    3    3    0    0 -0.60499886586E+02 -0.15297118527E+02  0.28799312213E+02  0.68736005820E+02  0.10000000000E+01 0.  0.
<mgrwt>
<rscale>  0 0.12499982E+03</rscale>
<asrwt>0</asrwt>
<pdfrwt beam="1">  1        4 0.14249251E-01 0.12499982E+03</pdfrwt>
<pdfrwt beam="2">  1       -4 0.64884364E-02 0.12499982E+03</pdfrwt>
<totfact> 0.10242435E+04</totfact>
</mgrwt>
</event>
<event>
 5    1  0.3266594E-002  0.1249969E+03  0.7818608E-02  0.1235074E+00
         -4   -1    0    0    0  501 -0.00000000000E+00  0.00000000000E+00  0.32798081034E+02  0.32822660153E+02  0.12700000000E+01 0. -1.
          4   -1    0    0  501    0  0.00000000000E+00 -0.00000000000E+00 -0.11902138787E+03  0.11902816335E+03  0.12700000000E+01 0. -1.
         25    2    1    2    0    0  0.00000000000E+00  0.00000000000E+00 -0.86223306834E+02  0.15185082350E+03  0.12499685579E+03 0.  0.
    9000005    1    3    3    0    0  0.19824003588E+02 -0.16466820547E+02  0.26047758710E+02  0.36655600268E+02  0.10000000000E+01 0.  0.
    9000005    1    3    3    0    0 -0.19824003588E+02  0.16466820547E+02 -0.11227106554E+03  0.11519522323E+03  0.10000000000E+01 0.  0.
<mgrwt>
<rscale>  0 0.12499686E+03</rscale>
<asrwt>0</asrwt>
<pdfrwt beam="2">  1        4 0.18313394E-01 0.12499686E+03</pdfrwt>
<pdfrwt beam="1">  1       -4 0.50482706E-02 0.12499686E+03</pdfrwt>
<totfact> 0.98943036E+03</totfact>
</mgrwt>
</event>
<event>
 5    1  0.3266594E-002  0.1250016E+03  0.7818608E-02  0.1235067E+00
          4   -1    0    0  501    0  0.00000000000E+00  0.00000000000E+00  0.33618867610E+03  0.33619107489E+03  0.12700000000E+01 0. -1.
         -4   -1    0    0    0  501 -0.00000000000E+00 -0.00000000000E+00 -0.11582374603E+02  0.11651793915E+02  0.12700000000E+01 0. -1.
         25    2    1    2    0    0  0.00000000000E+00  0.00000000000E+00  0.32460630149E+03  0.34784286881E+03  0.12500164163E+03 0.  0.
    9000005    1    3    3    0    0  0.44077480511E+02 -0.12990056370E+02  0.28015944826E+03  0.28390470637E+03  0.10000000000E+01 0.  0.
    9000005    1    3    3    0    0 -0.44077480511E+02  0.12990056370E+02  0.44446853238E+02  0.63938162434E+02  0.10000000000E+01 0.  0.
<mgrwt>
<rscale>  0 0.12500164E+03</rscale>
<asrwt>0</asrwt>
<pdfrwt beam="1">  1        4 0.51726857E-01 0.12500164E+03</pdfrwt>
<pdfrwt beam="2">  1       -4 0.17874283E-02 0.12500164E+03</pdfrwt>
<totfact> 0.69959978E+03</totfact>
</mgrwt>
</event>
<event>
 5    1  0.3266594E-002  0.1250004E+03  0.7818608E-02  0.1235069E+00
         -4   -1    0    0    0  501 -0.00000000000E+00  0.00000000000E+00  0.15502562173E+02  0.15554495617E+02  0.12700000000E+01 0.  1.
          4   -1    0    0  501    0  0.00000000000E+00 -0.00000000000E+00 -0.25150108642E+03  0.25150429294E+03  0.12700000000E+01 0.  1.
         25    2    1    2    0    0  0.00000000000E+00  0.00000000000E+00 -0.23599852425E+03  0.26705878856E+03  0.12500037241E+03 0.  0.
    9000005    1    3    3    0    0  0.19741956551E+02 -0.55642935462E+02 -0.16175204906E+03  0.17219351466E+03  0.10000000000E+01 0.  0.
    9000005    1    3    3    0    0 -0.19741956551E+02  0.55642935462E+02 -0.74246475186E+02  0.94865273904E+02  0.10000000000E+01 0.  0.
<mgrwt>
<rscale>  0 0.12500037E+03</rscale>
<asrwt>0</asrwt>
<pdfrwt beam="2">  1        4 0.38696713E-01 0.12500037E+03</pdfrwt>
<pdfrwt beam="1">  1       -4 0.23892513E-02 0.12500037E+03</pdfrwt>
<totfact> 0.79924892E+03</totfact>
</mgrwt>
</event>
<event>
 5    1  0.3266594E-002  0.1250023E+03  0.7818608E-02  0.1235066E+00
         -4   -1    0    0    0  501 -0.00000000000E+00  0.00000000000E+00  0.75763807591E+01  0.76820860062E+01  0.12700000000E+01 0.  1.
          4   -1    0    0  501    0  0.00000000000E+00 -0.00000000000E+00 -0.51192350513E+03  0.51192508046E+03  0.12700000000E+01 0.  1.
         25    2    1    2    0    0  0.00000000000E+00  0.00000000000E+00 -0.50434712437E+03  0.51960716647E+03  0.12500234231E+03 0.  0.
    9000005    1    3    3    0    0 -0.44592593021E+02  0.32107874435E+02 -0.12844519148E+03  0.13970891943E+03  0.10000000000E+01 0.  0.
    9000005    1    3    3    0    0  0.44592593021E+02 -0.32107874435E+02 -0.37590193289E+03  0.37989824704E+03  0.10000000000E+01 0.  0.
<mgrwt>
<rscale>  0 0.12500234E+03</rscale>
<asrwt>0</asrwt>
<pdfrwt beam="2">  1        4 0.78765688E-01 0.12500234E+03</pdfrwt>
<pdfrwt beam="1">  1       -4 0.11738498E-02 0.12500234E+03</pdfrwt>
<totfact> 0.54371762E+03</totfact>
</mgrwt>
</event>
<event>
 5    1  0.3266594E-002  0.1250005E+03  0.7818608E-02  0.1235068E+00
          4   -1    0    0  501    0  0.00000000000E+00  0.00000000000E+00  0.54700626227E+02  0.54715367217E+02  0.12700000000E+01 0. -1.
         -4   -1    0    0    0  501 -0.00000000000E+00 -0.00000000000E+00 -0.71382026479E+02  0.71393323247E+02  0.12700000000E+01 0. -1.
         25    2    1    2    0    0  0.00000000000E+00  0.00000000000E+00 -0.16681400252E+02  0.12610869046E+03  0.12500053078E+03 0.  0.
    9000005    1    3    3    0    0  0.12354656117E+02 -0.31736445976E+02  0.44520792918E+02  0.56061934795E+02  0.10000000000E+01 0.  0.
    9000005    1    3    3    0    0 -0.12354656117E+02  0.31736445976E+02 -0.61202193170E+02  0.70046755669E+02  0.10000000000E+01 0.  0.
<mgrwt>
<rscale>  0 0.12500053E+03</rscale>
<asrwt>0</asrwt>
<pdfrwt beam="1">  1        4 0.84174839E-02 0.12500053E+03</pdfrwt>
<pdfrwt beam="2">  1       -4 0.10983853E-01 0.12500053E+03</pdfrwt>
<totfact> 0.10428452E+04</totfact>
</mgrwt>
</event>
<event>
 5    1  0.3266594E-002  0.1249862E+03  0.7818608E-02  0.1235091E+00
         -4   -1    0    0    0  501 -0.00000000000E+00  0.00000000000E+00  0.19302974960E+02  0.19344708380E+02  0.12700000000E+01 0.  1.
          4   -1    0    0  501    0  0.00000000000E+00 -0.00000000000E+00 -0.20205829695E+03  0.20206228808E+03  0.12700000000E+01 0.  1.
         25    2    1    2    0    0  0.00000000000E+00  0.00000000000E+00 -0.18275532199E+03  0.22140699646E+03  0.12498620071E+03 0.  0.
    9000005    1    3    3    0    0  0.49398780173E+02 -0.31418548701E+02 -0.13006767537E+03  0.14263928232E+03  0.10000000000E+01 0.  0.
    9000005    1    3    3    0    0 -0.49398780173E+02  0.31418548701E+02 -0.52687646617E+02  0.78767714142E+02  0.10000000000E+01 0.  0.
<mgrwt>
<rscale>  0 0.12498620E+03</rscale>
<asrwt>0</asrwt>
<pdfrwt beam="2">  1        4 0.31089408E-01 0.12498620E+03</pdfrwt>
<pdfrwt beam="1">  1       -4 0.29732059E-02 0.12498620E+03</pdfrwt>
<totfact> 0.86672909E+03</totfact>
</mgrwt>
</event>
<event>
 5    1  0.3266594E-002  0.1249734E+03  0.7818608E-02  0.1235111E+00
          4   -1    0    0  501    0  0.00000000000E+00  0.00000000000E+00  0.16391374765E+03  0.16391866754E+03  0.12700000000E+01 0. -1.
         -4   -1    0    0    0  501 -0.00000000000E+00 -0.00000000000E+00 -0.23798791367E+02  0.23832653452E+02  0.12700000000E+01 0. -1.
         25    2    1    2    0    0  0.00000000000E+00  0.00000000000E+00  0.14011495628E+03  0.18775132099E+03  0.12497342742E+03 0.  0.
    9000005    1    3    3    0    0 -0.51711051540E+02  0.30918824519E+02  0.94906525212E+02  0.11241999417E+03  0.10000000000E+01 0.  0.
    9000005    1    3    3    0    0  0.51711051540E+02 -0.30918824519E+02  0.45208431066E+02  0.75331326820E+02  0.10000000000E+01 0.  0.
<mgrwt>
<rscale>  0 0.12497343E+03</rscale>
<asrwt>0</asrwt>
<pdfrwt beam="1">  1        4 0.25220483E-01 0.12497343E+03</pdfrwt>
<pdfrwt beam="2">  1       -4 0.36643358E-02 0.12497343E+03</pdfrwt>
<totfact> 0.92294992E+03</totfact>
</mgrwt>
</event>
<event>
 5    1  0.3266594E-002  0.1250003E+03  0.7818608E-02  0.1235069E+00
          4   -1    0    0  501    0  0.00000000000E+00  0.00000000000E+00  0.48200008931E+02  0.48216737353E+02  0.12700000000E+01 0. -1.
         -4   -1    0    0    0  501 -0.00000000000E+00 -0.00000000000E+00 -0.81007163849E+02  0.81017118529E+02  0.12700000000E+01 0. -1.
         25    2    1    2    0    0  0.00000000000E+00  0.00000000000E+00 -0.32807154918E+02  0.12923385588E+03  0.12500032037E+03 0.  0.
    9000005    1    3    3    0    0 -0.55226354062E+02 -0.18763968183E+02  0.67890460719E+01  0.58729275762E+02  0.10000000000E+01 0.  0.
    9000005    1    3    3    0    0  0.55226354062E+02  0.18763968183E+02 -0.39596200990E+02  0.70504580120E+02  0.10000000000E+01 0.  0.
<mgrwt>
<rscale>  0 0.12500032E+03</rscale>
<asrwt>0</asrwt>
<pdfrwt beam="1">  1        4 0.74174385E-02 0.12500032E+03</pdfrwt>
<pdfrwt beam="2">  1       -4 0.12464693E-01 0.12500032E+03</pdfrwt>
<totfact> 0.10360849E+04</totfact>
</mgrwt>
</event>
<event>
 5    1  0.3266594E-002  0.1250005E+03  0.7818608E-02  0.1235069E+00
          4   -1    0    0  501    0  0.00000000000E+00  0.00000000000E+00  0.93992780264E+02  0.94001359786E+02  0.12700000000E+01 0. -1.
         -4   -1    0    0    0  501 -0.00000000000E+00 -0.00000000000E+00 -0.41539165324E+02  0.41558574997E+02  0.12700000000E+01 0. -1.
         25    2    1    2    0    0  0.00000000000E+00  0.00000000000E+00  0.52453614940E+02  0.13555993478E+03  0.12500045679E+03 0.  0.
    9000005    1    3    3    0    0  0.17371697683E+02  0.59737629773E+02  0.19818460206E+02  0.65300318960E+02  0.10000000000E+01 0.  0.
    9000005    1    3    3    0    0 -0.17371697683E+02 -0.59737629773E+02  0.32635154734E+02  0.70259615824E+02  0.10000000000E+01 0.  0.
<mgrwt>
<rscale>  0 0.12500046E+03</rscale>
<asrwt>0</asrwt>
<pdfrwt beam="1">  1        4 0.14462581E-01 0.12500046E+03</pdfrwt>
<pdfrwt beam="2">  1       -4 0.63927939E-02 0.12500046E+03</pdfrwt>
<totfact> 0.10226177E+04</totfact>
</mgrwt>
</event>
<event>
 5    1  0.3266594E-002  0.1250000E+03  0.7818608E-02  0.1235069E+00
         -4   -1    0    0    0  501 -0.00000000000E+00  0.00000000000E+00  0.82147424506E+02  0.82157241026E+02  0.12700000000E+01 0. -1.
          4   -1    0    0  501    0  0.00000000000E+00 -0.00000000000E+00 -0.47530530287E+02  0.47547494249E+02  0.12700000000E+01 0. -1.
         25    2    1    2    0    0  0.00000000000E+00  0.00000000000E+00  0.34616894219E+02  0.12970473528E+03  0.12499995595E+03 0.  0.
    9000005    1    3    3    0    0  0.36398666447E+02 -0.48678822676E+02  0.22445787181E+01  0.60831972102E+02  0.10000000000E+01 0.  0.
    9000005    1    3    3    0    0 -0.36398666447E+02  0.48678822676E+02  0.32372315501E+02  0.68872763173E+02  0.10000000000E+01 0.  0.
<mgrwt>
<rscale>  0 0.12499996E+03</rscale>
<asrwt>0</asrwt>
<pdfrwt beam="2">  1        4 0.73144494E-02 0.12499996E+03</pdfrwt>
<pdfrwt beam="1">  1       -4 0.12640125E-01 0.12499996E+03</pdfrwt>
<totfact> 0.10350838E+04</totfact>
</mgrwt>
</event>
<event>
 5    1  0.3266594E-002  0.1250295E+03  0.7818608E-02  0.1235023E+00
          4   -1    0    0  501    0  0.00000000000E+00  0.00000000000E+00  0.81293950741E+02  0.81303870309E+02  0.12700000000E+01 0.  1.
         -4   -1    0    0    0  501 -0.00000000000E+00 -0.00000000000E+00 -0.48052391681E+02  0.48069171475E+02  0.12700000000E+01 0.  1.
         25    2    1    2    0    0  0.00000000000E+00  0.00000000000E+00  0.33241559061E+02  0.12937304178E+03  0.12502952728E+03 0.  0.
    9000005    1    3    3    0    0  0.49703798880E+02 -0.69456085573E+01  0.55176285106E+02  0.74593106514E+02  0.10000000000E+01 0.  0.
    9000005    1    3    3    0    0 -0.49703798880E+02  0.69456085573E+01 -0.21934726046E+02  0.54779935269E+02  0.10000000000E+01 0.  0.
<mgrwt>
<rscale>  0 0.12502953E+03</rscale>
<asrwt>0</asrwt>
<pdfrwt beam="1">  1        4 0.12508815E-01 0.12502953E+03</pdfrwt>
<pdfrwt beam="2">  1       -4 0.73947296E-02 0.12502953E+03</pdfrwt>
<totfact> 0.10351037E+04</totfact>
</mgrwt>
</event>
<event>
 5    1  0.3266594E-002  0.1250005E+03  0.7818608E-02  0.1235069E+00
          4   -1    0    0  501    0  0.00000000000E+00  0.00000000000E+00  0.78847186891E+01  0.79863438948E+01  0.12700000000E+01 0. -1.
         -4   -1    0    0    0  501 -0.00000000000E+00 -0.00000000000E+00 -0.49214943337E+03  0.49215107199E+03  0.12700000000E+01 0. -1.
         25    2    1    2    0    0  0.00000000000E+00  0.00000000000E+00 -0.48426471468E+03  0.50013741589E+03  0.12500048355E+03 0.  0.
    9000005    1    3    3    0    0  0.56016618168E+02 -0.21300921707E+02 -0.31299667441E+03  0.31868402685E+03  0.10000000000E+01 0.  0.
    9000005    1    3    3    0    0 -0.56016618168E+02  0.21300921707E+02 -0.17126804027E+03  0.18145338904E+03  0.10000000000E+01 0.  0.
<mgrwt>
<rscale>  0 0.12500048E+03</rscale>
<asrwt>0</asrwt>
<pdfrwt beam="1">  1        4 0.12209774E-02 0.12500048E+03</pdfrwt>
<pdfrwt beam="2">  1       -4 0.75723217E-01 0.12500048E+03</pdfrwt>
<totfact> 0.55853123E+03</totfact>
</mgrwt>
</event>
<event>
 5    1  0.3266594E-002  0.1250015E+03  0.7818608E-02  0.1235067E+00
         -4   -1    0    0    0  501 -0.00000000000E+00  0.00000000000E+00  0.21959991403E+02  0.21996684351E+02  0.12700000000E+01 0. -1.
          4   -1    0    0  501    0  0.00000000000E+00 -0.00000000000E+00 -0.17769708087E+03  0.17770161915E+03  0.12700000000E+01 0. -1.
         25    2    1    2    0    0  0.00000000000E+00  0.00000000000E+00 -0.15573708946E+03  0.19969830350E+03  0.12500148554E+03 0.  0.
    9000005    1    3    3    0    0  0.56544013465E+02  0.25700204002E+02 -0.66844530375E+02  0.91251943462E+02  0.10000000000E+01 0.  0.
    9000005    1    3    3    0    0 -0.56544013465E+02 -0.25700204002E+02 -0.88892559088E+02  0.10844636004E+03  0.10000000000E+01 0.  0.
<mgrwt>
<rscale>  0 0.12500149E+03</rscale>
<asrwt>0</asrwt>
<pdfrwt beam="2">  1        4 0.27341183E-01 0.12500149E+03</pdfrwt>
<pdfrwt beam="1">  1       -4 0.33816320E-02 0.12500149E+03</pdfrwt>
<totfact> 0.90183417E+03</totfact>
</mgrwt>
</event>
<event>
 5    1  0.3266594E-002  0.1249995E+03  0.7818608E-02  0.1235070E+00
          4   -1    0    0  501    0  0.00000000000E+00  0.00000000000E+00  0.13341273134E+01  0.18419543123E+01  0.12700000000E+01 0. -1.
         -4   -1    0    0    0  501 -0.00000000000E+00 -0.00000000000E+00 -0.24592653339E+04  0.24592656618E+04  0.12700000000E+01 0. -1.
         25    2    1    2    0    0  0.00000000000E+00  0.00000000000E+00 -0.24579312066E+04  0.24611076161E+04  0.12499952755E+03 0.  0.
    9000005    1    3    3    0    0 -0.36970150544E+02 -0.22656258271E+02 -0.21149944708E+04  0.21154391292E+04  0.10000000000E+01 0.  0.
    9000005    1    3    3    0    0  0.36970150544E+02  0.22656258271E+02 -0.34293673581E+03  0.34566848691E+03  0.10000000000E+01 0.  0.
<mgrwt>
<rscale>  0 0.12499953E+03</rscale>
<asrwt>0</asrwt>
<pdfrwt beam="1">  1        4 0.24434116E-03 0.12499953E+03</pdfrwt>
<pdfrwt beam="2">  1       -4 0.37838455E+00 0.12499953E+03</pdfrwt>
<totfact> 0.49823800E+02</totfact>
</mgrwt>
</event>
<event>
 5    1  0.3266594E-002  0.1250092E+03  0.7818608E-02  0.1235055E+00
          4   -1    0    0  501    0  0.00000000000E+00  0.00000000000E+00  0.15050417106E+02  0.15103905292E+02  0.12700000000E+01 0.  1.
         -4   -1    0    0    0  501 -0.00000000000E+00 -0.00000000000E+00 -0.25906706614E+03  0.25907017902E+03  0.12700000000E+01 0.  1.
         25    2    1    2    0    0  0.00000000000E+00  0.00000000000E+00 -0.24401664903E+03  0.27417408431E+03  0.12500921367E+03 0.  0.
    9000005    1    3    3    0    0 -0.49718935333E+02 -0.26289801961E+02 -0.62237260052E+02  0.83890421125E+02  0.10000000000E+01 0.  0.
    9000005    1    3    3    0    0  0.49718935333E+02  0.26289801961E+02 -0.18177938898E+03  0.19028366319E+03  0.10000000000E+01 0.  0.
<mgrwt>
<rscale>  0 0.12500921E+03</rscale>
<asrwt>0</asrwt>
<pdfrwt beam="1">  1        4 0.23198029E-02 0.12500921E+03</pdfrwt>
<pdfrwt beam="2">  1       -4 0.39860822E-01 0.12500921E+03</pdfrwt>
<totfact> 0.78940802E+03</totfact>
</mgrwt>
</event>
<event>
 5    1  0.3266594E-002  0.1250077E+03  0.7818608E-02  0.1235057E+00
          4   -1    0    0  501    0  0.00000000000E+00  0.00000000000E+00  0.22681506735E+02  0.22717034308E+02  0.12700000000E+01 0.  1.
         -4   -1    0    0    0  501 -0.00000000000E+00 -0.00000000000E+00 -0.17207037467E+03  0.17207506135E+03  0.12700000000E+01 0.  1.
         25    2    1    2    0    0  0.00000000000E+00  0.00000000000E+00 -0.14938886794E+03  0.19479209566E+03  0.12500770644E+03 0.  0.
    9000005    1    3    3    0    0  0.24356580625E+02  0.40559225778E+02 -0.13832406001E+03  0.14619452587E+03  0.10000000000E+01 0.  0.
    9000005    1    3    3    0    0 -0.24356580625E+02 -0.40559225778E+02 -0.11064807925E+02  0.48597569794E+02  0.10000000000E+01 0.  0.
<mgrwt>
<rscale>  0 0.12500771E+03</rscale>
<asrwt>0</asrwt>
<pdfrwt beam="1">  1        4 0.34925561E-02 0.12500771E+03</pdfrwt>
<pdfrwt beam="2">  1       -4 0.26475458E-01 0.12500771E+03</pdfrwt>
<totfact> 0.91004424E+03</totfact>
</mgrwt>
</event>
<event>
 5    1  0.3266594E-002  0.1250133E+03  0.7818608E-02  0.1235048E+00
          4   -1    0    0  501    0  0.00000000000E+00  0.00000000000E+00  0.19165831993E+01  0.22991718421E+01  0.12700000000E+01 0.  1.
         -4   -1    0    0    0  501 -0.00000000000E+00 -0.00000000000E+00 -0.18531796972E+04  0.18531801324E+04  0.12700000000E+01 0.  1.
         25    2    1    2    0    0  0.00000000000E+00  0.00000000000E+00 -0.18512631140E+04  0.18554793042E+04  0.12501332370E+03 0.  0.
    9000005    1    3    3    0    0 -0.22176341860E+02  0.35967078854E+02 -0.24213626519E+03  0.24579746097E+03  0.10000000000E+01 0.  0.
    9000005    1    3    3    0    0  0.22176341860E+02 -0.35967078854E+02 -0.16091268488E+04  0.16096818433E+04  0.10000000000E+01 0.  0.
<mgrwt>
<rscale>  0 0.12501332E+03</rscale>
<asrwt>0</asrwt>
<pdfrwt beam="1">  1        4 0.32432381E-03 0.12501332E+03</pdfrwt>
<pdfrwt beam="2">  1       -4 0.28513273E+00 0.12501332E+03</pdfrwt>
<totfact> 0.11864405E+03</totfact>
</mgrwt>
</event>
<event>
 5    1  0.3266594E-002  0.1250008E+03  0.7818608E-02  0.1235068E+00
          4   -1    0    0  501    0  0.00000000000E+00  0.00000000000E+00  0.49845653342E+02  0.49861829660E+02  0.12700000000E+01 0.  1.
         -4   -1    0    0    0  501 -0.00000000000E+00 -0.00000000000E+00 -0.78333832191E+02  0.78344126556E+02  0.12700000000E+01 0.  1.
         25    2    1    2    0    0  0.00000000000E+00  0.00000000000E+00 -0.28488178849E+02  0.12820595622E+03  0.12500076350E+03 0.  0.
    9000005    1    3    3    0    0 -0.85526490037E+01  0.19476092106E+02  0.46023420043E+02  0.50711154208E+02  0.10000000000E+01 0.  0.
    9000005    1    3    3    0    0  0.85526490037E+01 -0.19476092106E+02 -0.74511598892E+02  0.77494802007E+02  0.10000000000E+01 0.  0.
<mgrwt>
<rscale>  0 0.12500076E+03</rscale>
<asrwt>0</asrwt>
<pdfrwt beam="1">  1        4 0.76705983E-02 0.12500076E+03</pdfrwt>
<pdfrwt beam="2">  1       -4 0.12053395E-01 0.12500076E+03</pdfrwt>
<totfact> 0.10382863E+04</totfact>
</mgrwt>
</event>
<event>
 5    1  0.3266594E-002  0.1250020E+03  0.7818608E-02  0.1235066E+00
         -4   -1    0    0    0  501 -0.00000000000E+00  0.00000000000E+00  0.17398411412E+03  0.17398874925E+03  0.12700000000E+01 0. -1.
          4   -1    0    0  501    0  0.00000000000E+00 -0.00000000000E+00 -0.22429568179E+02  0.22465494179E+02  0.12700000000E+01 0. -1.
         25    2    1    2    0    0  0.00000000000E+00  0.00000000000E+00  0.15155454594E+03  0.19645424343E+03  0.12500195745E+03 0.  0.
    9000005    1    3    3    0    0 -0.35092071406E+02  0.41702045069E+02  0.12382993979E+03  0.13529733192E+03  0.10000000000E+01 0.  0.
    9000005    1    3    3    0    0  0.35092071406E+02 -0.41702045069E+02  0.27724606154E+02  0.61156911506E+02  0.10000000000E+01 0.  0.
<mgrwt>
<rscale>  0 0.12500196E+03</rscale>
<asrwt>0</asrwt>
<pdfrwt beam="2">  1        4 0.34538229E-02 0.12500196E+03</pdfrwt>
<pdfrwt beam="1">  1       -4 0.26769907E-01 0.12500196E+03</pdfrwt>
<totfact> 0.90732291E+03</totfact>
</mgrwt>
</event>
<event>
 4    1  0.3266594E-002  0.1252040E+03  0.7818608E-02  0.1234751E+00
          4   -1    0    0  501    0  0.00000000000E+00  0.00000000000E+00  0.61237941443E+01  0.62540990336E+01  0.12700000000E+01 0. -1.
         -4   -1    0    0    0  501 -0.00000000000E+00 -0.00000000000E+00 -0.63309605787E+03  0.63309733169E+03  0.12700000000E+01 0. -1.
    9000005    1    1    2    0    0  0.58753465690E+02  0.21579750282E+02 -0.31045317414E+03  0.31670148198E+03  0.10000000000E+01 0.  0.
    9000005    1    1    2    0    0 -0.58753465690E+02 -0.21579750282E+02 -0.31651908959E+03  0.32264994875E+03  0.10000000000E+01 0.  0.
<mgrwt>
<rscale>  0 0.12520396E+03</rscale>
<asrwt>0</asrwt>
<pdfrwt beam="1">  1        4 0.95224412E-03 0.12520396E+03</pdfrwt>
<pdfrwt beam="2">  1       -4 0.97409464E-01 0.12520396E+03</pdfrwt>
<totfact> 0.46267210E+03</totfact>
</mgrwt>
</event>
<event>
 5    1  0.3266594E-002  0.1249997E+03  0.7818608E-02  0.1235070E+00
         -4   -1    0    0    0  501 -0.00000000000E+00  0.00000000000E+00  0.55902641066E+03  0.55902785325E+03  0.12700000000E+01 0.  1.
          4   -1    0    0  501    0  0.00000000000E+00 -0.00000000000E+00 -0.69283927462E+01  0.70438289336E+01  0.12700000000E+01 0.  1.
         25    2    1    2    0    0  0.00000000000E+00  0.00000000000E+00  0.55209801791E+03  0.56607168219E+03  0.12499971197E+03 0.  0.
    9000005    1    3    3    0    0  0.51955928632E+02 -0.29269711980E+02  0.19143627097E+03  0.20051179617E+03  0.10000000000E+01 0.  0.
    9000005    1    3    3    0    0 -0.51955928632E+02  0.29269711980E+02  0.36066174694E+03  0.36555988602E+03  0.10000000000E+01 0.  0.
<mgrwt>
<rscale>  0 0.12499971E+03</rscale>
<asrwt>0</asrwt>
<pdfrwt beam="2">  1        4 0.10748973E-02 0.12499971E+03</pdfrwt>
<pdfrwt beam="1">  1       -4 0.86013049E-01 0.12499971E+03</pdfrwt>
<totfact> 0.51082101E+03</totfact>
</mgrwt>
</event>
<event>
 5    1  0.3266594E-002  0.1249960E+03  0.7818608E-02  0.1235076E+00
         -4   -1    0    0    0  501 -0.00000000000E+00  0.00000000000E+00  0.97390212020E+02  0.97398492275E+02  0.12700000000E+01 0.  1.
          4   -1    0    0  501    0  0.00000000000E+00 -0.00000000000E+00 -0.40086634088E+02  0.40106746720E+02  0.12700000000E+01 0.  1.
         25    2    1    2    0    0  0.00000000000E+00  0.00000000000E+00  0.57303577933E+02  0.13750523899E+03  0.12499596276E+03 0.  0.
    9000005    1    3    3    0    0 -0.51296657060E+02  0.33160742222E+02  0.43163466975E+02  0.74800178687E+02  0.10000000000E+01 0.  0.
    9000005    1    3    3    0    0  0.51296657060E+02 -0.33160742222E+02  0.14140110958E+02  0.62705060308E+02  0.10000000000E+01 0.  0.
<mgrwt>
<rscale>  0 0.12499596E+03</rscale>
<asrwt>0</asrwt>
<pdfrwt beam="2">  1        4 0.61693586E-02 0.12499596E+03</pdfrwt>
<pdfrwt beam="1">  1       -4 0.14985293E-01 0.12499596E+03</pdfrwt>
<totfact> 0.10186460E+04</totfact>
</mgrwt>
</event>
<event>
 5    1  0.3266594E-002  0.1250008E+03  0.7818608E-02  0.1235068E+00
         -4   -1    0    0    0  501 -0.00000000000E+00  0.00000000000E+00  0.62974137122E+02  0.62986941871E+02  0.12700000000E+01 0. -1.
          4   -1    0    0  501    0  0.00000000000E+00 -0.00000000000E+00 -0.62004586864E+02  0.62017591796E+02  0.12700000000E+01 0. -1.
         25    2    1    2    0    0  0.00000000000E+00  0.00000000000E+00  0.96955025829E+00  0.12500453367E+03  0.12500077364E+03 0.  0.
    9000005    1    3    3    0    0  0.23648280692E+02 -0.54397372208E+02 -0.19187701859E+02  0.62349684726E+02  0.10000000000E+01 0.  0.
    9000005    1    3    3    0    0 -0.23648280692E+02  0.54397372208E+02  0.20157252117E+02  0.62654848941E+02  0.10000000000E+01 0.  0.
<mgrwt>
<rscale>  0 0.12500077E+03</rscale>
<asrwt>0</asrwt>
<pdfrwt beam="2">  1        4 0.95411525E-02 0.12500077E+03</pdfrwt>
<pdfrwt beam="1">  1       -4 0.96903142E-02 0.12500077E+03</pdfrwt>
<totfact> 0.10452581E+04</totfact>
</mgrwt>
</event>
<event>
 5    1  0.3266594E-002  0.1250010E+03  0.7818608E-02  0.1235068E+00
         -4   -1    0    0    0  501 -0.00000000000E+00  0.00000000000E+00  0.53874956106E+03  0.53875105795E+03  0.12700000000E+01 0. -1.
          4   -1    0    0  501    0  0.00000000000E+00 -0.00000000000E+00 -0.71935750558E+01  0.73048218379E+01  0.12700000000E+01 0. -1.
         25    2    1    2    0    0  0.00000000000E+00  0.00000000000E+00  0.53155598601E+03  0.54605587979E+03  0.12500103037E+03 0.  0.
    9000005    1    3    3    0    0 -0.60495516083E+02  0.11894805746E+02  0.31035302639E+03  0.31641933389E+03  0.10000000000E+01 0.  0.
    9000005    1    3    3    0    0  0.60495516083E+02 -0.11894805746E+02  0.22120295962E+03  0.22963654590E+03  0.10000000000E+01 0.  0.
<mgrwt>
<rscale>  0 0.12500103E+03</rscale>
<asrwt>0</asrwt>
<pdfrwt beam="2">  1        4 0.11153764E-02 0.12500103E+03</pdfrwt>
<pdfrwt beam="1">  1       -4 0.82893221E-01 0.12500103E+03</pdfrwt>
<totfact> 0.52458879E+03</totfact>
</mgrwt>
</event>
<event>
 5    1  0.3266594E-002  0.1250018E+03  0.7818608E-02  0.1235066E+00
          4   -1    0    0  501    0  0.00000000000E+00  0.00000000000E+00  0.51920639912E+01  0.53451312883E+01  0.12700000000E+01 0.  1.
         -4   -1    0    0    0  501 -0.00000000000E+00 -0.00000000000E+00 -0.74128929213E+03  0.74129038003E+03  0.12700000000E+01 0.  1.
         25    2    1    2    0    0  0.00000000000E+00  0.00000000000E+00 -0.73609722814E+03  0.74663551132E+03  0.12500182994E+03 0.  0.
    9000005    1    3    3    0    0 -0.11682082204E+02  0.61093375666E+02 -0.33196618797E+03  0.33774460995E+03  0.10000000000E+01 0.  0.
    9000005    1    3    3    0    0  0.11682082204E+02 -0.61093375666E+02 -0.40413104017E+03  0.40889090137E+03  0.10000000000E+01 0.  0.
<mgrwt>
<rscale>  0 0.12500183E+03</rscale>
<asrwt>0</asrwt>
<pdfrwt beam="1">  1        4 0.81063775E-03 0.12500183E+03</pdfrwt>
<pdfrwt beam="2">  1       -4 0.11405628E+00 0.12500183E+03</pdfrwt>
<totfact> 0.40733972E+03</totfact>
</mgrwt>
</event>
<event>
 5    1  0.3266594E-002  0.1249633E+03  0.7818608E-02  0.1235127E+00
          4   -1    0    0  501    0  0.00000000000E+00  0.00000000000E+00  0.60724870598E+02  0.60738149536E+02  0.12700000000E+01 0. -1.
         -4   -1    0    0    0  501 -0.00000000000E+00 -0.00000000000E+00 -0.64262684980E+02  0.64275233028E+02  0.12700000000E+01 0. -1.
         25    2    1    2    0    0  0.00000000000E+00  0.00000000000E+00 -0.35378143821E+01  0.12501338256E+03  0.12496331337E+03 0.  0.
    9000005    1    3    3    0    0  0.67375832377E+01  0.44527197359E+02  0.41548454458E+02  0.61280832243E+02  0.10000000000E+01 0.  0.
    9000005    1    3    3    0    0 -0.67375832377E+01 -0.44527197359E+02 -0.45086268840E+02  0.63732550321E+02  0.10000000000E+01 0.  0.
<mgrwt>
<rscale>  0 0.12496331E+03</rscale>
<asrwt>0</asrwt>
<pdfrwt beam="1">  1        4 0.93442745E-02 0.12496331E+03</pdfrwt>
<pdfrwt beam="2">  1       -4 0.98885536E-02 0.12496331E+03</pdfrwt>
<totfact> 0.10461243E+04</totfact>
</mgrwt>
</event>
<event>
 5    1  0.3266594E-002  0.1249996E+03  0.7818608E-02  0.1235070E+00
         -4   -1    0    0    0  501 -0.00000000000E+00  0.00000000000E+00  0.78203618953E+02  0.78213930456E+02  0.12700000000E+01 0.  1.
          4   -1    0    0  501    0  0.00000000000E+00 -0.00000000000E+00 -0.49927731260E+02  0.49943880995E+02  0.12700000000E+01 0.  1.
         25    2    1    2    0    0  0.00000000000E+00  0.00000000000E+00  0.28275887692E+02  0.12815781145E+03  0.12499959524E+03 0.  0.
    9000005    1    3    3    0    0 -0.10942856408E+02 -0.47433112394E+02 -0.26038591217E+02  0.55214622070E+02  0.10000000000E+01 0.  0.
    9000005    1    3    3    0    0  0.10942856408E+02  0.47433112394E+02  0.54314478909E+02  0.72943189380E+02  0.10000000000E+01 0.  0.
<mgrwt>
<rscale>  0 0.12499960E+03</rscale>
<asrwt>0</asrwt>
<pdfrwt beam="2">  1        4 0.76832250E-02 0.12499960E+03</pdfrwt>
<pdfrwt beam="1">  1       -4 0.12033361E-01 0.12499960E+03</pdfrwt>
<totfact> 0.10384176E+04</totfact>
</mgrwt>
</event>
<event>
 5    1  0.3266594E-002  0.1249949E+03  0.7818608E-02  0.1235077E+00
          4   -1    0    0  501    0  0.00000000000E+00  0.00000000000E+00  0.33207303347E+03  0.33207546200E+03  0.12700000000E+01 0. -1.
         -4   -1    0    0    0  501 -0.00000000000E+00 -0.00000000000E+00 -0.11725507473E+02  0.11794084344E+02  0.12700000000E+01 0. -1.
         25    2    1    2    0    0  0.00000000000E+00  0.00000000000E+00  0.32034752600E+03  0.34386954634E+03  0.12499490984E+03 0.  0.
    9000005    1    3    3    0    0 -0.85713464314E+01  0.37385823581E+02  0.24454770443E+02  0.45499489908E+02  0.10000000000E+01 0.  0.
    9000005    1    3    3    0    0  0.85713464314E+01 -0.37385823581E+02  0.29589275556E+03  0.29837005643E+03  0.10000000000E+01 0.  0.
<mgrwt>
<rscale>  0 0.12499491E+03</rscale>
<asrwt>0</asrwt>
<pdfrwt beam="1">  1        4 0.51093619E-01 0.12499491E+03</pdfrwt>
<pdfrwt beam="2">  1       -4 0.18093863E-02 0.12499491E+03</pdfrwt>
<totfact> 0.70412221E+03</totfact>
</mgrwt>
</event>
<event>
 5    1  0.3266594E-002  0.1250066E+03  0.7818608E-02  0.1235059E+00
         -4   -1    0    0    0  501 -0.00000000000E+00  0.00000000000E+00  0.38763478809E+02  0.38784277605E+02  0.12700000000E+01 0. -1.
          4   -1    0    0  501    0  0.00000000000E+00 -0.00000000000E+00 -0.10073022113E+03  0.10073822685E+03  0.12700000000E+01 0. -1.
         25    2    1    2    0    0  0.00000000000E+00  0.00000000000E+00 -0.61966742323E+02  0.13952250446E+03  0.12500660821E+03 0.  0.
    9000005    1    3    3    0    0  0.61966571448E+02  0.81090718667E+01 -0.31232944251E+02  0.69872096220E+02  0.10000000000E+01 0.  0.
    9000005    1    3    3    0    0 -0.61966571448E+02 -0.81090718667E+01 -0.30733798071E+02  0.69650408236E+02  0.10000000000E+01 0.  0.
<mgrwt>
<rscale>  0 0.12500661E+03</rscale>
<asrwt>0</asrwt>
<pdfrwt beam="2">  1        4 0.15499173E-01 0.12500661E+03</pdfrwt>
<pdfrwt beam="1">  1       -4 0.59658279E-02 0.12500661E+03</pdfrwt>
<totfact> 0.10141982E+04</totfact>
</mgrwt>
</event>
<event>
 5    1  0.3266594E-002  0.1249952E+03  0.7818608E-02  0.1235077E+00
          4   -1    0    0  501    0  0.00000000000E+00  0.00000000000E+00  0.44603657896E+02  0.44621734589E+02  0.12700000000E+01 0. -1.
         -4   -1    0    0    0  501 -0.00000000000E+00 -0.00000000000E+00 -0.87529807437E+02  0.87539020385E+02  0.12700000000E+01 0. -1.
         25    2    1    2    0    0  0.00000000000E+00  0.00000000000E+00 -0.42926149541E+02  0.13216075497E+03  0.12499524327E+03 0.  0.
    9000005    1    3    3    0    0 -0.49688252938E+02 -0.29142690448E+02  0.41481051556E+01  0.57761801071E+02  0.10000000000E+01 0.  0.
    9000005    1    3    3    0    0  0.49688252938E+02  0.29142690448E+02 -0.47074254696E+02  0.74398953902E+02  0.10000000000E+01 0.  0.
<mgrwt>
<rscale>  0 0.12499524E+03</rscale>
<asrwt>0</asrwt>
<pdfrwt beam="1">  1        4 0.68642004E-02 0.12499524E+03</pdfrwt>
<pdfrwt beam="2">  1       -4 0.13468223E-01 0.12499524E+03</pdfrwt>
<totfact> 0.10299374E+04</totfact>
</mgrwt>
</event>
<event>
 5    1  0.3266594E-002  0.1250006E+03  0.7818608E-02  0.1235068E+00
          4   -1    0    0  501    0  0.00000000000E+00  0.00000000000E+00  0.33690431251E+02  0.33714359817E+02  0.12700000000E+01 0. -1.
         -4   -1    0    0    0  501 -0.00000000000E+00 -0.00000000000E+00 -0.11587794100E+03  0.11588490027E+03  0.12700000000E+01 0. -1.
         25    2    1    2    0    0  0.00000000000E+00  0.00000000000E+00 -0.82187509747E+02  0.14959926008E+03  0.12500060744E+03 0.  0.
    9000005    1    3    3    0    0 -0.45299824388E+01  0.62113297780E+02 -0.34909072843E+02  0.71401861801E+02  0.10000000000E+01 0.  0.
    9000005    1    3    3    0    0  0.45299824388E+01 -0.62113297780E+02 -0.47278436905E+02  0.78197398282E+02  0.10000000000E+01 0.  0.
<mgrwt>
<rscale>  0 0.12500061E+03</rscale>
<asrwt>0</asrwt>
<pdfrwt beam="1">  1        4 0.51855193E-02 0.12500061E+03</pdfrwt>
<pdfrwt beam="2">  1       -4 0.17829751E-01 0.12500061E+03</pdfrwt>
<totfact> 0.99382281E+03</totfact>
</mgrwt>
</event>
<event>
 5    1  0.3266594E-002  0.1250012E+03  0.7818608E-02  0.1235067E+00
         -4   -1    0    0    0  501 -0.00000000000E+00  0.00000000000E+00  0.55509749434E+01  0.56944027625E+01  0.12700000000E+01 0.  1.
          4   -1    0    0  501    0  0.00000000000E+00 -0.00000000000E+00 -0.69459938969E+03  0.69460055072E+03  0.12700000000E+01 0.  1.
         25    2    1    2    0    0  0.00000000000E+00  0.00000000000E+00 -0.68904841475E+03  0.70029495348E+03  0.12500121602E+03 0.  0.
    9000005    1    3    3    0    0  0.15839106637E+02 -0.58249303310E+02 -0.25393519915E+03  0.26101330235E+03  0.10000000000E+01 0.  0.
    9000005    1    3    3    0    0 -0.15839106637E+02  0.58249303310E+02 -0.43511321560E+03  0.43928165113E+03  0.10000000000E+01 0.  0.
<mgrwt>
<rscale>  0 0.12500122E+03</rscale>
<asrwt>0</asrwt>
<pdfrwt beam="2">  1        4 0.10687250E+00 0.12500122E+03</pdfrwt>
<pdfrwt beam="1">  1       -4 0.86511891E-03 0.12500122E+03</pdfrwt>
<totfact> 0.43070001E+03</totfact>
</mgrwt>
</event>
<event>
 5    1  0.3266594E-002  0.1249950E+03  0.7818608E-02  0.1235077E+00
          4   -1    0    0  501    0  0.00000000000E+00  0.00000000000E+00  0.55752078542E+03  0.55752223191E+03  0.12700000000E+01 0.  1.
         -4   -1    0    0    0  501 -0.00000000000E+00 -0.00000000000E+00 -0.69468870939E+01  0.70620209781E+01  0.12700000000E+01 0.  1.
         25    2    1    2    0    0  0.00000000000E+00  0.00000000000E+00  0.55057389833E+03  0.56458425289E+03  0.12499504427E+03 0.  0.
    9000005    1    3    3    0    0  0.61633868661E+02 -0.67025886136E+01  0.23992780306E+03  0.24781042985E+03  0.10000000000E+01 0.  0.
    9000005    1    3    3    0    0 -0.61633868661E+02  0.67025886136E+01  0.31064609526E+03  0.31677382304E+03  0.10000000000E+01 0.  0.
<mgrwt>
<rscale>  0 0.12499504E+03</rscale>
<asrwt>0</asrwt>
<pdfrwt beam="1">  1        4 0.85781414E-01 0.12499504E+03</pdfrwt>
<pdfrwt beam="2">  1       -4 0.10777194E-02 0.12499504E+03</pdfrwt>
<totfact> 0.51187847E+03</totfact>
</mgrwt>
</event>
<event>
 5    1  0.3266594E-002  0.1250082E+03  0.7818608E-02  0.1235057E+00
          4   -1    0    0  501    0  0.00000000000E+00  0.00000000000E+00  0.49946103664E+02  0.49962247460E+02  0.12700000000E+01 0. -1.
         -4   -1    0    0    0  501 -0.00000000000E+00 -0.00000000000E+00 -0.78185587385E+02  0.78195901266E+02  0.12700000000E+01 0. -1.
         25    2    1    2    0    0  0.00000000000E+00  0.00000000000E+00 -0.28239483721E+02  0.12815814873E+03  0.12500817031E+03 0.  0.
    9000005    1    3    3    0    0  0.14201487899E+02 -0.16975728476E+01  0.48250712350E+02  0.50335824762E+02  0.10000000000E+01 0.  0.
    9000005    1    3    3    0    0 -0.14201487899E+02  0.16975728476E+01 -0.76490196071E+02  0.77822323964E+02  0.10000000000E+01 0.  0.
<mgrwt>
<rscale>  0 0.12500817E+03</rscale>
<asrwt>0</asrwt>
<pdfrwt beam="1">  1        4 0.76860511E-02 0.12500817E+03</pdfrwt>
<pdfrwt beam="2">  1       -4 0.12030587E-01 0.12500817E+03</pdfrwt>
<totfact> 0.10382159E+04</totfact>
</mgrwt>
</event>
<event>
 5    1  0.3266594E-002  0.1249976E+03  0.7818608E-02  0.1235073E+00
          4   -1    0    0  501    0  0.00000000000E+00  0.00000000000E+00  0.25324382263E+02  0.25356207071E+02  0.12700000000E+01 0. -1.
         -4   -1    0    0    0  501 -0.00000000000E+00 -0.00000000000E+00 -0.15411141896E+03  0.15411665177E+03  0.12700000000E+01 0. -1.
         25    2    1    2    0    0  0.00000000000E+00  0.00000000000E+00 -0.12878703670E+03  0.17947285884E+03  0.12499762494E+03 0.  0.
    9000005    1    3    3    0    0  0.21829765716E+00 -0.81408771495E+01 -0.15335328455E+03  0.15357262587E+03  0.10000000000E+01 0.  0.
    9000005    1    3    3    0    0 -0.21829765716E+00  0.81408771495E+01  0.24566247852E+02  0.25900232975E+02  0.10000000000E+01 0.  0.
<mgrwt>
<rscale>  0 0.12499762E+03</rscale>
<asrwt>0</asrwt>
<pdfrwt beam="1">  1        4 0.38989095E-02 0.12499762E+03</pdfrwt>
<pdfrwt beam="2">  1       -4 0.23712299E-01 0.12499762E+03</pdfrwt>
<totfact> 0.93716968E+03</totfact>
</mgrwt>
</event>
<event>
 5    1  0.3266594E-002  0.1250006E+03  0.7818608E-02  0.1235068E+00
          4   -1    0    0  501    0  0.00000000000E+00  0.00000000000E+00  0.22765593625E+02  0.22800990178E+02  0.12700000000E+01 0. -1.
         -4   -1    0    0    0  501 -0.00000000000E+00 -0.00000000000E+00 -0.17141628480E+03  0.17142098937E+03  0.12700000000E+01 0. -1.
         25    2    1    2    0    0  0.00000000000E+00  0.00000000000E+00 -0.14865069118E+03  0.19422197955E+03  0.12500059740E+03 0.  0.
    9000005    1    3    3    0    0 -0.44665266011E+02  0.16539222118E+02 -0.13718589749E+03  0.14522225148E+03  0.10000000000E+01 0.  0.
    9000005    1    3    3    0    0  0.44665266011E+02 -0.16539222118E+02 -0.11464793694E+02  0.48999728066E+02  0.10000000000E+01 0.  0.
<mgrwt>
<rscale>  0 0.12500060E+03</rscale>
<asrwt>0</asrwt>
<pdfrwt beam="1">  1        4 0.35054838E-02 0.12500060E+03</pdfrwt>
<pdfrwt beam="2">  1       -4 0.26374820E-01 0.12500060E+03</pdfrwt>
<totfact> 0.91116631E+03</totfact>
</mgrwt>
</event>
<event>
 5    1  0.3266594E-002  0.1250007E+03  0.7818608E-02  0.1235068E+00
          4   -1    0    0  501    0  0.00000000000E+00  0.00000000000E+00  0.67578017555E+02  0.67589950116E+02  0.12700000000E+01 0. -1.
         -4   -1    0    0    0  501 -0.00000000000E+00 -0.00000000000E+00 -0.57780237929E+02  0.57794193438E+02  0.12700000000E+01 0. -1.
         25    2    1    2    0    0  0.00000000000E+00  0.00000000000E+00  0.97977796255E+01  0.12538414355E+03  0.12500074787E+03 0.  0.
    9000005    1    3    3    0    0  0.40377325093E+02 -0.34828841965E+02 -0.27788175647E+02  0.60137836011E+02  0.10000000000E+01 0.  0.
    9000005    1    3    3    0    0 -0.40377325093E+02  0.34828841965E+02  0.37585955272E+02  0.65246307543E+02  0.10000000000E+01 0.  0.
<mgrwt>
<rscale>  0 0.12500075E+03</rscale>
<asrwt>0</asrwt>
<pdfrwt beam="1">  1        4 0.10398610E-01 0.12500075E+03</pdfrwt>
<pdfrwt beam="2">  1       -4 0.88912587E-02 0.12500075E+03</pdfrwt>
<totfact> 0.10444342E+04</totfact>
</mgrwt>
</event>
<event>
 5    1  0.3266594E-002  0.1249956E+03  0.7818608E-02  0.1235076E+00
         -4   -1    0    0    0  501 -0.00000000000E+00  0.00000000000E+00  0.76878577945E+01  0.77920509154E+01  0.12700000000E+01 0. -1.
          4   -1    0    0  501    0  0.00000000000E+00 -0.00000000000E+00 -0.50454592303E+03  0.50454752139E+03  0.12700000000E+01 0. -1.
         25    2    1    2    0    0  0.00000000000E+00  0.00000000000E+00 -0.49685806523E+03  0.51233957231E+03  0.12499560139E+03 0.  0.
    9000005    1    3    3    0    0 -0.78765802620E+01 -0.58642362481E+02 -0.33081592059E+03  0.33606716666E+03  0.10000000000E+01 0.  0.
    9000005    1    3    3    0    0  0.78765802620E+01  0.58642362481E+02 -0.16604214465E+03  0.17627240565E+03  0.10000000000E+01 0.  0.
<mgrwt>
<rscale>  0 0.12499560E+03</rscale>
<asrwt>0</asrwt>
<pdfrwt beam="2">  1        4 0.77630562E-01 0.12499560E+03</pdfrwt>
<pdfrwt beam="1">  1       -4 0.11908856E-02 0.12499560E+03</pdfrwt>
<totfact> 0.54924840E+03</totfact>
</mgrwt>
</event>
<event>
 5    1  0.3266594E-002  0.1249993E+03  0.7818608E-02  0.1235070E+00
         -4   -1    0    0    0  501 -0.00000000000E+00  0.00000000000E+00  0.92635494491E+02  0.92644199708E+02  0.12700000000E+01 0. -1.
          4   -1    0    0  501    0  0.00000000000E+00 -0.00000000000E+00 -0.42147228937E+02  0.42166358712E+02  0.12700000000E+01 0. -1.
         25    2    1    2    0    0  0.00000000000E+00  0.00000000000E+00  0.50488265554E+02  0.13481055842E+03  0.12499928681E+03 0.  0.
    9000005    1    3    3    0    0 -0.38008993611E+01 -0.29682142014E+02 -0.33922938358E+02  0.45246459942E+02  0.10000000000E+01 0.  0.
    9000005    1    3    3    0    0  0.38008993611E+01  0.29682142014E+02  0.84411203911E+02  0.89564098478E+02  0.10000000000E+01 0.  0.
<mgrwt>
<rscale>  0 0.12499929E+03</rscale>
<asrwt>0</asrwt>
<pdfrwt beam="2">  1        4 0.64863303E-02 0.12499929E+03</pdfrwt>
<pdfrwt beam="1">  1       -4 0.14253756E-01 0.12499929E+03</pdfrwt>
<totfact> 0.10242230E+04</totfact>
</mgrwt>
</event>
<event>
 5    1  0.3266594E-002  0.1249968E+03  0.7818608E-02  0.1235074E+00
          4   -1    0    0  501    0  0.00000000000E+00  0.00000000000E+00  0.19904982898E+03  0.19905388043E+03  0.12700000000E+01 0.  1.
         -4   -1    0    0    0  501 -0.00000000000E+00 -0.00000000000E+00 -0.19598667093E+02  0.19639772194E+02  0.12700000000E+01 0.  1.
         25    2    1    2    0    0  0.00000000000E+00  0.00000000000E+00  0.17945116188E+03  0.21869365263E+03  0.12499677675E+03 0.  0.
    9000005    1    3    3    0    0  0.20387046727E+02 -0.24632887225E+02 -0.42104915876E+01  0.32266686330E+02  0.10000000000E+01 0.  0.
    9000005    1    3    3    0    0 -0.20387046727E+02  0.24632887225E+02  0.18366165347E+03  0.18642696630E+03  0.10000000000E+01 0.  0.
<mgrwt>
<rscale>  0 0.12499678E+03</rscale>
<asrwt>0</asrwt>
<pdfrwt beam="1">  1        4 0.30626522E-01 0.12499678E+03</pdfrwt>
<pdfrwt beam="2">  1       -4 0.30186533E-02 0.12499678E+03</pdfrwt>
<totfact> 0.87081756E+03</totfact>
</mgrwt>
</event>
<event>
 5    1  0.3266594E-002  0.1249912E+03  0.7818608E-02  0.1235083E+00
          4   -1    0    0  501    0  0.00000000000E+00  0.00000000000E+00  0.10787602028E+03  0.10788349573E+03  0.12700000000E+01 0.  1.
         -4   -1    0    0    0  501 -0.00000000000E+00 -0.00000000000E+00 -0.36185591044E+02  0.36207870680E+02  0.12700000000E+01 0.  1.
         25    2    1    2    0    0  0.00000000000E+00  0.00000000000E+00  0.71690429236E+02  0.14409136641E+03  0.12499121661E+03 0.  0.
    9000005    1    3    3    0    0  0.11710719952E+02  0.51294374804E+01 -0.34667392002E+02  0.36963227116E+02  0.10000000000E+01 0.  0.
    9000005    1    3    3    0    0 -0.11710719952E+02 -0.51294374804E+01  0.10635782124E+03  0.10712813930E+03  0.10000000000E+01 0.  0.
<mgrwt>
<rscale>  0 0.12499122E+03</rscale>
<asrwt>0</asrwt>
<pdfrwt beam="1">  1        4 0.16598600E-01 0.12499122E+03</pdfrwt>
<pdfrwt beam="2">  1       -4 0.55693028E-02 0.12499122E+03</pdfrwt>
<totfact> 0.10051471E+04</totfact>
</mgrwt>
</event>
<event>
 5    1  0.3266594E-002  0.1250002E+03  0.7818608E-02  0.1235069E+00
         -4   -1    0    0    0  501 -0.00000000000E+00  0.00000000000E+00  0.48682626588E+03  0.48682792242E+03  0.12700000000E+01 0. -1.
          4   -1    0    0  501    0  0.00000000000E+00 -0.00000000000E+00 -0.79720029921E+01  0.80725294491E+01  0.12700000000E+01 0. -1.
         25    2    1    2    0    0  0.00000000000E+00  0.00000000000E+00  0.47885426289E+03  0.49490045187E+03  0.12500020871E+03 0.  0.
    9000005    1    3    3    0    0 -0.61349590827E+02  0.11843760668E+02  0.23506108132E+03  0.24322573653E+03  0.10000000000E+01 0.  0.
    9000005    1    3    3    0    0  0.61349590827E+02 -0.11843760668E+02  0.24379318157E+03  0.25167471534E+03  0.10000000000E+01 0.  0.
<mgrwt>
<rscale>  0 0.12500021E+03</rscale>
<asrwt>0</asrwt>
<pdfrwt beam="2">  1        4 0.12343222E-02 0.12500021E+03</pdfrwt>
<pdfrwt beam="1">  1       -4 0.74904211E-01 0.12500021E+03</pdfrwt>
<totfact> 0.56261950E+03</totfact>
</mgrwt>
</event>
<event>
 5    1  0.3266594E-002  0.1250012E+03  0.7818608E-02  0.1235067E+00
         -4   -1    0    0    0  501 -0.00000000000E+00  0.00000000000E+00  0.43630713742E+03  0.43630898577E+03  0.12700000000E+01 0. -1.
          4   -1    0    0  501    0  0.00000000000E+00 -0.00000000000E+00 -0.89062448294E+01  0.89963379750E+01  0.12700000000E+01 0. -1.
         25    2    1    2    0    0  0.00000000000E+00  0.00000000000E+00  0.42740089259E+03  0.44530532375E+03  0.12500123347E+03 0.  0.
    9000005    1    3    3    0    0  0.24336851939E+02 -0.34534672808E+02  0.49659373962E+02  0.65207203671E+02  0.10000000000E+01 0.  0.
    9000005    1    3    3    0    0 -0.24336851939E+02  0.34534672808E+02  0.37774151863E+03  0.38009812008E+03  0.10000000000E+01 0.  0.
<mgrwt>
<rscale>  0 0.12500123E+03</rscale>
<asrwt>0</asrwt>
<pdfrwt beam="2">  1        4 0.13772641E-02 0.12500123E+03</pdfrwt>
<pdfrwt beam="1">  1       -4 0.67131238E-01 0.12500123E+03</pdfrwt>
<totfact> 0.60371026E+03</totfact>
</mgrwt>
</event>
<event>
 5    1  0.3266594E-002  0.1249962E+03  0.7818608E-02  0.1235075E+00
          4   -1    0    0  501    0  0.00000000000E+00  0.00000000000E+00  0.30793752963E+03  0.30794014850E+03  0.12700000000E+01 0.  1.
         -4   -1    0    0    0  501 -0.00000000000E+00 -0.00000000000E+00 -0.12649956376E+02  0.12713547747E+02  0.12700000000E+01 0.  1.
         25    2    1    2    0    0  0.00000000000E+00  0.00000000000E+00  0.29528757326E+03  0.32065369625E+03  0.12499616792E+03 0.  0.
    9000005    1    3    3    0    0 -0.82712685178E+01  0.38742255165E+02  0.27162102901E+03  0.27449655666E+03  0.10000000000E+01 0.  0.
    9000005    1    3    3    0    0  0.82712685178E+01 -0.38742255165E+02  0.23666544250E+02  0.46157139587E+02  0.10000000000E+01 0.  0.
<mgrwt>
<rscale>  0 0.12499617E+03</rscale>
<asrwt>0</asrwt>
<pdfrwt beam="1">  1        4 0.47380096E-01 0.12499617E+03</pdfrwt>
<pdfrwt beam="2">  1       -4 0.19512403E-02 0.12499617E+03</pdfrwt>
<totfact> 0.73084651E+03</totfact>
</mgrwt>
</event>
<event>
 5    1  0.3266594E-002  0.1250010E+03  0.7818608E-02  0.1235068E+00
         -4   -1    0    0    0  501 -0.00000000000E+00  0.00000000000E+00  0.32434396276E+03  0.32434644916E+03  0.12700000000E+01 0.  1.
          4   -1    0    0  501    0  0.00000000000E+00 -0.00000000000E+00 -0.12007719320E+02  0.12074693506E+02  0.12700000000E+01 0.  1.
         25    2    1    2    0    0  0.00000000000E+00  0.00000000000E+00  0.31233624344E+03  0.33642114266E+03  0.12500102505E+03 0.  0.
    9000005    1    3    3    0    0 -0.40217850017E+01  0.62019095021E+02  0.13856680163E+03  0.15186935640E+03  0.10000000000E+01 0.  0.
    9000005    1    3    3    0    0  0.40217850017E+01 -0.62019095021E+02  0.17376944182E+03  0.18455178626E+03  0.10000000000E+01 0.  0.
<mgrwt>
<rscale>  0 0.12500103E+03</rscale>
<asrwt>0</asrwt>
<pdfrwt beam="2">  1        4 0.18526848E-02 0.12500103E+03</pdfrwt>
<pdfrwt beam="1">  1       -4 0.49904407E-01 0.12500103E+03</pdfrwt>
<totfact> 0.71243077E+03</totfact>
</mgrwt>
</event>
<event>
 5    1  0.3266594E-002  0.1249965E+03  0.7818608E-02  0.1235075E+00
         -4   -1    0    0    0  501 -0.00000000000E+00  0.00000000000E+00  0.66327068304E+02  0.66339225876E+02  0.12700000000E+01 0. -1.
          4   -1    0    0  501    0  0.00000000000E+00 -0.00000000000E+00 -0.58866006392E+02  0.58879704555E+02  0.12700000000E+01 0. -1.
         25    2    1    2    0    0  0.00000000000E+00  0.00000000000E+00  0.74610619121E+01  0.12521893043E+03  0.12499645232E+03 0.  0.
    9000005    1    3    3    0    0 -0.46937843967E+02 -0.40066021023E+02  0.13575587931E+02  0.63196074440E+02  0.10000000000E+01 0.  0.
    9000005    1    3    3    0    0  0.46937843967E+02  0.40066021023E+02 -0.61145260191E+01  0.62022855991E+02  0.10000000000E+01 0.  0.
<mgrwt>
<rscale>  0 0.12499645E+03</rscale>
<asrwt>0</asrwt>
<pdfrwt beam="2">  1        4 0.90582976E-02 0.12499645E+03</pdfrwt>
<pdfrwt beam="1">  1       -4 0.10206153E-01 0.12499645E+03</pdfrwt>
<totfact> 0.10448947E+04</totfact>
</mgrwt>
</event>
<event>
 5    1  0.3266594E-002  0.1249992E+03  0.7818608E-02  0.1235071E+00
         -4   -1    0    0    0  501 -0.00000000000E+00  0.00000000000E+00  0.32928862177E+01  0.35293058301E+01  0.12700000000E+01 0. -1.
          4   -1    0    0  501    0  0.00000000000E+00 -0.00000000000E+00 -0.11449077301E+04  0.11449084345E+04  0.12700000000E+01 0. -1.
         25    2    1    2    0    0  0.00000000000E+00  0.00000000000E+00 -0.11416148439E+04  0.11484377403E+04  0.12499916638E+03 0.  0.
    9000005    1    3    3    0    0 -0.25217525003E+02  0.66806600188E+01 -0.49082999012E+02  0.55594024657E+02  0.10000000000E+01 0.  0.
    9000005    1    3    3    0    0  0.25217525003E+02 -0.66806600188E+01 -0.10925318449E+04  0.10928437157E+04  0.10000000000E+01 0.  0.
<mgrwt>
<rscale>  0 0.12499917E+03</rscale>
<asrwt>0</asrwt>
<pdfrwt beam="2">  1        4 0.17615758E+00 0.12499917E+03</pdfrwt>
<pdfrwt beam="1">  1       -4 0.52483910E-03 0.12499917E+03</pdfrwt>
<totfact> 0.26104147E+03</totfact>
</mgrwt>
</event>
<event>
 5    1  0.3266594E-002  0.1249955E+03  0.7818608E-02  0.1235076E+00
         -4   -1    0    0    0  501 -0.00000000000E+00  0.00000000000E+00  0.71289185088E+02  0.71300496566E+02  0.12700000000E+01 0.  1.
          4   -1    0    0  501    0  0.00000000000E+00 -0.00000000000E+00 -0.54767435857E+02  0.54782158869E+02  0.12700000000E+01 0.  1.
         25    2    1    2    0    0  0.00000000000E+00  0.00000000000E+00  0.16521749231E+02  0.12608265543E+03  0.12499547113E+03 0.  0.
    9000005    1    3    3    0    0  0.13911800109E+01  0.21126856321E+02  0.67565849919E+02  0.70812594326E+02  0.10000000000E+01 0.  0.
    9000005    1    3    3    0    0 -0.13911800109E+01 -0.21126856321E+02 -0.51044100689E+02  0.55270061109E+02  0.10000000000E+01 0.  0.
<mgrwt>
<rscale>  0 0.12499547E+03</rscale>
<asrwt>0</asrwt>
<pdfrwt beam="2">  1        4 0.84277620E-02 0.12499547E+03</pdfrwt>
<pdfrwt beam="1">  1       -4 0.10969570E-01 0.12499547E+03</pdfrwt>
<totfact> 0.10430212E+04</totfact>
</mgrwt>
</event>
<event>
 5    1  0.3266594E-002  0.1250086E+03  0.7818608E-02  0.1235056E+00
          4   -1    0    0  501    0  0.00000000000E+00  0.00000000000E+00  0.37138576493E+02  0.37160284766E+02  0.12700000000E+01 0.  1.
         -4   -1    0    0    0  501 -0.00000000000E+00 -0.00000000000E+00 -0.10513856836E+03  0.10514623843E+03  0.12700000000E+01 0.  1.
         25    2    1    2    0    0  0.00000000000E+00  0.00000000000E+00 -0.67999991867E+02  0.14230652320E+03  0.12500859031E+03 0.  0.
    9000005    1    3    3    0    0  0.16498260407E+02 -0.53150441481E+02 -0.16288180657E+01  0.55684962732E+02  0.10000000000E+01 0.  0.
    9000005    1    3    3    0    0 -0.16498260407E+02  0.53150441481E+02 -0.66371173801E+02  0.86621560468E+02  0.10000000000E+01 0.  0.
<mgrwt>
<rscale>  0 0.12500859E+03</rscale>
<asrwt>0</asrwt>
<pdfrwt beam="1">  1        4 0.57158871E-02 0.12500859E+03</pdfrwt>
<pdfrwt beam="2">  1       -4 0.16177424E-01 0.12500859E+03</pdfrwt>
<totfact> 0.10084052E+04</totfact>
</mgrwt>
</event>
<event>
 5    1  0.3266594E-002  0.1249992E+03  0.7818608E-02  0.1235071E+00
          4   -1    0    0  501    0  0.00000000000E+00  0.00000000000E+00  0.13710375578E+03  0.13710963770E+03  0.12700000000E+01 0. -1.
         -4   -1    0    0    0  501 -0.00000000000E+00 -0.00000000000E+00 -0.28470186451E+02  0.28498498496E+02  0.12700000000E+01 0. -1.
         25    2    1    2    0    0  0.00000000000E+00  0.00000000000E+00  0.10863356933E+03  0.16560813620E+03  0.12499920955E+03 0.  0.
    9000005    1    3    3    0    0  0.58001360606E+02  0.23254863157E+02  0.53648932245E+02  0.82365978557E+02  0.10000000000E+01 0.  0.
    9000005    1    3    3    0    0 -0.58001360606E+02 -0.23254863157E+02  0.54984637089E+02  0.83242157639E+02  0.10000000000E+01 0.  0.
<mgrwt>
<rscale>  0 0.12499921E+03</rscale>
<asrwt>0</asrwt>
<pdfrwt beam="1">  1        4 0.21095516E-01 0.12499921E+03</pdfrwt>
<pdfrwt beam="2">  1       -4 0.43826590E-02 0.12499921E+03</pdfrwt>
<totfact> 0.96274054E+03</totfact>
</mgrwt>
</event>
<event>
 5    1  0.3266594E-002  0.1249987E+03  0.7818608E-02  0.1235071E+00
         -4   -1    0    0    0  501 -0.00000000000E+00  0.00000000000E+00  0.10431100586E+04  0.10431108317E+04  0.12700000000E+01 0. -1.
          4   -1    0    0  501    0  0.00000000000E+00 -0.00000000000E+00 -0.36362593019E+01  0.38516596047E+01  0.12700000000E+01 0. -1.
         25    2    1    2    0    0  0.00000000000E+00  0.00000000000E+00  0.10394737993E+04  0.10469624913E+04  0.12499871525E+03 0.  0.
    9000005    1    3    3    0    0  0.43807354904E+02 -0.37454941619E+02  0.31746336537E+03  0.32265452940E+03  0.10000000000E+01 0.  0.
    9000005    1    3    3    0    0 -0.43807354904E+02  0.37454941619E+02  0.72201043389E+03  0.72430796188E+03  0.10000000000E+01 0.  0.
<mgrwt>
<rscale>  0 0.12499872E+03</rscale>
<asrwt>0</asrwt>
<pdfrwt beam="2">  1        4 0.57605304E-03 0.12499872E+03</pdfrwt>
<pdfrwt beam="1">  1       -4 0.16049515E+00 0.12499872E+03</pdfrwt>
<totfact> 0.29090603E+03</totfact>
</mgrwt>
</event>
<event>
 5    1  0.3266594E-002  0.1250022E+03  0.7818608E-02  0.1235066E+00
          4   -1    0    0  501    0  0.00000000000E+00  0.00000000000E+00  0.26915042403E+02  0.26944988542E+02  0.12700000000E+01 0.  1.
         -4   -1    0    0    0  501 -0.00000000000E+00 -0.00000000000E+00 -0.14502425757E+03  0.14502981826E+03  0.12700000000E+01 0.  1.
         25    2    1    2    0    0  0.00000000000E+00  0.00000000000E+00 -0.11810921517E+03  0.17197480680E+03  0.12500218985E+03 0.  0.
    9000005    1    3    3    0    0 -0.16931327457E+02  0.14918017612E+02 -0.13923014963E+03  0.14105052877E+03  0.10000000000E+01 0.  0.
    9000005    1    3    3    0    0  0.16931327457E+02 -0.14918017612E+02  0.21120934467E+02  0.30924278030E+02  0.10000000000E+01 0.  0.
<mgrwt>
<rscale>  0 0.12500219E+03</rscale>
<asrwt>0</asrwt>
<pdfrwt beam="1">  1        4 0.41435072E-02 0.12500219E+03</pdfrwt>
<pdfrwt beam="2">  1       -4 0.22314155E-01 0.12500219E+03</pdfrwt>
<totfact> 0.95077164E+03</totfact>
</mgrwt>
</event>
<event>
 5    1  0.3266594E-002  0.1250129E+03  0.7818608E-02  0.1235049E+00
          4   -1    0    0  501    0  0.00000000000E+00  0.00000000000E+00  0.20528687835E+02  0.20567934370E+02  0.12700000000E+01 0.  1.
         -4   -1    0    0    0  501 -0.00000000000E+00 -0.00000000000E+00 -0.19009880175E+03  0.19010304397E+03  0.12700000000E+01 0.  1.
         25    2    1    2    0    0  0.00000000000E+00  0.00000000000E+00 -0.16957011391E+03  0.21067097834E+03  0.12501294966E+03 0.  0.
    9000005    1    3    3    0    0  0.24941209428E+02 -0.87956969289E+01 -0.18021270398E+03  0.18214567491E+03  0.10000000000E+01 0.  0.
    9000005    1    3    3    0    0 -0.24941209428E+02  0.87956969289E+01  0.10642590070E+02  0.28525303427E+02  0.10000000000E+01 0.  0.
<mgrwt>
<rscale>  0 0.12501295E+03</rscale>
<asrwt>0</asrwt>
<pdfrwt beam="1">  1        4 0.31616051E-02 0.12501295E+03</pdfrwt>
<pdfrwt beam="2">  1       -4 0.29249314E-01 0.12501295E+03</pdfrwt>
<totfact> 0.88340842E+03</totfact>
</mgrwt>
</event>
<event>
 5    1  0.3266594E-002  0.1249959E+03  0.7818608E-02  0.1235076E+00
          4   -1    0    0  501    0  0.00000000000E+00  0.00000000000E+00  0.46786435461E+03  0.46786607829E+03  0.12700000000E+01 0.  1.
         -4   -1    0    0    0  501 -0.00000000000E+00 -0.00000000000E+00 -0.82985122943E+01  0.83951299155E+01  0.12700000000E+01 0.  1.
         25    2    1    2    0    0  0.00000000000E+00  0.00000000000E+00  0.45956584232E+03  0.47626120821E+03  0.12499590001E+03 0.  0.
    9000005    1    3    3    0    0  0.50025562435E+02 -0.31271087958E+02  0.30829145911E+03  0.31388702044E+03  0.10000000000E+01 0.  0.
    9000005    1    3    3    0    0 -0.50025562435E+02  0.31271087958E+02  0.15127438321E+03  0.16237418777E+03  0.10000000000E+01 0.  0.
<mgrwt>
<rscale>  0 0.12499590E+03</rscale>
<asrwt>0</asrwt>
<pdfrwt beam="1">  1        4 0.71986714E-01 0.12499590E+03</pdfrwt>
<pdfrwt beam="2">  1       -4 0.12842586E-02 0.12499590E+03</pdfrwt>
<totfact> 0.57759623E+03</totfact>
</mgrwt>
</event>
<event>
 5    1  0.3266594E-002  0.1249974E+03  0.7818608E-02  0.1235073E+00
          4   -1    0    0  501    0  0.00000000000E+00  0.00000000000E+00  0.19517523969E+02  0.19558799602E+02  0.12700000000E+01 0. -1.
         -4   -1    0    0    0  501 -0.00000000000E+00 -0.00000000000E+00 -0.19987765904E+03  0.19988169371E+03  0.12700000000E+01 0. -1.
         25    2    1    2    0    0  0.00000000000E+00  0.00000000000E+00 -0.18036013507E+03  0.21944049332E+03  0.12499740711E+03 0.  0.
    9000005    1    3    3    0    0  0.61252288151E+02  0.33144599350E+01 -0.69241045091E+02  0.92510273882E+02  0.10000000000E+01 0.  0.
    9000005    1    3    3    0    0 -0.61252288151E+02 -0.33144599350E+01 -0.11111908998E+03  0.12693021943E+03  0.10000000000E+01 0.  0.
<mgrwt>
<rscale>  0 0.12499741E+03</rscale>
<asrwt>0</asrwt>
<pdfrwt beam="1">  1        4 0.30061815E-02 0.12499741E+03</pdfrwt>
<pdfrwt beam="2">  1       -4 0.30753893E-01 0.12499741E+03</pdfrwt>
<totfact> 0.86961999E+03</totfact>
</mgrwt>
</event>
<event>
 5    1  0.3266594E-002  0.1249979E+03  0.7818608E-02  0.1235073E+00
         -4   -1    0    0    0  501 -0.00000000000E+00  0.00000000000E+00  0.11178345313E+03  0.11179066729E+03  0.12700000000E+01 0. -1.
          4   -1    0    0  501    0  0.00000000000E+00 -0.00000000000E+00 -0.34923758892E+02  0.34946842992E+02  0.12700000000E+01 0. -1.
         25    2    1    2    0    0  0.00000000000E+00  0.00000000000E+00  0.76859694234E+02  0.14673751028E+03  0.12499793729E+03 0.  0.
    9000005    1    3    3    0    0  0.48102294323E+02  0.33061789171E+02  0.12227279625E+02  0.59644102721E+02  0.10000000000E+01 0.  0.
    9000005    1    3    3    0    0 -0.48102294323E+02 -0.33061789171E+02  0.64632414609E+02  0.87093407560E+02  0.10000000000E+01 0.  0.
<mgrwt>
<rscale>  0 0.12499794E+03</rscale>
<asrwt>0</asrwt>
<pdfrwt beam="2">  1        4 0.53752165E-02 0.12499794E+03</pdfrwt>
<pdfrwt beam="1">  1       -4 0.17199785E-01 0.12499794E+03</pdfrwt>
<totfact> 0.99962690E+03</totfact>
</mgrwt>
</event>
<event>
 5    1  0.3266594E-002  0.1250002E+03  0.7818608E-02  0.1235069E+00
         -4   -1    0    0    0  501 -0.00000000000E+00  0.00000000000E+00  0.87684458913E+01  0.88599403694E+01  0.12700000000E+01 0.  1.
          4   -1    0    0  501    0  0.00000000000E+00 -0.00000000000E+00 -0.44308629121E+03  0.44308811128E+03  0.12700000000E+01 0.  1.
         25    2    1    2    0    0  0.00000000000E+00  0.00000000000E+00 -0.43431784531E+03  0.45194805165E+03  0.12500020251E+03 0.  0.
    9000005    1    3    3    0    0 -0.27795266133E+02  0.15057309869E+02 -0.41206386918E+03  0.41327585422E+03  0.10000000000E+01 0.  0.
    9000005    1    3    3    0    0  0.27795266133E+02 -0.15057309869E+02 -0.22253976139E+02  0.38672197427E+02  0.10000000000E+01 0.  0.
<mgrwt>
<rscale>  0 0.12500020E+03</rscale>
<asrwt>0</asrwt>
<pdfrwt beam="2">  1        4 0.68174283E-01 0.12500020E+03</pdfrwt>
<pdfrwt beam="1">  1       -4 0.13561701E-02 0.12500020E+03</pdfrwt>
<totfact> 0.59795147E+03</totfact>
</mgrwt>
</event>
<event>
 5    1  0.3266594E-002  0.1250019E+03  0.7818608E-02  0.1235066E+00
          4   -1    0    0  501    0  0.00000000000E+00  0.00000000000E+00  0.10480948120E+02  0.10557612111E+02  0.12700000000E+01 0.  1.
         -4   -1    0    0    0  501 -0.00000000000E+00 -0.00000000000E+00 -0.37127556589E+03  0.37127773799E+03  0.12700000000E+01 0.  1.
         25    2    1    2    0    0  0.00000000000E+00  0.00000000000E+00 -0.36079461777E+03  0.38183535010E+03  0.12500191348E+03 0.  0.
    9000005    1    3    3    0    0  0.29520717730E+01 -0.45391997951E+02 -0.31129198789E+03  0.31459950720E+03  0.10000000000E+01 0.  0.
    9000005    1    3    3    0    0 -0.29520717730E+01  0.45391997951E+02 -0.49502629885E+02  0.67235842906E+02  0.10000000000E+01 0.  0.
<mgrwt>
<rscale>  0 0.12500191E+03</rscale>
<asrwt>0</asrwt>
<pdfrwt beam="1">  1        4 0.16185182E-02 0.12500191E+03</pdfrwt>
<pdfrwt beam="2">  1       -4 0.57125372E-01 0.12500191E+03</pdfrwt>
<totfact> 0.66355848E+03</totfact>
</mgrwt>
</event>
<event>
 5    1  0.3266594E-002  0.1250000E+03  0.7818608E-02  0.1235069E+00
         -4   -1    0    0    0  501 -0.00000000000E+00  0.00000000000E+00  0.14784938768E+03  0.14785484212E+03  0.12700000000E+01 0.  1.
          4   -1    0    0  501    0  0.00000000000E+00 -0.00000000000E+00 -0.26399258731E+02  0.26429789283E+02  0.12700000000E+01 0.  1.
         25    2    1    2    0    0  0.00000000000E+00  0.00000000000E+00  0.12145012895E+03  0.17428463140E+03  0.12499999568E+03 0.  0.
    9000005    1    3    3    0    0  0.12545649620E+02  0.61190575979E+02  0.63359406000E+02  0.88978054832E+02  0.10000000000E+01 0.  0.
    9000005    1    3    3    0    0 -0.12545649620E+02 -0.61190575979E+02  0.58090722954E+02  0.85306576572E+02  0.10000000000E+01 0.  0.
<mgrwt>
<rscale>  0 0.12500000E+03</rscale>
<asrwt>0</asrwt>
<pdfrwt beam="2">  1        4 0.40641925E-02 0.12500000E+03</pdfrwt>
<pdfrwt beam="1">  1       -4 0.22748828E-01 0.12500000E+03</pdfrwt>
<totfact> 0.94656031E+03</totfact>
</mgrwt>
</event>
<event>
 5    1  0.3266594E-002  0.1249996E+03  0.7818608E-02  0.1235070E+00
          4   -1    0    0  501    0  0.00000000000E+00  0.00000000000E+00  0.17355521557E+02  0.17401926000E+02  0.12700000000E+01 0. -1.
         -4   -1    0    0    0  501 -0.00000000000E+00 -0.00000000000E+00 -0.22472237361E+03  0.22472596223E+03  0.12700000000E+01 0. -1.
         25    2    1    2    0    0  0.00000000000E+00  0.00000000000E+00 -0.20736685205E+03  0.24212788823E+03  0.12499961171E+03 0.  0.
    9000005    1    3    3    0    0  0.46318179447E+02  0.40677417250E+02 -0.83815916807E+02  0.10404870942E+03  0.10000000000E+01 0.  0.
    9000005    1    3    3    0    0 -0.46318179447E+02 -0.40677417250E+02 -0.12355093525E+03  0.13807917881E+03  0.10000000000E+01 0.  0.
<mgrwt>
<rscale>  0 0.12499961E+03</rscale>
<asrwt>0</asrwt>
<pdfrwt beam="1">  1        4 0.26739260E-02 0.12499961E+03</pdfrwt>
<pdfrwt beam="2">  1       -4 0.34576516E-01 0.12499961E+03</pdfrwt>
<totfact> 0.83482197E+03</totfact>
</mgrwt>
</event>
<event>
 5    1  0.3266594E-002  0.1250015E+03  0.7818608E-02  0.1235067E+00
         -4   -1    0    0    0  501 -0.00000000000E+00  0.00000000000E+00  0.23198303360E+03  0.23198650990E+03  0.12700000000E+01 0. -1.
          4   -1    0    0  501    0  0.00000000000E+00 -0.00000000000E+00 -0.16811366855E+02  0.16859269128E+02  0.12700000000E+01 0. -1.
         25    2    1    2    0    0  0.00000000000E+00  0.00000000000E+00  0.21517166674E+03  0.24884577903E+03  0.12500150228E+03 0.  0.
    9000005    1    3    3    0    0 -0.16128528154E+02 -0.46142193682E+01 -0.12254926449E+02  0.20799126498E+02  0.10000000000E+01 0.  0.
    9000005    1    3    3    0    0  0.16128528154E+02  0.46142193682E+01  0.22742659319E+03  0.22804665253E+03  0.10000000000E+01 0.  0.
<mgrwt>
<rscale>  0 0.12500150E+03</rscale>
<asrwt>0</asrwt>
<pdfrwt beam="2">  1        4 0.25903167E-02 0.12500150E+03</pdfrwt>
<pdfrwt beam="1">  1       -4 0.35693645E-01 0.12500150E+03</pdfrwt>
<totfact> 0.82494577E+03</totfact>
</mgrwt>
</event>
<event>
 5    1  0.3266594E-002  0.1249993E+03  0.7818608E-02  0.1235070E+00
          4   -1    0    0  501    0  0.00000000000E+00  0.00000000000E+00  0.19039728900E+03  0.19040152457E+03  0.12700000000E+01 0.  1.
         -4   -1    0    0    0  501 -0.00000000000E+00 -0.00000000000E+00 -0.20491956909E+02  0.20531273656E+02  0.12700000000E+01 0.  1.
         25    2    1    2    0    0  0.00000000000E+00  0.00000000000E+00  0.16990533209E+03  0.21093279822E+03  0.12499929397E+03 0.  0.
    9000005    1    3    3    0    0  0.77493896785E+01 -0.58935370002E+02  0.11748960127E+03  0.13167474049E+03  0.10000000000E+01 0.  0.
    9000005    1    3    3    0    0 -0.77493896785E+01  0.58935370002E+02  0.52415730819E+02  0.79258057729E+02  0.10000000000E+01 0.  0.
<mgrwt>
<rscale>  0 0.12499929E+03</rscale>
<asrwt>0</asrwt>
<pdfrwt beam="1">  1        4 0.29295242E-01 0.12499929E+03</pdfrwt>
<pdfrwt beam="2">  1       -4 0.31559588E-02 0.12499929E+03</pdfrwt>
<totfact> 0.88325161E+03</totfact>
</mgrwt>
</event>
<event>
 5    1  0.3266594E-002  0.1250274E+03  0.7818608E-02  0.1235026E+00
          4   -1    0    0  501    0  0.00000000000E+00  0.00000000000E+00  0.31243670050E+03  0.31243928165E+03  0.12700000000E+01 0.  1.
         -4   -1    0    0    0  501 -0.00000000000E+00 -0.00000000000E+00 -0.12473143800E+02  0.12537632004E+02  0.12700000000E+01 0.  1.
         25    2    1    2    0    0  0.00000000000E+00  0.00000000000E+00  0.29996355670E+03  0.32497691366E+03  0.12502743324E+03 0.  0.
    9000005    1    3    3    0    0 -0.11837955275E+01  0.61701958308E+02  0.17576960627E+03  0.18629140485E+03  0.10000000000E+01 0.  0.
    9000005    1    3    3    0    0  0.11837955275E+01 -0.61701958308E+02  0.12419395043E+03  0.13868550881E+03  0.10000000000E+01 0.  0.
<mgrwt>
<rscale>  0 0.12502743E+03</rscale>
<asrwt>0</asrwt>
<pdfrwt beam="1">  1        4 0.48072347E-01 0.12502743E+03</pdfrwt>
<pdfrwt beam="2">  1       -4 0.19241042E-02 0.12502743E+03</pdfrwt>
<totfact> 0.72523968E+03</totfact>
</mgrwt>
</event>
<event>
 5    1  0.3266594E-002  0.1250018E+03  0.7818608E-02  0.1235066E+00
          4   -1    0    0  501    0  0.00000000000E+00  0.00000000000E+00  0.37590609324E+03  0.37590823858E+03  0.12700000000E+01 0.  1.
         -4   -1    0    0    0  501 -0.00000000000E+00 -0.00000000000E+00 -0.10350878621E+02  0.10428498848E+02  0.12700000000E+01 0.  1.
         25    2    1    2    0    0  0.00000000000E+00  0.00000000000E+00  0.36555521462E+03  0.38633673743E+03  0.12500183900E+03 0.  0.
    9000005    1    3    3    0    0  0.10748865602E+02  0.47868203147E+02  0.30241652237E+03  0.30637176108E+03  0.10000000000E+01 0.  0.
    9000005    1    3    3    0    0 -0.10748865602E+02 -0.47868203147E+02  0.63138692250E+02  0.79964976354E+02  0.10000000000E+01 0.  0.
<mgrwt>
<rscale>  0 0.12500184E+03</rscale>
<asrwt>0</asrwt>
<pdfrwt beam="1">  1        4 0.57837837E-01 0.12500184E+03</pdfrwt>
<pdfrwt beam="2">  1       -4 0.15985788E-02 0.12500184E+03</pdfrwt>
<totfact> 0.65901039E+03</totfact>
</mgrwt>
</event>
<event>
 5    1  0.3266594E-002  0.1250070E+03  0.7818608E-02  0.1235058E+00
          4   -1    0    0  501    0  0.00000000000E+00  0.00000000000E+00  0.13102586954E+03  0.13103202428E+03  0.12700000000E+01 0.  1.
         -4   -1    0    0    0  501 -0.00000000000E+00 -0.00000000000E+00 -0.29795774095E+02  0.29822827732E+02  0.12700000000E+01 0.  1.
         25    2    1    2    0    0  0.00000000000E+00  0.00000000000E+00  0.10123009544E+03  0.16085485201E+03  0.12500700458E+03 0.  0.
    9000005    1    3    3    0    0 -0.41554785415E+02 -0.22792161099E+02  0.10303251272E+03  0.11341508487E+03  0.10000000000E+01 0.  0.
    9000005    1    3    3    0    0  0.41554785415E+02  0.22792161099E+02 -0.18024172837E+01  0.47439767142E+02  0.10000000000E+01 0.  0.
<mgrwt>
<rscale>  0 0.12500700E+03</rscale>
<asrwt>0</asrwt>
<pdfrwt beam="1">  1        4 0.20160380E-01 0.12500700E+03</pdfrwt>
<pdfrwt beam="2">  1       -4 0.45865198E-02 0.12500700E+03</pdfrwt>
<totfact> 0.97162932E+03</totfact>
</mgrwt>
</event>
<event>
 5    1  0.3266594E-002  0.1250091E+03  0.7818608E-02  0.1235055E+00
          4   -1    0    0  501    0  0.00000000000E+00  0.00000000000E+00  0.20792252734E+03  0.20792640591E+03  0.12700000000E+01 0.  1.
         -4   -1    0    0    0  501 -0.00000000000E+00 -0.00000000000E+00 -0.18764274634E+02  0.18807203475E+02  0.12700000000E+01 0.  1.
         25    2    1    2    0    0  0.00000000000E+00  0.00000000000E+00  0.18915825271E+03  0.22673360939E+03  0.12500913990E+03 0.  0.
    9000005    1    3    3    0    0 -0.59612638476E+02  0.14698628483E+02  0.11573890138E+03  0.13101988261E+03  0.10000000000E+01 0.  0.
    9000005    1    3    3    0    0  0.59612638476E+02 -0.14698628483E+02  0.73419351326E+02  0.95713726782E+02  0.10000000000E+01 0.  0.
<mgrwt>
<rscale>  0 0.12500914E+03</rscale>
<asrwt>0</asrwt>
<pdfrwt beam="1">  1        4 0.31991683E-01 0.12500914E+03</pdfrwt>
<pdfrwt beam="2">  1       -4 0.28904120E-02 0.12500914E+03</pdfrwt>
<totfact> 0.85796187E+03</totfact>
</mgrwt>
</event>
<event>
 5    1  0.3266594E-002  0.1250124E+03  0.7818608E-02  0.1235050E+00
         -4   -1    0    0    0  501 -0.00000000000E+00  0.00000000000E+00  0.96780803042E+01  0.97610521141E+01  0.12700000000E+01 0.  1.
          4   -1    0    0  501    0  0.00000000000E+00 -0.00000000000E+00 -0.40189095280E+03  0.40189295944E+03  0.12700000000E+01 0.  1.
         25    2    1    2    0    0  0.00000000000E+00  0.00000000000E+00 -0.39221287250E+03  0.41165401155E+03  0.12501235088E+03 0.  0.
    9000005    1    3    3    0    0  0.46031004314E+02  0.15871239505E+02 -0.67081947688E+02  0.82895942646E+02  0.10000000000E+01 0.  0.
    9000005    1    3    3    0    0 -0.46031004314E+02 -0.15871239505E+02 -0.32513092481E+03  0.32875806890E+03  0.10000000000E+01 0.  0.
<mgrwt>
<rscale>  0 0.12501235E+03</rscale>
<asrwt>0</asrwt>
<pdfrwt beam="2">  1        4 0.61835901E-01 0.12501235E+03</pdfrwt>
<pdfrwt beam="1">  1       -4 0.14954725E-02 0.12501235E+03</pdfrwt>
<totfact> 0.63417621E+03</totfact>
</mgrwt>
</event>
<event>
 5    1  0.3266594E-002  0.1249999E+03  0.7818608E-02  0.1235069E+00
          4   -1    0    0  501    0  0.00000000000E+00  0.00000000000E+00  0.84290275156E+02  0.84299842146E+02  0.12700000000E+01 0.  1.
         -4   -1    0    0    0  501 -0.00000000000E+00 -0.00000000000E+00 -0.46321844784E+02  0.46339251226E+02  0.12700000000E+01 0.  1.
         25    2    1    2    0    0  0.00000000000E+00  0.00000000000E+00  0.37968430372E+02  0.13063909337E+03  0.12499988405E+03 0.  0.
    9000005    1    3    3    0    0 -0.42372155421E+02 -0.31493340472E+02 -0.15960935445E+02  0.55163226060E+02  0.10000000000E+01 0.  0.
    9000005    1    3    3    0    0  0.42372155421E+02  0.31493340472E+02  0.53929365817E+02  0.75475867312E+02  0.10000000000E+01 0.  0.
<mgrwt>
<rscale>  0 0.12499988E+03</rscale>
<asrwt>0</asrwt>
<pdfrwt beam="1">  1        4 0.12969809E-01 0.12499988E+03</pdfrwt>
<pdfrwt beam="2">  1       -4 0.71285126E-02 0.12499988E+03</pdfrwt>
<totfact> 0.10330860E+04</totfact>
</mgrwt>
</event>
<event>
 5    1  0.3266594E-002  0.1249989E+03  0.7818608E-02  0.1235071E+00
         -4   -1    0    0    0  501 -0.00000000000E+00  0.00000000000E+00  0.32989962695E+02  0.33014398959E+02  0.12700000000E+01 0.  1.
          4   -1    0    0  501    0  0.00000000000E+00 -0.00000000000E+00 -0.11833345776E+03  0.11834027263E+03  0.12700000000E+01 0.  1.
         25    2    1    2    0    0  0.00000000000E+00  0.00000000000E+00 -0.85343495066E+02  0.15135467159E+03  0.12499889784E+03 0.  0.
    9000005    1    3    3    0    0  0.20002980436E+02 -0.57405592158E+02 -0.60204387340E+02  0.85563365363E+02  0.10000000000E+01 0.  0.
    9000005    1    3    3    0    0 -0.20002980436E+02  0.57405592158E+02 -0.25139107726E+02  0.65791306224E+02  0.10000000000E+01 0.  0.
<mgrwt>
<rscale>  0 0.12499890E+03</rscale>
<asrwt>0</asrwt>
<pdfrwt beam="2">  1        4 0.18207551E-01 0.12499890E+03</pdfrwt>
<pdfrwt beam="1">  1       -4 0.50777829E-02 0.12499890E+03</pdfrwt>
<totfact> 0.99036804E+03</totfact>
</mgrwt>
</event>
<event>
 5    1  0.3266594E-002  0.1249960E+03  0.7818608E-02  0.1235076E+00
          4   -1    0    0  501    0  0.00000000000E+00  0.00000000000E+00  0.72315880189E+01  0.73422588673E+01  0.12700000000E+01 0. -1.
         -4   -1    0    0    0  501 -0.00000000000E+00 -0.00000000000E+00 -0.53591742721E+03  0.53591893201E+03  0.12700000000E+01 0. -1.
         25    2    1    2    0    0  0.00000000000E+00  0.00000000000E+00 -0.52868583919E+03  0.54326119088E+03  0.12499601975E+03 0.  0.
    9000005    1    3    3    0    0  0.72873579218E+01 -0.61978489200E+02 -0.27846817990E+03  0.28537688400E+03  0.10000000000E+01 0.  0.
    9000005    1    3    3    0    0 -0.72873579218E+01  0.61978489200E+02 -0.25021765929E+03  0.25788430687E+03  0.10000000000E+01 0.  0.
<mgrwt>
<rscale>  0 0.12499602E+03</rscale>
<asrwt>0</asrwt>
<pdfrwt beam="1">  1        4 0.11211813E-02 0.12499602E+03</pdfrwt>
<pdfrwt beam="2">  1       -4 0.82457433E-01 0.12499602E+03</pdfrwt>
<totfact> 0.52662029E+03</totfact>
</mgrwt>
</event>
<event>
 5    1  0.3266594E-002  0.1250046E+03  0.7818608E-02  0.1235062E+00
         -4   -1    0    0    0  501 -0.00000000000E+00  0.00000000000E+00  0.28539886369E+01  0.31238039534E+01  0.12700000000E+01 0.  1.
          4   -1    0    0  501    0  0.00000000000E+00 -0.00000000000E+00 -0.13067458049E+04  0.13067464220E+04  0.12700000000E+01 0.  1.
         25    2    1    2    0    0  0.00000000000E+00  0.00000000000E+00 -0.13038918163E+04  0.13098702260E+04  0.12500456166E+03 0.  0.
    9000005    1    3    3    0    0  0.46518996287E+02  0.11459317090E+01 -0.21482396645E+03  0.21980824992E+03  0.10000000000E+01 0.  0.
    9000005    1    3    3    0    0 -0.46518996287E+02 -0.11459317090E+01 -0.10890678498E+04  0.10900619761E+04  0.10000000000E+01 0.  0.
<mgrwt>
<rscale>  0 0.12500456E+03</rscale>
<asrwt>0</asrwt>
<pdfrwt beam="2">  1        4 0.20105816E+00 0.12500456E+03</pdfrwt>
<pdfrwt beam="1">  1       -4 0.45987872E-03 0.12500456E+03</pdfrwt>
<totfact> 0.21994633E+03</totfact>
</mgrwt>
</event>
<event>
 5    1  0.3266594E-002  0.1249990E+03  0.7818608E-02  0.1235071E+00
          4   -1    0    0  501    0  0.00000000000E+00  0.00000000000E+00  0.30744989344E+03  0.30745251646E+03  0.12700000000E+01 0.  1.
         -4   -1    0    0    0  501 -0.00000000000E+00 -0.00000000000E+00 -0.12670697408E+02  0.12734185204E+02  0.12700000000E+01 0.  1.
         25    2    1    2    0    0  0.00000000000E+00  0.00000000000E+00  0.29477919603E+03  0.32018670166E+03  0.12499899803E+03 0.  0.
    9000005    1    3    3    0    0 -0.56945484467E+01 -0.48287770023E+02  0.24794495931E+03  0.25266942724E+03  0.10000000000E+01 0.  0.
    9000005    1    3    3    0    0  0.56945484467E+01  0.48287770023E+02  0.46834236723E+02  0.67517274421E+02  0.10000000000E+01 0.  0.
<mgrwt>
<rscale>  0 0.12499900E+03</rscale>
<asrwt>0</asrwt>
<pdfrwt beam="1">  1        4 0.47305065E-01 0.12499900E+03</pdfrwt>
<pdfrwt beam="2">  1       -4 0.19544237E-02 0.12499900E+03</pdfrwt>
<totfact> 0.73135550E+03</totfact>
</mgrwt>
</event>
<event>
 5    1  0.3266594E-002  0.1250005E+03  0.7818608E-02  0.1235069E+00
          4   -1    0    0  501    0  0.00000000000E+00  0.00000000000E+00  0.18141682434E+02  0.18186080983E+02  0.12700000000E+01 0.  1.
         -4   -1    0    0    0  501 -0.00000000000E+00 -0.00000000000E+00 -0.21501129717E+03  0.21501504787E+03  0.12700000000E+01 0.  1.
         25    2    1    2    0    0  0.00000000000E+00  0.00000000000E+00 -0.19686961473E+03  0.23320112885E+03  0.12500048517E+03 0.  0.
    9000005    1    3    3    0    0  0.34111328496E+02  0.13083454042E+02 -0.19302138518E+03  0.19645104896E+03  0.10000000000E+01 0.  0.
    9000005    1    3    3    0    0 -0.34111328496E+02 -0.13083454042E+02 -0.38482295575E+01  0.36750079893E+02  0.10000000000E+01 0.  0.
<mgrwt>
<rscale>  0 0.12500049E+03</rscale>
<asrwt>0</asrwt>
<pdfrwt beam="1">  1        4 0.27947320E-02 0.12500049E+03</pdfrwt>
<pdfrwt beam="2">  1       -4 0.33082363E-01 0.12500049E+03</pdfrwt>
<totfact> 0.84819555E+03</totfact>
</mgrwt>
</event>
<event>
 5    1  0.3266594E-002  0.1250075E+03  0.7818608E-02  0.1235057E+00
          4   -1    0    0  501    0  0.00000000000E+00  0.00000000000E+00  0.43708563197E+03  0.43708747703E+03  0.12700000000E+01 0.  1.
         -4   -1    0    0    0  501 -0.00000000000E+00 -0.00000000000E+00 -0.88911285328E+01  0.89813733130E+01  0.12700000000E+01 0.  1.
         25    2    1    2    0    0  0.00000000000E+00  0.00000000000E+00  0.42819450344E+03  0.44606885034E+03  0.12500754566E+03 0.  0.
    9000005    1    3    3    0    0 -0.18971813804E+02 -0.66061398978E+01  0.42526767504E+03  0.42574307538E+03  0.10000000000E+01 0.  0.
    9000005    1    3    3    0    0  0.18971813804E+02  0.66061398978E+01  0.29268284037E+01  0.20325774963E+02  0.10000000000E+01 0.  0.
<mgrwt>
<rscale>  0 0.12500755E+03</rscale>
<asrwt>0</asrwt>
<pdfrwt beam="1">  1        4 0.67251024E-01 0.12500755E+03</pdfrwt>
<pdfrwt beam="2">  1       -4 0.13749498E-02 0.12500755E+03</pdfrwt>
<totfact> 0.60295845E+03</totfact>
</mgrwt>
</event>
<event>
 5    1  0.3266594E-002  0.1250001E+03  0.7818608E-02  0.1235069E+00
         -4   -1    0    0    0  501 -0.00000000000E+00  0.00000000000E+00  0.93986389579E+02  0.93994969685E+02  0.12700000000E+01 0. -1.
          4   -1    0    0  501    0  0.00000000000E+00 -0.00000000000E+00 -0.41541750770E+02  0.41561159236E+02  0.12700000000E+01 0. -1.
         25    2    1    2    0    0  0.00000000000E+00  0.00000000000E+00  0.52444638809E+02  0.13555612892E+03  0.12500009579E+03 0.  0.
    9000005    1    3    3    0    0  0.35941229470E+01 -0.33980665331E+02 -0.30518811142E+02  0.45825769711E+02  0.10000000000E+01 0.  0.
    9000005    1    3    3    0    0 -0.35941229470E+01  0.33980665331E+02  0.82963449951E+02  0.89730359210E+02  0.10000000000E+01 0.  0.
<mgrwt>
<rscale>  0 0.12500010E+03</rscale>
<asrwt>0</asrwt>
<pdfrwt beam="2">  1        4 0.63931916E-02 0.12500010E+03</pdfrwt>
<pdfrwt beam="1">  1       -4 0.14461597E-01 0.12500010E+03</pdfrwt>
<totfact> 0.10226340E+04</totfact>
</mgrwt>
</event>
<event>
 5    1  0.3266594E-002  0.1250037E+03  0.7818608E-02  0.1235063E+00
         -4   -1    0    0    0  501 -0.00000000000E+00  0.00000000000E+00  0.32773855964E+02  0.32798453237E+02  0.12700000000E+01 0. -1.
          4   -1    0    0  501    0  0.00000000000E+00 -0.00000000000E+00 -0.11912237418E+03  0.11912914391E+03  0.12700000000E+01 0. -1.
         25    2    1    2    0    0  0.00000000000E+00  0.00000000000E+00 -0.86348518212E+02  0.15192759715E+03  0.12500371266E+03 0.  0.
    9000005    1    3    3    0    0 -0.49698120178E+02 -0.22448422143E+02 -0.80271320417E+02  0.97048027736E+02  0.10000000000E+01 0.  0.
    9000005    1    3    3    0    0  0.49698120178E+02  0.22448422143E+02 -0.60771977949E+01  0.54879569413E+02  0.10000000000E+01 0.  0.
<mgrwt>
<rscale>  0 0.12500371E+03</rscale>
<asrwt>0</asrwt>
<pdfrwt beam="2">  1        4 0.18328932E-01 0.12500371E+03</pdfrwt>
<pdfrwt beam="1">  1       -4 0.50445446E-02 0.12500371E+03</pdfrwt>
<totfact> 0.98912576E+03</totfact>
</mgrwt>
</event>
<event>
 5    1  0.3266594E-002  0.1249989E+03  0.7818608E-02  0.1235071E+00
          4   -1    0    0  501    0  0.00000000000E+00  0.00000000000E+00  0.22404802687E+03  0.22405162629E+03  0.12700000000E+01 0. -1.
         -4   -1    0    0    0  501 -0.00000000000E+00 -0.00000000000E+00 -0.17407709447E+02  0.17453975140E+02  0.12700000000E+01 0. -1.
         25    2    1    2    0    0  0.00000000000E+00  0.00000000000E+00  0.20664031742E+03  0.24150560143E+03  0.12499893895E+03 0.  0.
    9000005    1    3    3    0    0  0.14869716214E+02  0.60677866529E+02  0.10040810095E+03  0.11826114613E+03  0.10000000000E+01 0.  0.
    9000005    1    3    3    0    0 -0.14869716214E+02 -0.60677866529E+02  0.10623221647E+03  0.12324445530E+03  0.10000000000E+01 0.  0.
<mgrwt>
<rscale>  0 0.12499894E+03</rscale>
<asrwt>0</asrwt>
<pdfrwt beam="1">  1        4 0.34472763E-01 0.12499894E+03</pdfrwt>
<pdfrwt beam="2">  1       -4 0.26819449E-02 0.12499894E+03</pdfrwt>
<totfact> 0.83575620E+03</totfact>
</mgrwt>
</event>
<event>
 5    1  0.3266594E-002  0.1250002E+03  0.7818608E-02  0.1235069E+00
          4   -1    0    0  501    0  0.00000000000E+00  0.00000000000E+00  0.81633627332E+02  0.81643505629E+02  0.12700000000E+01 0. -1.
         -4   -1    0    0    0  501 -0.00000000000E+00 -0.00000000000E+00 -0.47829976047E+02  0.47846833842E+02  0.12700000000E+01 0. -1.
         25    2    1    2    0    0  0.00000000000E+00  0.00000000000E+00  0.33803651285E+02  0.12949033947E+03  0.12500024470E+03 0.  0.
    9000005    1    3    3    0    0 -0.14929629621E+02 -0.18308215564E+02 -0.43031183753E+02  0.49099565914E+02  0.10000000000E+01 0.  0.
    9000005    1    3    3    0    0  0.14929629621E+02  0.18308215564E+02  0.76834835038E+02  0.80390773557E+02  0.10000000000E+01 0.  0.
<mgrwt>
<rscale>  0 0.12500024E+03</rscale>
<asrwt>0</asrwt>
<pdfrwt beam="1">  1        4 0.12561076E-01 0.12500024E+03</pdfrwt>
<pdfrwt beam="2">  1       -4 0.73605145E-02 0.12500024E+03</pdfrwt>
<totfact> 0.10355365E+04</totfact>
</mgrwt>
</event>
<event>
 5    1  0.3266594E-002  0.1249998E+03  0.7818608E-02  0.1235070E+00
         -4   -1    0    0    0  501 -0.00000000000E+00  0.00000000000E+00  0.57358829578E+01  0.58747981502E+01  0.12700000000E+01 0.  1.
          4   -1    0    0  501    0  0.00000000000E+00 -0.00000000000E+00 -0.67272970494E+03  0.67273090371E+03  0.12700000000E+01 0.  1.
         25    2    1    2    0    0  0.00000000000E+00  0.00000000000E+00 -0.66699382198E+03  0.67860570186E+03  0.12499976015E+03 0.  0.
    9000005    1    3    3    0    0 -0.50369422558E+02  0.20342835454E+02 -0.16578784147E+03  0.17446351498E+03  0.10000000000E+01 0.  0.
    9000005    1    3    3    0    0  0.50369422558E+02 -0.20342835454E+02 -0.50120598052E+03  0.50414218688E+03  0.10000000000E+01 0.  0.
<mgrwt>
<rscale>  0 0.12499976E+03</rscale>
<asrwt>0</asrwt>
<pdfrwt beam="2">  1        4 0.10350759E+00 0.12499976E+03</pdfrwt>
<pdfrwt beam="1">  1       -4 0.89322206E-03 0.12499976E+03</pdfrwt>
<totfact> 0.44240647E+03</totfact>
</mgrwt>
</event>
<event>
 5    1  0.3266594E-002  0.1249991E+03  0.7818608E-02  0.1235071E+00
          4   -1    0    0  501    0  0.00000000000E+00  0.00000000000E+00  0.46666251078E+01  0.48363508864E+01  0.12700000000E+01 0. -1.
         -4   -1    0    0    0  501 -0.00000000000E+00 -0.00000000000E+00 -0.82192927068E+03  0.82193025185E+03  0.12700000000E+01 0. -1.
         25    2    1    2    0    0  0.00000000000E+00  0.00000000000E+00 -0.81726264558E+03  0.82676660274E+03  0.12499913419E+03 0.  0.
    9000005    1    3    3    0    0  0.27237516957E+02  0.47684210014E+02 -0.60589909492E+03  0.60838341483E+03  0.10000000000E+01 0.  0.
    9000005    1    3    3    0    0 -0.27237516957E+02 -0.47684210014E+02 -0.21136355066E+03  0.21838318791E+03  0.10000000000E+01 0.  0.
<mgrwt>
<rscale>  0 0.12499913E+03</rscale>
<asrwt>0</asrwt>
<pdfrwt beam="1">  1        4 0.73107428E-03 0.12499913E+03</pdfrwt>
<pdfrwt beam="2">  1       -4 0.12646368E+00 0.12499913E+03</pdfrwt>
<totfact> 0.37098087E+03</totfact>
</mgrwt>
</event>
<event>
 5    1  0.3266594E-002  0.1249971E+03  0.7818608E-02  0.1235074E+00
          4   -1    0    0  501    0  0.00000000000E+00  0.00000000000E+00  0.41012116031E+02  0.41031775021E+02  0.12700000000E+01 0. -1.
         -4   -1    0    0    0  501 -0.00000000000E+00 -0.00000000000E+00 -0.95195141288E+02  0.95203612457E+02  0.12700000000E+01 0. -1.
         25    2    1    2    0    0  0.00000000000E+00  0.00000000000E+00 -0.54183025257E+02  0.13623538748E+03  0.12499712227E+03 0.  0.
    9000005    1    3    3    0    0  0.23600090093E+02 -0.41895664491E+01  0.35808121444E+02  0.43101488150E+02  0.10000000000E+01 0.  0.
    9000005    1    3    3    0    0 -0.23600090093E+02  0.41895664491E+01 -0.89991146700E+02  0.93133899327E+02  0.10000000000E+01 0.  0.
<mgrwt>
<rscale>  0 0.12499712E+03</rscale>
<asrwt>0</asrwt>
<pdfrwt beam="1">  1        4 0.63117202E-02 0.12499712E+03</pdfrwt>
<pdfrwt beam="2">  1       -4 0.14647570E-01 0.12499712E+03</pdfrwt>
<totfact> 0.10212760E+04</totfact>
</mgrwt>
</event>
<event>
 5    1  0.3266594E-002  0.1250008E+03  0.7818608E-02  0.1235068E+00
          4   -1    0    0  501    0  0.00000000000E+00  0.00000000000E+00  0.21842666061E+02  0.21879555769E+02  0.12700000000E+01 0. -1.
         -4   -1    0    0    0  501 -0.00000000000E+00 -0.00000000000E+00 -0.17864798650E+03  0.17865250063E+03  0.12700000000E+01 0. -1.
         25    2    1    2    0    0  0.00000000000E+00  0.00000000000E+00 -0.15680532044E+03  0.20053205640E+03  0.12500078850E+03 0.  0.
    9000005    1    3    3    0    0 -0.51253525992E+02 -0.35387363354E+02 -0.70205311614E+02  0.93856140932E+02  0.10000000000E+01 0.  0.
    9000005    1    3    3    0    0  0.51253525992E+02  0.35387363354E+02 -0.86600008826E+02  0.10667591547E+03  0.10000000000E+01 0.  0.
<mgrwt>
<rscale>  0 0.12500079E+03</rscale>
<asrwt>0</asrwt>
<pdfrwt beam="1">  1        4 0.33635952E-02 0.12500079E+03</pdfrwt>
<pdfrwt beam="2">  1       -4 0.27487490E-01 0.12500079E+03</pdfrwt>
<totfact> 0.90044260E+03</totfact>
</mgrwt>
</event>
<event>
 5    1  0.3266594E-002  0.1250269E+03  0.7818608E-02  0.1235027E+00
         -4   -1    0    0    0  501 -0.00000000000E+00  0.00000000000E+00  0.21784805706E+03  0.21785175892E+03  0.12700000000E+01 0.  1.
          4   -1    0    0  501    0  0.00000000000E+00 -0.00000000000E+00 -0.17912465471E+02  0.17957430753E+02  0.12700000000E+01 0.  1.
         25    2    1    2    0    0  0.00000000000E+00  0.00000000000E+00  0.19993559159E+03  0.23580918967E+03  0.12502692970E+03 0.  0.
    9000005    1    3    3    0    0  0.39040713267E+01 -0.41569003766E+02  0.12236078683E+02  0.43519483781E+02  0.10000000000E+01 0.  0.
    9000005    1    3    3    0    0 -0.39040713267E+01  0.41569003766E+02  0.18769951291E+03  0.19228970589E+03  0.10000000000E+01 0.  0.
<mgrwt>
<rscale>  0 0.12502693E+03</rscale>
<asrwt>0</asrwt>
<pdfrwt beam="2">  1        4 0.27595076E-02 0.12502693E+03</pdfrwt>
<pdfrwt beam="1">  1       -4 0.33518829E-01 0.12502693E+03</pdfrwt>
<totfact> 0.84374816E+03</totfact>
</mgrwt>
</event>
<event>
 5    1  0.3266594E-002  0.1250031E+03  0.7818608E-02  0.1235064E+00
         -4   -1    0    0    0  501 -0.00000000000E+00  0.00000000000E+00  0.23610179563E+02  0.23644311768E+02  0.12700000000E+01 0.  1.
          4   -1    0    0  501    0  0.00000000000E+00 -0.00000000000E+00 -0.16529983934E+03  0.16530471798E+03  0.12700000000E+01 0.  1.
         25    2    1    2    0    0  0.00000000000E+00  0.00000000000E+00 -0.14168965978E+03  0.18894902975E+03  0.12500310458E+03 0.  0.
    9000005    1    3    3    0    0 -0.56270398906E+02  0.26530726902E+02 -0.61875975100E+02  0.87748923398E+02  0.10000000000E+01 0.  0.
    9000005    1    3    3    0    0  0.56270398906E+02 -0.26530726902E+02 -0.79813684677E+02  0.10120010635E+03  0.10000000000E+01 0.  0.
<mgrwt>
<rscale>  0 0.12500310E+03</rscale>
<asrwt>0</asrwt>
<pdfrwt beam="2">  1        4 0.25433745E-01 0.12500310E+03</pdfrwt>
<pdfrwt beam="1">  1       -4 0.36353363E-02 0.12500310E+03</pdfrwt>
<totfact> 0.92024102E+03</totfact>
</mgrwt>
</event>
<event>
 5    1  0.3266594E-002  0.1249964E+03  0.7818608E-02  0.1235075E+00
          4   -1    0    0  501    0  0.00000000000E+00  0.00000000000E+00  0.34195991366E+02  0.34219566413E+02  0.12700000000E+01 0. -1.
         -4   -1    0    0    0  501 -0.00000000000E+00 -0.00000000000E+00 -0.11415821060E+03  0.11416527470E+03  0.12700000000E+01 0. -1.
         25    2    1    2    0    0  0.00000000000E+00  0.00000000000E+00 -0.79962219230E+02  0.14838484111E+03  0.12499641822E+03 0.  0.
    9000005    1    3    3    0    0  0.38440019061E+02  0.34261539417E+02 -0.82011238160E+02  0.96841785057E+02  0.10000000000E+01 0.  0.
    9000005    1    3    3    0    0 -0.38440019061E+02 -0.34261539417E+02  0.20490189294E+01  0.51543056052E+02  0.10000000000E+01 0.  0.
<mgrwt>
<rscale>  0 0.12499642E+03</rscale>
<asrwt>0</asrwt>
<pdfrwt beam="1">  1        4 0.52632787E-02 0.12499642E+03</pdfrwt>
<pdfrwt beam="2">  1       -4 0.17565158E-01 0.12499642E+03</pdfrwt>
<totfact> 0.99634668E+03</totfact>
</mgrwt>
</event>
<event>
 5    1  0.3266594E-002  0.1250151E+03  0.7818608E-02  0.1235046E+00
          4   -1    0    0  501    0  0.00000000000E+00  0.00000000000E+00  0.28107911214E+02  0.28136587796E+02  0.12700000000E+01 0.  1.
         -4   -1    0    0    0  501 -0.00000000000E+00 -0.00000000000E+00 -0.13890437600E+03  0.13891018167E+03  0.12700000000E+01 0.  1.
         25    2    1    2    0    0  0.00000000000E+00  0.00000000000E+00 -0.11079646479E+03  0.16704676947E+03  0.12501506541E+03 0.  0.
    9000005    1    3    3    0    0  0.51216223676E+02 -0.33750419966E+02 -0.39363717950E+02  0.72888234348E+02  0.10000000000E+01 0.  0.
    9000005    1    3    3    0    0 -0.51216223676E+02  0.33750419966E+02 -0.71432746835E+02  0.94158535120E+02  0.10000000000E+01 0.  0.
<mgrwt>
<rscale>  0 0.12501507E+03</rscale>
<asrwt>0</asrwt>
<pdfrwt beam="1">  1        4 0.43269466E-02 0.12501507E+03</pdfrwt>
<pdfrwt beam="2">  1       -4 0.21372556E-01 0.12501507E+03</pdfrwt>
<totfact> 0.95968689E+03</totfact>
</mgrwt>
</event>
<event>
 5    1  0.3266594E-002  0.1249996E+03  0.7818608E-02  0.1235070E+00
         -4   -1    0    0    0  501 -0.00000000000E+00  0.00000000000E+00  0.13214595579E+02  0.13275482527E+02  0.12700000000E+01 0. -1.
          4   -1    0    0  501    0  0.00000000000E+00 -0.00000000000E+00 -0.29485769864E+03  0.29486043367E+03  0.12700000000E+01 0. -1.
         25    2    1    2    0    0  0.00000000000E+00  0.00000000000E+00 -0.28164310306E+03  0.30813591620E+03  0.12499962141E+03 0.  0.
    9000005    1    3    3    0    0 -0.39797485956E+02 -0.46213449116E+02 -0.17441416181E+03  0.18477235347E+03  0.10000000000E+01 0.  0.
    9000005    1    3    3    0    0  0.39797485956E+02  0.46213449116E+02 -0.10722894125E+03  0.12336356273E+03  0.10000000000E+01 0.  0.
<mgrwt>
<rscale>  0 0.12499962E+03</rscale>
<asrwt>0</asrwt>
<pdfrwt beam="2">  1        4 0.45367612E-01 0.12499962E+03</pdfrwt>
<pdfrwt beam="1">  1       -4 0.20379089E-02 0.12499962E+03</pdfrwt>
<totfact> 0.74590116E+03</totfact>
</mgrwt>
</event>
<event>
 5    1  0.3266594E-002  0.1250005E+03  0.7818608E-02  0.1235069E+00
         -4   -1    0    0    0  501 -0.00000000000E+00  0.00000000000E+00  0.33733757015E+02  0.33757654870E+02  0.12700000000E+01 0. -1.
          4   -1    0    0  501    0  0.00000000000E+00 -0.00000000000E+00 -0.11572896319E+03  0.11573593141E+03  0.12700000000E+01 0. -1.
         25    2    1    2    0    0  0.00000000000E+00  0.00000000000E+00 -0.81995206171E+02  0.14949358628E+03  0.12500047402E+03 0.  0.
    9000005    1    3    3    0    0  0.16221870438E+02  0.24065115923E+02 -0.10718639458E+03  0.11105044830E+03  0.10000000000E+01 0.  0.
    9000005    1    3    3    0    0 -0.16221870438E+02 -0.24065115923E+02  0.25191188406E+02  0.38443137986E+02  0.10000000000E+01 0.  0.
<mgrwt>
<rscale>  0 0.12500047E+03</rscale>
<asrwt>0</asrwt>
<pdfrwt beam="2">  1        4 0.17806830E-01 0.12500047E+03</pdfrwt>
<pdfrwt beam="1">  1       -4 0.51921831E-02 0.12500047E+03</pdfrwt>
<totfact> 0.99403679E+03</totfact>
</mgrwt>
</event>
<event>
 5    1  0.3266594E-002  0.1250230E+03  0.7818608E-02  0.1235033E+00
         -4   -1    0    0    0  501 -0.00000000000E+00  0.00000000000E+00  0.21267861625E+03  0.21268240809E+03  0.12700000000E+01 0. -1.
          4   -1    0    0  501    0  0.00000000000E+00 -0.00000000000E+00 -0.18347761051E+02  0.18391662121E+02  0.12700000000E+01 0. -1.
         25    2    1    2    0    0  0.00000000000E+00  0.00000000000E+00  0.19433085520E+03  0.23107407021E+03  0.12502297645E+03 0.  0.
    9000005    1    3    3    0    0 -0.52091822553E+02 -0.25517950711E+02  0.14019291130E+03  0.15172269495E+03  0.10000000000E+01 0.  0.
    9000005    1    3    3    0    0  0.52091822553E+02  0.25517950711E+02  0.54137943902E+02  0.79351375258E+02  0.10000000000E+01 0.  0.
<mgrwt>
<rscale>  0 0.12502298E+03</rscale>
<asrwt>0</asrwt>
<pdfrwt beam="2">  1        4 0.28264013E-02 0.12502298E+03</pdfrwt>
<pdfrwt beam="1">  1       -4 0.32723454E-01 0.12502298E+03</pdfrwt>
<totfact> 0.85101315E+03</totfact>
</mgrwt>
</event>
<event>
 5    1  0.3266594E-002  0.1250020E+03  0.7818608E-02  0.1235066E+00
          4   -1    0    0  501    0  0.00000000000E+00  0.00000000000E+00  0.72849269232E+03  0.72849379933E+03  0.12700000000E+01 0.  1.
         -4   -1    0    0    0  501 -0.00000000000E+00 -0.00000000000E+00 -0.52859475614E+01  0.54363721012E+01  0.12700000000E+01 0.  1.
         25    2    1    2    0    0  0.00000000000E+00  0.00000000000E+00  0.72320674475E+03  0.73393017143E+03  0.12500200348E+03 0.  0.
    9000005    1    3    3    0    0 -0.35629881405E+02 -0.31612037159E+02  0.59912574001E+03  0.60101702279E+03  0.10000000000E+01 0.  0.
    9000005    1    3    3    0    0  0.35629881405E+02  0.31612037159E+02  0.12408100475E+03  0.13291314864E+03  0.10000000000E+01 0.  0.
<mgrwt>
<rscale>  0 0.12500200E+03</rscale>
<asrwt>0</asrwt>
<pdfrwt beam="1">  1        4 0.11208743E+00 0.12500200E+03</pdfrwt>
<pdfrwt beam="2">  1       -4 0.82487915E-03 0.12500200E+03</pdfrwt>
<totfact> 0.41352999E+03</totfact>
</mgrwt>
</event>
<event>
 5    1  0.3266594E-002  0.1249946E+03  0.7818608E-02  0.1235078E+00
         -4   -1    0    0    0  501 -0.00000000000E+00  0.00000000000E+00  0.56418653506E+02  0.56432945727E+02  0.12700000000E+01 0.  1.
          4   -1    0    0  501    0  0.00000000000E+00 -0.00000000000E+00 -0.69202031310E+02  0.69213683888E+02  0.12700000000E+01 0.  1.
         25    2    1    2    0    0  0.00000000000E+00  0.00000000000E+00 -0.12783377804E+02  0.12564662962E+03  0.12499464303E+03 0.  0.
    9000005    1    3    3    0    0 -0.35799095945E+02 -0.14884683085E+02 -0.55655341570E+02  0.67835434002E+02  0.10000000000E+01 0.  0.
    9000005    1    3    3    0    0  0.35799095945E+02  0.14884683085E+02  0.42871963767E+02  0.57811195613E+02  0.10000000000E+01 0.  0.
<mgrwt>
<rscale>  0 0.12499464E+03</rscale>
<asrwt>0</asrwt>
<pdfrwt beam="2">  1        4 0.10648462E-01 0.12499464E+03</pdfrwt>
<pdfrwt beam="1">  1       -4 0.86817886E-02 0.12499464E+03</pdfrwt>
<totfact> 0.10439981E+04</totfact>
</mgrwt>
</event>
<event>
 5    1  0.3266594E-002  0.1250043E+03  0.7818608E-02  0.1235063E+00
          4   -1    0    0  501    0  0.00000000000E+00  0.00000000000E+00  0.28783878989E+02  0.28811882786E+02  0.12700000000E+01 0. -1.
         -4   -1    0    0    0  501 -0.00000000000E+00 -0.00000000000E+00 -0.13562205271E+03  0.13562799888E+03  0.12700000000E+01 0. -1.
         25    2    1    2    0    0  0.00000000000E+00  0.00000000000E+00 -0.10683817372E+03  0.16443988167E+03  0.12500431720E+03 0.  0.
    9000005    1    3    3    0    0  0.17573804662E+02 -0.53572946204E+02 -0.88878864894E+02  0.10525849990E+03  0.10000000000E+01 0.  0.
    9000005    1    3    3    0    0 -0.17573804662E+02  0.53572946204E+02 -0.17959308827E+02  0.59181381776E+02  0.10000000000E+01 0.  0.
<mgrwt>
<rscale>  0 0.12500432E+03</rscale>
<asrwt>0</asrwt>
<pdfrwt beam="1">  1        4 0.44309007E-02 0.12500432E+03</pdfrwt>
<pdfrwt beam="2">  1       -4 0.20867542E-01 0.12500432E+03</pdfrwt>
<totfact> 0.96484217E+03</totfact>
</mgrwt>
</event>
<event>
 5    1  0.3266594E-002  0.1249982E+03  0.7818608E-02  0.1235072E+00
          4   -1    0    0  501    0  0.00000000000E+00  0.00000000000E+00  0.93282480649E+02  0.93291125495E+02  0.12700000000E+01 0.  1.
         -4   -1    0    0    0  501 -0.00000000000E+00 -0.00000000000E+00 -0.41854076544E+02  0.41873340246E+02  0.12700000000E+01 0.  1.
         25    2    1    2    0    0  0.00000000000E+00  0.00000000000E+00  0.51428404105E+02  0.13516446574E+03  0.12499820819E+03 0.  0.
    9000005    1    3    3    0    0 -0.27870292839E+02 -0.51741349872E+02  0.48683711144E+02  0.76321846416E+02  0.10000000000E+01 0.  0.
    9000005    1    3    3    0    0  0.27870292839E+02  0.51741349872E+02  0.27446929611E+01  0.58842619325E+02  0.10000000000E+01 0.  0.
<mgrwt>
<rscale>  0 0.12499821E+03</rscale>
<asrwt>0</asrwt>
<pdfrwt beam="1">  1        4 0.14353298E-01 0.12499821E+03</pdfrwt>
<pdfrwt beam="2">  1       -4 0.64412356E-02 0.12499821E+03</pdfrwt>
<totfact> 0.10235019E+04</totfact>
</mgrwt>
</event>
<event>
 5    1  0.3266594E-002  0.1250013E+03  0.7818608E-02  0.1235067E+00
         -4   -1    0    0    0  501 -0.00000000000E+00  0.00000000000E+00  0.58669498243E+03  0.58669635699E+03  0.12700000000E+01 0.  1.
          4   -1    0    0  501    0  0.00000000000E+00 -0.00000000000E+00 -0.65962445650E+01  0.67173910383E+01  0.12700000000E+01 0.  1.
         25    2    1    2    0    0  0.00000000000E+00  0.00000000000E+00  0.58009873787E+03  0.59341374803E+03  0.12500132271E+03 0.  0.
    9000005    1    3    3    0    0 -0.39988761116E+02 -0.23948615823E+02  0.92441555253E+02  0.10353298196E+03  0.10000000000E+01 0.  0.
    9000005    1    3    3    0    0  0.39988761116E+02  0.23948615823E+02  0.48765718261E+03  0.48988076607E+03  0.10000000000E+01 0.  0.
<mgrwt>
<rscale>  0 0.12500132E+03</rscale>
<asrwt>0</asrwt>
<pdfrwt beam="2">  1        4 0.10242314E-02 0.12500132E+03</pdfrwt>
<pdfrwt beam="1">  1       -4 0.90270206E-01 0.12500132E+03</pdfrwt>
<totfact> 0.49284574E+03</totfact>
</mgrwt>
</event>
<event>
 5    1  0.3266594E-002  0.1250020E+03  0.7818608E-02  0.1235066E+00
          4   -1    0    0  501    0  0.00000000000E+00  0.00000000000E+00  0.20339266602E+04  0.20339270567E+04  0.12700000000E+01 0.  1.
         -4   -1    0    0    0  501 -0.00000000000E+00 -0.00000000000E+00 -0.17102206778E+01  0.21302006400E+01  0.12700000000E+01 0.  1.
         25    2    1    2    0    0  0.00000000000E+00  0.00000000000E+00  0.20322164395E+04  0.20360572573E+04  0.12500199238E+03 0.  0.
    9000005    1    3    3    0    0 -0.40252906138E+01  0.62270218248E+02  0.10715634467E+04  0.10733792449E+04  0.10000000000E+01 0.  0.
    9000005    1    3    3    0    0  0.40252906138E+01 -0.62270218248E+02  0.96065299276E+03  0.96267801239E+03  0.10000000000E+01 0.  0.
<mgrwt>
<rscale>  0 0.12500199E+03</rscale>
<asrwt>0</asrwt>
<pdfrwt beam="1">  1        4 0.31294586E+00 0.12500199E+03</pdfrwt>
<pdfrwt beam="2">  1       -4 0.29544589E-03 0.12500199E+03</pdfrwt>
<totfact> 0.93973259E+02</totfact>
</mgrwt>
</event>
<event>
 5    1  0.3266594E-002  0.1249997E+03  0.7818608E-02  0.1235070E+00
         -4   -1    0    0    0  501 -0.00000000000E+00  0.00000000000E+00  0.51997330073E+03  0.51997485167E+03  0.12700000000E+01 0. -1.
          4   -1    0    0  501    0  0.00000000000E+00 -0.00000000000E+00 -0.74571222180E+01  0.75644941520E+01  0.12700000000E+01 0. -1.
         25    2    1    2    0    0  0.00000000000E+00  0.00000000000E+00  0.51251617851E+03  0.52753934582E+03  0.12499971263E+03 0.  0.
    9000005    1    3    3    0    0 -0.44729767491E+02 -0.34892161857E+02  0.14563912762E+03  0.15630089748E+03  0.10000000000E+01 0.  0.
    9000005    1    3    3    0    0  0.44729767491E+02  0.34892161857E+02  0.36687705089E+03  0.37123844834E+03  0.10000000000E+01 0.  0.
<mgrwt>
<rscale>  0 0.12499971E+03</rscale>
<asrwt>0</asrwt>
<pdfrwt beam="2">  1        4 0.11556282E-02 0.12499971E+03</pdfrwt>
<pdfrwt beam="1">  1       -4 0.80004277E-01 0.12499971E+03</pdfrwt>
<totfact> 0.53789554E+03</totfact>
</mgrwt>
</event>
<event>
 5    1  0.3266594E-002  0.1249998E+03  0.7818608E-02  0.1235070E+00
          4   -1    0    0  501    0  0.00000000000E+00  0.00000000000E+00  0.22930677134E+02  0.22965819250E+02  0.12700000000E+01 0.  1.
         -4   -1    0    0    0  501 -0.00000000000E+00 -0.00000000000E+00 -0.17018190532E+03  0.17018664401E+03  0.12700000000E+01 0.  1.
         25    2    1    2    0    0  0.00000000000E+00  0.00000000000E+00 -0.14725122819E+03  0.19315246326E+03  0.12499979944E+03 0.  0.
    9000005    1    3    3    0    0 -0.14842360913E+02 -0.14206801076E+02 -0.16482133106E+03  0.16609997004E+03  0.10000000000E+01 0.  0.
    9000005    1    3    3    0    0  0.14842360913E+02  0.14206801076E+02  0.17570102874E+02  0.27052493218E+02  0.10000000000E+01 0.  0.
<mgrwt>
<rscale>  0 0.12499980E+03</rscale>
<asrwt>0</asrwt>
<pdfrwt beam="1">  1        4 0.35308643E-02 0.12499980E+03</pdfrwt>
<pdfrwt beam="2">  1       -4 0.26184899E-01 0.12499980E+03</pdfrwt>
<totfact> 0.91302082E+03</totfact>
</mgrwt>
</event>
<event>
 5    1  0.3266594E-002  0.1249984E+03  0.7818608E-02  0.1235072E+00
          4   -1    0    0  501    0  0.00000000000E+00  0.00000000000E+00  0.50204517500E+03  0.50204678132E+03  0.12700000000E+01 0. -1.
         -4   -1    0    0    0  501 -0.00000000000E+00 -0.00000000000E+00 -0.77270217204E+01  0.78306937539E+01  0.12700000000E+01 0. -1.
         25    2    1    2    0    0  0.00000000000E+00  0.00000000000E+00  0.49431815328E+03  0.50987747508E+03  0.12499841172E+03 0.  0.
    9000005    1    3    3    0    0  0.69731742586E+01  0.51207738576E+02  0.39046709132E+03  0.39387359274E+03  0.10000000000E+01 0.  0.
    9000005    1    3    3    0    0 -0.69731742586E+01 -0.51207738576E+02  0.10385106195E+03  0.11600388234E+03  0.10000000000E+01 0.  0.
<mgrwt>
<rscale>  0 0.12499841E+03</rscale>
<asrwt>0</asrwt>
<pdfrwt beam="1">  1        4 0.77245818E-01 0.12499841E+03</pdfrwt>
<pdfrwt beam="2">  1       -4 0.11968709E-02 0.12499841E+03</pdfrwt>
<totfact> 0.55107981E+03</totfact>
</mgrwt>
</event>
<event>
 5    1  0.3266594E-002  0.1250005E+03  0.7818608E-02  0.1235068E+00
         -4   -1    0    0    0  501 -0.00000000000E+00  0.00000000000E+00  0.12520401827E+03  0.12521045919E+03  0.12700000000E+01 0.  1.
          4   -1    0    0  501    0  0.00000000000E+00 -0.00000000000E+00 -0.31179164683E+02  0.31205018992E+02  0.12700000000E+01 0.  1.
         25    2    1    2    0    0  0.00000000000E+00  0.00000000000E+00  0.94024853582E+02  0.15641547818E+03  0.12500051489E+03 0.  0.
    9000005    1    3    3    0    0 -0.36429090420E+02 -0.16348218556E+02  0.10716610581E+03  0.11436746528E+03  0.10000000000E+01 0.  0.
    9000005    1    3    3    0    0  0.36429090420E+02  0.16348218556E+02 -0.13141252231E+02  0.42048012902E+02  0.10000000000E+01 0.  0.
<mgrwt>
<rscale>  0 0.12500051E+03</rscale>
<asrwt>0</asrwt>
<pdfrwt beam="2">  1        4 0.47992788E-02 0.12500051E+03</pdfrwt>
<pdfrwt beam="1">  1       -4 0.19264641E-01 0.12500051E+03</pdfrwt>
<totfact> 0.98037202E+03</totfact>
</mgrwt>
</event>
<event>
 5    1  0.3266594E-002  0.1250089E+03  0.7818608E-02  0.1235055E+00
         -4   -1    0    0    0  501 -0.00000000000E+00  0.00000000000E+00  0.11778869436E+03  0.11779554074E+03  0.12700000000E+01 0. -1.
          4   -1    0    0  501    0  0.00000000000E+00 -0.00000000000E+00 -0.33147933851E+02  0.33172253746E+02  0.12700000000E+01 0. -1.
         25    2    1    2    0    0  0.00000000000E+00  0.00000000000E+00  0.84640760510E+02  0.15096779449E+03  0.12500886622E+03 0.  0.
    9000005    1    3    3    0    0  0.34171558565E+02 -0.58683089257E+01  0.10511471607E+03  0.11068981886E+03  0.10000000000E+01 0.  0.
    9000005    1    3    3    0    0 -0.34171558565E+02  0.58683089257E+01 -0.20473955564E+02  0.40277975629E+02  0.10000000000E+01 0.  0.
<mgrwt>
<rscale>  0 0.12500887E+03</rscale>
<asrwt>0</asrwt>
<pdfrwt beam="2">  1        4 0.51020795E-02 0.12500887E+03</pdfrwt>
<pdfrwt beam="1">  1       -4 0.18123735E-01 0.12500887E+03</pdfrwt>
<totfact> 0.99091360E+03</totfact>
</mgrwt>
</event>
<event>
 5    1  0.3266594E-002  0.1250000E+03  0.7818608E-02  0.1235069E+00
          4   -1    0    0  501    0  0.00000000000E+00  0.00000000000E+00  0.83020630346E+02  0.83030343628E+02  0.12700000000E+01 0.  1.
         -4   -1    0    0    0  501 -0.00000000000E+00 -0.00000000000E+00 -0.47030499872E+02  0.47047644130E+02  0.12700000000E+01 0.  1.
         25    2    1    2    0    0  0.00000000000E+00  0.00000000000E+00  0.35990130474E+02  0.13007798776E+03  0.12499997363E+03 0.  0.
    9000005    1    3    3    0    0  0.34033956006E+02  0.37681274321E+02  0.55903785897E+02  0.75527623248E+02  0.10000000000E+01 0.  0.
    9000005    1    3    3    0    0 -0.34033956006E+02 -0.37681274321E+02 -0.19913655423E+02  0.54550364510E+02  0.10000000000E+01 0.  0.
<mgrwt>
<rscale>  0 0.12499997E+03</rscale>
<asrwt>0</asrwt>
<pdfrwt beam="1">  1        4 0.12774471E-01 0.12499997E+03</pdfrwt>
<pdfrwt beam="2">  1       -4 0.72375275E-02 0.12499997E+03</pdfrwt>
<totfact> 0.10342846E+04</totfact>
</mgrwt>
</event>
<event>
 5    1  0.3266594E-002  0.1250019E+03  0.7818608E-02  0.1235066E+00
         -4   -1    0    0    0  501 -0.00000000000E+00  0.00000000000E+00  0.18059425550E+02  0.18104025828E+02  0.12700000000E+01 0. -1.
          4   -1    0    0  501    0  0.00000000000E+00 -0.00000000000E+00 -0.21599327167E+03  0.21599700532E+03  0.12700000000E+01 0. -1.
         25    2    1    2    0    0  0.00000000000E+00  0.00000000000E+00 -0.19793384612E+03  0.23410103115E+03  0.12500194136E+03 0.  0.
    9000005    1    3    3    0    0 -0.25351696381E+02 -0.55975468898E+02 -0.12027135692E+03  0.13506354402E+03  0.10000000000E+01 0.  0.
    9000005    1    3    3    0    0  0.25351696381E+02  0.55975468898E+02 -0.77662489199E+02  0.99037487127E+02  0.10000000000E+01 0.  0.
<mgrwt>
<rscale>  0 0.12500194E+03</rscale>
<asrwt>0</asrwt>
<pdfrwt beam="2">  1        4 0.33233450E-01 0.12500194E+03</pdfrwt>
<pdfrwt beam="1">  1       -4 0.27820913E-02 0.12500194E+03</pdfrwt>
<totfact> 0.84680166E+03</totfact>
</mgrwt>
</event>
<event>
 5    1  0.3266594E-002  0.1250005E+03  0.7818608E-02  0.1235069E+00
          4   -1    0    0  501    0  0.00000000000E+00  0.00000000000E+00  0.31691353242E+02  0.31716790038E+02  0.12700000000E+01 0.  1.
         -4   -1    0    0    0  501 -0.00000000000E+00 -0.00000000000E+00 -0.12318194763E+03  0.12318849427E+03  0.12700000000E+01 0.  1.
         25    2    1    2    0    0  0.00000000000E+00  0.00000000000E+00 -0.91490594385E+02  0.15490528431E+03  0.12500047298E+03 0.  0.
    9000005    1    3    3    0    0 -0.91966683923E+01 -0.24881311137E+02  0.24374322336E+02  0.36038395396E+02  0.10000000000E+01 0.  0.
    9000005    1    3    3    0    0  0.91966683923E+01  0.24881311137E+02 -0.11586491672E+03  0.11886688891E+03  0.10000000000E+01 0.  0.
<mgrwt>
<rscale>  0 0.12500047E+03</rscale>
<asrwt>0</asrwt>
<pdfrwt beam="1">  1        4 0.48780531E-02 0.12500047E+03</pdfrwt>
<pdfrwt beam="2">  1       -4 0.18953529E-01 0.12500047E+03</pdfrwt>
<totfact> 0.98333050E+03</totfact>
</mgrwt>
</event>
<event>
 5    1  0.3266594E-002  0.1249990E+03  0.7818608E-02  0.1235071E+00
          4   -1    0    0  501    0  0.00000000000E+00  0.00000000000E+00  0.33939885553E+02  0.33963638370E+02  0.12700000000E+01 0.  1.
         -4   -1    0    0    0  501 -0.00000000000E+00 -0.00000000000E+00 -0.11502391882E+03  0.11503092976E+03  0.12700000000E+01 0.  1.
         25    2    1    2    0    0  0.00000000000E+00  0.00000000000E+00 -0.81084033272E+02  0.14899456813E+03  0.12499904352E+03 0.  0.
    9000005    1    3    3    0    0  0.60603950174E+02 -0.10610106571E+02 -0.53587212690E+02  0.81596583887E+02  0.10000000000E+01 0.  0.
    9000005    1    3    3    0    0 -0.60603950174E+02  0.10610106571E+02 -0.27496820582E+02  0.67397984245E+02  0.10000000000E+01 0.  0.
<mgrwt>
<rscale>  0 0.12499904E+03</rscale>
<asrwt>0</asrwt>
<pdfrwt beam="1">  1        4 0.52238874E-02 0.12499904E+03</pdfrwt>
<pdfrwt beam="2">  1       -4 0.17698354E-01 0.12499904E+03</pdfrwt>
<totfact> 0.99506636E+03</totfact>
</mgrwt>
</event>
<event>
 5    1  0.3266594E-002  0.1250029E+03  0.7818608E-02  0.1235065E+00
         -4   -1    0    0    0  501 -0.00000000000E+00  0.00000000000E+00  0.48879409857E+03  0.48879574844E+03  0.12700000000E+01 0.  1.
          4   -1    0    0  501    0  0.00000000000E+00 -0.00000000000E+00 -0.79398438609E+01  0.80407723842E+01  0.12700000000E+01 0.  1.
         25    2    1    2    0    0  0.00000000000E+00  0.00000000000E+00  0.48085425471E+03  0.49683652083E+03  0.12500285659E+03 0.  0.
    9000005    1    3    3    0    0 -0.30293904353E+02 -0.47363198114E+02  0.34887151274E+03  0.35337420050E+03  0.10000000000E+01 0.  0.
    9000005    1    3    3    0    0  0.30293904353E+02  0.47363198114E+02  0.13198274197E+03  0.14346232033E+03  0.10000000000E+01 0.  0.
<mgrwt>
<rscale>  0 0.12500286E+03</rscale>
<asrwt>0</asrwt>
<pdfrwt beam="2">  1        4 0.12294046E-02 0.12500286E+03</pdfrwt>
<pdfrwt beam="1">  1       -4 0.75207011E-01 0.12500286E+03</pdfrwt>
<totfact> 0.56107111E+03</totfact>
</mgrwt>
</event>
<event>
 5    1  0.3266594E-002  0.1250015E+03  0.7818608E-02  0.1235067E+00
          4   -1    0    0  501    0  0.00000000000E+00  0.00000000000E+00  0.18572268356E+03  0.18572702574E+03  0.12700000000E+01 0.  1.
         -4   -1    0    0    0  501 -0.00000000000E+00 -0.00000000000E+00 -0.21009430046E+02  0.21047780188E+02  0.12700000000E+01 0.  1.
         25    2    1    2    0    0  0.00000000000E+00  0.00000000000E+00  0.16471325352E+03  0.20677480593E+03  0.12500145792E+03 0.  0.
    9000005    1    3    3    0    0  0.40855733284E+01  0.59007356561E+02  0.48993794067E+02  0.76811144340E+02  0.10000000000E+01 0.  0.
    9000005    1    3    3    0    0 -0.40855733284E+01 -0.59007356561E+02  0.11571945945E+03  0.12996366159E+03  0.10000000000E+01 0.  0.
<mgrwt>
<rscale>  0 0.12500146E+03</rscale>
<asrwt>0</asrwt>
<pdfrwt beam="1">  1        4 0.28576003E-01 0.12500146E+03</pdfrwt>
<pdfrwt beam="2">  1       -4 0.32355042E-02 0.12500146E+03</pdfrwt>
<totfact> 0.89002420E+03</totfact>
</mgrwt>
</event>
<event>
 5    1  0.3266594E-002  0.1249874E+03  0.7818608E-02  0.1235089E+00
          4   -1    0    0  501    0  0.00000000000E+00  0.00000000000E+00  0.72061789679E+01  0.73172341303E+01  0.12700000000E+01 0. -1.
         -4   -1    0    0    0  501 -0.00000000000E+00 -0.00000000000E+00 -0.53770386115E+03  0.53770536095E+03  0.12700000000E+01 0. -1.
         25    2    1    2    0    0  0.00000000000E+00  0.00000000000E+00 -0.53049768218E+03  0.54502259508E+03  0.12498735275E+03 0.  0.
    9000005    1    3    3    0    0  0.26631028873E+02  0.88360262082E+01 -0.21788145987E+02  0.35538857094E+02  0.10000000000E+01 0.  0.
    9000005    1    3    3    0    0 -0.26631028873E+02 -0.88360262082E+01 -0.50870953619E+03  0.50948373798E+03  0.10000000000E+01 0.  0.
<mgrwt>
<rscale>  0 0.12498735E+03</rscale>
<asrwt>0</asrwt>
<pdfrwt beam="1">  1        4 0.11173014E-02 0.12498735E+03</pdfrwt>
<pdfrwt beam="2">  1       -4 0.82732298E-01 0.12498735E+03</pdfrwt>
<totfact> 0.52547504E+03</totfact>
</mgrwt>
</event>
<event>
 5    1  0.3266594E-002  0.1250004E+03  0.7818608E-02  0.1235069E+00
          4   -1    0    0  501    0  0.00000000000E+00  0.00000000000E+00  0.29185072406E+02  0.29212691614E+02  0.12700000000E+01 0. -1.
         -4   -1    0    0    0  501 -0.00000000000E+00 -0.00000000000E+00 -0.13375095229E+03  0.13375698164E+03  0.12700000000E+01 0. -1.
         25    2    1    2    0    0  0.00000000000E+00  0.00000000000E+00 -0.10456587989E+03  0.16296967326E+03  0.12500036466E+03 0.  0.
    9000005    1    3    3    0    0 -0.14722461427E+02  0.54308214516E+02 -0.87728251356E+02  0.10422753533E+03  0.10000000000E+01 0.  0.
    9000005    1    3    3    0    0  0.14722461427E+02 -0.54308214516E+02 -0.16837628530E+02  0.58742137932E+02  0.10000000000E+01 0.  0.
<mgrwt>
<rscale>  0 0.12500036E+03</rscale>
<asrwt>0</asrwt>
<pdfrwt beam="1">  1        4 0.44925996E-02 0.12500036E+03</pdfrwt>
<pdfrwt beam="2">  1       -4 0.20579658E-01 0.12500036E+03</pdfrwt>
<totfact> 0.96772499E+03</totfact>
</mgrwt>
</event>
<event>
 5    1  0.3266594E-002  0.1249656E+03  0.7818608E-02  0.1235123E+00
          4   -1    0    0  501    0  0.00000000000E+00  0.00000000000E+00  0.29907063583E+02  0.29934016639E+02  0.12700000000E+01 0. -1.
         -4   -1    0    0    0  501 -0.00000000000E+00 -0.00000000000E+00 -0.13045233203E+03  0.13045851384E+03  0.12700000000E+01 0. -1.
         25    2    1    2    0    0  0.00000000000E+00  0.00000000000E+00 -0.10054526845E+03  0.16039253048E+03  0.12496564658E+03 0.  0.
    9000005    1    3    3    0    0 -0.50174420984E+02  0.34432834261E+02 -0.68424447515E+02  0.91575092760E+02  0.10000000000E+01 0.  0.
    9000005    1    3    3    0    0  0.50174420984E+02 -0.34432834261E+02 -0.32120820933E+02  0.68817437716E+02  0.10000000000E+01 0.  0.
<mgrwt>
<rscale>  0 0.12496565E+03</rscale>
<asrwt>0</asrwt>
<pdfrwt beam="1">  1        4 0.46036356E-02 0.12496565E+03</pdfrwt>
<pdfrwt beam="2">  1       -4 0.20072138E-01 0.12496565E+03</pdfrwt>
<totfact> 0.97342304E+03</totfact>
</mgrwt>
</event>
<event>
 5    1  0.3266594E-002  0.1249990E+03  0.7818608E-02  0.1235071E+00
          4   -1    0    0  501    0  0.00000000000E+00  0.00000000000E+00  0.13135524652E+03  0.13136138584E+03  0.12700000000E+01 0.  1.
         -4   -1    0    0    0  501 -0.00000000000E+00 -0.00000000000E+00 -0.29717188542E+02  0.29744313656E+02  0.12700000000E+01 0.  1.
         25    2    1    2    0    0  0.00000000000E+00  0.00000000000E+00  0.10163805798E+03  0.16110569950E+03  0.12499900631E+03 0.  0.
    9000005    1    3    3    0    0 -0.53177859845E+01  0.46462886345E+02  0.10424220841E+03  0.11425636380E+03  0.10000000000E+01 0.  0.
    9000005    1    3    3    0    0  0.53177859845E+01 -0.46462886345E+02 -0.26041504282E+01  0.46849335692E+02  0.10000000000E+01 0.  0.
<mgrwt>
<rscale>  0 0.12499901E+03</rscale>
<asrwt>0</asrwt>
<pdfrwt beam="1">  1        4 0.20211058E-01 0.12499901E+03</pdfrwt>
<pdfrwt beam="2">  1       -4 0.45744340E-02 0.12499901E+03</pdfrwt>
<totfact> 0.97132207E+03</totfact>
</mgrwt>
</event>
<event>
 5    1  0.3266594E-002  0.1249917E+03  0.7818608E-02  0.1235082E+00
         -4   -1    0    0    0  501 -0.00000000000E+00  0.00000000000E+00  0.29202021237E+02  0.29229624430E+02  0.12700000000E+01 0.  1.
          4   -1    0    0  501    0  0.00000000000E+00 -0.00000000000E+00 -0.13365485310E+03  0.13366088679E+03  0.12700000000E+01 0.  1.
         25    2    1    2    0    0  0.00000000000E+00  0.00000000000E+00 -0.10445283186E+03  0.16289051122E+03  0.12499169797E+03 0.  0.
    9000005    1    3    3    0    0  0.32604349864E+01 -0.82904756501E+01 -0.13282942765E+03  0.13313158631E+03  0.10000000000E+01 0.  0.
    9000005    1    3    3    0    0 -0.32604349864E+01  0.82904756501E+01  0.28376595792E+02  0.29758924906E+02  0.10000000000E+01 0.  0.
<mgrwt>
<rscale>  0 0.12499170E+03</rscale>
<asrwt>0</asrwt>
<pdfrwt beam="2">  1        4 0.20564872E-01 0.12499170E+03</pdfrwt>
<pdfrwt beam="1">  1       -4 0.44952062E-02 0.12499170E+03</pdfrwt>
<totfact> 0.96806452E+03</totfact>
</mgrwt>
</event>
<event>
 5    1  0.3266594E-002  0.1250003E+03  0.7818608E-02  0.1235069E+00
         -4   -1    0    0    0  501 -0.00000000000E+00  0.00000000000E+00  0.34066138392E+02  0.34089803240E+02  0.12700000000E+01 0.  1.
          4   -1    0    0  501    0  0.00000000000E+00 -0.00000000000E+00 -0.11460013643E+03  0.11460717329E+03  0.12700000000E+01 0.  1.
         25    2    1    2    0    0  0.00000000000E+00  0.00000000000E+00 -0.80533998034E+02  0.14869697653E+03  0.12500026396E+03 0.  0.
    9000005    1    3    3    0    0 -0.11425634403E+02 -0.99915423276E+01 -0.11237997308E+03  0.11340473707E+03  0.10000000000E+01 0.  0.
    9000005    1    3    3    0    0  0.11425634403E+02  0.99915423276E+01  0.31845975045E+02  0.35292239461E+02  0.10000000000E+01 0.  0.
<mgrwt>
<rscale>  0 0.12500026E+03</rscale>
<asrwt>0</asrwt>
<pdfrwt beam="2">  1        4 0.17633152E-01 0.12500026E+03</pdfrwt>
<pdfrwt beam="1">  1       -4 0.52433061E-02 0.12500026E+03</pdfrwt>
<totfact> 0.99563481E+03</totfact>
</mgrwt>
</event>
<event>
 5    1  0.3266594E-002  0.1250041E+03  0.7818608E-02  0.1235063E+00
         -4   -1    0    0    0  501 -0.00000000000E+00  0.00000000000E+00  0.65882519059E+01  0.67095426950E+01  0.12700000000E+01 0. -1.
          4   -1    0    0  501    0  0.00000000000E+00 -0.00000000000E+00 -0.58741983611E+03  0.58742120897E+03  0.12700000000E+01 0. -1.
         25    2    1    2    0    0  0.00000000000E+00  0.00000000000E+00 -0.58083158420E+03  0.59413075167E+03  0.12500408342E+03 0.  0.
    9000005    1    3    3    0    0 -0.86580135116E+01 -0.37165262711E+02 -0.52563765982E+03  0.52702197997E+03  0.10000000000E+01 0.  0.
    9000005    1    3    3    0    0  0.86580135116E+01  0.37165262711E+02 -0.55193924381E+02  0.67108771698E+02  0.10000000000E+01 0.  0.
<mgrwt>
<rscale>  0 0.12500408E+03</rscale>
<asrwt>0</asrwt>
<pdfrwt beam="2">  1        4 0.90381677E-01 0.12500408E+03</pdfrwt>
<pdfrwt beam="1">  1       -4 0.10230133E-02 0.12500408E+03</pdfrwt>
<totfact> 0.49235810E+03</totfact>
</mgrwt>
</event>
<event>
 5    1  0.3266594E-002  0.1250067E+03  0.7818608E-02  0.1235059E+00
          4   -1    0    0  501    0  0.00000000000E+00  0.00000000000E+00  0.25199005899E+02  0.25230988849E+02  0.12700000000E+01 0. -1.
         -4   -1    0    0    0  501 -0.00000000000E+00 -0.00000000000E+00 -0.15489971218E+03  0.15490491836E+03  0.12700000000E+01 0. -1.
         25    2    1    2    0    0  0.00000000000E+00  0.00000000000E+00 -0.12970070628E+03  0.18013590721E+03  0.12500668725E+03 0.  0.
    9000005    1    3    3    0    0 -0.38795644688E+02 -0.44813723891E+02 -0.36309035243E+02  0.69517752668E+02  0.10000000000E+01 0.  0.
    9000005    1    3    3    0    0  0.38795644688E+02  0.44813723891E+02 -0.93391671038E+02  0.11061815455E+03  0.10000000000E+01 0.  0.
<mgrwt>
<rscale>  0 0.12500669E+03</rscale>
<asrwt>0</asrwt>
<pdfrwt beam="1">  1        4 0.38796309E-02 0.12500669E+03</pdfrwt>
<pdfrwt beam="2">  1       -4 0.23833585E-01 0.12500669E+03</pdfrwt>
<totfact> 0.93578514E+03</totfact>
</mgrwt>
</event>
<event>
 5    1  0.3266594E-002  0.1249979E+03  0.7818608E-02  0.1235073E+00
          4   -1    0    0  501    0  0.00000000000E+00  0.00000000000E+00  0.44055439915E+01  0.45849446955E+01  0.12700000000E+01 0.  1.
         -4   -1    0    0    0  501 -0.00000000000E+00 -0.00000000000E+00 -0.86876506512E+03  0.86876599339E+03  0.12700000000E+01 0.  1.
         25    2    1    2    0    0  0.00000000000E+00  0.00000000000E+00 -0.86435952113E+03  0.87335093809E+03  0.12499791715E+03 0.  0.
    9000005    1    3    3    0    0  0.32380699466E+02 -0.53095824249E+02 -0.47493355377E+03  0.47898909878E+03  0.10000000000E+01 0.  0.
    9000005    1    3    3    0    0 -0.32380699466E+02  0.53095824249E+02 -0.38942596736E+03  0.39436183931E+03  0.10000000000E+01 0.  0.
<mgrwt>
<rscale>  0 0.12499792E+03</rscale>
<asrwt>0</asrwt>
<pdfrwt beam="1">  1        4 0.69164815E-03 0.12499792E+03</pdfrwt>
<pdfrwt beam="2">  1       -4 0.13366990E+00 0.12499792E+03</pdfrwt>
<totfact> 0.35192004E+03</totfact>
</mgrwt>
</event>
<event>
 5    1  0.3266594E-002  0.1249971E+03  0.7818608E-02  0.1235074E+00
         -4   -1    0    0    0  501 -0.00000000000E+00  0.00000000000E+00  0.81866749836E+01  0.82845969901E+01  0.12700000000E+01 0. -1.
          4   -1    0    0  501    0  0.00000000000E+00 -0.00000000000E+00 -0.47418968128E+03  0.47419138196E+03  0.12700000000E+01 0. -1.
         25    2    1    2    0    0  0.00000000000E+00  0.00000000000E+00 -0.46600300629E+03  0.48247597895E+03  0.12499707354E+03 0.  0.
    9000005    1    3    3    0    0 -0.22988620137E+02  0.44383375427E+02 -0.88231832386E+02  0.10141112817E+03  0.10000000000E+01 0.  0.
    9000005    1    3    3    0    0  0.22988620137E+02 -0.44383375427E+02 -0.37777117391E+03  0.38106485079E+03  0.10000000000E+01 0.  0.
<mgrwt>
<rscale>  0 0.12499707E+03</rscale>
<asrwt>0</asrwt>
<pdfrwt beam="2">  1        4 0.72959901E-01 0.12499707E+03</pdfrwt>
<pdfrwt beam="1">  1       -4 0.12671521E-02 0.12499707E+03</pdfrwt>
<totfact> 0.57253815E+03</totfact>
</mgrwt>
</event>
<event>
 5    1  0.3266594E-002  0.1249996E+03  0.7818608E-02  0.1235070E+00
          4   -1    0    0  501    0  0.00000000000E+00  0.00000000000E+00  0.29038196749E+01  0.31693956371E+01  0.12700000000E+01 0. -1.
         -4   -1    0    0    0  501 -0.00000000000E+00 -0.00000000000E+00 -0.12861119049E+04  0.12861125320E+04  0.12700000000E+01 0. -1.
         25    2    1    2    0    0  0.00000000000E+00  0.00000000000E+00 -0.12832080852E+04  0.12892819276E+04  0.12499959521E+03 0.  0.
    9000005    1    3    3    0    0  0.51749078346E+02  0.13499619741E+02 -0.97503133397E+03  0.97649747007E+03  0.10000000000E+01 0.  0.
    9000005    1    3    3    0    0 -0.51749078346E+02 -0.13499619741E+02 -0.30817675128E+03  0.31278445753E+03  0.10000000000E+01 0.  0.
<mgrwt>
<rscale>  0 0.12499960E+03</rscale>
<asrwt>0</asrwt>
<pdfrwt beam="1">  1        4 0.46721967E-03 0.12499960E+03</pdfrwt>
<pdfrwt beam="2">  1       -4 0.19788341E+00 0.12499960E+03</pdfrwt>
<totfact> 0.22483167E+03</totfact>
</mgrwt>
</event>
<event>
 5    1  0.3266594E-002  0.1249980E+03  0.7818608E-02  0.1235072E+00
         -4   -1    0    0    0  501 -0.00000000000E+00  0.00000000000E+00  0.18255501617E+03  0.18255943368E+03  0.12700000000E+01 0. -1.
          4   -1    0    0  501    0  0.00000000000E+00 -0.00000000000E+00 -0.21373443546E+02  0.21411141703E+02  0.12700000000E+01 0. -1.
         25    2    1    2    0    0  0.00000000000E+00  0.00000000000E+00  0.16118157262E+03  0.20397057539E+03  0.12499798507E+03 0.  0.
    9000005    1    3    3    0    0 -0.24264483064E+02 -0.54538346970E+02  0.11076469783E+03  0.12582930785E+03  0.10000000000E+01 0.  0.
    9000005    1    3    3    0    0  0.24264483064E+02  0.54538346970E+02  0.50416874786E+02  0.78141267534E+02  0.10000000000E+01 0.  0.
<mgrwt>
<rscale>  0 0.12499799E+03</rscale>
<asrwt>0</asrwt>
<pdfrwt beam="2">  1        4 0.32914619E-02 0.12499799E+03</pdfrwt>
<pdfrwt beam="1">  1       -4 0.28088626E-01 0.12499799E+03</pdfrwt>
<totfact> 0.89474164E+03</totfact>
</mgrwt>
</event>
<event>
 5    1  0.3266594E-002  0.1250031E+03  0.7818608E-02  0.1235064E+00
         -4   -1    0    0    0  501 -0.00000000000E+00  0.00000000000E+00  0.17920246860E+02  0.17965192666E+02  0.12700000000E+01 0.  1.
          4   -1    0    0  501    0  0.00000000000E+00 -0.00000000000E+00 -0.21767054188E+03  0.21767424676E+03  0.12700000000E+01 0.  1.
         25    2    1    2    0    0  0.00000000000E+00  0.00000000000E+00 -0.19975029502E+03  0.23563943943E+03  0.12500306017E+03 0.  0.
    9000005    1    3    3    0    0 -0.60606829939E+01  0.58282468210E+02 -0.58926889703E+02  0.83108100141E+02  0.10000000000E+01 0.  0.
    9000005    1    3    3    0    0  0.60606829939E+01 -0.58282468210E+02 -0.14082340532E+03  0.15253133928E+03  0.10000000000E+01 0.  0.
<mgrwt>
<rscale>  0 0.12500306E+03</rscale>
<asrwt>0</asrwt>
<pdfrwt beam="2">  1        4 0.33491516E-01 0.12500306E+03</pdfrwt>
<pdfrwt beam="1">  1       -4 0.27607036E-02 0.12500306E+03</pdfrwt>
<totfact> 0.84445349E+03</totfact>
</mgrwt>
</event>
<event>
 5    1  0.3266594E-002  0.1249992E+03  0.7818608E-02  0.1235070E+00
         -4   -1    0    0    0  501 -0.00000000000E+00  0.00000000000E+00  0.67245838830E+03  0.67245958756E+03  0.12700000000E+01 0. -1.
          4   -1    0    0  501    0  0.00000000000E+00 -0.00000000000E+00 -0.57382028858E+01  0.58770632427E+01  0.12700000000E+01 0. -1.
         25    2    1    2    0    0  0.00000000000E+00  0.00000000000E+00  0.66672018542E+03  0.67833665080E+03  0.12499922471E+03 0.  0.
    9000005    1    3    3    0    0  0.61858530306E+02 -0.60826377046E+01  0.29830608713E+03  0.30471461709E+03  0.10000000000E+01 0.  0.
    9000005    1    3    3    0    0 -0.61858530306E+02  0.60826377046E+01  0.36841409829E+03  0.37362203371E+03  0.10000000000E+01 0.  0.
<mgrwt>
<rscale>  0 0.12499922E+03</rscale>
<asrwt>0</asrwt>
<pdfrwt beam="2">  1        4 0.89357336E-03 0.12499922E+03</pdfrwt>
<pdfrwt beam="1">  1       -4 0.10346601E+00 0.12499922E+03</pdfrwt>
<totfact> 0.44255928E+03</totfact>
</mgrwt>
</event>
<event>
 4    1  0.3266594E-002  0.1248751E+03  0.7818608E-02  0.1235265E+00
         -4   -1    0    0    0  501 -0.00000000000E+00  0.00000000000E+00  0.98321754922E+02  0.98329956732E+02  0.12700000000E+01 0.  1.
          4   -1    0    0  501    0  0.00000000000E+00 -0.00000000000E+00 -0.39629847481E+02  0.39650191820E+02  0.12700000000E+01 0.  1.
    9000005    1    1    2    0    0 -0.46743118484E+02  0.27045743315E+02  0.63954817536E+02  0.83711469006E+02  0.10000000000E+01 0.  0.
    9000005    1    1    2    0    0  0.46743118484E+02 -0.27045743315E+02 -0.52629100945E+01  0.54268679547E+02  0.10000000000E+01 0.  0.
<mgrwt>
<rscale>  0 0.12487506E+03</rscale>
<asrwt>0</asrwt>
<pdfrwt beam="2">  1        4 0.60990956E-02 0.12487506E+03</pdfrwt>
<pdfrwt beam="1">  1       -4 0.15128619E-01 0.12487506E+03</pdfrwt>
<totfact> 0.10204322E+04</totfact>
</mgrwt>
</event>
<event>
 5    1  0.3266594E-002  0.1250005E+03  0.7818608E-02  0.1235069E+00
          4   -1    0    0  501    0  0.00000000000E+00  0.00000000000E+00  0.13476694180E+03  0.13477292570E+03  0.12700000000E+01 0.  1.
         -4   -1    0    0    0  501 -0.00000000000E+00 -0.00000000000E+00 -0.28964896175E+02  0.28992725130E+02  0.12700000000E+01 0.  1.
         25    2    1    2    0    0  0.00000000000E+00  0.00000000000E+00  0.10580204563E+03  0.16376565083E+03  0.12500046214E+03 0.  0.
    9000005    1    3    3    0    0  0.61321145001E+02  0.10039205208E+02  0.44189912616E+02  0.76254946347E+02  0.10000000000E+01 0.  0.
    9000005    1    3    3    0    0 -0.61321145001E+02 -0.10039205208E+02  0.61612133011E+02  0.87510704486E+02  0.10000000000E+01 0.  0.
<mgrwt>
<rscale>  0 0.12500046E+03</rscale>
<asrwt>0</asrwt>
<pdfrwt beam="1">  1        4 0.20735977E-01 0.12500046E+03</pdfrwt>
<pdfrwt beam="2">  1       -4 0.44587389E-02 0.12500046E+03</pdfrwt>
<totfact> 0.96620667E+03</totfact>
</mgrwt>
</event>
<event>
 5    1  0.3266594E-002  0.1250004E+03  0.7818608E-02  0.1235069E+00
          4   -1    0    0  501    0  0.00000000000E+00  0.00000000000E+00  0.43015227899E+01  0.44850862101E+01  0.12700000000E+01 0. -1.
         -4   -1    0    0    0  501 -0.00000000000E+00 -0.00000000000E+00 -0.88895925433E+03  0.88896016152E+03  0.12700000000E+01 0. -1.
         25    2    1    2    0    0  0.00000000000E+00  0.00000000000E+00 -0.88465773154E+03  0.89344524773E+03  0.12500043483E+03 0.  0.
    9000005    1    3    3    0    0  0.39222460855E+02  0.19325066848E+02 -0.12320773938E+03  0.13074022597E+03  0.10000000000E+01 0.  0.
    9000005    1    3    3    0    0 -0.39222460855E+02 -0.19325066848E+02 -0.76144999216E+03  0.76270502176E+03  0.10000000000E+01 0.  0.
<mgrwt>
<rscale>  0 0.12500043E+03</rscale>
<asrwt>0</asrwt>
<pdfrwt beam="1">  1        4 0.67596349E-03 0.12500043E+03</pdfrwt>
<pdfrwt beam="2">  1       -4 0.13677701E+00 0.12500043E+03</pdfrwt>
<totfact> 0.34411859E+03</totfact>
</mgrwt>
</event>
<event>
 5    1  0.3266594E-002  0.1250000E+03  0.7818608E-02  0.1235069E+00
         -4   -1    0    0    0  501 -0.00000000000E+00  0.00000000000E+00  0.25799232306E+03  0.25799544891E+03  0.12700000000E+01 0. -1.
          4   -1    0    0  501    0  0.00000000000E+00 -0.00000000000E+00 -0.15111091816E+02  0.15164365990E+02  0.12700000000E+01 0. -1.
         25    2    1    2    0    0  0.00000000000E+00  0.00000000000E+00  0.24288123124E+03  0.27315981490E+03  0.12499996794E+03 0.  0.
    9000005    1    3    3    0    0 -0.14473939967E+02  0.32394366810E+02  0.23385741348E+03  0.23653578964E+03  0.10000000000E+01 0.  0.
    9000005    1    3    3    0    0  0.14473939967E+02 -0.32394366810E+02  0.90238177598E+01  0.36624025259E+02  0.10000000000E+01 0.  0.
<mgrwt>
<rscale>  0 0.12499997E+03</rscale>
<asrwt>0</asrwt>
<pdfrwt beam="2">  1        4 0.23291218E-02 0.12499997E+03</pdfrwt>
<pdfrwt beam="1">  1       -4 0.39695465E-01 0.12499997E+03</pdfrwt>
<totfact> 0.79093949E+03</totfact>
</mgrwt>
</event>
<event>
 5    1  0.3266594E-002  0.1250039E+03  0.7818608E-02  0.1235063E+00
         -4   -1    0    0    0  501 -0.00000000000E+00  0.00000000000E+00  0.35001445447E+03  0.35001675851E+03  0.12700000000E+01 0.  1.
          4   -1    0    0  501    0  0.00000000000E+00 -0.00000000000E+00 -0.11122471823E+02  0.11194743385E+02  0.12700000000E+01 0.  1.
         25    2    1    2    0    0  0.00000000000E+00  0.00000000000E+00  0.33889198264E+03  0.36121150189E+03  0.12500389273E+03 0.  0.
    9000005    1    3    3    0    0  0.15092077976E+02 -0.47808327112E+02  0.27725898849E+03  0.28175690525E+03  0.10000000000E+01 0.  0.
    9000005    1    3    3    0    0 -0.15092077976E+02  0.47808327112E+02  0.61632994156E+02  0.79454596642E+02  0.10000000000E+01 0.  0.
<mgrwt>
<rscale>  0 0.12500389E+03</rscale>
<asrwt>0</asrwt>
<pdfrwt beam="2">  1        4 0.17168859E-02 0.12500389E+03</pdfrwt>
<pdfrwt beam="1">  1       -4 0.53854119E-01 0.12500389E+03</pdfrwt>
<totfact> 0.68502609E+03</totfact>
</mgrwt>
</event>
<event>
 5    1  0.3266594E-002  0.1250013E+03  0.7818608E-02  0.1235067E+00
         -4   -1    0    0    0  501 -0.00000000000E+00  0.00000000000E+00  0.10591064524E+03  0.10591825941E+03  0.12700000000E+01 0. -1.
          4   -1    0    0  501    0  0.00000000000E+00 -0.00000000000E+00 -0.36863420880E+02  0.36885291093E+02  0.12700000000E+01 0. -1.
         25    2    1    2    0    0  0.00000000000E+00  0.00000000000E+00  0.69047224361E+02  0.14280355050E+03  0.12500133936E+03 0.  0.
    9000005    1    3    3    0    0 -0.56042629948E+01  0.54750012186E+02  0.70419369582E+00  0.55049681987E+02  0.10000000000E+01 0.  0.
    9000005    1    3    3    0    0  0.56042629948E+01 -0.54750012186E+02  0.68343030666E+02  0.87753868511E+02  0.10000000000E+01 0.  0.
<mgrwt>
<rscale>  0 0.12500134E+03</rscale>
<asrwt>0</asrwt>
<pdfrwt beam="2">  1        4 0.56735635E-02 0.12500134E+03</pdfrwt>
<pdfrwt beam="1">  1       -4 0.16296214E-01 0.12500134E+03</pdfrwt>
<totfact> 0.10075504E+04</totfact>
</mgrwt>
</event>
<event>
 5    1  0.3266594E-002  0.1249929E+03  0.7818608E-02  0.1235080E+00
          4   -1    0    0  501    0  0.00000000000E+00  0.00000000000E+00  0.32995275788E+03  0.32995520201E+03  0.12700000000E+01 0. -1.
         -4   -1    0    0    0  501 -0.00000000000E+00 -0.00000000000E+00 -0.11800907261E+02  0.11869048496E+02  0.12700000000E+01 0. -1.
         25    2    1    2    0    0  0.00000000000E+00  0.00000000000E+00  0.31815185062E+03  0.34182425051E+03  0.12499287252E+03 0.  0.
    9000005    1    3    3    0    0 -0.24835488228E+02 -0.14884888243E+02  0.31051400072E+03  0.31186263966E+03  0.10000000000E+01 0.  0.
    9000005    1    3    3    0    0  0.24835488228E+02  0.14884888243E+02  0.76378499061E+01  0.29961610850E+02  0.10000000000E+01 0.  0.
<mgrwt>
<rscale>  0 0.12499287E+03</rscale>
<asrwt>0</asrwt>
<pdfrwt beam="1">  1        4 0.50767396E-01 0.12499287E+03</pdfrwt>
<pdfrwt beam="2">  1       -4 0.18209537E-02 0.12499287E+03</pdfrwt>
<totfact> 0.70644596E+03</totfact>
</mgrwt>
</event>
<event>
 5    1  0.3266594E-002  0.1250004E+03  0.7818608E-02  0.1235069E+00
         -4   -1    0    0    0  501 -0.00000000000E+00  0.00000000000E+00  0.47828791381E+01  0.49486192872E+01  0.12700000000E+01 0.  1.
          4   -1    0    0  501    0  0.00000000000E+00 -0.00000000000E+00 -0.80264425439E+03  0.80264525913E+03  0.12700000000E+01 0.  1.
         25    2    1    2    0    0  0.00000000000E+00  0.00000000000E+00 -0.79786137525E+03  0.80759387841E+03  0.12500039336E+03 0.  0.
    9000005    1    3    3    0    0  0.26703430610E+02  0.41434802460E+02 -0.15077146290E+03  0.15862833948E+03  0.10000000000E+01 0.  0.
    9000005    1    3    3    0    0 -0.26703430610E+02 -0.41434802460E+02 -0.64708991235E+03  0.64896553894E+03  0.10000000000E+01 0.  0.
<mgrwt>
<rscale>  0 0.12500039E+03</rscale>
<asrwt>0</asrwt>
<pdfrwt beam="2">  1        4 0.12349645E+00 0.12500039E+03</pdfrwt>
<pdfrwt beam="1">  1       -4 0.74865473E-03 0.12500039E+03</pdfrwt>
<totfact> 0.37927658E+03</totfact>
</mgrwt>
</event>
<event>
 5    1  0.3266594E-002  0.1249991E+03  0.7818608E-02  0.1235071E+00
          4   -1    0    0  501    0  0.00000000000E+00  0.00000000000E+00  0.97912598012E+02  0.97920834093E+02  0.12700000000E+01 0. -1.
         -4   -1    0    0    0  501 -0.00000000000E+00 -0.00000000000E+00 -0.39874700854E+02  0.39894920331E+02  0.12700000000E+01 0. -1.
         25    2    1    2    0    0  0.00000000000E+00  0.00000000000E+00  0.58037897158E+02  0.13781575442E+03  0.12499913864E+03 0.  0.
    9000005    1    3    3    0    0  0.61002051700E+02  0.12272186032E+02  0.22652897645E+02  0.66226963038E+02  0.10000000000E+01 0.  0.
    9000005    1    3    3    0    0 -0.61002051700E+02 -0.12272186032E+02  0.35384999514E+02  0.71588791386E+02  0.10000000000E+01 0.  0.
<mgrwt>
<rscale>  0 0.12499914E+03</rscale>
<asrwt>0</asrwt>
<pdfrwt beam="1">  1        4 0.15065666E-01 0.12499914E+03</pdfrwt>
<pdfrwt beam="2">  1       -4 0.61367582E-02 0.12499914E+03</pdfrwt>
<totfact> 0.10179254E+04</totfact>
</mgrwt>
</event>
<event>
 5    1  0.3266594E-002  0.1250019E+03  0.7818608E-02  0.1235066E+00
         -4   -1    0    0    0  501 -0.00000000000E+00  0.00000000000E+00  0.25150476872E+02  0.25182521457E+02  0.12700000000E+01 0.  1.
          4   -1    0    0  501    0  0.00000000000E+00 -0.00000000000E+00 -0.15518641009E+03  0.15519160666E+03  0.12700000000E+01 0.  1.
         25    2    1    2    0    0  0.00000000000E+00  0.00000000000E+00 -0.13003593322E+03  0.18037412811E+03  0.12500192864E+03 0.  0.
    9000005    1    3    3    0    0  0.48346977863E+02 -0.17432224734E+00 -0.78808815892E+01  0.48995601347E+02  0.10000000000E+01 0.  0.
    9000005    1    3    3    0    0 -0.48346977863E+02  0.17432224734E+00 -0.12215505163E+03  0.13137852677E+03  0.10000000000E+01 0.  0.
<mgrwt>
<rscale>  0 0.12500193E+03</rscale>
<asrwt>0</asrwt>
<pdfrwt beam="2">  1        4 0.23877696E-01 0.12500193E+03</pdfrwt>
<pdfrwt beam="1">  1       -4 0.38721689E-02 0.12500193E+03</pdfrwt>
<totfact> 0.93545657E+03</totfact>
</mgrwt>
</event>
<event>
 5    1  0.3266594E-002  0.1250088E+03  0.7818608E-02  0.1235055E+00
         -4   -1    0    0    0  501 -0.00000000000E+00  0.00000000000E+00  0.98904418783E+02  0.98912572279E+02  0.12700000000E+01 0.  1.
          4   -1    0    0  501    0  0.00000000000E+00 -0.00000000000E+00 -0.39480783366E+02  0.39501204478E+02  0.12700000000E+01 0.  1.
         25    2    1    2    0    0  0.00000000000E+00  0.00000000000E+00  0.59423635417E+02  0.13841377676E+03  0.12500882029E+03 0.  0.
    9000005    1    3    3    0    0 -0.45368692728E+02  0.60455949891E+01  0.76830154078E+02  0.89435675624E+02  0.10000000000E+01 0.  0.
    9000005    1    3    3    0    0  0.45368692728E+02 -0.60455949891E+01 -0.17406518661E+02  0.48978101132E+02  0.10000000000E+01 0.  0.
<mgrwt>
<rscale>  0 0.12500882E+03</rscale>
<asrwt>0</asrwt>
<pdfrwt beam="2">  1        4 0.60761647E-02 0.12500882E+03</pdfrwt>
<pdfrwt beam="1">  1       -4 0.15218262E-01 0.12500882E+03</pdfrwt>
<totfact> 0.10164547E+04</totfact>
</mgrwt>
</event>
<event>
 5    1  0.3266594E-002  0.1249995E+03  0.7818608E-02  0.1235070E+00
         -4   -1    0    0    0  501 -0.00000000000E+00  0.00000000000E+00  0.10890881256E+04  0.10890888660E+04  0.12700000000E+01 0.  1.
          4   -1    0    0  501    0  0.00000000000E+00 -0.00000000000E+00 -0.34735010275E+01  0.36983928115E+01  0.12700000000E+01 0.  1.
         25    2    1    2    0    0  0.00000000000E+00  0.00000000000E+00  0.10856146245E+04  0.10927872588E+04  0.12499952045E+03 0.  0.
    9000005    1    3    3    0    0 -0.11343079608E+02 -0.32914800782E+02  0.99649730222E+03  0.99710577317E+03  0.10000000000E+01 0.  0.
    9000005    1    3    3    0    0  0.11343079608E+02  0.32914800782E+02  0.89117322310E+02  0.95681485677E+02  0.10000000000E+01 0.  0.
<mgrwt>
<rscale>  0 0.12499952E+03</rscale>
<asrwt>0</asrwt>
<pdfrwt beam="2">  1        4 0.55174006E-03 0.12499952E+03</pdfrwt>
<pdfrwt beam="1">  1       -4 0.16756969E+00 0.12499952E+03</pdfrwt>
<totfact> 0.27695675E+03</totfact>
</mgrwt>
</event>
<event>
 5    1  0.3266594E-002  0.1249998E+03  0.7818608E-02  0.1235070E+00
          4   -1    0    0  501    0  0.00000000000E+00  0.00000000000E+00  0.21292281066E+03  0.21292659815E+03  0.12700000000E+01 0.  1.
         -4   -1    0    0    0  501 -0.00000000000E+00 -0.00000000000E+00 -0.18319845041E+02  0.18363812848E+02  0.12700000000E+01 0.  1.
         25    2    1    2    0    0  0.00000000000E+00  0.00000000000E+00  0.19460296562E+03  0.23129041099E+03  0.12499975997E+03 0.  0.
    9000005    1    3    3    0    0  0.20920567295E+02 -0.25480590414E+02 -0.92812184758E+00  0.32996848849E+02  0.10000000000E+01 0.  0.
    9000005    1    3    3    0    0 -0.20920567295E+02  0.25480590414E+02  0.19553108746E+03  0.19829356215E+03  0.10000000000E+01 0.  0.
<mgrwt>
<rscale>  0 0.12499976E+03</rscale>
<asrwt>0</asrwt>
<pdfrwt beam="1">  1        4 0.32761028E-01 0.12499976E+03</pdfrwt>
<pdfrwt beam="2">  1       -4 0.28221112E-02 0.12499976E+03</pdfrwt>
<totfact> 0.85112302E+03</totfact>
</mgrwt>
</event>
<event>
 5    1  0.3266594E-002  0.1250151E+03  0.7818608E-02  0.1235046E+00
          4   -1    0    0  501    0  0.00000000000E+00  0.00000000000E+00  0.58379902245E+03  0.58380040383E+03  0.12700000000E+01 0. -1.
         -4   -1    0    0    0  501 -0.00000000000E+00 -0.00000000000E+00 -0.66310577728E+01  0.67515796068E+01  0.12700000000E+01 0. -1.
         25    2    1    2    0    0  0.00000000000E+00  0.00000000000E+00  0.57716796468E+03  0.59055198344E+03  0.12501514185E+03 0.  0.
    9000005    1    3    3    0    0 -0.50970474098E+02 -0.24854013757E+02  0.41271282312E+03  0.41659162929E+03  0.10000000000E+01 0.  0.
    9000005    1    3    3    0    0  0.50970474098E+02  0.24854013757E+02  0.16445514156E+03  0.17396035415E+03  0.10000000000E+01 0.  0.
<mgrwt>
<rscale>  0 0.12501514E+03</rscale>
<asrwt>0</asrwt>
<pdfrwt beam="1">  1        4 0.89824598E-01 0.12501514E+03</pdfrwt>
<pdfrwt beam="2">  1       -4 0.10295401E-02 0.12501514E+03</pdfrwt>
<totfact> 0.49453059E+03</totfact>
</mgrwt>
</event>
<event>
 5    1  0.3266594E-002  0.1250013E+03  0.7818608E-02  0.1235067E+00
         -4   -1    0    0    0  501 -0.00000000000E+00  0.00000000000E+00  0.14524789918E+04  0.14524795471E+04  0.12700000000E+01 0. -1.
          4   -1    0    0  501    0  0.00000000000E+00 -0.00000000000E+00 -0.25389082288E+01  0.28388298636E+01  0.12700000000E+01 0. -1.
         25    2    1    2    0    0  0.00000000000E+00  0.00000000000E+00  0.14499400836E+04  0.14553183769E+04  0.12500132863E+03 0.  0.
    9000005    1    3    3    0    0 -0.11166311489E+02 -0.32920614546E+02  0.13295784306E+04  0.13300331787E+04  0.10000000000E+01 0.  0.
    9000005    1    3    3    0    0  0.11166311489E+02  0.32920614546E+02  0.12036165299E+03  0.12528519818E+03  0.10000000000E+01 0.  0.
<mgrwt>
<rscale>  0 0.12500133E+03</rscale>
<asrwt>0</asrwt>
<pdfrwt beam="2">  1        4 0.41371453E-03 0.12500133E+03</pdfrwt>
<pdfrwt beam="1">  1       -4 0.22348161E+00 0.12500133E+03</pdfrwt>
<totfact> 0.18823494E+03</totfact>
</mgrwt>
</event>
<event>
 5    1  0.3266594E-002  0.1250014E+03  0.7818608E-02  0.1235067E+00
          4   -1    0    0  501    0  0.00000000000E+00  0.00000000000E+00  0.81915395637E+01  0.82894041055E+01  0.12700000000E+01 0.  1.
         -4   -1    0    0    0  501 -0.00000000000E+00 -0.00000000000E+00 -0.47394427425E+03  0.47394597582E+03  0.12700000000E+01 0.  1.
         25    2    1    2    0    0  0.00000000000E+00  0.00000000000E+00 -0.46575273469E+03  0.48223537992E+03  0.12500140712E+03 0.  0.
    9000005    1    3    3    0    0  0.43410576688E+02 -0.40436174136E+02 -0.30864885487E+03  0.31430029901E+03  0.10000000000E+01 0.  0.
    9000005    1    3    3    0    0 -0.43410576688E+02  0.40436174136E+02 -0.15710387982E+03  0.16793508091E+03  0.10000000000E+01 0.  0.
<mgrwt>
<rscale>  0 0.12500141E+03</rscale>
<asrwt>0</asrwt>
<pdfrwt beam="1">  1        4 0.12678962E-02 0.12500141E+03</pdfrwt>
<pdfrwt beam="2">  1       -4 0.72922141E-01 0.12500141E+03</pdfrwt>
<totfact> 0.57267752E+03</totfact>
</mgrwt>
</event>
<event>
 5    1  0.3266594E-002  0.1250061E+03  0.7818608E-02  0.1235060E+00
         -4   -1    0    0    0  501 -0.00000000000E+00  0.00000000000E+00  0.98450785847E+02  0.98458976908E+02  0.12700000000E+01 0.  1.
          4   -1    0    0  501    0  0.00000000000E+00 -0.00000000000E+00 -0.39661037088E+02  0.39681365436E+02  0.12700000000E+01 0.  1.
         25    2    1    2    0    0  0.00000000000E+00  0.00000000000E+00  0.58789748759E+02  0.13814034234E+03  0.12500607835E+03 0.  0.
    9000005    1    3    3    0    0  0.23493906250E+01  0.29771564886E+02  0.90060688697E+02  0.94888320465E+02  0.10000000000E+01 0.  0.
    9000005    1    3    3    0    0 -0.23493906250E+01 -0.29771564886E+02 -0.31270939938E+02  0.43252021880E+02  0.10000000000E+01 0.  0.
<mgrwt>
<rscale>  0 0.12500608E+03</rscale>
<asrwt>0</asrwt>
<pdfrwt beam="2">  1        4 0.61038918E-02 0.12500608E+03</pdfrwt>
<pdfrwt beam="1">  1       -4 0.15148469E-01 0.12500608E+03</pdfrwt>
<totfact> 0.10170881E+04</totfact>
</mgrwt>
</event>
<event>
 5    1  0.3266594E-002  0.1250042E+03  0.7818608E-02  0.1235063E+00
         -4   -1    0    0    0  501 -0.00000000000E+00  0.00000000000E+00  0.60198712514E+02  0.60212107489E+02  0.12700000000E+01 0.  1.
          4   -1    0    0  501    0  0.00000000000E+00 -0.00000000000E+00 -0.64866813281E+02  0.64879244487E+02  0.12700000000E+01 0.  1.
         25    2    1    2    0    0  0.00000000000E+00  0.00000000000E+00 -0.46681007673E+01  0.12509135198E+03  0.12500422063E+03 0.  0.
    9000005    1    3    3    0    0 -0.36529560511E+02 -0.28983720131E+02  0.39300826673E+02  0.60991965052E+02  0.10000000000E+01 0.  0.
    9000005    1    3    3    0    0  0.36529560511E+02  0.28983720131E+02 -0.43968927440E+02  0.64099386924E+02  0.10000000000E+01 0.  0.
<mgrwt>
<rscale>  0 0.12500422E+03</rscale>
<asrwt>0</asrwt>
<pdfrwt beam="2">  1        4 0.99814964E-02 0.12500422E+03</pdfrwt>
<pdfrwt beam="1">  1       -4 0.92633270E-02 0.12500422E+03</pdfrwt>
<totfact> 0.10449882E+04</totfact>
</mgrwt>
</event>
<event>
 5    1  0.3266594E-002  0.1250014E+03  0.7818608E-02  0.1235067E+00
         -4   -1    0    0    0  501 -0.00000000000E+00  0.00000000000E+00  0.52207738581E+02  0.52223183241E+02  0.12700000000E+01 0. -1.
          4   -1    0    0  501    0  0.00000000000E+00 -0.00000000000E+00 -0.74791027702E+02  0.74801809635E+02  0.12700000000E+01 0. -1.
         25    2    1    2    0    0  0.00000000000E+00  0.00000000000E+00 -0.22583289120E+02  0.12702499288E+03  0.12500137546E+03 0.  0.
    9000005    1    3    3    0    0  0.95827327609E+00  0.62483669103E+02 -0.10827328967E+02  0.63429947539E+02  0.10000000000E+01 0.  0.
    9000005    1    3    3    0    0 -0.95827327609E+00 -0.62483669103E+02 -0.11755960154E+02  0.63595045337E+02  0.10000000000E+01 0.  0.
<mgrwt>
<rscale>  0 0.12500138E+03</rscale>
<asrwt>0</asrwt>
<pdfrwt beam="2">  1        4 0.11508329E-01 0.12500138E+03</pdfrwt>
<pdfrwt beam="1">  1       -4 0.80339772E-02 0.12500138E+03</pdfrwt>
<totfact> 0.10408280E+04</totfact>
</mgrwt>
</event>
<event>
 5    1  0.3266594E-002  0.1249992E+03  0.7818608E-02  0.1235071E+00
          4   -1    0    0  501    0  0.00000000000E+00  0.00000000000E+00  0.14255877697E+03  0.14256443382E+03  0.12700000000E+01 0.  1.
         -4   -1    0    0    0  501 -0.00000000000E+00 -0.00000000000E+00 -0.27379712956E+02  0.27409151419E+02  0.12700000000E+01 0.  1.
         25    2    1    2    0    0  0.00000000000E+00  0.00000000000E+00  0.11517906401E+03  0.16997358524E+03  0.12499921157E+03 0.  0.
    9000005    1    3    3    0    0  0.56789529587E+02 -0.23547494385E+02  0.42346116142E+02  0.74657408974E+02  0.10000000000E+01 0.  0.
    9000005    1    3    3    0    0 -0.56789529587E+02  0.23547494385E+02  0.72832947872E+02  0.95316176268E+02  0.10000000000E+01 0.  0.
<mgrwt>
<rscale>  0 0.12499921E+03</rscale>
<asrwt>0</asrwt>
<pdfrwt beam="1">  1        4 0.21934819E-01 0.12499921E+03</pdfrwt>
<pdfrwt beam="2">  1       -4 0.42149633E-02 0.12499921E+03</pdfrwt>
<totfact> 0.95455250E+03</totfact>
</mgrwt>
</event>
<event>
 5    1  0.3266594E-002  0.1249934E+03  0.7818608E-02  0.1235080E+00
         -4   -1    0    0    0  501 -0.00000000000E+00  0.00000000000E+00  0.36578249043E+02  0.36600289658E+02  0.12700000000E+01 0. -1.
          4   -1    0    0  501    0  0.00000000000E+00 -0.00000000000E+00 -0.10672236924E+03  0.10672992549E+03  0.12700000000E+01 0. -1.
         25    2    1    2    0    0  0.00000000000E+00  0.00000000000E+00 -0.70144120197E+02  0.14333021515E+03  0.12499341174E+03 0.  0.
    9000005    1    3    3    0    0 -0.38774901855E+02 -0.46974430655E+02 -0.19069582065E+02  0.63833683187E+02  0.10000000000E+01 0.  0.
    9000005    1    3    3    0    0  0.38774901855E+02  0.46974430655E+02 -0.51074538132E+02  0.79496531965E+02  0.10000000000E+01 0.  0.
<mgrwt>
<rscale>  0 0.12499341E+03</rscale>
<asrwt>0</asrwt>
<pdfrwt beam="2">  1        4 0.16421103E-01 0.12499341E+03</pdfrwt>
<pdfrwt beam="1">  1       -4 0.56296997E-02 0.12499341E+03</pdfrwt>
<totfact> 0.10066519E+04</totfact>
</mgrwt>
</event>
<event>
 5    1  0.3266594E-002  0.1249993E+03  0.7818608E-02  0.1235070E+00
         -4   -1    0    0    0  501 -0.00000000000E+00  0.00000000000E+00  0.62757235110E+01  0.64029372624E+01  0.12700000000E+01 0.  1.
          4   -1    0    0  501    0  0.00000000000E+00 -0.00000000000E+00 -0.61605845605E+03  0.61605976510E+03  0.12700000000E+01 0.  1.
         25    2    1    2    0    0  0.00000000000E+00  0.00000000000E+00 -0.60978273254E+03  0.62246270236E+03  0.12499933970E+03 0.  0.
    9000005    1    3    3    0    0  0.83965765173E+01 -0.13060351248E+02 -0.34580463465E+01  0.15938423901E+02  0.10000000000E+01 0.  0.
    9000005    1    3    3    0    0 -0.83965765173E+01  0.13060351248E+02 -0.60632468619E+03  0.60652427846E+03  0.10000000000E+01 0.  0.
<mgrwt>
<rscale>  0 0.12499934E+03</rscale>
<asrwt>0</asrwt>
<pdfrwt beam="2">  1        4 0.94788063E-01 0.12499934E+03</pdfrwt>
<pdfrwt beam="1">  1       -4 0.97538278E-03 0.12499934E+03</pdfrwt>
<totfact> 0.47480424E+03</totfact>
</mgrwt>
</event>
<event>
 5    1  0.3266594E-002  0.1249986E+03  0.7818608E-02  0.1235071E+00
          4   -1    0    0  501    0  0.00000000000E+00  0.00000000000E+00  0.44641968789E+02  0.44660029975E+02  0.12700000000E+01 0.  1.
         -4   -1    0    0    0  501 -0.00000000000E+00 -0.00000000000E+00 -0.87459479258E+02  0.87468699613E+02  0.12700000000E+01 0.  1.
         25    2    1    2    0    0  0.00000000000E+00  0.00000000000E+00 -0.42817510469E+02  0.13212872959E+03  0.12499864791E+03 0.  0.
    9000005    1    3    3    0    0 -0.44522061148E+02  0.33270055175E+02  0.87874005720E+01  0.56279027257E+02  0.10000000000E+01 0.  0.
    9000005    1    3    3    0    0  0.44522061148E+02 -0.33270055175E+02 -0.51604911041E+02  0.75849702331E+02  0.10000000000E+01 0.  0.
<mgrwt>
<rscale>  0 0.12499865E+03</rscale>
<asrwt>0</asrwt>
<pdfrwt beam="1">  1        4 0.68700938E-02 0.12499865E+03</pdfrwt>
<pdfrwt beam="2">  1       -4 0.13457403E-01 0.12499865E+03</pdfrwt>
<totfact> 0.10299266E+04</totfact>
</mgrwt>
</event>
<event>
 5    1  0.3266594E-002  0.1250086E+03  0.7818608E-02  0.1235056E+00
         -4   -1    0    0    0  501 -0.00000000000E+00  0.00000000000E+00  0.12180810190E+02  0.12246837832E+02  0.12700000000E+01 0.  1.
          4   -1    0    0  501    0  0.00000000000E+00 -0.00000000000E+00 -0.31979851862E+03  0.31980104036E+03  0.12700000000E+01 0.  1.
         25    2    1    2    0    0  0.00000000000E+00  0.00000000000E+00 -0.30761770843E+03  0.33204787819E+03  0.12500855518E+03 0.  0.
    9000005    1    3    3    0    0 -0.20495823614E+02 -0.52494972611E+02 -0.22557466231E+03  0.23250963252E+03  0.10000000000E+01 0.  0.
    9000005    1    3    3    0    0  0.20495823614E+02  0.52494972611E+02 -0.82043046118E+02  0.99538245672E+02  0.10000000000E+01 0.  0.
<mgrwt>
<rscale>  0 0.12500856E+03</rscale>
<asrwt>0</asrwt>
<pdfrwt beam="2">  1        4 0.49205039E-01 0.12500856E+03</pdfrwt>
<pdfrwt beam="1">  1       -4 0.18792441E-02 0.12500856E+03</pdfrwt>
<totfact> 0.71732144E+03</totfact>
</mgrwt>
</event>
<event>
 5    1  0.3266594E-002  0.1250008E+03  0.7818608E-02  0.1235068E+00
         -4   -1    0    0    0  501 -0.00000000000E+00  0.00000000000E+00  0.34875493600E+02  0.34898609626E+02  0.12700000000E+01 0.  1.
          4   -1    0    0  501    0  0.00000000000E+00 -0.00000000000E+00 -0.11194320168E+03  0.11195040554E+03  0.12700000000E+01 0.  1.
         25    2    1    2    0    0  0.00000000000E+00  0.00000000000E+00 -0.77067708076E+02  0.14684901517E+03  0.12500080651E+03 0.  0.
    9000005    1    3    3    0    0  0.44550596642E+02  0.30261059479E+02 -0.75773097655E+02  0.92968003690E+02  0.10000000000E+01 0.  0.
    9000005    1    3    3    0    0 -0.44550596642E+02 -0.30261059479E+02 -0.12946104218E+01  0.53881011480E+02  0.10000000000E+01 0.  0.
<mgrwt>
<rscale>  0 0.12500081E+03</rscale>
<asrwt>0</asrwt>
<pdfrwt beam="2">  1        4 0.17224363E-01 0.12500081E+03</pdfrwt>
<pdfrwt beam="1">  1       -4 0.53677929E-02 0.12500081E+03</pdfrwt>
<totfact> 0.99933735E+03</totfact>
</mgrwt>
</event>
<event>
 5    1  0.3266594E-002  0.1250002E+03  0.7818608E-02  0.1235069E+00
          4   -1    0    0  501    0  0.00000000000E+00  0.00000000000E+00  0.20877002629E+02  0.20915595587E+02  0.12700000000E+01 0. -1.
         -4   -1    0    0    0  501 -0.00000000000E+00 -0.00000000000E+00 -0.18689486045E+03  0.18689917539E+03  0.12700000000E+01 0. -1.
         25    2    1    2    0    0  0.00000000000E+00  0.00000000000E+00 -0.16601785782E+03  0.20781477098E+03  0.12500019969E+03 0.  0.
    9000005    1    3    3    0    0 -0.31212544035E+02  0.47499918633E+02 -0.39821994617E+02  0.69406458133E+02  0.10000000000E+01 0.  0.
    9000005    1    3    3    0    0  0.31212544035E+02 -0.47499918633E+02 -0.12619586320E+03  0.13840831285E+03  0.10000000000E+01 0.  0.
<mgrwt>
<rscale>  0 0.12500020E+03</rscale>
<asrwt>0</asrwt>
<pdfrwt beam="1">  1        4 0.32151473E-02 0.12500020E+03</pdfrwt>
<pdfrwt beam="2">  1       -4 0.28756355E-01 0.12500020E+03</pdfrwt>
<totfact> 0.88833609E+03</totfact>
</mgrwt>
</event>
<event>
 5    1  0.3266594E-002  0.1250009E+03  0.7818608E-02  0.1235068E+00
         -4   -1    0    0    0  501 -0.00000000000E+00  0.00000000000E+00  0.23710941318E+03  0.23711281433E+03  0.12700000000E+01 0.  1.
          4   -1    0    0  501    0  0.00000000000E+00 -0.00000000000E+00 -0.16446692548E+02  0.16495653845E+02  0.12700000000E+01 0.  1.
         25    2    1    2    0    0  0.00000000000E+00  0.00000000000E+00  0.22066272063E+03  0.25360846817E+03  0.12500087540E+03 0.  0.
    9000005    1    3    3    0    0  0.55973818739E+01 -0.59565813942E+02  0.14695696245E+03  0.15867188058E+03  0.10000000000E+01 0.  0.
    9000005    1    3    3    0    0 -0.55973818739E+01  0.59565813942E+02  0.73705758179E+02  0.94936587589E+02  0.10000000000E+01 0.  0.
<mgrwt>
<rscale>  0 0.12500088E+03</rscale>
<asrwt>0</asrwt>
<pdfrwt beam="2">  1        4 0.25342883E-02 0.12500088E+03</pdfrwt>
<pdfrwt beam="1">  1       -4 0.36482399E-01 0.12500088E+03</pdfrwt>
<totfact> 0.81809877E+03</totfact>
</mgrwt>
</event>
<event>
 5    1  0.3266594E-002  0.1250139E+03  0.7818608E-02  0.1235048E+00
          4   -1    0    0  501    0  0.00000000000E+00  0.00000000000E+00  0.17175140879E+02  0.17222031361E+02  0.12700000000E+01 0.  1.
         -4   -1    0    0    0  501 -0.00000000000E+00 -0.00000000000E+00 -0.22712801803E+03  0.22713156865E+03  0.12700000000E+01 0.  1.
         25    2    1    2    0    0  0.00000000000E+00  0.00000000000E+00 -0.20995287716E+03  0.24435360001E+03  0.12501388407E+03 0.  0.
    9000005    1    3    3    0    0 -0.67006257582E+01  0.51438325480E+02 -0.36835913744E+02  0.63629271998E+02  0.10000000000E+01 0.  0.
    9000005    1    3    3    0    0  0.67006257582E+01 -0.51438325480E+02 -0.17311696341E+03  0.18072432801E+03  0.10000000000E+01 0.  0.
<mgrwt>
<rscale>  0 0.12501388E+03</rscale>
<asrwt>0</asrwt>
<pdfrwt beam="1">  1        4 0.26462096E-02 0.12501388E+03</pdfrwt>
<pdfrwt beam="2">  1       -4 0.34946650E-01 0.12501388E+03</pdfrwt>
<totfact> 0.83127495E+03</totfact>
</mgrwt>
</event>
<event>
 5    1  0.3266594E-002  0.1249987E+03  0.7818608E-02  0.1235071E+00
         -4   -1    0    0    0  501 -0.00000000000E+00  0.00000000000E+00  0.13663437964E+03  0.13664028176E+03  0.12700000000E+01 0. -1.
          4   -1    0    0  501    0  0.00000000000E+00 -0.00000000000E+00 -0.28567832085E+02  0.28596047454E+02  0.12700000000E+01 0. -1.
         25    2    1    2    0    0  0.00000000000E+00  0.00000000000E+00  0.10806654755E+03  0.16523632921E+03  0.12499866316E+03 0.  0.
    9000005    1    3    3    0    0 -0.16507528741E+02  0.38072414079E+02  0.11579833499E+03  0.12301325784E+03  0.10000000000E+01 0.  0.
    9000005    1    3    3    0    0  0.16507528741E+02 -0.38072414079E+02 -0.77317874362E+01  0.42223071369E+02  0.10000000000E+01 0.  0.
<mgrwt>
<rscale>  0 0.12499866E+03</rscale>
<asrwt>0</asrwt>
<pdfrwt beam="2">  1        4 0.43976756E-02 0.12499866E+03</pdfrwt>
<pdfrwt beam="1">  1       -4 0.21023298E-01 0.12499866E+03</pdfrwt>
<totfact> 0.96345548E+03</totfact>
</mgrwt>
</event>
<event>
 5    1  0.3266594E-002  0.1249936E+03  0.7818608E-02  0.1235079E+00
         -4   -1    0    0    0  501 -0.00000000000E+00  0.00000000000E+00  0.48855656048E+02  0.48872160049E+02  0.12700000000E+01 0.  1.
          4   -1    0    0  501    0  0.00000000000E+00 -0.00000000000E+00 -0.79911668515E+02  0.79921759645E+02  0.12700000000E+01 0.  1.
         25    2    1    2    0    0  0.00000000000E+00  0.00000000000E+00 -0.31056012467E+02  0.12879391969E+03  0.12499359120E+03 0.  0.
    9000005    1    3    3    0    0  0.84251105512E+01 -0.88777550909E+01 -0.78669611326E+02  0.79622263026E+02  0.10000000000E+01 0.  0.
    9000005    1    3    3    0    0 -0.84251105512E+01  0.88777550909E+01  0.47613598859E+02  0.49171656668E+02  0.10000000000E+01 0.  0.
<mgrwt>
<rscale>  0 0.12499359E+03</rscale>
<asrwt>0</asrwt>
<pdfrwt beam="2">  1        4 0.12296149E-01 0.12499359E+03</pdfrwt>
<pdfrwt beam="1">  1       -4 0.75183006E-02 0.12499359E+03</pdfrwt>
<totfact> 0.10371878E+04</totfact>
</mgrwt>
</event>
<event>
 5    1  0.3266594E-002  0.1249977E+03  0.7818608E-02  0.1235073E+00
         -4   -1    0    0    0  501 -0.00000000000E+00  0.00000000000E+00  0.20932795160E+01  0.24484115529E+01  0.12700000000E+01 0.  1.
          4   -1    0    0  501    0  0.00000000000E+00 -0.00000000000E+00 -0.17197561962E+04  0.17197566652E+04  0.12700000000E+01 0.  1.
         25    2    1    2    0    0  0.00000000000E+00  0.00000000000E+00 -0.17176629167E+04  0.17222050767E+04  0.12499772322E+03 0.  0.
    9000005    1    3    3    0    0 -0.42070942594E+02  0.39033863723E+02 -0.11995386803E+04  0.12009111758E+04  0.10000000000E+01 0.  0.
    9000005    1    3    3    0    0  0.42070942594E+02 -0.39033863723E+02 -0.51812423645E+03  0.52129390091E+03  0.10000000000E+01 0.  0.
<mgrwt>
<rscale>  0 0.12499772E+03</rscale>
<asrwt>0</asrwt>
<pdfrwt beam="2">  1        4 0.26460419E+00 0.12499772E+03</pdfrwt>
<pdfrwt beam="1">  1       -4 0.34939830E-03 0.12499772E+03</pdfrwt>
<totfact> 0.13941577E+03</totfact>
</mgrwt>
</event>
<event>
 5    1  0.3266594E-002  0.1250054E+03  0.7818608E-02  0.1235061E+00
         -4   -1    0    0    0  501 -0.00000000000E+00  0.00000000000E+00  0.10085519921E+02  0.10165166604E+02  0.12700000000E+01 0.  1.
          4   -1    0    0  501    0  0.00000000000E+00 -0.00000000000E+00 -0.38574207432E+03  0.38574416496E+03  0.12700000000E+01 0.  1.
         25    2    1    2    0    0  0.00000000000E+00  0.00000000000E+00 -0.37565655440E+03  0.39590933156E+03  0.12500540771E+03 0.  0.
    9000005    1    3    3    0    0 -0.74994931843E+01 -0.61224663288E+02 -0.15601687508E+03  0.16777057877E+03  0.10000000000E+01 0.  0.
    9000005    1    3    3    0    0  0.74994931843E+01  0.61224663288E+02 -0.21963967932E+03  0.22813875279E+03  0.10000000000E+01 0.  0.
<mgrwt>
<rscale>  0 0.12500541E+03</rscale>
<asrwt>0</asrwt>
<pdfrwt beam="2">  1        4 0.59351211E-01 0.12500541E+03</pdfrwt>
<pdfrwt beam="1">  1       -4 0.15579062E-02 0.12500541E+03</pdfrwt>
<totfact> 0.64944846E+03</totfact>
</mgrwt>
</event>
<event>
 5    1  0.3266594E-002  0.1249958E+03  0.7818608E-02  0.1235076E+00
          4   -1    0    0  501    0  0.00000000000E+00  0.00000000000E+00  0.22291222054E+03  0.22291583830E+03  0.12700000000E+01 0. -1.
         -4   -1    0    0    0  501 -0.00000000000E+00 -0.00000000000E+00 -0.17495754108E+02  0.17541787588E+02  0.12700000000E+01 0. -1.
         25    2    1    2    0    0  0.00000000000E+00  0.00000000000E+00  0.20541646643E+03  0.24045762589E+03  0.12499578060E+03 0.  0.
    9000005    1    3    3    0    0 -0.42110461598E+02  0.45998065806E+02  0.95043867155E+02  0.11368135167E+03  0.10000000000E+01 0.  0.
    9000005    1    3    3    0    0  0.42110461598E+02 -0.45998065806E+02  0.11037259928E+03  0.12677627422E+03  0.10000000000E+01 0.  0.
<mgrwt>
<rscale>  0 0.12499578E+03</rscale>
<asrwt>0</asrwt>
<pdfrwt beam="1">  1        4 0.34298003E-01 0.12499578E+03</pdfrwt>
<pdfrwt beam="2">  1       -4 0.26954741E-02 0.12499578E+03</pdfrwt>
<totfact> 0.83737138E+03</totfact>
</mgrwt>
</event>
<event>
 5    1  0.3266594E-002  0.1249934E+03  0.7818608E-02  0.1235080E+00
         -4   -1    0    0    0  501 -0.00000000000E+00  0.00000000000E+00  0.12913232006E+02  0.12975533162E+02  0.12700000000E+01 0. -1.
          4   -1    0    0  501    0  0.00000000000E+00 -0.00000000000E+00 -0.30167646330E+03  0.30167913652E+03  0.12700000000E+01 0. -1.
         25    2    1    2    0    0  0.00000000000E+00  0.00000000000E+00 -0.28876323129E+03  0.31465466968E+03  0.12499342944E+03 0.  0.
    9000005    1    3    3    0    0 -0.27693865797E+02  0.55397413495E+02 -0.16529484152E+03  0.17651971068E+03  0.10000000000E+01 0.  0.
    9000005    1    3    3    0    0  0.27693865797E+02 -0.55397413495E+02 -0.12346838977E+03  0.13813495900E+03  0.10000000000E+01 0.  0.
<mgrwt>
<rscale>  0 0.12499343E+03</rscale>
<asrwt>0</asrwt>
<pdfrwt beam="2">  1        4 0.46416756E-01 0.12499343E+03</pdfrwt>
<pdfrwt beam="1">  1       -4 0.19916493E-02 0.12499343E+03</pdfrwt>
<totfact> 0.73807179E+03</totfact>
</mgrwt>
</event>
<event>
 5    1  0.3266594E-002  0.1250248E+03  0.7818608E-02  0.1235031E+00
         -4   -1    0    0    0  501 -0.00000000000E+00  0.00000000000E+00  0.10636292006E+02  0.10711844269E+02  0.12700000000E+01 0.  1.
          4   -1    0    0  501    0  0.00000000000E+00 -0.00000000000E+00 -0.36602555540E+03  0.36602775866E+03  0.12700000000E+01 0.  1.
         25    2    1    2    0    0  0.00000000000E+00  0.00000000000E+00 -0.35538926340E+03  0.37673960293E+03  0.12502479704E+03 0.  0.
    9000005    1    3    3    0    0 -0.42100505362E+02 -0.13684624177E+02 -0.31065948100E+03  0.31379935409E+03  0.10000000000E+01 0.  0.
    9000005    1    3    3    0    0  0.42100505362E+02  0.13684624177E+02 -0.44729782396E+02  0.62940248838E+02  0.10000000000E+01 0.  0.
<mgrwt>
<rscale>  0 0.12502480E+03</rscale>
<asrwt>0</asrwt>
<pdfrwt beam="2">  1        4 0.56317595E-01 0.12502480E+03</pdfrwt>
<pdfrwt beam="1">  1       -4 0.16423341E-02 0.12502480E+03</pdfrwt>
<totfact> 0.66843059E+03</totfact>
</mgrwt>
</event>
<event>
 5    1  0.3266594E-002  0.1249989E+03  0.7818608E-02  0.1235071E+00
          4   -1    0    0  501    0  0.00000000000E+00  0.00000000000E+00  0.70510584637E+02  0.70522021000E+02  0.12700000000E+01 0.  1.
         -4   -1    0    0    0  501 -0.00000000000E+00 -0.00000000000E+00 -0.55375319678E+02  0.55389881111E+02  0.12700000000E+01 0.  1.
         25    2    1    2    0    0  0.00000000000E+00  0.00000000000E+00  0.15135264959E+02  0.12591190211E+03  0.12499892339E+03 0.  0.
    9000005    1    3    3    0    0  0.42232001243E+01 -0.65106514663E+00  0.70368190637E+02  0.70504904501E+02  0.10000000000E+01 0.  0.
    9000005    1    3    3    0    0 -0.42232001243E+01  0.65106514663E+00 -0.55232925678E+02  0.55406997610E+02  0.10000000000E+01 0.  0.
<mgrwt>
<rscale>  0 0.12499892E+03</rscale>
<asrwt>0</asrwt>
<pdfrwt beam="1">  1        4 0.10849782E-01 0.12499892E+03</pdfrwt>
<pdfrwt beam="2">  1       -4 0.85212798E-02 0.12499892E+03</pdfrwt>
<totfact> 0.10433142E+04</totfact>
</mgrwt>
</event>
<event>
 5    1  0.3266594E-002  0.1250006E+03  0.7818608E-02  0.1235068E+00
          4   -1    0    0  501    0  0.00000000000E+00  0.00000000000E+00  0.42616528022E+02  0.42635447232E+02  0.12700000000E+01 0.  1.
         -4   -1    0    0    0  501 -0.00000000000E+00 -0.00000000000E+00 -0.91617605751E+02  0.91626407675E+02  0.12700000000E+01 0.  1.
         25    2    1    2    0    0  0.00000000000E+00  0.00000000000E+00 -0.49001077729E+02  0.13426185491E+03  0.12500056026E+03 0.  0.
    9000005    1    3    3    0    0  0.13825079237E+02  0.92658534811E+01 -0.89198716492E+02  0.90743594157E+02  0.10000000000E+01 0.  0.
    9000005    1    3    3    0    0 -0.13825079237E+02 -0.92658534811E+01  0.40197638763E+02  0.43518260751E+02  0.10000000000E+01 0.  0.
<mgrwt>
<rscale>  0 0.12500056E+03</rscale>
<asrwt>0</asrwt>
<pdfrwt beam="1">  1        4 0.65585213E-02 0.12500056E+03</pdfrwt>
<pdfrwt beam="2">  1       -4 0.14097149E-01 0.12500056E+03</pdfrwt>
<totfact> 0.10253523E+04</totfact>
</mgrwt>
</event>
<event>
 5    1  0.3266594E-002  0.1250071E+03  0.7818608E-02  0.1235058E+00
         -4   -1    0    0    0  501 -0.00000000000E+00  0.00000000000E+00  0.89203863550E+03  0.89203953955E+03  0.12700000000E+01 0.  1.
          4   -1    0    0  501    0  0.00000000000E+00 -0.00000000000E+00 -0.42865187261E+01  0.44706982440E+01  0.12700000000E+01 0.  1.
         25    2    1    2    0    0  0.00000000000E+00  0.00000000000E+00  0.88775211677E+03  0.89651023780E+03  0.12500714234E+03 0.  0.
    9000005    1    3    3    0    0 -0.15027310826E+01  0.54589361280E+02  0.22594218858E+03  0.23245027242E+03  0.10000000000E+01 0.  0.
    9000005    1    3    3    0    0  0.15027310826E+01 -0.54589361280E+02  0.66180992819E+03  0.66405996538E+03  0.10000000000E+01 0.  0.
<mgrwt>
<rscale>  0 0.12500714E+03</rscale>
<asrwt>0</asrwt>
<pdfrwt beam="2">  1        4 0.67370242E-03 0.12500714E+03</pdfrwt>
<pdfrwt beam="1">  1       -4 0.13725079E+00 0.12500714E+03</pdfrwt>
<totfact> 0.34288590E+03</totfact>
</mgrwt>
</event>
<event>
 5    1  0.3266594E-002  0.1249995E+03  0.7818608E-02  0.1235070E+00
          4   -1    0    0  501    0  0.00000000000E+00  0.00000000000E+00  0.74814539083E+02  0.74825317629E+02  0.12700000000E+01 0.  1.
         -4   -1    0    0    0  501 -0.00000000000E+00 -0.00000000000E+00 -0.52189765551E+02  0.52205215527E+02  0.12700000000E+01 0.  1.
         25    2    1    2    0    0  0.00000000000E+00  0.00000000000E+00  0.22624773532E+02  0.12703053316E+03  0.12499950391E+03 0.  0.
    9000005    1    3    3    0    0 -0.30728094381E+02 -0.53878323110E+02  0.19060539228E+02  0.64895251298E+02  0.10000000000E+01 0.  0.
    9000005    1    3    3    0    0  0.30728094381E+02  0.53878323110E+02  0.35642343044E+01  0.62135281858E+02  0.10000000000E+01 0.  0.
<mgrwt>
<rscale>  0 0.12499950E+03</rscale>
<asrwt>0</asrwt>
<pdfrwt beam="1">  1        4 0.11511947E-01 0.12499950E+03</pdfrwt>
<pdfrwt beam="2">  1       -4 0.80312122E-02 0.12499950E+03</pdfrwt>
<totfact> 0.10408599E+04</totfact>
</mgrwt>
</event>
<event>
 5    1  0.3266594E-002  0.1249989E+03  0.7818608E-02  0.1235071E+00
         -4   -1    0    0    0  501 -0.00000000000E+00  0.00000000000E+00  0.17385005294E+03  0.17385469165E+03  0.12700000000E+01 0.  1.
          4   -1    0    0  501    0  0.00000000000E+00 -0.00000000000E+00 -0.22445790101E+02  0.22481690178E+02  0.12700000000E+01 0.  1.
         25    2    1    2    0    0  0.00000000000E+00  0.00000000000E+00  0.15140426284E+03  0.19633638182E+03  0.12499889608E+03 0.  0.
    9000005    1    3    3    0    0  0.25763484687E+02 -0.53964851714E+02  0.10420160349E+03  0.12014548070E+03  0.10000000000E+01 0.  0.
    9000005    1    3    3    0    0 -0.25763484687E+02  0.53964851714E+02  0.47202659348E+02  0.76190901119E+02  0.10000000000E+01 0.  0.
<mgrwt>
<rscale>  0 0.12499890E+03</rscale>
<asrwt>0</asrwt>
<pdfrwt beam="2">  1        4 0.34563168E-02 0.12499890E+03</pdfrwt>
<pdfrwt beam="1">  1       -4 0.26749281E-01 0.12499890E+03</pdfrwt>
<totfact> 0.90758586E+03</totfact>
</mgrwt>
</event>
<event>
 5    1  0.3266594E-002  0.1249987E+03  0.7818608E-02  0.1235071E+00
          4   -1    0    0  501    0  0.00000000000E+00  0.00000000000E+00  0.76864881317E+03  0.76864986235E+03  0.12700000000E+01 0.  1.
         -4   -1    0    0    0  501 -0.00000000000E+00 -0.00000000000E+00 -0.50014475356E+01  0.51601722308E+01  0.12700000000E+01 0.  1.
         25    2    1    2    0    0  0.00000000000E+00  0.00000000000E+00  0.76364736564E+03  0.77381003458E+03  0.12499868229E+03 0.  0.
    9000005    1    3    3    0    0  0.51352995969E+02 -0.14382026794E+02  0.58348679707E+03  0.58591963207E+03  0.10000000000E+01 0.  0.
    9000005    1    3    3    0    0 -0.51352995969E+02  0.14382026794E+02  0.18016056857E+03  0.18789040251E+03  0.10000000000E+01 0.  0.
<mgrwt>
<rscale>  0 0.12499868E+03</rscale>
<asrwt>0</asrwt>
<pdfrwt beam="1">  1        4 0.11826596E+00 0.12499868E+03</pdfrwt>
<pdfrwt beam="2">  1       -4 0.78174375E-03 0.12499868E+03</pdfrwt>
<totfact> 0.39461476E+03</totfact>
</mgrwt>
</event>
<event>
 5    1  0.3266594E-002  0.1250000E+03  0.7818608E-02  0.1235069E+00
          4   -1    0    0  501    0  0.00000000000E+00  0.00000000000E+00  0.94638889216E+02  0.94647410171E+02  0.12700000000E+01 0. -1.
         -4   -1    0    0    0  501 -0.00000000000E+00 -0.00000000000E+00 -0.41255133308E+02  0.41274676549E+02  0.12700000000E+01 0. -1.
         25    2    1    2    0    0  0.00000000000E+00  0.00000000000E+00  0.53383755908E+02  0.13592208672E+03  0.12499995305E+03 0.  0.
    9000005    1    3    3    0    0  0.23516191308E+02 -0.57828770180E+02  0.29780708795E+02  0.69174189771E+02  0.10000000000E+01 0.  0.
    9000005    1    3    3    0    0 -0.23516191308E+02  0.57828770180E+02  0.23603047113E+02  0.66747896949E+02  0.10000000000E+01 0.  0.
<mgrwt>
<rscale>  0 0.12499995E+03</rscale>
<asrwt>0</asrwt>
<pdfrwt beam="1">  1        4 0.14561988E-01 0.12499995E+03</pdfrwt>
<pdfrwt beam="2">  1       -4 0.63491024E-02 0.12499995E+03</pdfrwt>
<totfact> 0.10218683E+04</totfact>
</mgrwt>
</event>
<event>
 5    1  0.3266594E-002  0.1250002E+03  0.7818608E-02  0.1235069E+00
          4   -1    0    0  501    0  0.00000000000E+00  0.00000000000E+00  0.76271067838E+02  0.76281640578E+02  0.12700000000E+01 0. -1.
         -4   -1    0    0    0  501 -0.00000000000E+00 -0.00000000000E+00 -0.51193519889E+02  0.51209270436E+02  0.12700000000E+01 0. -1.
         25    2    1    2    0    0  0.00000000000E+00  0.00000000000E+00  0.25077547950E+02  0.12749091101E+03  0.12500019592E+03 0.  0.
    9000005    1    3    3    0    0 -0.22273031903E+02  0.35702676571E+02  0.59659927841E+02  0.73014218167E+02  0.10000000000E+01 0.  0.
    9000005    1    3    3    0    0  0.22273031903E+02 -0.35702676571E+02 -0.34582379892E+02  0.54476692846E+02  0.10000000000E+01 0.  0.
<mgrwt>
<rscale>  0 0.12500020E+03</rscale>
<asrwt>0</asrwt>
<pdfrwt beam="1">  1        4 0.11736035E-01 0.12500020E+03</pdfrwt>
<pdfrwt beam="2">  1       -4 0.78779510E-02 0.12500020E+03</pdfrwt>
<totfact> 0.10398451E+04</totfact>
</mgrwt>
</event>
<event>
 5    1  0.3266594E-002  0.1250108E+03  0.7818608E-02  0.1235052E+00
         -4   -1    0    0    0  501 -0.00000000000E+00  0.00000000000E+00  0.46829284500E+02  0.46846502397E+02  0.12700000000E+01 0. -1.
          4   -1    0    0  501    0  0.00000000000E+00 -0.00000000000E+00 -0.83391651007E+02  0.83401321078E+02  0.12700000000E+01 0. -1.
         25    2    1    2    0    0  0.00000000000E+00  0.00000000000E+00 -0.36562366507E+02  0.13024782347E+03  0.12501075504E+03 0.  0.
    9000005    1    3    3    0    0  0.61613403518E+02 -0.69039247006E+01 -0.26488135641E+02  0.67427716846E+02  0.10000000000E+01 0.  0.
    9000005    1    3    3    0    0 -0.61613403518E+02  0.69039247006E+01 -0.10074230865E+02  0.62820106629E+02  0.10000000000E+01 0.  0.
<mgrwt>
<rscale>  0 0.12501076E+03</rscale>
<asrwt>0</asrwt>
<pdfrwt beam="2">  1        4 0.12831553E-01 0.12501076E+03</pdfrwt>
<pdfrwt beam="1">  1       -4 0.72065736E-02 0.12501076E+03</pdfrwt>
<totfact> 0.10336699E+04</totfact>
</mgrwt>
</event>
<event>
 5    1  0.3266594E-002  0.1250001E+03  0.7818608E-02  0.1235069E+00
          4   -1    0    0  501    0  0.00000000000E+00  0.00000000000E+00  0.63890942516E+02  0.63903563559E+02  0.12700000000E+01 0.  1.
         -4   -1    0    0    0  501 -0.00000000000E+00 -0.00000000000E+00 -0.61114142440E+02  0.61127336815E+02  0.12700000000E+01 0.  1.
         25    2    1    2    0    0  0.00000000000E+00  0.00000000000E+00  0.27768000763E+01  0.12503090037E+03  0.12500006172E+03 0.  0.
    9000005    1    3    3    0    0  0.46642127418E+02 -0.39256513710E+02 -0.12351507323E+02  0.62210301815E+02  0.10000000000E+01 0.  0.
    9000005    1    3    3    0    0 -0.46642127418E+02  0.39256513710E+02  0.15128307399E+02  0.62820598560E+02  0.10000000000E+01 0.  0.
<mgrwt>
<rscale>  0 0.12500006E+03</rscale>
<asrwt>0</asrwt>
<pdfrwt beam="1">  1        4 0.98313616E-02 0.12500006E+03</pdfrwt>
<pdfrwt beam="2">  1       -4 0.94041616E-02 0.12500006E+03</pdfrwt>
<totfact> 0.10452177E+04</totfact>
</mgrwt>
</event>
<event>
 5    1  0.3266594E-002  0.1249996E+03  0.7818608E-02  0.1235070E+00
          4   -1    0    0  501    0  0.00000000000E+00  0.00000000000E+00  0.13162106073E+02  0.13223234713E+02  0.12700000000E+01 0.  1.
         -4   -1    0    0    0  501 -0.00000000000E+00 -0.00000000000E+00 -0.29602792025E+03  0.29603064447E+03  0.12700000000E+01 0.  1.
         25    2    1    2    0    0  0.00000000000E+00  0.00000000000E+00 -0.28286581418E+03  0.30925387919E+03  0.12499957185E+03 0.  0.
    9000005    1    3    3    0    0  0.52969542413E+02 -0.35993119699E+01 -0.59883529530E+02  0.80036020510E+02  0.10000000000E+01 0.  0.
    9000005    1    3    3    0    0 -0.52969542413E+02  0.35993119699E+01 -0.22298228465E+03  0.22921785868E+03  0.10000000000E+01 0.  0.
<mgrwt>
<rscale>  0 0.12499957E+03</rscale>
<asrwt>0</asrwt>
<pdfrwt beam="1">  1        4 0.20298514E-02 0.12499957E+03</pdfrwt>
<pdfrwt beam="2">  1       -4 0.45547664E-01 0.12499957E+03</pdfrwt>
<totfact> 0.74453229E+03</totfact>
</mgrwt>
</event>
<event>
 5    1  0.3266594E-002  0.1250289E+03  0.7818608E-02  0.1235024E+00
         -4   -1    0    0    0  501 -0.00000000000E+00  0.00000000000E+00  0.12184181535E+03  0.12184843400E+03  0.12700000000E+01 0.  1.
          4   -1    0    0  501    0  0.00000000000E+00 -0.00000000000E+00 -0.32054783945E+02  0.32079932571E+02  0.12700000000E+01 0.  1.
         25    2    1    2    0    0  0.00000000000E+00  0.00000000000E+00  0.89787031403E+02  0.15392836657E+03  0.12502892076E+03 0.  0.
    9000005    1    3    3    0    0  0.33525370182E+02  0.32987948885E+02  0.95578643230E+02  0.10652902074E+03  0.10000000000E+01 0.  0.
    9000005    1    3    3    0    0 -0.33525370182E+02 -0.32987948885E+02 -0.57916118269E+01  0.47399345830E+02  0.10000000000E+01 0.  0.
<mgrwt>
<rscale>  0 0.12502892E+03</rscale>
<asrwt>0</asrwt>
<pdfrwt beam="2">  1        4 0.49339489E-02 0.12502892E+03</pdfrwt>
<pdfrwt beam="1">  1       -4 0.18747338E-01 0.12502892E+03</pdfrwt>
<totfact> 0.98462221E+03</totfact>
</mgrwt>
</event>
<event>
 5    1  0.3266594E-002  0.1249997E+03  0.7818608E-02  0.1235070E+00
          4   -1    0    0  501    0  0.00000000000E+00  0.00000000000E+00  0.43095447928E+02  0.43114156980E+02  0.12700000000E+01 0. -1.
         -4   -1    0    0    0  501 -0.00000000000E+00 -0.00000000000E+00 -0.90598608726E+02  0.90607509640E+02  0.12700000000E+01 0. -1.
         25    2    1    2    0    0  0.00000000000E+00  0.00000000000E+00 -0.47503160799E+02  0.13372166662E+03  0.12499973535E+03 0.  0.
    9000005    1    3    3    0    0  0.18155810861E+02 -0.44881672368E+02 -0.66021059208E+02  0.81876603749E+02  0.10000000000E+01 0.  0.
    9000005    1    3    3    0    0 -0.18155810861E+02  0.44881672368E+02  0.18517898409E+02  0.51845062871E+02  0.10000000000E+01 0.  0.
<mgrwt>
<rscale>  0 0.12499974E+03</rscale>
<asrwt>0</asrwt>
<pdfrwt beam="1">  1        4 0.66321928E-02 0.12499974E+03</pdfrwt>
<pdfrwt beam="2">  1       -4 0.13940371E-01 0.12499974E+03</pdfrwt>
<totfact> 0.10265147E+04</totfact>
</mgrwt>
</event>
<event>
 5    1  0.3266594E-002  0.1249986E+03  0.7818608E-02  0.1235071E+00
          4   -1    0    0  501    0  0.00000000000E+00  0.00000000000E+00  0.66569858576E+03  0.66569979719E+03  0.12700000000E+01 0. -1.
         -4   -1    0    0    0  501 -0.00000000000E+00 -0.00000000000E+00 -0.57978180335E+01  0.59352838137E+01  0.12700000000E+01 0. -1.
         25    2    1    2    0    0  0.00000000000E+00  0.00000000000E+00  0.65990076773E+03  0.67163508101E+03  0.12499863516E+03 0.  0.
    9000005    1    3    3    0    0  0.40882957961E+02 -0.45616515650E+01  0.58271303345E+03  0.58416410731E+03  0.10000000000E+01 0.  0.
    9000005    1    3    3    0    0 -0.40882957961E+02  0.45616515650E+01  0.77187734272E+02  0.87470973693E+02  0.10000000000E+01 0.  0.
<mgrwt>
<rscale>  0 0.12499864E+03</rscale>
<asrwt>0</asrwt>
<pdfrwt beam="1">  1        4 0.10242584E+00 0.12499864E+03</pdfrwt>
<pdfrwt beam="2">  1       -4 0.90263946E-03 0.12499864E+03</pdfrwt>
<totfact> 0.44628253E+03</totfact>
</mgrwt>
</event>
<event>
 5    1  0.3266594E-002  0.1250034E+03  0.7818608E-02  0.1235064E+00
         -4   -1    0    0    0  501 -0.00000000000E+00  0.00000000000E+00  0.28896000100E+03  0.28896279186E+03  0.12700000000E+01 0. -1.
          4   -1    0    0  501    0  0.00000000000E+00 -0.00000000000E+00 -0.13486358723E+02  0.13546024200E+02  0.12700000000E+01 0. -1.
         25    2    1    2    0    0  0.00000000000E+00  0.00000000000E+00  0.27547364228E+03  0.30250881606E+03  0.12500342476E+03 0.  0.
    9000005    1    3    3    0    0 -0.25822275463E+02  0.76092993008E+01  0.27422104114E+03  0.27554105094E+03  0.10000000000E+01 0.  0.
    9000005    1    3    3    0    0  0.25822275463E+02 -0.76092993008E+01  0.12526011333E+01  0.26967765119E+02  0.10000000000E+01 0.  0.
<mgrwt>
<rscale>  0 0.12500342E+03</rscale>
<asrwt>0</asrwt>
<pdfrwt beam="2">  1        4 0.20796289E-02 0.12500342E+03</pdfrwt>
<pdfrwt beam="1">  1       -4 0.44460187E-01 0.12500342E+03</pdfrwt>
<totfact> 0.75279489E+03</totfact>
</mgrwt>
</event>
<event>
 5    1  0.3266594E-002  0.1249860E+03  0.7818608E-02  0.1235091E+00
          4   -1    0    0  501    0  0.00000000000E+00  0.00000000000E+00  0.28148064708E+03  0.28148351210E+03  0.12700000000E+01 0.  1.
         -4   -1    0    0    0  501 -0.00000000000E+00 -0.00000000000E+00 -0.13842402631E+02  0.13900539939E+02  0.12700000000E+01 0.  1.
         25    2    1    2    0    0  0.00000000000E+00  0.00000000000E+00  0.26763824445E+03  0.29538405204E+03  0.12498603243E+03 0.  0.
    9000005    1    3    3    0    0 -0.49605155469E+02 -0.30394749152E+02  0.18770448230E+03  0.19651586424E+03  0.10000000000E+01 0.  0.
    9000005    1    3    3    0    0  0.49605155469E+02  0.30394749152E+02  0.79933762156E+02  0.98868187793E+02  0.10000000000E+01 0.  0.
<mgrwt>
<rscale>  0 0.12498603E+03</rscale>
<asrwt>0</asrwt>
<pdfrwt beam="1">  1        4 0.43309408E-01 0.12498603E+03</pdfrwt>
<pdfrwt beam="2">  1       -4 0.21342929E-02 0.12498603E+03</pdfrwt>
<totfact> 0.76205158E+03</totfact>
</mgrwt>
</event>
<event>
 5    1  0.3266594E-002  0.1250025E+03  0.7818608E-02  0.1235065E+00
         -4   -1    0    0    0  501 -0.00000000000E+00  0.00000000000E+00  0.27784670689E+01  0.30549597793E+01  0.12700000000E+01 0. -1.
          4   -1    0    0  501    0  0.00000000000E+00 -0.00000000000E+00 -0.13390399886E+04  0.13390405909E+04  0.12700000000E+01 0. -1.
         25    2    1    2    0    0  0.00000000000E+00  0.00000000000E+00 -0.13362615216E+04  0.13420955507E+04  0.12500245246E+03 0.  0.
    9000005    1    3    3    0    0 -0.18449562726E+02 -0.39317169482E+02 -0.18568098494E+03  0.19069518702E+03  0.10000000000E+01 0.  0.
    9000005    1    3    3    0    0  0.18449562726E+02  0.39317169482E+02 -0.11505805366E+04  0.11514003637E+04  0.10000000000E+01 0.  0.
<mgrwt>
<rscale>  0 0.12500245E+03</rscale>
<asrwt>0</asrwt>
<pdfrwt beam="2">  1        4 0.20602698E+00 0.12500245E+03</pdfrwt>
<pdfrwt beam="1">  1       -4 0.44877254E-03 0.12500245E+03</pdfrwt>
<totfact> 0.21255174E+03</totfact>
</mgrwt>
</event>
<event>
 5    1  0.3266594E-002  0.1249921E+03  0.7818608E-02  0.1235082E+00
          4   -1    0    0  501    0  0.00000000000E+00  0.00000000000E+00  0.27170325880E+02  0.27199990964E+02  0.12700000000E+01 0.  1.
         -4   -1    0    0    0  501 -0.00000000000E+00 -0.00000000000E+00 -0.14363998423E+03  0.14364559850E+03  0.12700000000E+01 0.  1.
         25    2    1    2    0    0  0.00000000000E+00  0.00000000000E+00 -0.11646965835E+03  0.17084558946E+03  0.12499213625E+03 0.  0.
    9000005    1    3    3    0    0 -0.46900809050E+02 -0.27324599533E+02 -0.15918956926E+02  0.56575019388E+02  0.10000000000E+01 0.  0.
    9000005    1    3    3    0    0  0.46900809050E+02  0.27324599533E+02 -0.10055070142E+03  0.11427057007E+03  0.10000000000E+01 0.  0.
<mgrwt>
<rscale>  0 0.12499214E+03</rscale>
<asrwt>0</asrwt>
<pdfrwt beam="1">  1        4 0.41827640E-02 0.12499214E+03</pdfrwt>
<pdfrwt beam="2">  1       -4 0.22101173E-01 0.12499214E+03</pdfrwt>
<totfact> 0.95308084E+03</totfact>
</mgrwt>
</event>
<event>
 5    1  0.3266594E-002  0.1250035E+03  0.7818608E-02  0.1235064E+00
         -4   -1    0    0    0  501 -0.00000000000E+00  0.00000000000E+00  0.24260446294E+03  0.24260778705E+03  0.12700000000E+01 0. -1.
          4   -1    0    0  501    0  0.00000000000E+00 -0.00000000000E+00 -0.16073722963E+02  0.16123816852E+02  0.12700000000E+01 0. -1.
         25    2    1    2    0    0  0.00000000000E+00  0.00000000000E+00  0.22653073997E+03  0.25873160390E+03  0.12500346677E+03 0.  0.
    9000005    1    3    3    0    0  0.14261318458E+02 -0.57059652581E+02  0.15699038107E+03  0.16764894543E+03  0.10000000000E+01 0.  0.
    9000005    1    3    3    0    0 -0.14261318458E+02  0.57059652581E+02  0.69540358904E+02  0.91082658467E+02  0.10000000000E+01 0.  0.
<mgrwt>
<rscale>  0 0.12500347E+03</rscale>
<asrwt>0</asrwt>
<pdfrwt beam="2">  1        4 0.24769895E-02 0.12500347E+03</pdfrwt>
<pdfrwt beam="1">  1       -4 0.37327874E-01 0.12500347E+03</pdfrwt>
<totfact> 0.81078133E+03</totfact>
</mgrwt>
</event>
<event>
 5    1  0.3266594E-002  0.1249973E+03  0.7818608E-02  0.1235073E+00
         -4   -1    0    0    0  501 -0.00000000000E+00  0.00000000000E+00  0.11574239119E+03  0.11574935860E+03  0.12700000000E+01 0.  1.
          4   -1    0    0  501    0  0.00000000000E+00 -0.00000000000E+00 -0.33728142753E+02  0.33752044584E+02  0.12700000000E+01 0.  1.
         25    2    1    2    0    0  0.00000000000E+00  0.00000000000E+00  0.82014248433E+02  0.14950140319E+03  0.12499733041E+03 0.  0.
    9000005    1    3    3    0    0 -0.23678831420E+02  0.56100018970E+02  0.24212111758E+02  0.65537207307E+02  0.10000000000E+01 0.  0.
    9000005    1    3    3    0    0  0.23678831420E+02 -0.56100018970E+02  0.57802136675E+02  0.83964195881E+02  0.10000000000E+01 0.  0.
<mgrwt>
<rscale>  0 0.12499733E+03</rscale>
<asrwt>0</asrwt>
<pdfrwt beam="2">  1        4 0.51913197E-02 0.12499733E+03</pdfrwt>
<pdfrwt beam="1">  1       -4 0.17808896E-01 0.12499733E+03</pdfrwt>
<totfact> 0.99409151E+03</totfact>
</mgrwt>
</event>
<event>
 5    1  0.3266594E-002  0.1250114E+03  0.7818608E-02  0.1235051E+00
          4   -1    0    0  501    0  0.00000000000E+00  0.00000000000E+00  0.67275481177E+01  0.68463715701E+01  0.12700000000E+01 0.  1.
         -4   -1    0    0    0  501 -0.00000000000E+00 -0.00000000000E+00 -0.57553792750E+03  0.57553932871E+03  0.12700000000E+01 0.  1.
         25    2    1    2    0    0  0.00000000000E+00  0.00000000000E+00 -0.56881037938E+03  0.58238570028E+03  0.12501142426E+03 0.  0.
    9000005    1    3    3    0    0  0.25278283785E+02  0.56880649835E+02 -0.25823193976E+03  0.26562969463E+03  0.10000000000E+01 0.  0.
    9000005    1    3    3    0    0 -0.25278283785E+02 -0.56880649835E+02 -0.31057843963E+03  0.31675600565E+03  0.10000000000E+01 0.  0.
<mgrwt>
<rscale>  0 0.12501142E+03</rscale>
<asrwt>0</asrwt>
<pdfrwt beam="1">  1        4 0.10442559E-02 0.12501142E+03</pdfrwt>
<pdfrwt beam="2">  1       -4 0.88553506E-01 0.12501142E+03</pdfrwt>
<totfact> 0.49986180E+03</totfact>
</mgrwt>
</event>
<event>
 5    1  0.3266594E-002  0.1250009E+03  0.7818608E-02  0.1235068E+00
         -4   -1    0    0    0  501 -0.00000000000E+00  0.00000000000E+00  0.20849600608E+03  0.20849987399E+03  0.12700000000E+01 0.  1.
          4   -1    0    0  501    0  0.00000000000E+00 -0.00000000000E+00 -0.18710086997E+02  0.18753139882E+02  0.12700000000E+01 0.  1.
         25    2    1    2    0    0  0.00000000000E+00  0.00000000000E+00  0.18978591909E+03  0.22725301387E+03  0.12500094891E+03 0.  0.
    9000005    1    3    3    0    0 -0.47554321260E+02 -0.34469986715E+02  0.56082980347E+02  0.81215110289E+02  0.10000000000E+01 0.  0.
    9000005    1    3    3    0    0  0.47554321260E+02  0.34469986715E+02  0.13370293874E+03  0.14603790358E+03  0.10000000000E+01 0.  0.
<mgrwt>
<rscale>  0 0.12500095E+03</rscale>
<asrwt>0</asrwt>
<pdfrwt beam="2">  1        4 0.28820842E-02 0.12500095E+03</pdfrwt>
<pdfrwt beam="1">  1       -4 0.32079918E-01 0.12500095E+03</pdfrwt>
<totfact> 0.85731375E+03</totfact>
</mgrwt>
</event>
<event>
 5    1  0.3266594E-002  0.1250004E+03  0.7818608E-02  0.1235069E+00
         -4   -1    0    0    0  501 -0.00000000000E+00  0.00000000000E+00  0.38363301431E+02  0.38384317067E+02  0.12700000000E+01 0.  1.
          4   -1    0    0  501    0  0.00000000000E+00 -0.00000000000E+00 -0.10177035622E+03  0.10177828012E+03  0.12700000000E+01 0.  1.
         25    2    1    2    0    0  0.00000000000E+00  0.00000000000E+00 -0.63407054786E+02  0.14016259719E+03  0.12500039622E+03 0.  0.
    9000005    1    3    3    0    0 -0.36642927265E+01  0.15879046538E+02 -0.99351339654E+02  0.10068396025E+03  0.10000000000E+01 0.  0.
    9000005    1    3    3    0    0  0.36642927265E+01 -0.15879046538E+02  0.35944284867E+02  0.39478636942E+02  0.10000000000E+01 0.  0.
<mgrwt>
<rscale>  0 0.12500040E+03</rscale>
<asrwt>0</asrwt>
<pdfrwt beam="2">  1        4 0.15659204E-01 0.12500040E+03</pdfrwt>
<pdfrwt beam="1">  1       -4 0.59042725E-02 0.12500040E+03</pdfrwt>
<totfact> 0.10130127E+04</totfact>
</mgrwt>
</event>
<event>
 5    1  0.3266594E-002  0.1250038E+03  0.7818608E-02  0.1235063E+00
         -4   -1    0    0    0  501 -0.00000000000E+00  0.00000000000E+00  0.73540651205E+02  0.73551616432E+02  0.12700000000E+01 0. -1.
          4   -1    0    0  501    0  0.00000000000E+00 -0.00000000000E+00 -0.53097617019E+02  0.53112802912E+02  0.12700000000E+01 0. -1.
         25    2    1    2    0    0  0.00000000000E+00  0.00000000000E+00  0.20443034186E+02  0.12666441934E+03  0.12500382986E+03 0.  0.
    9000005    1    3    3    0    0 -0.15624931536E+02 -0.60457673808E+02  0.76942790945E+01  0.62924325492E+02  0.10000000000E+01 0.  0.
    9000005    1    3    3    0    0  0.15624931536E+02  0.60457673808E+02  0.12748755092E+02  0.63740093851E+02  0.10000000000E+01 0.  0.
<mgrwt>
<rscale>  0 0.12500383E+03</rscale>
<asrwt>0</asrwt>
<pdfrwt beam="2">  1        4 0.81708758E-02 0.12500383E+03</pdfrwt>
<pdfrwt beam="1">  1       -4 0.11315958E-01 0.12500383E+03</pdfrwt>
<totfact> 0.10415545E+04</totfact>
</mgrwt>
</event>
<event>
 5    1  0.3266594E-002  0.1250389E+03  0.7818608E-02  0.1235009E+00
         -4   -1    0    0    0  501 -0.00000000000E+00  0.00000000000E+00  0.34623624107E+01  0.36879334949E+01  0.12700000000E+01 0. -1.
          4   -1    0    0  501    0  0.00000000000E+00 -0.00000000000E+00 -0.10930656136E+04  0.10930663514E+04  0.12700000000E+01 0. -1.
         25    2    1    2    0    0  0.00000000000E+00  0.00000000000E+00 -0.10896032512E+04  0.10967542848E+04  0.12503885958E+03 0.  0.
    9000005    1    3    3    0    0  0.89544876675E+01  0.42799129491E+02 -0.93664753015E+03  0.93766814176E+03  0.10000000000E+01 0.  0.
    9000005    1    3    3    0    0 -0.89544876675E+01 -0.42799129491E+02 -0.15295572101E+03  0.15908614309E+03  0.10000000000E+01 0.  0.
<mgrwt>
<rscale>  0 0.12503886E+03</rscale>
<asrwt>0</asrwt>
<pdfrwt beam="2">  1        4 0.16818108E+00 0.12503886E+03</pdfrwt>
<pdfrwt beam="1">  1       -4 0.55008038E-03 0.12503886E+03</pdfrwt>
<totfact> 0.27555263E+03</totfact>
</mgrwt>
</event>
<event>
 5    1  0.3266594E-002  0.1250001E+03  0.7818608E-02  0.1235069E+00
          4   -1    0    0  501    0  0.00000000000E+00  0.00000000000E+00  0.25074893836E+02  0.25107034889E+02  0.12700000000E+01 0.  1.
         -4   -1    0    0    0  501 -0.00000000000E+00 -0.00000000000E+00 -0.15564898464E+03  0.15565416576E+03  0.12700000000E+01 0.  1.
         25    2    1    2    0    0  0.00000000000E+00  0.00000000000E+00 -0.13057409081E+03  0.18076120065E+03  0.12500007389E+03 0.  0.
    9000005    1    3    3    0    0  0.13882415247E+02 -0.41333056860E+02 -0.54954960036E+00  0.43617027033E+02  0.10000000000E+01 0.  0.
    9000005    1    3    3    0    0 -0.13882415247E+02  0.41333056860E+02 -0.13002454120E+03  0.13714417362E+03  0.10000000000E+01 0.  0.
<mgrwt>
<rscale>  0 0.12500007E+03</rscale>
<asrwt>0</asrwt>
<pdfrwt beam="1">  1        4 0.38605470E-02 0.12500007E+03</pdfrwt>
<pdfrwt beam="2">  1       -4 0.23948868E-01 0.12500007E+03</pdfrwt>
<totfact> 0.93480009E+03</totfact>
</mgrwt>
</event>
<event>
 5    1  0.3266594E-002  0.1250010E+03  0.7818608E-02  0.1235068E+00
          4   -1    0    0  501    0  0.00000000000E+00  0.00000000000E+00  0.13635292571E+03  0.13635884001E+03  0.12700000000E+01 0.  1.
         -4   -1    0    0    0  501 -0.00000000000E+00 -0.00000000000E+00 -0.28627913377E+02  0.28656069589E+02  0.12700000000E+01 0.  1.
         25    2    1    2    0    0  0.00000000000E+00  0.00000000000E+00  0.10772501233E+03  0.16501490960E+03  0.12500096843E+03 0.  0.
    9000005    1    3    3    0    0 -0.29365527433E+02 -0.38007613467E+02  0.10845918691E+01  0.48052983491E+02  0.10000000000E+01 0.  0.
    9000005    1    3    3    0    0  0.29365527433E+02  0.38007613467E+02  0.10664042046E+03  0.11696192611E+03  0.10000000000E+01 0.  0.
<mgrwt>
<rscale>  0 0.12500097E+03</rscale>
<asrwt>0</asrwt>
<pdfrwt beam="1">  1        4 0.20979994E-01 0.12500097E+03</pdfrwt>
<pdfrwt beam="2">  1       -4 0.44069152E-02 0.12500097E+03</pdfrwt>
<totfact> 0.96382472E+03</totfact>
</mgrwt>
</event>
<event>
 5    1  0.3266594E-002  0.1249986E+03  0.7818608E-02  0.1235071E+00
          4   -1    0    0  501    0  0.00000000000E+00  0.00000000000E+00  0.23887441638E+02  0.23921178232E+02  0.12700000000E+01 0. -1.
         -4   -1    0    0    0  501 -0.00000000000E+00 -0.00000000000E+00 -0.16337206009E+03  0.16337699629E+03  0.12700000000E+01 0. -1.
         25    2    1    2    0    0  0.00000000000E+00  0.00000000000E+00 -0.13948461845E+03  0.18729817452E+03  0.12499858958E+03 0.  0.
    9000005    1    3    3    0    0  0.31559399891E+02 -0.81711305623E+01 -0.14962835667E+03  0.15314179121E+03  0.10000000000E+01 0.  0.
    9000005    1    3    3    0    0 -0.31559399891E+02  0.81711305623E+01  0.10143738217E+02  0.34156383315E+02  0.10000000000E+01 0.  0.
<mgrwt>
<rscale>  0 0.12499859E+03</rscale>
<asrwt>0</asrwt>
<pdfrwt beam="1">  1        4 0.36779659E-02 0.12499859E+03</pdfrwt>
<pdfrwt beam="2">  1       -4 0.25137137E-01 0.12499859E+03</pdfrwt>
<totfact> 0.92322477E+03</totfact>
</mgrwt>
</event>
<event>
 5    1  0.3266594E-002  0.1250013E+03  0.7818608E-02  0.1235067E+00
          4   -1    0    0  501    0  0.00000000000E+00  0.00000000000E+00  0.16793445033E+03  0.16793925243E+03  0.12700000000E+01 0. -1.
         -4   -1    0    0    0  501 -0.00000000000E+00 -0.00000000000E+00 -0.23238565156E+02  0.23273242372E+02  0.12700000000E+01 0. -1.
         25    2    1    2    0    0  0.00000000000E+00  0.00000000000E+00  0.14469588517E+03  0.19121249480E+03  0.12500127592E+03 0.  0.
    9000005    1    3    3    0    0 -0.99279660157E+01 -0.59092780468E+02  0.99488894128E+02  0.11614457055E+03  0.10000000000E+01 0.  0.
    9000005    1    3    3    0    0  0.99279660157E+01  0.59092780468E+02  0.45206991042E+02  0.75067924254E+02  0.10000000000E+01 0.  0.
<mgrwt>
<rscale>  0 0.12500128E+03</rscale>
<asrwt>0</asrwt>
<pdfrwt beam="1">  1        4 0.25839106E-01 0.12500128E+03</pdfrwt>
<pdfrwt beam="2">  1       -4 0.35782007E-02 0.12500128E+03</pdfrwt>
<totfact> 0.91634152E+03</totfact>
</mgrwt>
</event>
<event>
 5    1  0.3266594E-002  0.1250025E+03  0.7818608E-02  0.1235065E+00
          4   -1    0    0  501    0  0.00000000000E+00  0.00000000000E+00  0.29065532390E+01  0.31719003343E+01  0.12700000000E+01 0.  1.
         -4   -1    0    0    0  501 -0.00000000000E+00 -0.00000000000E+00 -0.12850635762E+04  0.12850642038E+04  0.12700000000E+01 0.  1.
         25    2    1    2    0    0  0.00000000000E+00  0.00000000000E+00 -0.12821570230E+04  0.12882361041E+04  0.12500251339E+03 0.  0.
    9000005    1    3    3    0    0 -0.89020785285E+01 -0.37215924026E+02 -0.13189699811E+03  0.13733932472E+03  0.10000000000E+01 0.  0.
    9000005    1    3    3    0    0  0.89020785285E+01  0.37215924026E+02 -0.11502600249E+04  0.11508967794E+04  0.10000000000E+01 0.  0.
<mgrwt>
<rscale>  0 0.12500251E+03</rscale>
<asrwt>0</asrwt>
<pdfrwt beam="1">  1        4 0.46762265E-03 0.12500251E+03</pdfrwt>
<pdfrwt beam="2">  1       -4 0.19772211E+00 0.12500251E+03</pdfrwt>
<totfact> 0.22506710E+03</totfact>
</mgrwt>
</event>
<event>
 5    1  0.3266594E-002  0.1249965E+03  0.7818608E-02  0.1235075E+00
         -4   -1    0    0    0  501 -0.00000000000E+00  0.00000000000E+00  0.21397585898E+02  0.21435241596E+02  0.12700000000E+01 0.  1.
          4   -1    0    0  501    0  0.00000000000E+00 -0.00000000000E+00 -0.18234493538E+03  0.18234935799E+03  0.12700000000E+01 0.  1.
         25    2    1    2    0    0  0.00000000000E+00  0.00000000000E+00 -0.16094734948E+03  0.20378459958E+03  0.12499645484E+03 0.  0.
    9000005    1    3    3    0    0 -0.42983422856E+02  0.16744533363E+02 -0.14920052949E+03  0.15617218715E+03  0.10000000000E+01 0.  0.
    9000005    1    3    3    0    0  0.42983422856E+02 -0.16744533363E+02 -0.11746819989E+02  0.47612412435E+02  0.10000000000E+01 0.  0.
<mgrwt>
<rscale>  0 0.12499645E+03</rscale>
<asrwt>0</asrwt>
<pdfrwt beam="2">  1        4 0.28056303E-01 0.12499645E+03</pdfrwt>
<pdfrwt beam="1">  1       -4 0.32951732E-02 0.12499645E+03</pdfrwt>
<totfact> 0.89508204E+03</totfact>
</mgrwt>
</event>
<event>
 5    1  0.3266594E-002  0.1250017E+03  0.7818608E-02  0.1235067E+00
         -4   -1    0    0    0  501 -0.00000000000E+00  0.00000000000E+00  0.11146605565E+03  0.11147329035E+03  0.12700000000E+01 0. -1.
          4   -1    0    0  501    0  0.00000000000E+00 -0.00000000000E+00 -0.35025378989E+02  0.35048396159E+02  0.12700000000E+01 0. -1.
         25    2    1    2    0    0  0.00000000000E+00  0.00000000000E+00  0.76440676658E+02  0.14652168651E+03  0.12500171027E+03 0.  0.
    9000005    1    3    3    0    0 -0.33079801008E+02  0.63337975164E+01  0.99922674072E+02  0.10545108354E+03  0.10000000000E+01 0.  0.
    9000005    1    3    3    0    0  0.33079801008E+02 -0.63337975164E+01 -0.23481997415E+02  0.41070602970E+02  0.10000000000E+01 0.  0.
<mgrwt>
<rscale>  0 0.12500171E+03</rscale>
<asrwt>0</asrwt>
<pdfrwt beam="2">  1        4 0.53908469E-02 0.12500171E+03</pdfrwt>
<pdfrwt beam="1">  1       -4 0.17150951E-01 0.12500171E+03</pdfrwt>
<totfact> 0.99997772E+03</totfact>
</mgrwt>
</event>
<event>
 5    1  0.3266594E-002  0.1249998E+03  0.7818608E-02  0.1235070E+00
          4   -1    0    0  501    0  0.00000000000E+00  0.00000000000E+00  0.28967587894E+02  0.28995414265E+02  0.12700000000E+01 0. -1.
         -4   -1    0    0    0  501 -0.00000000000E+00 -0.00000000000E+00 -0.13475298724E+03  0.13475897176E+03  0.12700000000E+01 0. -1.
         25    2    1    2    0    0  0.00000000000E+00  0.00000000000E+00 -0.10578539934E+03  0.16375438602E+03  0.12499979291E+03 0.  0.
    9000005    1    3    3    0    0 -0.27287731502E+02  0.10318915340E+02 -0.12529091942E+03  0.12864647213E+03  0.10000000000E+01 0.  0.
    9000005    1    3    3    0    0  0.27287731502E+02 -0.10318915340E+02  0.19505520073E+02  0.35107913889E+02  0.10000000000E+01 0.  0.
<mgrwt>
<rscale>  0 0.12499979E+03</rscale>
<asrwt>0</asrwt>
<pdfrwt beam="1">  1        4 0.44591529E-02 0.12499979E+03</pdfrwt>
<pdfrwt beam="2">  1       -4 0.20733829E-01 0.12499979E+03</pdfrwt>
<totfact> 0.96624263E+03</totfact>
</mgrwt>
</event>
<event>
 5    1  0.3266594E-002  0.1250016E+03  0.7818608E-02  0.1235067E+00
         -4   -1    0    0    0  501 -0.00000000000E+00  0.00000000000E+00  0.25136685475E+02  0.25168747619E+02  0.12700000000E+01 0. -1.
          4   -1    0    0  501    0  0.00000000000E+00 -0.00000000000E+00 -0.15527061117E+03  0.15527580492E+03  0.12700000000E+01 0. -1.
         25    2    1    2    0    0  0.00000000000E+00  0.00000000000E+00 -0.13013392570E+03  0.18044455254E+03  0.12500159169E+03 0.  0.
    9000005    1    3    3    0    0 -0.21625108048E+02 -0.55663889520E+01 -0.14932210596E+03  0.15098583149E+03  0.10000000000E+01 0.  0.
    9000005    1    3    3    0    0  0.21625108048E+02  0.55663889520E+01  0.19188180260E+02  0.29458721047E+02  0.10000000000E+01 0.  0.
<mgrwt>
<rscale>  0 0.12500159E+03</rscale>
<asrwt>0</asrwt>
<pdfrwt beam="2">  1        4 0.23890652E-01 0.12500159E+03</pdfrwt>
<pdfrwt beam="1">  1       -4 0.38700483E-02 0.12500159E+03</pdfrwt>
<totfact> 0.93533706E+03</totfact>
</mgrwt>
</event>
<event>
 5    1  0.3266594E-002  0.1250007E+03  0.7818608E-02  0.1235068E+00
          4   -1    0    0  501    0  0.00000000000E+00  0.00000000000E+00  0.23413667023E+03  0.23414011456E+03  0.12700000000E+01 0. -1.
         -4   -1    0    0    0  501 -0.00000000000E+00 -0.00000000000E+00 -0.16656078700E+02  0.16704426290E+02  0.12700000000E+01 0. -1.
         25    2    1    2    0    0  0.00000000000E+00  0.00000000000E+00  0.21748059153E+03  0.25084454085E+03  0.12500070393E+03 0.  0.
    9000005    1    3    3    0    0 -0.52271811198E+02  0.18129957947E+02  0.50432131395E+02  0.74869469733E+02  0.10000000000E+01 0.  0.
    9000005    1    3    3    0    0  0.52271811198E+02 -0.18129957947E+02  0.16704846013E+03  0.17597507111E+03  0.10000000000E+01 0.  0.
<mgrwt>
<rscale>  0 0.12500070E+03</rscale>
<asrwt>0</asrwt>
<pdfrwt beam="1">  1        4 0.36025003E-01 0.12500070E+03</pdfrwt>
<pdfrwt beam="2">  1       -4 0.25664581E-02 0.12500070E+03</pdfrwt>
<totfact> 0.82207034E+03</totfact>
</mgrwt>
</event>
<event>
 5    1  0.3266594E-002  0.1249897E+03  0.7818608E-02  0.1235085E+00
          4   -1    0    0  501    0  0.00000000000E+00  0.00000000000E+00  0.45234421487E+02  0.45252246212E+02  0.12700000000E+01 0.  1.
         -4   -1    0    0    0  501 -0.00000000000E+00 -0.00000000000E+00 -0.86301898771E+02  0.86311242788E+02  0.12700000000E+01 0.  1.
         25    2    1    2    0    0  0.00000000000E+00  0.00000000000E+00 -0.41067477284E+02  0.13156348900E+03  0.12498965536E+03 0.  0.
    9000005    1    3    3    0    0 -0.71020313419E+01 -0.29354873305E+02 -0.78114208191E+02  0.83755459268E+02  0.10000000000E+01 0.  0.
    9000005    1    3    3    0    0  0.71020313419E+01  0.29354873305E+02  0.37046730907E+02  0.47808029731E+02  0.10000000000E+01 0.  0.
<mgrwt>
<rscale>  0 0.12498966E+03</rscale>
<asrwt>0</asrwt>
<pdfrwt beam="1">  1        4 0.69612317E-02 0.12498966E+03</pdfrwt>
<pdfrwt beam="2">  1       -4 0.13279305E-01 0.12498966E+03</pdfrwt>
<totfact> 0.10313431E+04</totfact>
</mgrwt>
</event>
<event>
 5    1  0.3266594E-002  0.1249954E+03  0.7818608E-02  0.1235076E+00
         -4   -1    0    0    0  501 -0.00000000000E+00  0.00000000000E+00  0.62321508287E+02  0.62334447100E+02  0.12700000000E+01 0.  1.
          4   -1    0    0  501    0  0.00000000000E+00 -0.00000000000E+00 -0.62648521502E+02  0.62661392790E+02  0.12700000000E+01 0.  1.
         25    2    1    2    0    0  0.00000000000E+00  0.00000000000E+00 -0.32701321439E+00  0.12499583989E+03  0.12499541212E+03 0.  0.
    9000005    1    3    3    0    0  0.57418430293E+02 -0.24644266664E+02 -0.10279436174E+01  0.62500181479E+02  0.10000000000E+01 0.  0.
    9000005    1    3    3    0    0 -0.57418430293E+02  0.24644266664E+02  0.70093040296E+00  0.62495658411E+02  0.10000000000E+01 0.  0.
<mgrwt>
<rscale>  0 0.12499541E+03</rscale>
<asrwt>0</asrwt>
<pdfrwt beam="2">  1        4 0.96402194E-02 0.12499541E+03</pdfrwt>
<pdfrwt beam="1">  1       -4 0.95899098E-02 0.12499541E+03</pdfrwt>
<totfact> 0.10454037E+04</totfact>
</mgrwt>
</event>
<event>
 5    1  0.3266594E-002  0.1250148E+03  0.7818608E-02  0.1235046E+00
          4   -1    0    0  501    0  0.00000000000E+00  0.00000000000E+00  0.20601969233E+03  0.20602360673E+03  0.12700000000E+01 0. -1.
         -4   -1    0    0    0  501 -0.00000000000E+00 -0.00000000000E+00 -0.18939695513E+02  0.18982227638E+02  0.12700000000E+01 0. -1.
         25    2    1    2    0    0  0.00000000000E+00  0.00000000000E+00  0.18707999682E+03  0.22500583437E+03  0.12501480028E+03 0.  0.
    9000005    1    3    3    0    0  0.33157267274E+02 -0.21747146572E+02  0.18048951514E+03  0.18479666618E+03  0.10000000000E+01 0.  0.
    9000005    1    3    3    0    0 -0.33157267274E+02  0.21747146572E+02  0.65904816802E+01  0.40209168182E+02  0.10000000000E+01 0.  0.
<mgrwt>
<rscale>  0 0.12501480E+03</rscale>
<asrwt>0</asrwt>
<pdfrwt beam="1">  1        4 0.31698909E-01 0.12501480E+03</pdfrwt>
<pdfrwt beam="2">  1       -4 0.29173722E-02 0.12501480E+03</pdfrwt>
<totfact> 0.86053949E+03</totfact>
</mgrwt>
</event>
<event>
 5    1  0.3266594E-002  0.1249984E+03  0.7818608E-02  0.1235072E+00
          4   -1    0    0  501    0  0.00000000000E+00  0.00000000000E+00  0.55329780793E+02  0.55344354207E+02  0.12700000000E+01 0.  1.
         -4   -1    0    0    0  501 -0.00000000000E+00 -0.00000000000E+00 -0.70568057450E+02  0.70579484500E+02  0.12700000000E+01 0.  1.
         25    2    1    2    0    0  0.00000000000E+00  0.00000000000E+00 -0.15238276657E+02  0.12592383871E+03  0.12499843231E+03 0.  0.
    9000005    1    3    3    0    0  0.51658357826E+01  0.17409554155E+02  0.52617968097E+02  0.55672515678E+02  0.10000000000E+01 0.  0.
    9000005    1    3    3    0    0 -0.51658357826E+01 -0.17409554155E+02 -0.67856244755E+02  0.70251323029E+02  0.10000000000E+01 0.  0.
<mgrwt>
<rscale>  0 0.12499843E+03</rscale>
<asrwt>0</asrwt>
<pdfrwt beam="1">  1        4 0.85142740E-02 0.12499843E+03</pdfrwt>
<pdfrwt beam="2">  1       -4 0.10858624E-01 0.12499843E+03</pdfrwt>
<totfact> 0.10432996E+04</totfact>
</mgrwt>
</event>
<event>
 5    1  0.3266594E-002  0.1250029E+03  0.7818608E-02  0.1235065E+00
         -4   -1    0    0    0  501 -0.00000000000E+00  0.00000000000E+00  0.34119782052E+02  0.34143409720E+02  0.12700000000E+01 0. -1.
          4   -1    0    0  501    0  0.00000000000E+00 -0.00000000000E+00 -0.11442494463E+03  0.11443199227E+03  0.12700000000E+01 0. -1.
         25    2    1    2    0    0  0.00000000000E+00  0.00000000000E+00 -0.80305162582E+02  0.14857540199E+03  0.12500292372E+03 0.  0.
    9000005    1    3    3    0    0  0.61406663484E+02 -0.89475186226E+01 -0.48934884923E+02  0.79034545435E+02  0.10000000000E+01 0.  0.
    9000005    1    3    3    0    0 -0.61406663484E+02  0.89475186226E+01 -0.31370277659E+02  0.69540856553E+02  0.10000000000E+01 0.  0.
<mgrwt>
<rscale>  0 0.12500292E+03</rscale>
<asrwt>0</asrwt>
<pdfrwt beam="2">  1        4 0.17606197E-01 0.12500292E+03</pdfrwt>
<pdfrwt beam="1">  1       -4 0.52515569E-02 0.12500292E+03</pdfrwt>
<totfact> 0.99581878E+03</totfact>
</mgrwt>
</event>
<event>
 5    1  0.3266594E-002  0.1249994E+03  0.7818608E-02  0.1235070E+00
          4   -1    0    0  501    0  0.00000000000E+00  0.00000000000E+00  0.62459790016E+02  0.62472700188E+02  0.12700000000E+01 0. -1.
         -4   -1    0    0    0  501 -0.00000000000E+00 -0.00000000000E+00 -0.62513837224E+02  0.62526736237E+02  0.12700000000E+01 0. -1.
         25    2    1    2    0    0  0.00000000000E+00  0.00000000000E+00 -0.54047207571E-01  0.12499943643E+03  0.12499942474E+03 0.  0.
    9000005    1    3    3    0    0  0.81232190694E+01 -0.32940607123E+02 -0.52506965254E+02  0.62522409469E+02  0.10000000000E+01 0.  0.
    9000005    1    3    3    0    0 -0.81232190694E+01  0.32940607123E+02  0.52452918046E+02  0.62477026956E+02  0.10000000000E+01 0.  0.
<mgrwt>
<rscale>  0 0.12499942E+03</rscale>
<asrwt>0</asrwt>
<pdfrwt beam="1">  1        4 0.96111838E-02 0.12499942E+03</pdfrwt>
<pdfrwt beam="2">  1       -4 0.96194987E-02 0.12499942E+03</pdfrwt>
<totfact> 0.10453011E+04</totfact>
</mgrwt>
</event>
<event>
 5    1  0.3266594E-002  0.1250054E+03  0.7818608E-02  0.1235061E+00
          4   -1    0    0  501    0  0.00000000000E+00  0.00000000000E+00  0.31091549329E+02  0.31117476435E+02  0.12700000000E+01 0. -1.
         -4   -1    0    0    0  501 -0.00000000000E+00 -0.00000000000E+00 -0.12556646538E+03  0.12557288771E+03  0.12700000000E+01 0. -1.
         25    2    1    2    0    0  0.00000000000E+00  0.00000000000E+00 -0.94474916052E+02  0.15669036415E+03  0.12500544169E+03 0.  0.
    9000005    1    3    3    0    0  0.93489426973E+01 -0.41620720699E+01 -0.12451522547E+03  0.12493905293E+03  0.10000000000E+01 0.  0.
    9000005    1    3    3    0    0 -0.93489426973E+01  0.41620720699E+01  0.30040309422E+02  0.31751311211E+02  0.10000000000E+01 0.  0.
<mgrwt>
<rscale>  0 0.12500544E+03</rscale>
<asrwt>0</asrwt>
<pdfrwt beam="1">  1        4 0.47858038E-02 0.12500544E+03</pdfrwt>
<pdfrwt beam="2">  1       -4 0.19320406E-01 0.12500544E+03</pdfrwt>
<totfact> 0.97972689E+03</totfact>
</mgrwt>
</event>
<event>
 5    1  0.3266594E-002  0.1250006E+03  0.7818608E-02  0.1235068E+00
         -4   -1    0    0    0  501 -0.00000000000E+00  0.00000000000E+00  0.26515531609E+03  0.26515835749E+03  0.12700000000E+01 0. -1.
          4   -1    0    0  501    0  0.00000000000E+00 -0.00000000000E+00 -0.14701565205E+02  0.14756317952E+02  0.12700000000E+01 0. -1.
         25    2    1    2    0    0  0.00000000000E+00  0.00000000000E+00  0.25045375088E+03  0.27991467544E+03  0.12500057680E+03 0.  0.
    9000005    1    3    3    0    0  0.16918350604E+02  0.50188532365E+02  0.19950191564E+03  0.20641495516E+03  0.10000000000E+01 0.  0.
    9000005    1    3    3    0    0 -0.16918350604E+02 -0.50188532365E+02  0.50951835240E+02  0.73499720288E+02  0.10000000000E+01 0.  0.
<mgrwt>
<rscale>  0 0.12500058E+03</rscale>
<asrwt>0</asrwt>
<pdfrwt beam="2">  1        4 0.22662250E-02 0.12500058E+03</pdfrwt>
<pdfrwt beam="1">  1       -4 0.40797570E-01 0.12500058E+03</pdfrwt>
<totfact> 0.78188417E+03</totfact>
</mgrwt>
</event>
<event>
 5    1  0.3266594E-002  0.1250044E+03  0.7818608E-02  0.1235062E+00
          4   -1    0    0  501    0  0.00000000000E+00  0.00000000000E+00  0.13619771407E+03  0.13620363512E+03  0.12700000000E+01 0.  1.
         -4   -1    0    0    0  501 -0.00000000000E+00 -0.00000000000E+00 -0.28662128402E+02  0.28690251036E+02  0.12700000000E+01 0.  1.
         25    2    1    2    0    0  0.00000000000E+00  0.00000000000E+00  0.10753558567E+03  0.16489388615E+03  0.12500436594E+03 0.  0.
    9000005    1    3    3    0    0  0.92185013763E+01 -0.49878247368E+02  0.56122829280E+01  0.51042316246E+02  0.10000000000E+01 0.  0.
    9000005    1    3    3    0    0 -0.92185013763E+01  0.49878247368E+02  0.10192330274E+03  0.11385156991E+03  0.10000000000E+01 0.  0.
<mgrwt>
<rscale>  0 0.12500437E+03</rscale>
<asrwt>0</asrwt>
<pdfrwt beam="1">  1        4 0.20956113E-01 0.12500437E+03</pdfrwt>
<pdfrwt beam="2">  1       -4 0.44121769E-02 0.12500437E+03</pdfrwt>
<totfact> 0.96398037E+03</totfact>
</mgrwt>
</event>
<event>
 5    1  0.3266594E-002  0.1249987E+03  0.7818608E-02  0.1235071E+00
          4   -1    0    0  501    0  0.00000000000E+00  0.00000000000E+00  0.87586304489E+02  0.87595511495E+02  0.12700000000E+01 0. -1.
         -4   -1    0    0    0  501 -0.00000000000E+00 -0.00000000000E+00 -0.44577367512E+02  0.44595454861E+02  0.12700000000E+01 0. -1.
         25    2    1    2    0    0  0.00000000000E+00  0.00000000000E+00  0.43008936978E+02  0.13219096636E+03  0.12499873170E+03 0.  0.
    9000005    1    3    3    0    0  0.30125322114E+02  0.54460897639E+02  0.27453658360E+02  0.68031079379E+02  0.10000000000E+01 0.  0.
    9000005    1    3    3    0    0 -0.30125322114E+02 -0.54460897639E+02  0.15555278618E+02  0.64159886977E+02  0.10000000000E+01 0.  0.
<mgrwt>
<rscale>  0 0.12499873E+03</rscale>
<asrwt>0</asrwt>
<pdfrwt beam="1">  1        4 0.13476916E-01 0.12499873E+03</pdfrwt>
<pdfrwt beam="2">  1       -4 0.68601562E-02 0.12499873E+03</pdfrwt>
<totfact> 0.10297919E+04</totfact>
</mgrwt>
</event>
<event>
 5    1  0.3266594E-002  0.1250054E+03  0.7818608E-02  0.1235061E+00
         -4   -1    0    0    0  501 -0.00000000000E+00  0.00000000000E+00  0.20386378001E+02  0.20425897973E+02  0.12700000000E+01 0. -1.
          4   -1    0    0  501    0  0.00000000000E+00 -0.00000000000E+00 -0.19140022889E+03  0.19140444227E+03  0.12700000000E+01 0. -1.
         25    2    1    2    0    0  0.00000000000E+00  0.00000000000E+00 -0.17101385089E+03  0.21183034024E+03  0.12500542328E+03 0.  0.
    9000005    1    3    3    0    0  0.52987696061E+02  0.18790315442E+02 -0.39259866345E+02  0.68579216922E+02  0.10000000000E+01 0.  0.
    9000005    1    3    3    0    0 -0.52987696061E+02 -0.18790315442E+02 -0.13175398455E+03  0.14325112332E+03  0.10000000000E+01 0.  0.
<mgrwt>
<rscale>  0 0.12500542E+03</rscale>
<asrwt>0</asrwt>
<pdfrwt beam="2">  1        4 0.29449552E-01 0.12500542E+03</pdfrwt>
<pdfrwt beam="1">  1       -4 0.31397301E-02 0.12500542E+03</pdfrwt>
<totfact> 0.88167144E+03</totfact>
</mgrwt>
</event>
<event>
 5    1  0.3266594E-002  0.1250056E+03  0.7818608E-02  0.1235061E+00
         -4   -1    0    0    0  501 -0.00000000000E+00  0.00000000000E+00  0.57362877056E+02  0.57376934077E+02  0.12700000000E+01 0.  1.
          4   -1    0    0  501    0  0.00000000000E+00 -0.00000000000E+00 -0.68074954236E+02  0.68086799706E+02  0.12700000000E+01 0.  1.
         25    2    1    2    0    0  0.00000000000E+00  0.00000000000E+00 -0.10712077180E+02  0.12546373378E+03  0.12500559946E+03 0.  0.
    9000005    1    3    3    0    0 -0.34385010722E+02  0.33059513311E+02  0.35169405105E+02  0.59271809810E+02  0.10000000000E+01 0.  0.
    9000005    1    3    3    0    0  0.34385010722E+02 -0.33059513311E+02 -0.45881482285E+02  0.66191923974E+02  0.10000000000E+01 0.  0.
<mgrwt>
<rscale>  0 0.12500560E+03</rscale>
<asrwt>0</asrwt>
<pdfrwt beam="2">  1        4 0.10475062E-01 0.12500560E+03</pdfrwt>
<pdfrwt beam="1">  1       -4 0.88270505E-02 0.12500560E+03</pdfrwt>
<totfact> 0.10441437E+04</totfact>
</mgrwt>
</event>
<event>
 5    1  0.3266594E-002  0.1249945E+03  0.7818608E-02  0.1235078E+00
          4   -1    0    0  501    0  0.00000000000E+00  0.00000000000E+00  0.21998923013E+03  0.21999289596E+03  0.12700000000E+01 0. -1.
         -4   -1    0    0    0  501 -0.00000000000E+00 -0.00000000000E+00 -0.17728464139E+02  0.17773894923E+02  0.12700000000E+01 0. -1.
         25    2    1    2    0    0  0.00000000000E+00  0.00000000000E+00  0.20226076599E+03  0.23776679088E+03  0.12499451743E+03 0.  0.
    9000005    1    3    3    0    0  0.42310071696E+01 -0.10254767233E+02 -0.15849756068E+02  0.19372053068E+02  0.10000000000E+01 0.  0.
    9000005    1    3    3    0    0 -0.42310071696E+01  0.10254767233E+02  0.21811052206E+03  0.21839473782E+03  0.10000000000E+01 0.  0.
<mgrwt>
<rscale>  0 0.12499452E+03</rscale>
<asrwt>0</asrwt>
<pdfrwt beam="1">  1        4 0.33848274E-01 0.12499452E+03</pdfrwt>
<pdfrwt beam="2">  1       -4 0.27312327E-02 0.12499452E+03</pdfrwt>
<totfact> 0.84141377E+03</totfact>
</mgrwt>
</event>
<event>
 5    1  0.3266594E-002  0.1249941E+03  0.7818608E-02  0.1235078E+00
          4   -1    0    0  501    0  0.00000000000E+00  0.00000000000E+00  0.76630293622E+01  0.77675555361E+01  0.12700000000E+01 0.  1.
         -4   -1    0    0    0  501 -0.00000000000E+00 -0.00000000000E+00 -0.50614691062E+03  0.50614850393E+03  0.12700000000E+01 0.  1.
         25    2    1    2    0    0  0.00000000000E+00  0.00000000000E+00 -0.49848388126E+03  0.51391605947E+03  0.12499414507E+03 0.  0.
    9000005    1    3    3    0    0  0.51917765806E+02  0.22564132312E+02 -0.35804506282E+03  0.36249394682E+03  0.10000000000E+01 0.  0.
    9000005    1    3    3    0    0 -0.51917765806E+02 -0.22564132312E+02 -0.14043881844E+03  0.15142211265E+03  0.10000000000E+01 0.  0.
<mgrwt>
<rscale>  0 0.12499415E+03</rscale>
<asrwt>0</asrwt>
<pdfrwt beam="1">  1        4 0.11870910E-02 0.12499415E+03</pdfrwt>
<pdfrwt beam="2">  1       -4 0.77876892E-01 0.12499415E+03</pdfrwt>
<totfact> 0.54807653E+03</totfact>
</mgrwt>
</event>
<event>
 5    1  0.3266594E-002  0.1249974E+03  0.7818608E-02  0.1235073E+00
         -4   -1    0    0    0  501 -0.00000000000E+00  0.00000000000E+00  0.37149639103E+02  0.37171340916E+02  0.12700000000E+01 0. -1.
          4   -1    0    0  501    0  0.00000000000E+00 -0.00000000000E+00 -0.10508838417E+03  0.10509605791E+03  0.12700000000E+01 0. -1.
         25    2    1    2    0    0  0.00000000000E+00  0.00000000000E+00 -0.67938745071E+02  0.14226739883E+03  0.12499735872E+03 0.  0.
    9000005    1    3    3    0    0  0.45445787782E+01  0.30666091750E+02 -0.95724798326E+02  0.10062454668E+03  0.10000000000E+01 0.  0.
    9000005    1    3    3    0    0 -0.45445787782E+01 -0.30666091750E+02  0.27786053256E+02  0.41642852148E+02  0.10000000000E+01 0.  0.
<mgrwt>
<rscale>  0 0.12499736E+03</rscale>
<asrwt>0</asrwt>
<pdfrwt beam="2">  1        4 0.16169703E-01 0.12499736E+03</pdfrwt>
<pdfrwt beam="1">  1       -4 0.57175888E-02 0.12499736E+03</pdfrwt>
<totfact> 0.10087407E+04</totfact>
</mgrwt>
</event>
<event>
 5    1  0.3266594E-002  0.1250023E+03  0.7818608E-02  0.1235066E+00
          4   -1    0    0  501    0  0.00000000000E+00  0.00000000000E+00  0.15424332146E+03  0.15424854980E+03  0.12700000000E+01 0. -1.
         -4   -1    0    0    0  501 -0.00000000000E+00 -0.00000000000E+00 -0.25304591474E+02  0.25336441140E+02  0.12700000000E+01 0. -1.
         25    2    1    2    0    0  0.00000000000E+00  0.00000000000E+00  0.12893872998E+03  0.17958499094E+03  0.12500229150E+03 0.  0.
    9000005    1    3    3    0    0 -0.40577440642E+02 -0.28762152188E+02  0.10111375838E+02  0.50764456157E+02  0.10000000000E+01 0.  0.
    9000005    1    3    3    0    0  0.40577440642E+02  0.28762152188E+02  0.11882735415E+03  0.12882053478E+03  0.10000000000E+01 0.  0.
<mgrwt>
<rscale>  0 0.12500229E+03</rscale>
<asrwt>0</asrwt>
<pdfrwt beam="1">  1        4 0.23732594E-01 0.12500229E+03</pdfrwt>
<pdfrwt beam="2">  1       -4 0.38958662E-02 0.12500229E+03</pdfrwt>
<totfact> 0.93686945E+03</totfact>
</mgrwt>
</event>
<event>
 5    1  0.3266594E-002  0.1249999E+03  0.7818608E-02  0.1235069E+00
          4   -1    0    0  501    0  0.00000000000E+00  0.00000000000E+00  0.39030476400E+03  0.39030683020E+03  0.12700000000E+01 0. -1.
         -4   -1    0    0    0  501 -0.00000000000E+00 -0.00000000000E+00 -0.99657996506E+01  0.10046395507E+02  0.12700000000E+01 0. -1.
         25    2    1    2    0    0  0.00000000000E+00  0.00000000000E+00  0.38033896435E+03  0.40035322571E+03  0.12499991013E+03 0.  0.
    9000005    1    3    3    0    0 -0.57167607662E+02  0.20925113970E+02  0.23537914781E+03  0.24312617914E+03  0.10000000000E+01 0.  0.
    9000005    1    3    3    0    0  0.57167607662E+02 -0.20925113970E+02  0.14495981654E+03  0.15722704657E+03  0.10000000000E+01 0.  0.
<mgrwt>
<rscale>  0 0.12499991E+03</rscale>
<asrwt>0</asrwt>
<pdfrwt beam="1">  1        4 0.60053243E-01 0.12499991E+03</pdfrwt>
<pdfrwt beam="2">  1       -4 0.15395586E-02 0.12499991E+03</pdfrwt>
<totfact> 0.64518577E+03</totfact>
</mgrwt>
</event>
<event>
 5    1  0.3266594E-002  0.1250007E+03  0.7818608E-02  0.1235068E+00
         -4   -1    0    0    0  501 -0.00000000000E+00  0.00000000000E+00  0.12238247385E+02  0.12303966801E+02  0.12700000000E+01 0.  1.
          4   -1    0    0  501    0  0.00000000000E+00 -0.00000000000E+00 -0.31826573097E+03  0.31826826485E+03  0.12700000000E+01 0.  1.
         25    2    1    2    0    0  0.00000000000E+00  0.00000000000E+00 -0.30602748359E+03  0.33057223165E+03  0.12500071851E+03 0.  0.
    9000005    1    3    3    0    0  0.10206371992E+02  0.46891796943E+02 -0.47155751875E+02  0.67288004761E+02  0.10000000000E+01 0.  0.
    9000005    1    3    3    0    0 -0.10206371992E+02 -0.46891796943E+02 -0.25887173171E+03  0.26328422689E+03  0.10000000000E+01 0.  0.
<mgrwt>
<rscale>  0 0.12500072E+03</rscale>
<asrwt>0</asrwt>
<pdfrwt beam="2">  1        4 0.48969203E-01 0.12500072E+03</pdfrwt>
<pdfrwt beam="1">  1       -4 0.18880578E-02 0.12500072E+03</pdfrwt>
<totfact> 0.71914953E+03</totfact>
</mgrwt>
</event>
<event>
 5    1  0.3266594E-002  0.1250072E+03  0.7818608E-02  0.1235058E+00
         -4   -1    0    0    0  501 -0.00000000000E+00  0.00000000000E+00  0.55125582856E+02  0.55140210239E+02  0.12700000000E+01 0.  1.
          4   -1    0    0  501    0  0.00000000000E+00 -0.00000000000E+00 -0.70839315933E+02  0.70850699234E+02  0.12700000000E+01 0.  1.
         25    2    1    2    0    0  0.00000000000E+00  0.00000000000E+00 -0.15713733077E+02  0.12599090947E+03  0.12500715125E+03 0.  0.
    9000005    1    3    3    0    0 -0.40760210325E+02  0.26845524050E+02 -0.47197621817E+02  0.67902079588E+02  0.10000000000E+01 0.  0.
    9000005    1    3    3    0    0  0.40760210325E+02 -0.26845524050E+02  0.31483888740E+02  0.58088829885E+02  0.10000000000E+01 0.  0.
<mgrwt>
<rscale>  0 0.12500715E+03</rscale>
<asrwt>0</asrwt>
<pdfrwt beam="2">  1        4 0.10900357E-01 0.12500715E+03</pdfrwt>
<pdfrwt beam="1">  1       -4 0.84828597E-02 0.12500715E+03</pdfrwt>
<totfact> 0.10429473E+04</totfact>
</mgrwt>
</event>
<event>
 5    1  0.3266594E-002  0.1249997E+03  0.7818608E-02  0.1235070E+00
          4   -1    0    0  501    0  0.00000000000E+00  0.00000000000E+00  0.90568896807E+03  0.90568985849E+03  0.12700000000E+01 0. -1.
         -4   -1    0    0    0  501 -0.00000000000E+00 -0.00000000000E+00 -0.42185920640E+01  0.44056122165E+01  0.12700000000E+01 0. -1.
         25    2    1    2    0    0  0.00000000000E+00  0.00000000000E+00  0.90147037600E+03  0.91009547071E+03  0.12499970798E+03 0.  0.
    9000005    1    3    3    0    0  0.24958683293E+02 -0.53780607651E+02  0.59450841735E+03  0.59745840687E+03  0.10000000000E+01 0.  0.
    9000005    1    3    3    0    0 -0.24958683293E+02  0.53780607651E+02  0.30696195865E+03  0.31263706384E+03  0.10000000000E+01 0.  0.
<mgrwt>
<rscale>  0 0.12499971E+03</rscale>
<asrwt>0</asrwt>
<pdfrwt beam="1">  1        4 0.13935128E+00 0.12499971E+03</pdfrwt>
<pdfrwt beam="2">  1       -4 0.66346852E-03 0.12499971E+03</pdfrwt>
<totfact> 0.33776490E+03</totfact>
</mgrwt>
</event>
<event>
 5    1  0.3266594E-002  0.1250035E+03  0.7818608E-02  0.1235064E+00
         -4   -1    0    0    0  501 -0.00000000000E+00  0.00000000000E+00  0.21966612996E+03  0.21966980119E+03  0.12700000000E+01 0. -1.
          4   -1    0    0  501    0  0.00000000000E+00 -0.00000000000E+00 -0.17757164167E+02  0.17802521710E+02  0.12700000000E+01 0. -1.
         25    2    1    2    0    0  0.00000000000E+00  0.00000000000E+00  0.20190896580E+03  0.23747232290E+03  0.12500349464E+03 0.  0.
    9000005    1    3    3    0    0 -0.51044148144E+02 -0.37805532826E+01  0.32837448486E+02  0.60820191269E+02  0.10000000000E+01 0.  0.
    9000005    1    3    3    0    0  0.51044148144E+02  0.37805532826E+01  0.16907151731E+03  0.17665213163E+03  0.10000000000E+01 0.  0.
<mgrwt>
<rscale>  0 0.12500349E+03</rscale>
<asrwt>0</asrwt>
<pdfrwt beam="2">  1        4 0.27356429E-02 0.12500349E+03</pdfrwt>
<pdfrwt beam="1">  1       -4 0.33798560E-01 0.12500349E+03</pdfrwt>
<totfact> 0.84168706E+03</totfact>
</mgrwt>
</event>
<event>
 5    1  0.3266594E-002  0.1249982E+03  0.7818608E-02  0.1235072E+00
         -4   -1    0    0    0  501 -0.00000000000E+00  0.00000000000E+00  0.63999607195E+01  0.65247526552E+01  0.12700000000E+01 0.  1.
          4   -1    0    0  501    0  0.00000000000E+00 -0.00000000000E+00 -0.60431924439E+03  0.60432057887E+03  0.12700000000E+01 0.  1.
         25    2    1    2    0    0  0.00000000000E+00  0.00000000000E+00 -0.59791928367E+03  0.61084533152E+03  0.12499819701E+03 0.  0.
    9000005    1    3    3    0    0  0.36452796129E+02 -0.18142832373E+02 -0.53061659465E+03  0.53217754484E+03  0.10000000000E+01 0.  0.
    9000005    1    3    3    0    0 -0.36452796129E+02  0.18142832373E+02 -0.67302689024E+02  0.78667786685E+02  0.10000000000E+01 0.  0.
<mgrwt>
<rscale>  0 0.12499820E+03</rscale>
<asrwt>0</asrwt>
<pdfrwt beam="2">  1        4 0.92981849E-01 0.12499820E+03</pdfrwt>
<pdfrwt beam="1">  1       -4 0.99431185E-03 0.12499820E+03</pdfrwt>
<totfact> 0.48192023E+03</totfact>
</mgrwt>
</event>
<event>
 5    1  0.3266594E-002  0.1249968E+03  0.7818608E-02  0.1235074E+00
          4   -1    0    0  501    0  0.00000000000E+00  0.00000000000E+00  0.46408722476E+03  0.46408896247E+03  0.12700000000E+01 0. -1.
         -4   -1    0    0    0  501 -0.00000000000E+00 -0.00000000000E+00 -0.83669515873E+01  0.84627878896E+01  0.12700000000E+01 0. -1.
         25    2    1    2    0    0  0.00000000000E+00  0.00000000000E+00  0.45572027317E+03  0.47255175036E+03  0.12499675750E+03 0.  0.
    9000005    1    3    3    0    0 -0.79012921713E+00 -0.38011978321E+02  0.40371414027E+02  0.55465177098E+02  0.10000000000E+01 0.  0.
    9000005    1    3    3    0    0  0.79012921713E+00  0.38011978321E+02  0.41534885915E+03  0.41708657326E+03  0.10000000000E+01 0.  0.
<mgrwt>
<rscale>  0 0.12499676E+03</rscale>
<asrwt>0</asrwt>
<pdfrwt beam="1">  1        4 0.71405545E-01 0.12499676E+03</pdfrwt>
<pdfrwt beam="2">  1       -4 0.12947289E-02 0.12499676E+03</pdfrwt>
<totfact> 0.58062872E+03</totfact>
</mgrwt>
</event>
<event>
 5    1  0.3266594E-002  0.1249965E+03  0.7818608E-02  0.1235075E+00
         -4   -1    0    0    0  501 -0.00000000000E+00  0.00000000000E+00  0.36030463037E+02  0.36052838538E+02  0.12700000000E+01 0.  1.
          4   -1    0    0  501    0  0.00000000000E+00 -0.00000000000E+00 -0.10834937474E+03  0.10835681754E+03  0.12700000000E+01 0.  1.
         25    2    1    2    0    0  0.00000000000E+00  0.00000000000E+00 -0.72318911707E+02  0.14440965608E+03  0.12499649506E+03 0.  0.
    9000005    1    3    3    0    0  0.47403613678E+02 -0.29332435412E+02 -0.68786197657E+02  0.88543974075E+02  0.10000000000E+01 0.  0.
    9000005    1    3    3    0    0 -0.47403613678E+02  0.29332435412E+02 -0.35327140500E+01  0.55865682002E+02  0.10000000000E+01 0.  0.
<mgrwt>
<rscale>  0 0.12499650E+03</rscale>
<asrwt>0</asrwt>
<pdfrwt beam="2">  1        4 0.16671428E-01 0.12499650E+03</pdfrwt>
<pdfrwt beam="1">  1       -4 0.55454419E-02 0.12499650E+03</pdfrwt>
<totfact> 0.10043789E+04</totfact>
</mgrwt>
</event>
<event>
 5    1  0.3266594E-002  0.1249974E+03  0.7818608E-02  0.1235073E+00
         -4   -1    0    0    0  501 -0.00000000000E+00  0.00000000000E+00  0.67039606273E+02  0.67051634650E+02  0.12700000000E+01 0.  1.
          4   -1    0    0  501    0  0.00000000000E+00 -0.00000000000E+00 -0.58241147276E+02  0.58254992370E+02  0.12700000000E+01 0.  1.
         25    2    1    2    0    0  0.00000000000E+00  0.00000000000E+00  0.87984589972E+01  0.12530662702E+03  0.12499735155E+03 0.  0.
    9000005    1    3    3    0    0  0.35318016822E+02  0.33110068328E+02  0.44012130532E+02  0.65434750484E+02  0.10000000000E+01 0.  0.
    9000005    1    3    3    0    0 -0.35318016822E+02 -0.33110068328E+02 -0.35213671535E+02  0.59871876536E+02  0.10000000000E+01 0.  0.
<mgrwt>
<rscale>  0 0.12499735E+03</rscale>
<asrwt>0</asrwt>
<pdfrwt beam="2">  1        4 0.89621668E-02 0.12499735E+03</pdfrwt>
<pdfrwt beam="1">  1       -4 0.10315776E-01 0.12499735E+03</pdfrwt>
<totfact> 0.10446831E+04</totfact>
</mgrwt>
</event>
<event>
 5    1  0.3266594E-002  0.1249923E+03  0.7818608E-02  0.1235081E+00
         -4   -1    0    0    0  501 -0.00000000000E+00  0.00000000000E+00  0.37087988054E+03  0.37088205495E+03  0.12700000000E+01 0.  1.
          4   -1    0    0  501    0  0.00000000000E+00 -0.00000000000E+00 -0.10490587862E+02  0.10567181918E+02  0.12700000000E+01 0.  1.
         25    2    1    2    0    0  0.00000000000E+00  0.00000000000E+00  0.36038929267E+03  0.38144923687E+03  0.12499231191E+03 0.  0.
    9000005    1    3    3    0    0 -0.96714154958E+01 -0.13358019467E+02 -0.37444241174E+01  0.16940887632E+02  0.10000000000E+01 0.  0.
    9000005    1    3    3    0    0  0.96714154958E+01  0.13358019467E+02  0.36413371679E+03  0.36450834924E+03  0.10000000000E+01 0.  0.
<mgrwt>
<rscale>  0 0.12499231E+03</rscale>
<asrwt>0</asrwt>
<pdfrwt beam="2">  1        4 0.16199962E-02 0.12499231E+03</pdfrwt>
<pdfrwt beam="1">  1       -4 0.57064485E-01 0.12499231E+03</pdfrwt>
<totfact> 0.66409192E+03</totfact>
</mgrwt>
</event>
<event>
 5    1  0.3266594E-002  0.1250007E+03  0.7818608E-02  0.1235068E+00
         -4   -1    0    0    0  501 -0.00000000000E+00  0.00000000000E+00  0.25194495903E+02  0.25226484571E+02  0.12700000000E+01 0.  1.
          4   -1    0    0  501    0  0.00000000000E+00 -0.00000000000E+00 -0.15491265938E+03  0.15491786513E+03  0.12700000000E+01 0.  1.
         25    2    1    2    0    0  0.00000000000E+00  0.00000000000E+00 -0.12971816347E+03  0.18014434970E+03  0.12500073917E+03 0.  0.
    9000005    1    3    3    0    0  0.28713619154E+01 -0.10014206913E+01 -0.15481303381E+03  0.15484612684E+03  0.10000000000E+01 0.  0.
    9000005    1    3    3    0    0 -0.28713619154E+01  0.10014206913E+01  0.25094870331E+02  0.25298222854E+02  0.10000000000E+01 0.  0.
<mgrwt>
<rscale>  0 0.12500074E+03</rscale>
<asrwt>0</asrwt>
<pdfrwt beam="2">  1        4 0.23835577E-01 0.12500074E+03</pdfrwt>
<pdfrwt beam="1">  1       -4 0.38789375E-02 0.12500074E+03</pdfrwt>
<totfact> 0.93589475E+03</totfact>
</mgrwt>
</event>
<event>
 5    1  0.3266594E-002  0.1249980E+03  0.7818608E-02  0.1235072E+00
         -4   -1    0    0    0  501 -0.00000000000E+00  0.00000000000E+00  0.20374157566E+03  0.20374553382E+03  0.12700000000E+01 0. -1.
          4   -1    0    0  501    0  0.00000000000E+00 -0.00000000000E+00 -0.19146779719E+02  0.19188852848E+02  0.12700000000E+01 0. -1.
         25    2    1    2    0    0  0.00000000000E+00  0.00000000000E+00  0.18459479594E+03  0.22293438667E+03  0.12499800827E+03 0.  0.
    9000005    1    3    3    0    0  0.36317518068E+02  0.40059792067E+02  0.36425710718E+02  0.65204152172E+02  0.10000000000E+01 0.  0.
    9000005    1    3    3    0    0 -0.36317518068E+02 -0.40059792067E+02  0.14816908522E+03  0.15773023450E+03  0.10000000000E+01 0.  0.
<mgrwt>
<rscale>  0 0.12499801E+03</rscale>
<asrwt>0</asrwt>
<pdfrwt beam="2">  1        4 0.29491992E-02 0.12499801E+03</pdfrwt>
<pdfrwt beam="1">  1       -4 0.31348400E-01 0.12499801E+03</pdfrwt>
<totfact> 0.86409982E+03</totfact>
</mgrwt>
</event>
<event>
 5    1  0.3266594E-002  0.1250040E+03  0.7818608E-02  0.1235063E+00
         -4   -1    0    0    0  501 -0.00000000000E+00  0.00000000000E+00  0.14186065557E+02  0.14242800146E+02  0.12700000000E+01 0. -1.
          4   -1    0    0  501    0  0.00000000000E+00 -0.00000000000E+00 -0.27476802595E+03  0.27477096095E+03  0.12700000000E+01 0. -1.
         25    2    1    2    0    0  0.00000000000E+00  0.00000000000E+00 -0.26058196039E+03  0.28901376110E+03  0.12500398403E+03 0.  0.
    9000005    1    3    3    0    0  0.25935630069E+02 -0.53406252719E+02 -0.85184680608E+02  0.10383792442E+03  0.10000000000E+01 0.  0.
    9000005    1    3    3    0    0 -0.25935630069E+02  0.53406252719E+02 -0.17539727978E+03  0.18517583668E+03  0.10000000000E+01 0.  0.
<mgrwt>
<rscale>  0 0.12500398E+03</rscale>
<asrwt>0</asrwt>
<pdfrwt beam="2">  1        4 0.42276590E-01 0.12500398E+03</pdfrwt>
<pdfrwt beam="1">  1       -4 0.21870618E-02 0.12500398E+03</pdfrwt>
<totfact> 0.76991114E+03</totfact>
</mgrwt>
</event>
<event>
 5    1  0.3266594E-002  0.1249972E+03  0.7818608E-02  0.1235074E+00
          4   -1    0    0  501    0  0.00000000000E+00  0.00000000000E+00  0.50986141026E+02  0.51001955617E+02  0.12700000000E+01 0. -1.
         -4   -1    0    0    0  501 -0.00000000000E+00 -0.00000000000E+00 -0.76577568449E+02  0.76588098877E+02  0.12700000000E+01 0. -1.
         25    2    1    2    0    0  0.00000000000E+00  0.00000000000E+00 -0.25591427423E+02  0.12759005449E+03  0.12499720336E+03 0.  0.
    9000005    1    3    3    0    0 -0.59037836502E+02  0.15435557286E+02 -0.26541781235E+02  0.66552150369E+02  0.10000000000E+01 0.  0.
    9000005    1    3    3    0    0  0.59037836502E+02 -0.15435557286E+02  0.95035381215E+00  0.61037904125E+02  0.10000000000E+01 0.  0.
<mgrwt>
<rscale>  0 0.12499720E+03</rscale>
<asrwt>0</asrwt>
<pdfrwt beam="1">  1        4 0.78460482E-02 0.12499720E+03</pdfrwt>
<pdfrwt beam="2">  1       -4 0.11783191E-01 0.12499720E+03</pdfrwt>
<totfact> 0.10397007E+04</totfact>
</mgrwt>
</event>
<event>
 5    1  0.3266594E-002  0.1250010E+03  0.7818608E-02  0.1235068E+00
          4   -1    0    0  501    0  0.00000000000E+00  0.00000000000E+00  0.23153212643E+02  0.23188017502E+02  0.12700000000E+01 0.  1.
         -4   -1    0    0    0  501 -0.00000000000E+00 -0.00000000000E+00 -0.16855192430E+03  0.16855670881E+03  0.12700000000E+01 0.  1.
         25    2    1    2    0    0  0.00000000000E+00  0.00000000000E+00 -0.14539871166E+03  0.19174472631E+03  0.12500101887E+03 0.  0.
    9000005    1    3    3    0    0  0.14307736458E+02  0.22114222850E+02  0.14230334437E+02  0.29954174884E+02  0.10000000000E+01 0.  0.
    9000005    1    3    3    0    0 -0.14307736458E+02 -0.22114222850E+02 -0.15962904610E+03  0.16179055143E+03  0.10000000000E+01 0.  0.
<mgrwt>
<rscale>  0 0.12500102E+03</rscale>
<asrwt>0</asrwt>
<pdfrwt beam="1">  1        4 0.35650782E-02 0.12500102E+03</pdfrwt>
<pdfrwt beam="2">  1       -4 0.25934110E-01 0.12500102E+03</pdfrwt>
<totfact> 0.91542533E+03</totfact>
</mgrwt>
</event>
<event>
 5    1  0.3266594E-002  0.1249404E+03  0.7818608E-02  0.1235162E+00
          4   -1    0    0  501    0  0.00000000000E+00  0.00000000000E+00  0.54518360092E+01  0.55978045581E+01  0.12700000000E+01 0.  1.
         -4   -1    0    0    0  501 -0.00000000000E+00 -0.00000000000E+00 -0.70621608182E+03  0.70621722375E+03  0.12700000000E+01 0.  1.
         25    2    1    2    0    0  0.00000000000E+00  0.00000000000E+00 -0.70076424581E+03  0.71181502831E+03  0.12494041107E+03 0.  0.
    9000005    1    3    3    0    0 -0.35623146747E+02 -0.68974927755E+01 -0.60721357894E+02  0.70743673181E+02  0.10000000000E+01 0.  0.
    9000005    1    3    3    0    0  0.35623146747E+02  0.68974927755E+01 -0.64004288791E+03  0.64107135512E+03  0.10000000000E+01 0.  0.
<mgrwt>
<rscale>  0 0.12494041E+03</rscale>
<asrwt>0</asrwt>
<pdfrwt beam="1">  1        4 0.85006075E-03 0.12494041E+03</pdfrwt>
<pdfrwt beam="2">  1       -4 0.10865987E+00 0.12494041E+03</pdfrwt>
<totfact> 0.42525725E+03</totfact>
</mgrwt>
</event>
<event>
 5    1  0.3266594E-002  0.1249962E+03  0.7818608E-02  0.1235075E+00
         -4   -1    0    0    0  501 -0.00000000000E+00  0.00000000000E+00  0.66211844431E+02  0.66224023156E+02  0.12700000000E+01 0.  1.
          4   -1    0    0  501    0  0.00000000000E+00 -0.00000000000E+00 -0.58968205004E+02  0.58981879433E+02  0.12700000000E+01 0.  1.
         25    2    1    2    0    0  0.00000000000E+00  0.00000000000E+00  0.72436394265E+01  0.12520590259E+03  0.12499619087E+03 0.  0.
    9000005    1    3    3    0    0 -0.11655720305E+02 -0.14840370352E+01  0.65100306432E+02  0.66159716439E+02  0.10000000000E+01 0.  0.
    9000005    1    3    3    0    0  0.11655720305E+02  0.14840370352E+01 -0.57856667006E+02  0.59046186149E+02  0.10000000000E+01 0.  0.
<mgrwt>
<rscale>  0 0.12499619E+03</rscale>
<asrwt>0</asrwt>
<pdfrwt beam="2">  1        4 0.90740203E-02 0.12499619E+03</pdfrwt>
<pdfrwt beam="1">  1       -4 0.10188426E-01 0.12499619E+03</pdfrwt>
<totfact> 0.10449292E+04</totfact>
</mgrwt>
</event>
<event>
 5    1  0.3266594E-002  0.1249989E+03  0.7818608E-02  0.1235071E+00
          4   -1    0    0  501    0  0.00000000000E+00  0.00000000000E+00  0.25063019482E+02  0.25095175742E+02  0.12700000000E+01 0.  1.
         -4   -1    0    0    0  501 -0.00000000000E+00 -0.00000000000E+00 -0.15571976661E+03  0.15572494537E+03  0.12700000000E+01 0.  1.
         25    2    1    2    0    0  0.00000000000E+00  0.00000000000E+00 -0.13065674712E+03  0.18082012112E+03  0.12499892252E+03 0.  0.
    9000005    1    3    3    0    0  0.37727104326E+02  0.37235880847E+02 -0.17452749110E+02  0.55816159620E+02  0.10000000000E+01 0.  0.
    9000005    1    3    3    0    0 -0.37727104326E+02 -0.37235880847E+02 -0.11320399801E+03  0.12500396150E+03  0.10000000000E+01 0.  0.
<mgrwt>
<rscale>  0 0.12499892E+03</rscale>
<asrwt>0</asrwt>
<pdfrwt beam="1">  1        4 0.38587212E-02 0.12499892E+03</pdfrwt>
<pdfrwt beam="2">  1       -4 0.23959758E-01 0.12499892E+03</pdfrwt>
<totfact> 0.93471845E+03</totfact>
</mgrwt>
</event>
<event>
 5    1  0.3266594E-002  0.1250034E+03  0.7818608E-02  0.1235064E+00
         -4   -1    0    0    0  501 -0.00000000000E+00  0.00000000000E+00  0.50531688693E+02  0.50547645466E+02  0.12700000000E+01 0. -1.
          4   -1    0    0  501    0  0.00000000000E+00 -0.00000000000E+00 -0.77273812144E+02  0.77284247704E+02  0.12700000000E+01 0. -1.
         25    2    1    2    0    0  0.00000000000E+00  0.00000000000E+00 -0.26742123451E+02  0.12783189317E+03  0.12500340693E+03 0.  0.
    9000005    1    3    3    0    0 -0.47177797113E+02 -0.21392780015E+02  0.22378024325E+02  0.56437324085E+02  0.10000000000E+01 0.  0.
    9000005    1    3    3    0    0  0.47177797113E+02  0.21392780015E+02 -0.49120147776E+02  0.71394569085E+02  0.10000000000E+01 0.  0.
<mgrwt>
<rscale>  0 0.12500341E+03</rscale>
<asrwt>0</asrwt>
<pdfrwt beam="2">  1        4 0.11890309E-01 0.12500341E+03</pdfrwt>
<pdfrwt beam="1">  1       -4 0.77761362E-02 0.12500341E+03</pdfrwt>
<totfact> 0.10390320E+04</totfact>
</mgrwt>
</event>
<event>
 5    1  0.3266594E-002  0.1249969E+03  0.7818608E-02  0.1235074E+00
         -4   -1    0    0    0  501 -0.00000000000E+00  0.00000000000E+00  0.23927567738E+04  0.23927571108E+04  0.12700000000E+01 0.  1.
          4   -1    0    0  501    0  0.00000000000E+00 -0.00000000000E+00 -0.13850554716E+01  0.18791696729E+01  0.12700000000E+01 0.  1.
         25    2    1    2    0    0  0.00000000000E+00  0.00000000000E+00  0.23913717183E+04  0.23946362805E+04  0.12499688283E+03 0.  0.
    9000005    1    3    3    0    0 -0.42733747309E+02 -0.13294201303E+02  0.20312163941E+04  0.20317096122E+04  0.10000000000E+01 0.  0.
    9000005    1    3    3    0    0  0.42733747309E+02  0.13294201303E+02  0.36015532425E+03  0.36292666826E+03  0.10000000000E+01 0.  0.
<mgrwt>
<rscale>  0 0.12499688E+03</rscale>
<asrwt>0</asrwt>
<pdfrwt beam="2">  1        4 0.25112012E-03 0.12499688E+03</pdfrwt>
<pdfrwt beam="1">  1       -4 0.36815453E+00 0.12499688E+03</pdfrwt>
<totfact> 0.55511622E+02</totfact>
</mgrwt>
</event>
<event>
 5    1  0.3266594E-002  0.1249981E+03  0.7818608E-02  0.1235072E+00
          4   -1    0    0  501    0  0.00000000000E+00  0.00000000000E+00  0.33793509788E+02  0.33817365418E+02  0.12700000000E+01 0.  1.
         -4   -1    0    0    0  501 -0.00000000000E+00 -0.00000000000E+00 -0.11552011357E+03  0.11552709439E+03  0.12700000000E+01 0.  1.
         25    2    1    2    0    0  0.00000000000E+00  0.00000000000E+00 -0.81726603777E+02  0.14934445981E+03  0.12499811963E+03 0.  0.
    9000005    1    3    3    0    0  0.34621360517E+02 -0.51392792237E+02 -0.31210389962E+02  0.69389812938E+02  0.10000000000E+01 0.  0.
    9000005    1    3    3    0    0 -0.34621360517E+02  0.51392792237E+02 -0.50516213815E+02  0.79954646870E+02  0.10000000000E+01 0.  0.
<mgrwt>
<rscale>  0 0.12499812E+03</rscale>
<asrwt>0</asrwt>
<pdfrwt beam="1">  1        4 0.52013736E-02 0.12499812E+03</pdfrwt>
<pdfrwt beam="2">  1       -4 0.17774697E-01 0.12499812E+03</pdfrwt>
<totfact> 0.99438739E+03</totfact>
</mgrwt>
</event>
<event>
 5    1  0.3266594E-002  0.1249983E+03  0.7818608E-02  0.1235072E+00
         -4   -1    0    0    0  501 -0.00000000000E+00  0.00000000000E+00  0.34170225154E+03  0.34170461163E+03  0.12700000000E+01 0. -1.
          4   -1    0    0  501    0  0.00000000000E+00 -0.00000000000E+00 -0.11393742436E+02  0.11464304022E+02  0.12700000000E+01 0. -1.
         25    2    1    2    0    0  0.00000000000E+00  0.00000000000E+00  0.33030850910E+03  0.35316891565E+03  0.12499828717E+03 0.  0.
    9000005    1    3    3    0    0  0.21793050971E+02 -0.55377004754E+02  0.21902913253E+03  0.22697204811E+03  0.10000000000E+01 0.  0.
    9000005    1    3    3    0    0 -0.21793050971E+02  0.55377004754E+02  0.11127937657E+03  0.12619686754E+03  0.10000000000E+01 0.  0.
<mgrwt>
<rscale>  0 0.12499829E+03</rscale>
<asrwt>0</asrwt>
<pdfrwt beam="2">  1        4 0.17584929E-02 0.12499829E+03</pdfrwt>
<pdfrwt beam="1">  1       -4 0.52575185E-01 0.12499829E+03</pdfrwt>
<totfact> 0.69379966E+03</totfact>
</mgrwt>
</event>
<event>
 5    1  0.3266594E-002  0.1249978E+03  0.7818608E-02  0.1235073E+00
          4   -1    0    0  501    0  0.00000000000E+00  0.00000000000E+00  0.19288172858E+03  0.19288590959E+03  0.12700000000E+01 0. -1.
         -4   -1    0    0    0  501 -0.00000000000E+00 -0.00000000000E+00 -0.20227024176E+02  0.20266854887E+02  0.12700000000E+01 0. -1.
         25    2    1    2    0    0  0.00000000000E+00  0.00000000000E+00  0.17265470440E+03  0.21315276448E+03  0.12499781619E+03 0.  0.
    9000005    1    3    3    0    0  0.33747083137E+02  0.25907669560E+02  0.16437948247E+03  0.16979896118E+03  0.10000000000E+01 0.  0.
    9000005    1    3    3    0    0 -0.33747083137E+02 -0.25907669560E+02  0.82752219347E+01  0.43353803298E+02  0.10000000000E+01 0.  0.
<mgrwt>
<rscale>  0 0.12499782E+03</rscale>
<asrwt>0</asrwt>
<pdfrwt beam="1">  1        4 0.29677498E-01 0.12499782E+03</pdfrwt>
<pdfrwt beam="2">  1       -4 0.31152353E-02 0.12499782E+03</pdfrwt>
<totfact> 0.87967860E+03</totfact>
</mgrwt>
</event>
<event>
 5    1  0.3266594E-002  0.1249996E+03  0.7818608E-02  0.1235070E+00
         -4   -1    0    0    0  501 -0.00000000000E+00  0.00000000000E+00  0.32783487178E+01  0.35157460539E+01  0.12700000000E+01 0. -1.
          4   -1    0    0  501    0  0.00000000000E+00 -0.00000000000E+00 -0.11496509966E+04  0.11496516980E+04  0.12700000000E+01 0. -1.
         25    2    1    2    0    0  0.00000000000E+00  0.00000000000E+00 -0.11463726478E+04  0.11531674441E+04  0.12499962553E+03 0.  0.
    9000005    1    3    3    0    0  0.10212359447E+02  0.11973406189E+02 -0.11311168125E+04  0.11312267227E+04  0.10000000000E+01 0.  0.
    9000005    1    3    3    0    0 -0.10212359447E+02 -0.11973406189E+02 -0.15255835370E+02  0.21940721367E+02  0.10000000000E+01 0.  0.
<mgrwt>
<rscale>  0 0.12499963E+03</rscale>
<asrwt>0</asrwt>
<pdfrwt beam="2">  1        4 0.17688739E+00 0.12499963E+03</pdfrwt>
<pdfrwt beam="1">  1       -4 0.52267755E-03 0.12499963E+03</pdfrwt>
<totfact> 0.25972778E+03</totfact>
</mgrwt>
</event>
<event>
 5    1  0.3266594E-002  0.1250231E+03  0.7818608E-02  0.1235033E+00
         -4   -1    0    0    0  501 -0.00000000000E+00  0.00000000000E+00  0.54255692382E+01  0.55722259070E+01  0.12700000000E+01 0. -1.
          4   -1    0    0  501    0  0.00000000000E+00 -0.00000000000E+00 -0.71048522060E+03  0.71048635567E+03  0.12700000000E+01 0. -1.
         25    2    1    2    0    0  0.00000000000E+00  0.00000000000E+00 -0.70505965136E+03  0.71605858158E+03  0.12502311894E+03 0.  0.
    9000005    1    3    3    0    0  0.54521536566E+01  0.15364099321E+01  0.39805223362E+01  0.69950763429E+01  0.10000000000E+01 0.  0.
    9000005    1    3    3    0    0 -0.54521536566E+01 -0.15364099321E+01 -0.70904017370E+03  0.70906350523E+03  0.10000000000E+01 0.  0.
<mgrwt>
<rscale>  0 0.12502312E+03</rscale>
<asrwt>0</asrwt>
<pdfrwt beam="2">  1        4 0.10931671E+00 0.12502312E+03</pdfrwt>
<pdfrwt beam="1">  1       -4 0.84607212E-03 0.12502312E+03</pdfrwt>
<totfact> 0.42231095E+03</totfact>
</mgrwt>
</event>
<event>
 5    1  0.3266594E-002  0.1250039E+03  0.7818608E-02  0.1235063E+00
         -4   -1    0    0    0  501 -0.00000000000E+00  0.00000000000E+00  0.11489409386E+03  0.11490111272E+03  0.12700000000E+01 0.  1.
          4   -1    0    0  501    0  0.00000000000E+00 -0.00000000000E+00 -0.33980893180E+02  0.34004617353E+02  0.12700000000E+01 0.  1.
         25    2    1    2    0    0  0.00000000000E+00  0.00000000000E+00  0.80913200681E+02  0.14890573007E+03  0.12500388156E+03 0.  0.
    9000005    1    3    3    0    0  0.36560584131E+02 -0.25517421046E+02 -0.11707977768E+02  0.46107394551E+02  0.10000000000E+01 0.  0.
    9000005    1    3    3    0    0 -0.36560584131E+02  0.25517421046E+02  0.92621178449E+02  0.10279833552E+03  0.10000000000E+01 0.  0.
<mgrwt>
<rscale>  0 0.12500388E+03</rscale>
<asrwt>0</asrwt>
<pdfrwt beam="2">  1        4 0.52301946E-02 0.12500388E+03</pdfrwt>
<pdfrwt beam="1">  1       -4 0.17678379E-01 0.12500388E+03</pdfrwt>
<totfact> 0.99513578E+03</totfact>
</mgrwt>
</event>
<event>
 5    1  0.3266594E-002  0.1249995E+03  0.7818608E-02  0.1235070E+00
          4   -1    0    0  501    0  0.00000000000E+00  0.00000000000E+00  0.17062341272E+02  0.17109540897E+02  0.12700000000E+01 0.  1.
         -4   -1    0    0    0  501 -0.00000000000E+00 -0.00000000000E+00 -0.22857277224E+03  0.22857630041E+03  0.12700000000E+01 0.  1.
         25    2    1    2    0    0  0.00000000000E+00  0.00000000000E+00 -0.21151043097E+03  0.24568584131E+03  0.12499948084E+03 0.  0.
    9000005    1    3    3    0    0 -0.12403911214E+02 -0.59709968442E+02 -0.78943659949E+02  0.99760908130E+02  0.10000000000E+01 0.  0.
    9000005    1    3    3    0    0  0.12403911214E+02  0.59709968442E+02 -0.13256677102E+03  0.14592493318E+03  0.10000000000E+01 0.  0.
<mgrwt>
<rscale>  0 0.12499948E+03</rscale>
<asrwt>0</asrwt>
<pdfrwt beam="1">  1        4 0.26288779E-02 0.12499948E+03</pdfrwt>
<pdfrwt beam="2">  1       -4 0.35168942E-01 0.12499948E+03</pdfrwt>
<totfact> 0.82958744E+03</totfact>
</mgrwt>
</event>
<event>
 5    1  0.3266594E-002  0.1249908E+03  0.7818608E-02  0.1235084E+00
         -4   -1    0    0    0  501 -0.00000000000E+00  0.00000000000E+00  0.30386430518E+03  0.30386695915E+03  0.12700000000E+01 0.  1.
          4   -1    0    0  501    0  0.00000000000E+00 -0.00000000000E+00 -0.12819259707E+02  0.12882015349E+02  0.12700000000E+01 0.  1.
         25    2    1    2    0    0  0.00000000000E+00  0.00000000000E+00  0.29104504547E+03  0.31674897450E+03  0.12499077706E+03 0.  0.
    9000005    1    3    3    0    0 -0.58278165702E+02 -0.22415964097E+02  0.15165373973E+03  0.16400816083E+03  0.10000000000E+01 0.  0.
    9000005    1    3    3    0    0  0.58278165702E+02  0.22415964097E+02  0.13939130574E+03  0.15274081367E+03  0.10000000000E+01 0.  0.
<mgrwt>
<rscale>  0 0.12499078E+03</rscale>
<asrwt>0</asrwt>
<pdfrwt beam="2">  1        4 0.19772253E-02 0.12499078E+03</pdfrwt>
<pdfrwt beam="1">  1       -4 0.46753386E-01 0.12499078E+03</pdfrwt>
<totfact> 0.73559506E+03</totfact>
</mgrwt>
</event>
<event>
 5    1  0.3266594E-002  0.1250014E+03  0.7818608E-02  0.1235067E+00
         -4   -1    0    0    0  501 -0.00000000000E+00  0.00000000000E+00  0.10044687993E+02  0.10124655890E+02  0.12700000000E+01 0.  1.
          4   -1    0    0  501    0  0.00000000000E+00 -0.00000000000E+00 -0.38727323489E+03  0.38727531726E+03  0.12700000000E+01 0.  1.
         25    2    1    2    0    0  0.00000000000E+00  0.00000000000E+00 -0.37722854689E+03  0.39739997315E+03  0.12500144827E+03 0.  0.
    9000005    1    3    3    0    0  0.61761897066E+02  0.28808485177E+01 -0.21749208244E+03  0.22611200132E+03  0.10000000000E+01 0.  0.
    9000005    1    3    3    0    0 -0.61761897066E+02 -0.28808485177E+01 -0.15973646446E+03  0.17128797183E+03  0.10000000000E+01 0.  0.
<mgrwt>
<rscale>  0 0.12500145E+03</rscale>
<asrwt>0</asrwt>
<pdfrwt beam="2">  1        4 0.59586798E-01 0.12500145E+03</pdfrwt>
<pdfrwt beam="1">  1       -4 0.15516485E-02 0.12500145E+03</pdfrwt>
<totfact> 0.64804386E+03</totfact>
</mgrwt>
</event>
<event>
 5    1  0.3266594E-002  0.1249957E+03  0.7818608E-02  0.1235076E+00
         -4   -1    0    0    0  501 -0.00000000000E+00  0.00000000000E+00  0.10242479992E+02  0.10320915482E+02  0.12700000000E+01 0. -1.
          4   -1    0    0  501    0  0.00000000000E+00 -0.00000000000E+00 -0.37981682320E+03  0.37981894646E+03  0.12700000000E+01 0. -1.
         25    2    1    2    0    0  0.00000000000E+00  0.00000000000E+00 -0.36957434321E+03  0.39013986194E+03  0.12499566678E+03 0.  0.
    9000005    1    3    3    0    0  0.23589336084E+02 -0.49177227188E+02 -0.89596257641E+02  0.10489683424E+03  0.10000000000E+01 0.  0.
    9000005    1    3    3    0    0 -0.23589336084E+02  0.49177227188E+02 -0.27997808557E+03  0.28524302770E+03  0.10000000000E+01 0.  0.
<mgrwt>
<rscale>  0 0.12499567E+03</rscale>
<asrwt>0</asrwt>
<pdfrwt beam="2">  1        4 0.58439544E-01 0.12499567E+03</pdfrwt>
<pdfrwt beam="1">  1       -4 0.15819633E-02 0.12499567E+03</pdfrwt>
<totfact> 0.65529482E+03</totfact>
</mgrwt>
</event>
<event>
 5    1  0.3266594E-002  0.1250032E+03  0.7818608E-02  0.1235064E+00
          4   -1    0    0  501    0  0.00000000000E+00  0.00000000000E+00  0.49200901019E+03  0.49201064928E+03  0.12700000000E+01 0.  1.
         -4   -1    0    0    0  501 -0.00000000000E+00 -0.00000000000E+00 -0.78873405498E+01  0.79889324036E+01  0.12700000000E+01 0.  1.
         25    2    1    2    0    0  0.00000000000E+00  0.00000000000E+00  0.48412166964E+03  0.49999958169E+03  0.12500316265E+03 0.  0.
    9000005    1    3    3    0    0  0.59761305601E+02  0.78602646488E+01  0.17606252830E+03  0.18609731669E+03  0.10000000000E+01 0.  0.
    9000005    1    3    3    0    0 -0.59761305601E+02 -0.78602646488E+01  0.30805914134E+03  0.31390226500E+03  0.10000000000E+01 0.  0.
<mgrwt>
<rscale>  0 0.12500316E+03</rscale>
<asrwt>0</asrwt>
<pdfrwt beam="1">  1        4 0.75701646E-01 0.12500316E+03</pdfrwt>
<pdfrwt beam="2">  1       -4 0.12213777E-02 0.12500316E+03</pdfrwt>
<totfact> 0.55860507E+03</totfact>
</mgrwt>
</event>
<event>
 5    1  0.3266594E-002  0.1250020E+03  0.7818608E-02  0.1235066E+00
         -4   -1    0    0    0  501 -0.00000000000E+00  0.00000000000E+00  0.24878014150E+02  0.24910409231E+02  0.12700000000E+01 0. -1.
          4   -1    0    0  501    0  0.00000000000E+00 -0.00000000000E+00 -0.15688402875E+03  0.15688916908E+03  0.12700000000E+01 0. -1.
         25    2    1    2    0    0  0.00000000000E+00  0.00000000000E+00 -0.13200601460E+03  0.18179957831E+03  0.12500199513E+03 0.  0.
    9000005    1    3    3    0    0  0.32812436730E+01  0.49838573741E+02 -0.12062871325E+03  0.13056391711E+03  0.10000000000E+01 0.  0.
    9000005    1    3    3    0    0 -0.32812436730E+01 -0.49838573741E+02 -0.11377301349E+02  0.51235661199E+02  0.10000000000E+01 0.  0.
<mgrwt>
<rscale>  0 0.12500200E+03</rscale>
<asrwt>0</asrwt>
<pdfrwt beam="2">  1        4 0.24138891E-01 0.12500200E+03</pdfrwt>
<pdfrwt beam="1">  1       -4 0.38302742E-02 0.12500200E+03</pdfrwt>
<totfact> 0.93289900E+03</totfact>
</mgrwt>
</event>
<event>
 5    1  0.3266594E-002  0.1249976E+03  0.7818608E-02  0.1235073E+00
          4   -1    0    0  501    0  0.00000000000E+00  0.00000000000E+00  0.13460311532E+03  0.13460910651E+03  0.12700000000E+01 0. -1.
         -4   -1    0    0    0  501 -0.00000000000E+00 -0.00000000000E+00 -0.28998842108E+02  0.29026638517E+02  0.12700000000E+01 0. -1.
         25    2    1    2    0    0  0.00000000000E+00  0.00000000000E+00  0.10560427322E+03  0.16363574502E+03  0.12499757809E+03 0.  0.
    9000005    1    3    3    0    0  0.11697005729E+02 -0.60993702583E+02  0.43727914182E+02  0.75961715203E+02  0.10000000000E+01 0.  0.
    9000005    1    3    3    0    0 -0.11697005729E+02  0.60993702583E+02  0.61876359034E+02  0.87674029822E+02  0.10000000000E+01 0.  0.
<mgrwt>
<rscale>  0 0.12499758E+03</rscale>
<asrwt>0</asrwt>
<pdfrwt beam="1">  1        4 0.20710770E-01 0.12499758E+03</pdfrwt>
<pdfrwt beam="2">  1       -4 0.44639594E-02 0.12499758E+03</pdfrwt>
<totfact> 0.96651645E+03</totfact>
</mgrwt>
</event>
<event>
 5    1  0.3266594E-002  0.1249999E+03  0.7818608E-02  0.1235069E+00
          4   -1    0    0  501    0  0.00000000000E+00  0.00000000000E+00  0.11834754492E+03  0.11835435897E+03  0.12700000000E+01 0. -1.
         -4   -1    0    0    0  501 -0.00000000000E+00 -0.00000000000E+00 -0.32986550490E+02  0.33010989280E+02  0.12700000000E+01 0. -1.
         25    2    1    2    0    0  0.00000000000E+00  0.00000000000E+00  0.85360994429E+02  0.15136534825E+03  0.12499987713E+03 0.  0.
    9000005    1    3    3    0    0  0.30760725691E+02  0.44078792145E+01 -0.22973369468E+02  0.38657823904E+02  0.10000000000E+01 0.  0.
    9000005    1    3    3    0    0 -0.30760725691E+02 -0.44078792145E+01  0.10833436390E+03  0.11270752435E+03  0.10000000000E+01 0.  0.
<mgrwt>
<rscale>  0 0.12499988E+03</rscale>
<asrwt>0</asrwt>
<pdfrwt beam="1">  1        4 0.18209718E-01 0.12499988E+03</pdfrwt>
<pdfrwt beam="2">  1       -4 0.50772581E-02 0.12499988E+03</pdfrwt>
<totfact> 0.99032504E+03</totfact>
</mgrwt>
</event>
<event>
 4    1  0.3266594E-002  0.1248989E+03  0.7818608E-02  0.1235227E+00
         -4   -1    0    0    0  501 -0.00000000000E+00  0.00000000000E+00  0.22567565130E+03  0.22567922476E+03  0.12700000000E+01 0.  1.
          4   -1    0    0  501    0  0.00000000000E+00 -0.00000000000E+00 -0.17254094760E+02  0.17300771254E+02  0.12700000000E+01 0.  1.
    9000005    1    1    2    0    0  0.37671600015E+02 -0.41884081333E+01  0.20074409381E+03  0.20429362058E+03  0.10000000000E+01 0.  0.
    9000005    1    1    2    0    0 -0.37671600015E+02  0.41884081333E+01  0.76774627287E+01  0.38686375435E+02  0.10000000000E+01 0.  0.
<mgrwt>
<rscale>  0 0.12489889E+03</rscale>
<asrwt>0</asrwt>
<pdfrwt beam="2">  1        4 0.26583413E-02 0.12489889E+03</pdfrwt>
<pdfrwt beam="1">  1       -4 0.34723199E-01 0.12489889E+03</pdfrwt>
<totfact> 0.83543663E+03</totfact>
</mgrwt>
</event>
<event>
 5    1  0.3266594E-002  0.1250132E+03  0.7818608E-02  0.1235049E+00
          4   -1    0    0  501    0  0.00000000000E+00  0.00000000000E+00  0.24952957930E+03  0.24953281116E+03  0.12700000000E+01 0. -1.
         -4   -1    0    0    0  501 -0.00000000000E+00 -0.00000000000E+00 -0.15628671197E+02  0.15680186969E+02  0.12700000000E+01 0. -1.
         25    2    1    2    0    0  0.00000000000E+00  0.00000000000E+00  0.23390090811E+03  0.26521299813E+03  0.12501319757E+03 0.  0.
    9000005    1    3    3    0    0 -0.57030824385E+02  0.23857817000E+02  0.13643628299E+03  0.14979175437E+03  0.10000000000E+01 0.  0.
    9000005    1    3    3    0    0  0.57030824385E+02 -0.23857817000E+02  0.97464625115E+02  0.11542124376E+03  0.10000000000E+01 0.  0.
<mgrwt>
<rscale>  0 0.12501320E+03</rscale>
<asrwt>0</asrwt>
<pdfrwt beam="1">  1        4 0.38393376E-01 0.12501320E+03</pdfrwt>
<pdfrwt beam="2">  1       -4 0.24086224E-02 0.12501320E+03</pdfrwt>
<totfact> 0.80156470E+03</totfact>
</mgrwt>
</event>
<event>
 5    1  0.3266594E-002  0.1249418E+03  0.7818608E-02  0.1235160E+00
          4   -1    0    0  501    0  0.00000000000E+00  0.00000000000E+00  0.25584759143E+02  0.25616260469E+02  0.12700000000E+01 0. -1.
         -4   -1    0    0    0  501 -0.00000000000E+00 -0.00000000000E+00 -0.15240869580E+03  0.15241398707E+03  0.12700000000E+01 0. -1.
         25    2    1    2    0    0  0.00000000000E+00  0.00000000000E+00 -0.12682393666E+03  0.17803024754E+03  0.12494181898E+03 0.  0.
    9000005    1    3    3    0    0  0.75889922991E+01 -0.36437567324E+02  0.80655348352E+01  0.38096482367E+02  0.10000000000E+01 0.  0.
    9000005    1    3    3    0    0 -0.75889922991E+01  0.36437567324E+02 -0.13488947149E+03  0.13993376518E+03  0.10000000000E+01 0.  0.
<mgrwt>
<rscale>  0 0.12494182E+03</rscale>
<asrwt>0</asrwt>
<pdfrwt beam="1">  1        4 0.39389471E-02 0.12494182E+03</pdfrwt>
<pdfrwt beam="2">  1       -4 0.23450321E-01 0.12494182E+03</pdfrwt>
<totfact> 0.94095492E+03</totfact>
</mgrwt>
</event>
<event>
 5    1  0.3266594E-002  0.1249999E+03  0.7818608E-02  0.1235069E+00
          4   -1    0    0  501    0  0.00000000000E+00  0.00000000000E+00  0.18711247319E+02  0.18754297541E+02  0.12700000000E+01 0.  1.
         -4   -1    0    0    0  501 -0.00000000000E+00 -0.00000000000E+00 -0.20847957947E+03  0.20848344768E+03  0.12700000000E+01 0.  1.
         25    2    1    2    0    0  0.00000000000E+00  0.00000000000E+00 -0.18976833215E+03  0.22723774522E+03  0.12499989186E+03 0.  0.
    9000005    1    3    3    0    0 -0.24531279369E+01 -0.58064505990E+01 -0.20790910075E+03  0.20800703565E+03  0.10000000000E+01 0.  0.
    9000005    1    3    3    0    0  0.24531279369E+01  0.58064505990E+01  0.18140768598E+02  0.19230709570E+02  0.10000000000E+01 0.  0.
<mgrwt>
<rscale>  0 0.12499989E+03</rscale>
<asrwt>0</asrwt>
<pdfrwt beam="1">  1        4 0.28822627E-02 0.12499989E+03</pdfrwt>
<pdfrwt beam="2">  1       -4 0.32077389E-01 0.12499989E+03</pdfrwt>
<totfact> 0.85735764E+03</totfact>
</mgrwt>
</event>
<event>
 5    1  0.3266594E-002  0.1250011E+03  0.7818608E-02  0.1235068E+00
         -4   -1    0    0    0  501 -0.00000000000E+00  0.00000000000E+00  0.46173361298E+02  0.46190823694E+02  0.12700000000E+01 0. -1.
          4   -1    0    0  501    0  0.00000000000E+00 -0.00000000000E+00 -0.84562918788E+02  0.84572454936E+02  0.12700000000E+01 0. -1.
         25    2    1    2    0    0  0.00000000000E+00  0.00000000000E+00 -0.38389557490E+02  0.13076327863E+03  0.12500110765E+03 0.  0.
    9000005    1    3    3    0    0 -0.18191442288E+02 -0.28288723818E+02  0.35903246028E+02  0.49205929959E+02  0.10000000000E+01 0.  0.
    9000005    1    3    3    0    0  0.18191442288E+02  0.28288723818E+02 -0.74292803518E+02  0.81557348671E+02  0.10000000000E+01 0.  0.
<mgrwt>
<rscale>  0 0.12500111E+03</rscale>
<asrwt>0</asrwt>
<pdfrwt beam="2">  1        4 0.13011757E-01 0.12500111E+03</pdfrwt>
<pdfrwt beam="1">  1       -4 0.71056708E-02 0.12500111E+03</pdfrwt>
<totfact> 0.10327909E+04</totfact>
</mgrwt>
</event>
<event>
 5    1  0.3266594E-002  0.1250018E+03  0.7818608E-02  0.1235067E+00
         -4   -1    0    0    0  501 -0.00000000000E+00  0.00000000000E+00  0.41794997282E+03  0.41795190235E+03  0.12700000000E+01 0. -1.
          4   -1    0    0  501    0  0.00000000000E+00 -0.00000000000E+00 -0.93013751262E+01  0.93876769884E+01  0.12700000000E+01 0. -1.
         25    2    1    2    0    0  0.00000000000E+00  0.00000000000E+00  0.40864859769E+03  0.42733957934E+03  0.12500175869E+03 0.  0.
    9000005    1    3    3    0    0  0.28111464218E+02 -0.11369019488E+02  0.39113039860E+03  0.39230536286E+03  0.10000000000E+01 0.  0.
    9000005    1    3    3    0    0 -0.28111464218E+02  0.11369019488E+02  0.17518199097E+02  0.35034216478E+02  0.10000000000E+01 0.  0.
<mgrwt>
<rscale>  0 0.12500176E+03</rscale>
<asrwt>0</asrwt>
<pdfrwt beam="2">  1        4 0.14377681E-02 0.12500176E+03</pdfrwt>
<pdfrwt beam="1">  1       -4 0.64306772E-01 0.12500176E+03</pdfrwt>
<totfact> 0.61975486E+03</totfact>
</mgrwt>
</event>
<event>
 5    1  0.3266594E-002  0.1250002E+03  0.7818608E-02  0.1235069E+00
         -4   -1    0    0    0  501 -0.00000000000E+00  0.00000000000E+00  0.50117887493E+01  0.51701959797E+01  0.12700000000E+01 0.  1.
          4   -1    0    0  501    0  0.00000000000E+00 -0.00000000000E+00 -0.76713016205E+03  0.76713121331E+03  0.12700000000E+01 0.  1.
         25    2    1    2    0    0  0.00000000000E+00  0.00000000000E+00 -0.76211837330E+03  0.77230140929E+03  0.12500020744E+03 0.  0.
    9000005    1    3    3    0    0  0.22019047600E+02  0.38412751593E+02 -0.65353192698E+03  0.65503080655E+03  0.10000000000E+01 0.  0.
    9000005    1    3    3    0    0 -0.22019047600E+02 -0.38412751593E+02 -0.10858644632E+03  0.11727060274E+03  0.10000000000E+01 0.  0.
<mgrwt>
<rscale>  0 0.12500021E+03</rscale>
<asrwt>0</asrwt>
<pdfrwt beam="2">  1        4 0.11803220E+00 0.12500021E+03</pdfrwt>
<pdfrwt beam="1">  1       -4 0.78331107E-03 0.12500021E+03</pdfrwt>
<totfact> 0.39529325E+03</totfact>
</mgrwt>
</event>
<event>
 5    1  0.3266594E-002  0.1250007E+03  0.7818608E-02  0.1235068E+00
          4   -1    0    0  501    0  0.00000000000E+00  0.00000000000E+00  0.93840103172E+03  0.93840189111E+03  0.12700000000E+01 0.  1.
         -4   -1    0    0    0  501 -0.00000000000E+00 -0.00000000000E+00 -0.40649641538E+01  0.42587361472E+01  0.12700000000E+01 0.  1.
         25    2    1    2    0    0  0.00000000000E+00  0.00000000000E+00  0.93433606757E+03  0.94266062726E+03  0.12500068408E+03 0.  0.
    9000005    1    3    3    0    0 -0.20368518492E+02  0.23676143360E+02  0.58974473379E+02  0.66741477510E+02  0.10000000000E+01 0.  0.
    9000005    1    3    3    0    0  0.20368518492E+02 -0.23676143360E+02  0.87536159419E+03  0.87591914975E+03  0.10000000000E+01 0.  0.
<mgrwt>
<rscale>  0 0.12500068E+03</rscale>
<asrwt>0</asrwt>
<pdfrwt beam="1">  1        4 0.14438445E+00 0.12500068E+03</pdfrwt>
<pdfrwt beam="2">  1       -4 0.64035035E-03 0.12500068E+03</pdfrwt>
<totfact> 0.32577482E+03</totfact>
</mgrwt>
</event>
<event>
 5    1  0.3266594E-002  0.1250048E+03  0.7818608E-02  0.1235062E+00
          4   -1    0    0  501    0  0.00000000000E+00  0.00000000000E+00  0.57181782508E+03  0.57181923540E+03  0.12700000000E+01 0.  1.
         -4   -1    0    0    0  501 -0.00000000000E+00 -0.00000000000E+00 -0.67713599732E+01  0.68894278345E+01  0.12700000000E+01 0.  1.
         25    2    1    2    0    0  0.00000000000E+00  0.00000000000E+00  0.56504646510E+03  0.57870866324E+03  0.12500483662E+03 0.  0.
    9000005    1    3    3    0    0  0.96893335664E+01  0.53645228400E+02  0.42399628483E+03  0.42748747732E+03  0.10000000000E+01 0.  0.
    9000005    1    3    3    0    0 -0.96893335664E+01 -0.53645228400E+02  0.14105018027E+03  0.15122118592E+03  0.10000000000E+01 0.  0.
<mgrwt>
<rscale>  0 0.12500484E+03</rscale>
<asrwt>0</asrwt>
<pdfrwt beam="1">  1        4 0.87981184E-01 0.12500484E+03</pdfrwt>
<pdfrwt beam="2">  1       -4 0.10509381E-02 0.12500484E+03</pdfrwt>
<totfact> 0.50234425E+03</totfact>
</mgrwt>
</event>
<event>
 5    1  0.3266594E-002  0.1249915E+03  0.7818608E-02  0.1235083E+00
          4   -1    0    0  501    0  0.00000000000E+00  0.00000000000E+00  0.18163391901E+02  0.18207737513E+02  0.12700000000E+01 0.  1.
         -4   -1    0    0    0  501 -0.00000000000E+00 -0.00000000000E+00 -0.21472388570E+03  0.21472764142E+03  0.12700000000E+01 0.  1.
         25    2    1    2    0    0  0.00000000000E+00  0.00000000000E+00 -0.19656049380E+03  0.23293537894E+03  0.12499145186E+03 0.  0.
    9000005    1    3    3    0    0 -0.13709300620E+02 -0.25937884761E+02 -0.20110016432E+03  0.20323138261E+03  0.10000000000E+01 0.  0.
    9000005    1    3    3    0    0  0.13709300620E+02  0.25937884761E+02  0.45396705155E+01  0.29703996326E+02  0.10000000000E+01 0.  0.
<mgrwt>
<rscale>  0 0.12499145E+03</rscale>
<asrwt>0</asrwt>
<pdfrwt beam="1">  1        4 0.27980682E-02 0.12499145E+03</pdfrwt>
<pdfrwt beam="2">  1       -4 0.33038142E-01 0.12499145E+03</pdfrwt>
<totfact> 0.84877079E+03</totfact>
</mgrwt>
</event>
<event>
 5    1  0.3266594E-002  0.1249947E+03  0.7818608E-02  0.1235078E+00
         -4   -1    0    0    0  501 -0.00000000000E+00  0.00000000000E+00  0.18815989330E+03  0.18816417923E+03  0.12700000000E+01 0.  1.
          4   -1    0    0  501    0  0.00000000000E+00 -0.00000000000E+00 -0.20734541340E+02  0.20773398966E+02  0.12700000000E+01 0.  1.
         25    2    1    2    0    0  0.00000000000E+00  0.00000000000E+00  0.16742535196E+03  0.20893757820E+03  0.12499465231E+03 0.  0.
    9000005    1    3    3    0    0  0.24595337484E+02 -0.24602633625E+02 -0.30593979863E+01  0.34936801846E+02  0.10000000000E+01 0.  0.
    9000005    1    3    3    0    0 -0.24595337484E+02  0.24602633625E+02  0.17048474995E+03  0.17400077635E+03  0.10000000000E+01 0.  0.
<mgrwt>
<rscale>  0 0.12499465E+03</rscale>
<asrwt>0</asrwt>
<pdfrwt beam="2">  1        4 0.31932481E-02 0.12499465E+03</pdfrwt>
<pdfrwt beam="1">  1       -4 0.28950996E-01 0.12499465E+03</pdfrwt>
<totfact> 0.88660282E+03</totfact>
</mgrwt>
</event>
<event>
 5    1  0.3266594E-002  0.1250052E+03  0.7818608E-02  0.1235061E+00
          4   -1    0    0  501    0  0.00000000000E+00  0.00000000000E+00  0.37438281963E+01  0.39533719233E+01  0.12700000000E+01 0.  1.
         -4   -1    0    0    0  501 -0.00000000000E+00 -0.00000000000E+00 -0.10148533014E+04  0.10148540961E+04  0.12700000000E+01 0.  1.
         25    2    1    2    0    0  0.00000000000E+00  0.00000000000E+00 -0.10111094732E+04  0.10188074680E+04  0.12500515985E+03 0.  0.
    9000005    1    3    3    0    0 -0.26975877961E+02 -0.39424771879E+02 -0.17715817505E+03  0.18348849995E+03  0.10000000000E+01 0.  0.
    9000005    1    3    3    0    0  0.26975877961E+02  0.39424771879E+02 -0.83395129817E+03  0.83531896802E+03  0.10000000000E+01 0.  0.
<mgrwt>
<rscale>  0 0.12500516E+03</rscale>
<asrwt>0</asrwt>
<pdfrwt beam="1">  1        4 0.59215425E-03 0.12500516E+03</pdfrwt>
<pdfrwt beam="2">  1       -4 0.15614724E+00 0.12500516E+03</pdfrwt>
<totfact> 0.29985705E+03</totfact>
</mgrwt>
</event>
<event>
 5    1  0.3266594E-002  0.1249955E+03  0.7818608E-02  0.1235076E+00
          4   -1    0    0  501    0  0.00000000000E+00  0.00000000000E+00  0.16274844942E+03  0.16275340454E+03  0.12700000000E+01 0. -1.
         -4   -1    0    0    0  501 -0.00000000000E+00 -0.00000000000E+00 -0.23977900419E+02  0.24011509918E+02  0.12700000000E+01 0. -1.
         25    2    1    2    0    0  0.00000000000E+00  0.00000000000E+00  0.13877054900E+03  0.18676491445E+03  0.12499547192E+03 0.  0.
    9000005    1    3    3    0    0  0.21633327541E+02  0.56578887881E+02  0.46441289600E+02  0.76334558321E+02  0.10000000000E+01 0.  0.
    9000005    1    3    3    0    0 -0.21633327541E+02 -0.56578887881E+02  0.92329259399E+02  0.11043035613E+03  0.10000000000E+01 0.  0.
<mgrwt>
<rscale>  0 0.12499547E+03</rscale>
<asrwt>0</asrwt>
<pdfrwt beam="1">  1        4 0.25041191E-01 0.12499547E+03</pdfrwt>
<pdfrwt beam="2">  1       -4 0.36918741E-02 0.12499547E+03</pdfrwt>
<totfact> 0.92422651E+03</totfact>
</mgrwt>
</event>
<event>
 5    1  0.3266594E-002  0.1250004E+03  0.7818608E-02  0.1235069E+00
         -4   -1    0    0    0  501 -0.00000000000E+00  0.00000000000E+00  0.59407250987E+02  0.59420824378E+02  0.12700000000E+01 0. -1.
          4   -1    0    0  501    0  0.00000000000E+00 -0.00000000000E+00 -0.65726980088E+02  0.65739248638E+02  0.12700000000E+01 0. -1.
         25    2    1    2    0    0  0.00000000000E+00  0.00000000000E+00 -0.63197291017E+01  0.12516007302E+03  0.12500041961E+03 0.  0.
    9000005    1    3    3    0    0 -0.31823020838E+02  0.26728099906E+02 -0.49890452421E+02  0.64939612122E+02  0.10000000000E+01 0.  0.
    9000005    1    3    3    0    0  0.31823020838E+02 -0.26728099906E+02  0.43570723319E+02  0.60220460895E+02  0.10000000000E+01 0.  0.
<mgrwt>
<rscale>  0 0.12500042E+03</rscale>
<asrwt>0</asrwt>
<pdfrwt beam="2">  1        4 0.10113831E-01 0.12500042E+03</pdfrwt>
<pdfrwt beam="1">  1       -4 0.91415649E-02 0.12500042E+03</pdfrwt>
<totfact> 0.10449288E+04</totfact>
</mgrwt>
</event>
<event>
 5    1  0.3266594E-002  0.1249994E+03  0.7818608E-02  0.1235070E+00
         -4   -1    0    0    0  501 -0.00000000000E+00  0.00000000000E+00  0.18641125727E+02  0.18684337515E+02  0.12700000000E+01 0. -1.
          4   -1    0    0  501    0  0.00000000000E+00 -0.00000000000E+00 -0.20926031644E+03  0.20926417022E+03  0.12700000000E+01 0. -1.
         25    2    1    2    0    0  0.00000000000E+00  0.00000000000E+00 -0.19061919071E+03  0.22794850773E+03  0.12499938524E+03 0.  0.
    9000005    1    3    3    0    0 -0.11998397014E+01 -0.18533448626E+02  0.13500991222E+02  0.22982713009E+02  0.10000000000E+01 0.  0.
    9000005    1    3    3    0    0  0.11998397014E+01  0.18533448626E+02 -0.20412018193E+03  0.20496579472E+03  0.10000000000E+01 0.  0.
<mgrwt>
<rscale>  0 0.12499939E+03</rscale>
<asrwt>0</asrwt>
<pdfrwt beam="2">  1        4 0.32197514E-01 0.12499939E+03</pdfrwt>
<pdfrwt beam="1">  1       -4 0.28714861E-02 0.12499939E+03</pdfrwt>
<totfact> 0.85626779E+03</totfact>
</mgrwt>
</event>
<event>
 5    1  0.3266594E-002  0.1250001E+03  0.7818608E-02  0.1235069E+00
          4   -1    0    0  501    0  0.00000000000E+00  0.00000000000E+00  0.19804933693E+03  0.19805340886E+03  0.12700000000E+01 0.  1.
         -4   -1    0    0    0  501 -0.00000000000E+00 -0.00000000000E+00 -0.19698942602E+02  0.19739838896E+02  0.12700000000E+01 0.  1.
         25    2    1    2    0    0  0.00000000000E+00  0.00000000000E+00  0.17835039433E+03  0.21779324775E+03  0.12500014243E+03 0.  0.
    9000005    1    3    3    0    0  0.11088038168E+02 -0.11802778348E+02  0.19433844968E+03  0.19501457174E+03  0.10000000000E+01 0.  0.
    9000005    1    3    3    0    0 -0.11088038168E+02  0.11802778348E+02 -0.15988055346E+02  0.22778676013E+02  0.10000000000E+01 0.  0.
<mgrwt>
<rscale>  0 0.12500014E+03</rscale>
<asrwt>0</asrwt>
<pdfrwt beam="1">  1        4 0.30472588E-01 0.12500014E+03</pdfrwt>
<pdfrwt beam="2">  1       -4 0.30340656E-02 0.12500014E+03</pdfrwt>
<totfact> 0.87218469E+03</totfact>
</mgrwt>
</event>
<event>
 5    1  0.3266594E-002  0.1250022E+03  0.7818608E-02  0.1235066E+00
         -4   -1    0    0    0  501 -0.00000000000E+00  0.00000000000E+00  0.55600100911E+03  0.55600245956E+03  0.12700000000E+01 0. -1.
          4   -1    0    0  501    0  0.00000000000E+00 -0.00000000000E+00 -0.69669972847E+01  0.70818042310E+01  0.12700000000E+01 0. -1.
         25    2    1    2    0    0  0.00000000000E+00  0.00000000000E+00  0.54903401183E+03  0.56308426379E+03  0.12500216791E+03 0.  0.
    9000005    1    3    3    0    0  0.82623010922E+00  0.59490680929E+02  0.18839062412E+03  0.19756480210E+03  0.10000000000E+01 0.  0.
    9000005    1    3    3    0    0 -0.82623010922E+00 -0.59490680929E+02  0.36064338771E+03  0.36551946169E+03  0.10000000000E+01 0.  0.
<mgrwt>
<rscale>  0 0.12500217E+03</rscale>
<asrwt>0</asrwt>
<pdfrwt beam="2">  1        4 0.10807891E-02 0.12500217E+03</pdfrwt>
<pdfrwt beam="1">  1       -4 0.85547518E-01 0.12500217E+03</pdfrwt>
<totfact> 0.51281530E+03</totfact>
</mgrwt>
</event>
<event>
 4    1  0.3266594E-002  0.1251383E+03  0.7818608E-02  0.1234853E+00
          4   -1    0    0  501    0  0.00000000000E+00  0.00000000000E+00  0.32174364732E+02  0.32199419963E+02  0.12700000000E+01 0. -1.
         -4   -1    0    0    0  501 -0.00000000000E+00 -0.00000000000E+00 -0.12160175208E+03  0.12160838380E+03  0.12700000000E+01 0. -1.
    9000005    1    1    2    0    0  0.55464595317E+02 -0.55968243047E+01 -0.98138786421E+01  0.56612348388E+02  0.10000000000E+01 0.  0.
    9000005    1    1    2    0    0 -0.55464595317E+02  0.55968243047E+01 -0.79613508710E+02  0.97195455372E+02  0.10000000000E+01 0.  0.
<mgrwt>
<rscale>  0 0.12513826E+03</rscale>
<asrwt>0</asrwt>
<pdfrwt beam="1">  1        4 0.49523398E-02 0.12513826E+03</pdfrwt>
<pdfrwt beam="2">  1       -4 0.18710399E-01 0.12513826E+03</pdfrwt>
<totfact> 0.98244129E+03</totfact>
</mgrwt>
</event>
<event>
 5    1  0.3266594E-002  0.1249989E+03  0.7818608E-02  0.1235071E+00
         -4   -1    0    0    0  501 -0.00000000000E+00  0.00000000000E+00  0.57914442622E+03  0.57914581870E+03  0.12700000000E+01 0. -1.
          4   -1    0    0  501    0  0.00000000000E+00 -0.00000000000E+00 -0.66835523470E+01  0.68031442712E+01  0.12700000000E+01 0. -1.
         25    2    1    2    0    0  0.00000000000E+00  0.00000000000E+00  0.57246087387E+03  0.58594896297E+03  0.12499894038E+03 0.  0.
    9000005    1    3    3    0    0  0.60056612606E+02  0.17222486476E+02  0.29247223552E+03  0.29907259872E+03  0.10000000000E+01 0.  0.
    9000005    1    3    3    0    0 -0.60056612606E+02 -0.17222486476E+02  0.27998863835E+03  0.28687636425E+03  0.10000000000E+01 0.  0.
<mgrwt>
<rscale>  0 0.12499894E+03</rscale>
<asrwt>0</asrwt>
<pdfrwt beam="2">  1        4 0.10375452E-02 0.12499894E+03</pdfrwt>
<pdfrwt beam="1">  1       -4 0.89108455E-01 0.12499894E+03</pdfrwt>
<totfact> 0.49767890E+03</totfact>
</mgrwt>
</event>
<event>
 5    1  0.3266594E-002  0.1250060E+03  0.7818608E-02  0.1235060E+00
         -4   -1    0    0    0  501 -0.00000000000E+00  0.00000000000E+00  0.28219723709E+02  0.28248286784E+02  0.12700000000E+01 0. -1.
          4   -1    0    0  501    0  0.00000000000E+00 -0.00000000000E+00 -0.13833442484E+03  0.13834025443E+03  0.12700000000E+01 0. -1.
         25    2    1    2    0    0  0.00000000000E+00  0.00000000000E+00 -0.11011470113E+03  0.16658854121E+03  0.12500597849E+03 0.  0.
    9000005    1    3    3    0    0 -0.11432277269E+00  0.61504683962E+02 -0.69824137831E+02  0.93055088216E+02  0.10000000000E+01 0.  0.
    9000005    1    3    3    0    0  0.11432277269E+00 -0.61504683962E+02 -0.40290563300E+02  0.73533452999E+02  0.10000000000E+01 0.  0.
<mgrwt>
<rscale>  0 0.12500598E+03</rscale>
<asrwt>0</asrwt>
<pdfrwt beam="2">  1        4 0.21284865E-01 0.12500598E+03</pdfrwt>
<pdfrwt beam="1">  1       -4 0.43441416E-02 0.12500598E+03</pdfrwt>
<totfact> 0.96074489E+03</totfact>
</mgrwt>
</event>
<event>
 5    1  0.3266594E-002  0.1249997E+03  0.7818608E-02  0.1235070E+00
         -4   -1    0    0    0  501 -0.00000000000E+00  0.00000000000E+00  0.33045367589E+03  0.33045611631E+03  0.12700000000E+01 0.  1.
          4   -1    0    0  501    0  0.00000000000E+00 -0.00000000000E+00 -0.11784201270E+02  0.11852438550E+02  0.12700000000E+01 0.  1.
         25    2    1    2    0    0  0.00000000000E+00  0.00000000000E+00  0.31866947462E+03  0.34230855486E+03  0.12499965071E+03 0.  0.
    9000005    1    3    3    0    0 -0.52768025068E+02 -0.58368139239E+01  0.24960877104E+03  0.25519418381E+03  0.10000000000E+01 0.  0.
    9000005    1    3    3    0    0  0.52768025068E+02  0.58368139239E+01  0.69060703574E+02  0.87114371056E+02  0.10000000000E+01 0.  0.
<mgrwt>
<rscale>  0 0.12499965E+03</rscale>
<asrwt>0</asrwt>
<pdfrwt beam="2">  1        4 0.18183911E-02 0.12499965E+03</pdfrwt>
<pdfrwt beam="1">  1       -4 0.50844455E-01 0.12499965E+03</pdfrwt>
<totfact> 0.70579630E+03</totfact>
</mgrwt>
</event>
<event>
 5    1  0.3266594E-002  0.1249963E+03  0.7818608E-02  0.1235075E+00
         -4   -1    0    0    0  501 -0.00000000000E+00  0.00000000000E+00  0.31959555447E+02  0.31984778948E+02  0.12700000000E+01 0. -1.
          4   -1    0    0  501    0  0.00000000000E+00 -0.00000000000E+00 -0.12214073850E+03  0.12214734095E+03  0.12700000000E+01 0. -1.
         25    2    1    2    0    0  0.00000000000E+00  0.00000000000E+00 -0.90181183056E+02  0.15413211990E+03  0.12499625838E+03 0.  0.
    9000005    1    3    3    0    0 -0.22531170069E+01 -0.55538118963E+02 -0.80303075304E+02  0.97668536886E+02  0.10000000000E+01 0.  0.
    9000005    1    3    3    0    0  0.22531170069E+01  0.55538118963E+02 -0.98781077520E+01  0.56463583016E+02  0.10000000000E+01 0.  0.
<mgrwt>
<rscale>  0 0.12499626E+03</rscale>
<asrwt>0</asrwt>
<pdfrwt beam="2">  1        4 0.18793331E-01 0.12499626E+03</pdfrwt>
<pdfrwt beam="1">  1       -4 0.49193029E-02 0.12499626E+03</pdfrwt>
<totfact> 0.98494433E+03</totfact>
</mgrwt>
</event>
<event>
 5    1  0.3266594E-002  0.1249826E+03  0.7818608E-02  0.1235097E+00
         -4   -1    0    0    0  501 -0.00000000000E+00  0.00000000000E+00  0.10122044832E+02  0.10201406353E+02  0.12700000000E+01 0. -1.
          4   -1    0    0  501    0  0.00000000000E+00 -0.00000000000E+00 -0.38422041501E+03  0.38422251393E+03  0.12700000000E+01 0. -1.
         25    2    1    2    0    0  0.00000000000E+00  0.00000000000E+00 -0.37409837018E+03  0.39442392028E+03  0.12498255207E+03 0.  0.
    9000005    1    3    3    0    0 -0.59434702307E+02 -0.87399064597E+01 -0.13281937759E+03  0.14577673637E+03  0.10000000000E+01 0.  0.
    9000005    1    3    3    0    0  0.59434702307E+02  0.87399064597E+01 -0.24127899259E+03  0.24864718391E+03  0.10000000000E+01 0.  0.
<mgrwt>
<rscale>  0 0.12498255E+03</rscale>
<asrwt>0</asrwt>
<pdfrwt beam="2">  1        4 0.59117088E-01 0.12498255E+03</pdfrwt>
<pdfrwt beam="1">  1       -4 0.15635042E-02 0.12498255E+03</pdfrwt>
<totfact> 0.65123843E+03</totfact>
</mgrwt>
</event>
<event>
 5    1  0.3266594E-002  0.1250009E+03  0.7818608E-02  0.1235068E+00
          4   -1    0    0  501    0  0.00000000000E+00  0.00000000000E+00  0.92229138610E+02  0.92237882178E+02  0.12700000000E+01 0.  1.
         -4   -1    0    0    0  501 -0.00000000000E+00 -0.00000000000E+00 -0.42334105409E+02  0.42353150777E+02  0.12700000000E+01 0.  1.
         25    2    1    2    0    0  0.00000000000E+00  0.00000000000E+00  0.49895033201E+02  0.13459103296E+03  0.12500092725E+03 0.  0.
    9000005    1    3    3    0    0 -0.53098502621E+02 -0.22972584838E+02 -0.48946882823E+00  0.57865622044E+02  0.10000000000E+01 0.  0.
    9000005    1    3    3    0    0  0.53098502621E+02  0.22972584838E+02  0.50384502029E+02  0.76725410911E+02  0.10000000000E+01 0.  0.
<mgrwt>
<rscale>  0 0.12500093E+03</rscale>
<asrwt>0</asrwt>
<pdfrwt beam="1">  1        4 0.14191236E-01 0.12500093E+03</pdfrwt>
<pdfrwt beam="2">  1       -4 0.65150769E-02 0.12500093E+03</pdfrwt>
<totfact> 0.10246484E+04</totfact>
</mgrwt>
</event>
<event>
 5    1  0.3266594E-002  0.1249996E+03  0.7818608E-02  0.1235070E+00
         -4   -1    0    0    0  501 -0.00000000000E+00  0.00000000000E+00  0.50270673615E+03  0.50270834037E+03  0.12700000000E+01 0.  1.
          4   -1    0    0  501    0  0.00000000000E+00 -0.00000000000E+00 -0.77168699682E+01  0.78206765760E+01  0.12700000000E+01 0.  1.
         25    2    1    2    0    0  0.00000000000E+00  0.00000000000E+00  0.49498986619E+03  0.51052901694E+03  0.12499963806E+03 0.  0.
    9000005    1    3    3    0    0 -0.56101326326E+02 -0.64764693124E+01  0.13821382033E+03  0.14930962327E+03  0.10000000000E+01 0.  0.
    9000005    1    3    3    0    0  0.56101326326E+02  0.64764693124E+01  0.35677604586E+03  0.36121939367E+03  0.10000000000E+01 0.  0.
<mgrwt>
<rscale>  0 0.12499964E+03</rscale>
<asrwt>0</asrwt>
<pdfrwt beam="2">  1        4 0.11953193E-02 0.12499964E+03</pdfrwt>
<pdfrwt beam="1">  1       -4 0.77347609E-01 0.12499964E+03</pdfrwt>
<totfact> 0.55057035E+03</totfact>
</mgrwt>
</event>
<event>
 5    1  0.3266594E-002  0.1250004E+03  0.7818608E-02  0.1235069E+00
         -4   -1    0    0    0  501 -0.00000000000E+00  0.00000000000E+00  0.18933015709E+03  0.18933441653E+03  0.12700000000E+01 0.  1.
          4   -1    0    0  501    0  0.00000000000E+00 -0.00000000000E+00 -0.20608055451E+02  0.20647151122E+02  0.12700000000E+01 0.  1.
         25    2    1    2    0    0  0.00000000000E+00  0.00000000000E+00  0.16872210164E+03  0.20998156765E+03  0.12500044469E+03 0.  0.
    9000005    1    3    3    0    0  0.45721608978E+02 -0.42092509994E+02  0.95380750577E+02  0.11384521292E+03  0.10000000000E+01 0.  0.
    9000005    1    3    3    0    0 -0.45721608978E+02  0.42092509994E+02  0.73341351060E+02  0.96136354729E+02  0.10000000000E+01 0.  0.
<mgrwt>
<rscale>  0 0.12500044E+03</rscale>
<asrwt>0</asrwt>
<pdfrwt beam="2">  1        4 0.31738052E-02 0.12500044E+03</pdfrwt>
<pdfrwt beam="1">  1       -4 0.29131051E-01 0.12500044E+03</pdfrwt>
<totfact> 0.88478012E+03</totfact>
</mgrwt>
</event>
<event>
 5    1  0.3266594E-002  0.1250048E+03  0.7818608E-02  0.1235062E+00
         -4   -1    0    0    0  501 -0.00000000000E+00  0.00000000000E+00  0.15189149647E+04  0.15189154956E+04  0.12700000000E+01 0. -1.
          4   -1    0    0  501    0  0.00000000000E+00 -0.00000000000E+00 -0.24145909850E+01  0.27282136325E+01  0.12700000000E+01 0. -1.
         25    2    1    2    0    0  0.00000000000E+00  0.00000000000E+00  0.15165003737E+04  0.15216437092E+04  0.12500477785E+03 0.  0.
    9000005    1    3    3    0    0  0.14661094630E+02  0.95447548723E+01  0.27939988184E+02  0.32980190737E+02  0.10000000000E+01 0.  0.
    9000005    1    3    3    0    0 -0.14661094630E+02 -0.95447548723E+01  0.14885603855E+04  0.14886635185E+04  0.10000000000E+01 0.  0.
<mgrwt>
<rscale>  0 0.12500478E+03</rscale>
<asrwt>0</asrwt>
<pdfrwt beam="2">  1        4 0.39564165E-03 0.12500478E+03</pdfrwt>
<pdfrwt beam="1">  1       -4 0.23370312E+00 0.12500478E+03</pdfrwt>
<totfact> 0.17507045E+03</totfact>
</mgrwt>
</event>
<event>
 5    1  0.3266594E-002  0.1250010E+03  0.7818608E-02  0.1235068E+00
          4   -1    0    0  501    0  0.00000000000E+00  0.00000000000E+00  0.21180166154E+03  0.21180546908E+03  0.12700000000E+01 0.  1.
         -4   -1    0    0    0  501 -0.00000000000E+00 -0.00000000000E+00 -0.18417429764E+02  0.18461165161E+02  0.12700000000E+01 0.  1.
         25    2    1    2    0    0  0.00000000000E+00  0.00000000000E+00  0.19338423178E+03  0.23026663424E+03  0.12500104697E+03 0.  0.
    9000005    1    3    3    0    0 -0.22174092327E+02  0.58424103099E+02  0.97611778510E+02  0.11590567500E+03  0.10000000000E+01 0.  0.
    9000005    1    3    3    0    0  0.22174092327E+02 -0.58424103099E+02  0.95772453268E+02  0.11436095924E+03  0.10000000000E+01 0.  0.
<mgrwt>
<rscale>  0 0.12500105E+03</rscale>
<asrwt>0</asrwt>
<pdfrwt beam="1">  1        4 0.32588529E-01 0.12500105E+03</pdfrwt>
<pdfrwt beam="2">  1       -4 0.28371078E-02 0.12500105E+03</pdfrwt>
<totfact> 0.85266679E+03</totfact>
</mgrwt>
</event>
<event>
 4    1  0.3266594E-002  0.1247181E+03  0.7818608E-02  0.1235511E+00
          4   -1    0    0  501    0  0.00000000000E+00  0.00000000000E+00  0.57661792047E+02  0.57675776215E+02  0.12700000000E+01 0. -1.
         -4   -1    0    0    0  501 -0.00000000000E+00 -0.00000000000E+00 -0.67410775866E+02  0.67422738026E+02  0.12700000000E+01 0. -1.
    9000005    1    1    2    0    0  0.28852209745E+01 -0.62256533576E+02 -0.67371493430E+01  0.62694414857E+02  0.10000000000E+01 0.  0.
    9000005    1    1    2    0    0 -0.28852209745E+01  0.62256533576E+02 -0.30118344765E+01  0.62404099384E+02  0.10000000000E+01 0.  0.
<mgrwt>
<rscale>  0 0.12471806E+03</rscale>
<asrwt>0</asrwt>
<pdfrwt beam="1">  1        4 0.88730408E-02 0.12471806E+03</pdfrwt>
<pdfrwt beam="2">  1       -4 0.10372884E-01 0.12471806E+03</pdfrwt>
<totfact> 0.10517576E+04</totfact>
</mgrwt>
</event>
<event>
 5    1  0.3266594E-002  0.1249920E+03  0.7818608E-02  0.1235082E+00
         -4   -1    0    0    0  501 -0.00000000000E+00  0.00000000000E+00  0.98184214891E+02  0.98192428189E+02  0.12700000000E+01 0. -1.
          4   -1    0    0  501    0  0.00000000000E+00 -0.00000000000E+00 -0.39759778861E+02  0.39780056750E+02  0.12700000000E+01 0. -1.
         25    2    1    2    0    0  0.00000000000E+00  0.00000000000E+00  0.58424436030E+02  0.13797248494E+03  0.12499196724E+03 0.  0.
    9000005    1    3    3    0    0 -0.10992877557E+02 -0.59723205586E+02  0.12949856884E+02  0.62099947148E+02  0.10000000000E+01 0.  0.
    9000005    1    3    3    0    0  0.10992877557E+02  0.59723205586E+02  0.45474579146E+02  0.75872537791E+02  0.10000000000E+01 0.  0.
<mgrwt>
<rscale>  0 0.12499197E+03</rscale>
<asrwt>0</asrwt>
<pdfrwt beam="2">  1        4 0.61190807E-02 0.12499197E+03</pdfrwt>
<pdfrwt beam="1">  1       -4 0.15107455E-01 0.12499197E+03</pdfrwt>
<totfact> 0.10177623E+04</totfact>
</mgrwt>
</event>
<event>
 5    1  0.3266594E-002  0.1250000E+03  0.7818608E-02  0.1235069E+00
          4   -1    0    0  501    0  0.00000000000E+00  0.00000000000E+00  0.19012559727E+02  0.19054929215E+02  0.12700000000E+01 0. -1.
         -4   -1    0    0    0  501 -0.00000000000E+00 -0.00000000000E+00 -0.20518344137E+03  0.20518737171E+03  0.12700000000E+01 0. -1.
         25    2    1    2    0    0  0.00000000000E+00  0.00000000000E+00 -0.18617088164E+03  0.22424230093E+03  0.12500004942E+03 0.  0.
    9000005    1    3    3    0    0  0.12373981062E+02  0.26230735776E+02  0.62165246441E+01  0.29678478487E+02  0.10000000000E+01 0.  0.
    9000005    1    3    3    0    0 -0.12373981062E+02 -0.26230735776E+02 -0.19238740628E+03  0.19456382244E+03  0.10000000000E+01 0.  0.
<mgrwt>
<rscale>  0 0.12500005E+03</rscale>
<asrwt>0</asrwt>
<pdfrwt beam="1">  1        4 0.29285709E-02 0.12500005E+03</pdfrwt>
<pdfrwt beam="2">  1       -4 0.31570243E-01 0.12500005E+03</pdfrwt>
<totfact> 0.86201386E+03</totfact>
</mgrwt>
</event>
<event>
 5    1  0.3266594E-002  0.1250109E+03  0.7818608E-02  0.1235052E+00
          4   -1    0    0  501    0  0.00000000000E+00  0.00000000000E+00  0.24047576458E+03  0.24047911812E+03  0.12700000000E+01 0. -1.
         -4   -1    0    0    0  501 -0.00000000000E+00 -0.00000000000E+00 -0.16218372114E+02  0.16268020594E+02  0.12700000000E+01 0. -1.
         25    2    1    2    0    0  0.00000000000E+00  0.00000000000E+00  0.22425739246E+03  0.25674713871E+03  0.12501086017E+03 0.  0.
    9000005    1    3    3    0    0  0.33534312707E+02 -0.50812185071E+02  0.14113750358E+03  0.15371149338E+03  0.10000000000E+01 0.  0.
    9000005    1    3    3    0    0 -0.33534312707E+02  0.50812185071E+02  0.83119888888E+02  0.10303564533E+03  0.10000000000E+01 0.  0.
<mgrwt>
<rscale>  0 0.12501086E+03</rscale>
<asrwt>0</asrwt>
<pdfrwt beam="1">  1        4 0.37000345E-01 0.12501086E+03</pdfrwt>
<pdfrwt beam="2">  1       -4 0.24992115E-02 0.12501086E+03</pdfrwt>
<totfact> 0.81345063E+03</totfact>
</mgrwt>
</event>
<event>
 5    1  0.3266594E-002  0.1250000E+03  0.7818608E-02  0.1235069E+00
          4   -1    0    0  501    0  0.00000000000E+00  0.00000000000E+00  0.16395939947E+03  0.16396431799E+03  0.12700000000E+01 0. -1.
         -4   -1    0    0    0  501 -0.00000000000E+00 -0.00000000000E+00 -0.23802284963E+02  0.23836142085E+02  0.12700000000E+01 0. -1.
         25    2    1    2    0    0  0.00000000000E+00  0.00000000000E+00  0.14015711450E+03  0.18780046007E+03  0.12499998423E+03 0.  0.
    9000005    1    3    3    0    0  0.52419649368E+02 -0.26021177019E+02  0.37151302817E+02  0.69326334061E+02  0.10000000000E+01 0.  0.
    9000005    1    3    3    0    0 -0.52419649368E+02  0.26021177019E+02  0.10300581169E+03  0.11847412601E+03  0.10000000000E+01 0.  0.
<mgrwt>
<rscale>  0 0.12499998E+03</rscale>
<asrwt>0</asrwt>
<pdfrwt beam="1">  1        4 0.25227505E-01 0.12499998E+03</pdfrwt>
<pdfrwt beam="2">  1       -4 0.36648729E-02 0.12499998E+03</pdfrwt>
<totfact> 0.92231475E+03</totfact>
</mgrwt>
</event>
<event>
 5    1  0.3266594E-002  0.1250021E+03  0.7818608E-02  0.1235066E+00
          4   -1    0    0  501    0  0.00000000000E+00  0.00000000000E+00  0.56491029505E+02  0.56505303419E+02  0.12700000000E+01 0.  1.
         -4   -1    0    0    0  501 -0.00000000000E+00 -0.00000000000E+00 -0.69121672814E+02  0.69133338937E+02  0.12700000000E+01 0.  1.
         25    2    1    2    0    0  0.00000000000E+00  0.00000000000E+00 -0.12630643309E+02  0.12563864236E+03  0.12500214119E+03 0.  0.
    9000005    1    3    3    0    0  0.32425502519E+02 -0.53039285333E+02  0.10507018480E+00  0.62173869447E+02  0.10000000000E+01 0.  0.
    9000005    1    3    3    0    0 -0.32425502519E+02  0.53039285333E+02 -0.12735713494E+02  0.63464772910E+02  0.10000000000E+01 0.  0.
<mgrwt>
<rscale>  0 0.12500214E+03</rscale>
<asrwt>0</asrwt>
<pdfrwt beam="1">  1        4 0.86929230E-02 0.12500214E+03</pdfrwt>
<pdfrwt beam="2">  1       -4 0.10636099E-01 0.12500214E+03</pdfrwt>
<totfact> 0.10438391E+04</totfact>
</mgrwt>
</event>
<event>
 5    1  0.3266594E-002  0.1249994E+03  0.7818608E-02  0.1235070E+00
          4   -1    0    0  501    0  0.00000000000E+00  0.00000000000E+00  0.10752349165E+02  0.10827091602E+02  0.12700000000E+01 0.  1.
         -4   -1    0    0    0  501 -0.00000000000E+00 -0.00000000000E+00 -0.36195527269E+03  0.36195750072E+03  0.12700000000E+01 0.  1.
         25    2    1    2    0    0  0.00000000000E+00  0.00000000000E+00 -0.35120292352E+03  0.37278459232E+03  0.12499943512E+03 0.  0.
    9000005    1    3    3    0    0 -0.34630731610E+02 -0.49914089728E+02 -0.13192228398E+03  0.14524184292E+03  0.10000000000E+01 0.  0.
    9000005    1    3    3    0    0  0.34630731610E+02  0.49914089728E+02 -0.21928063954E+03  0.22754274940E+03  0.10000000000E+01 0.  0.
<mgrwt>
<rscale>  0 0.12499944E+03</rscale>
<asrwt>0</asrwt>
<pdfrwt beam="1">  1        4 0.16601286E-02 0.12499944E+03</pdfrwt>
<pdfrwt beam="2">  1       -4 0.55691338E-01 0.12499944E+03</pdfrwt>
<totfact> 0.67289464E+03</totfact>
</mgrwt>
</event>
<event>
 5    1  0.3266594E-002  0.1249995E+03  0.7818608E-02  0.1235070E+00
         -4   -1    0    0    0  501 -0.00000000000E+00  0.00000000000E+00  0.72555365339E+01  0.73658475680E+01  0.12700000000E+01 0.  1.
          4   -1    0    0  501    0  0.00000000000E+00 -0.00000000000E+00 -0.53420467001E+03  0.53420617963E+03  0.12700000000E+01 0.  1.
         25    2    1    2    0    0  0.00000000000E+00  0.00000000000E+00 -0.52694913347E+03  0.54157202720E+03  0.12499948551E+03 0.  0.
    9000005    1    3    3    0    0  0.39258577333E+02  0.48450529435E+02 -0.24586048161E+03  0.25364752338E+03  0.10000000000E+01 0.  0.
    9000005    1    3    3    0    0 -0.39258577333E+02 -0.48450529435E+02 -0.28108865186E+03  0.28792450382E+03  0.10000000000E+01 0.  0.
<mgrwt>
<rscale>  0 0.12499949E+03</rscale>
<asrwt>0</asrwt>
<pdfrwt beam="2">  1        4 0.82193905E-01 0.12499949E+03</pdfrwt>
<pdfrwt beam="1">  1       -4 0.11248384E-02 0.12499949E+03</pdfrwt>
<totfact> 0.52777856E+03</totfact>
</mgrwt>
</event>
<event>
 5    1  0.3266594E-002  0.1250004E+03  0.7818608E-02  0.1235069E+00
         -4   -1    0    0    0  501 -0.00000000000E+00  0.00000000000E+00  0.14797192064E+03  0.14797737056E+03  0.12700000000E+01 0.  1.
          4   -1    0    0  501    0  0.00000000000E+00 -0.00000000000E+00 -0.26377550025E+02  0.26408105674E+02  0.12700000000E+01 0.  1.
         25    2    1    2    0    0  0.00000000000E+00  0.00000000000E+00  0.12159437062E+03  0.17438547624E+03  0.12500041343E+03 0.  0.
    9000005    1    3    3    0    0  0.37964541981E+02 -0.49598358949E+02  0.58016746302E+02  0.85254011693E+02  0.10000000000E+01 0.  0.
    9000005    1    3    3    0    0 -0.37964541981E+02  0.49598358949E+02  0.63577624317E+02  0.89131464546E+02  0.10000000000E+01 0.  0.
<mgrwt>
<rscale>  0 0.12500041E+03</rscale>
<asrwt>0</asrwt>
<pdfrwt beam="2">  1        4 0.40608543E-02 0.12500041E+03</pdfrwt>
<pdfrwt beam="1">  1       -4 0.22767680E-01 0.12500041E+03</pdfrwt>
<totfact> 0.94636632E+03</totfact>
</mgrwt>
</event>
<event>
 5    1  0.3266594E-002  0.1250086E+03  0.7818608E-02  0.1235056E+00
         -4   -1    0    0    0  501 -0.00000000000E+00  0.00000000000E+00  0.11895796065E+03  0.11896473974E+03  0.12700000000E+01 0.  1.
          4   -1    0    0  501    0  0.00000000000E+00 -0.00000000000E+00 -0.32821746646E+02  0.32846308056E+02  0.12700000000E+01 0.  1.
         25    2    1    2    0    0  0.00000000000E+00  0.00000000000E+00  0.86136214004E+02  0.15181104780E+03  0.12500858719E+03 0.  0.
    9000005    1    3    3    0    0 -0.53252956347E+01 -0.59368180955E+02  0.65879760517E+02  0.88848649564E+02  0.10000000000E+01 0.  0.
    9000005    1    3    3    0    0  0.53252956347E+01  0.59368180955E+02  0.20256453488E+02  0.62962398234E+02  0.10000000000E+01 0.  0.
<mgrwt>
<rscale>  0 0.12500859E+03</rscale>
<asrwt>0</asrwt>
<pdfrwt beam="2">  1        4 0.50519103E-02 0.12500859E+03</pdfrwt>
<pdfrwt beam="1">  1       -4 0.18303635E-01 0.12500859E+03</pdfrwt>
<totfact> 0.98924795E+03</totfact>
</mgrwt>
</event>
<event>
 5    1  0.3266594E-002  0.1249999E+03  0.7818608E-02  0.1235069E+00
         -4   -1    0    0    0  501 -0.00000000000E+00  0.00000000000E+00  0.34226986306E+02  0.34250540019E+02  0.12700000000E+01 0.  1.
          4   -1    0    0  501    0  0.00000000000E+00 -0.00000000000E+00 -0.11406133012E+03  0.11406840022E+03  0.12700000000E+01 0.  1.
         25    2    1    2    0    0  0.00000000000E+00  0.00000000000E+00 -0.79834343819E+02  0.14831894024E+03  0.12499994233E+03 0.  0.
    9000005    1    3    3    0    0 -0.44579259360E+02  0.27373817286E+02  0.64503999382E+00  0.52326401696E+02  0.10000000000E+01 0.  0.
    9000005    1    3    3    0    0  0.44579259360E+02 -0.27373817286E+02 -0.80479383813E+02  0.95992538547E+02  0.10000000000E+01 0.  0.
<mgrwt>
<rscale>  0 0.12499994E+03</rscale>
<asrwt>0</asrwt>
<pdfrwt beam="2">  1        4 0.17550252E-01 0.12499994E+03</pdfrwt>
<pdfrwt beam="1">  1       -4 0.52680459E-02 0.12499994E+03</pdfrwt>
<totfact> 0.99639982E+03</totfact>
</mgrwt>
</event>
<event>
 5    1  0.3266594E-002  0.1249987E+03  0.7818608E-02  0.1235071E+00
         -4   -1    0    0    0  501 -0.00000000000E+00  0.00000000000E+00  0.12681460311E+02  0.12744894493E+02  0.12700000000E+01 0. -1.
          4   -1    0    0  501    0  0.00000000000E+00 -0.00000000000E+00 -0.30718899299E+03  0.30719161823E+03  0.12700000000E+01 0. -1.
         25    2    1    2    0    0  0.00000000000E+00  0.00000000000E+00 -0.29450753268E+03  0.31993651272E+03  0.12499874148E+03 0.  0.
    9000005    1    3    3    0    0  0.16231879019E+02 -0.59659700468E+02 -0.12401740546E+03  0.13857875239E+03  0.10000000000E+01 0.  0.
    9000005    1    3    3    0    0 -0.16231879019E+02  0.59659700468E+02 -0.17049012722E+03  0.18135776034E+03  0.10000000000E+01 0.  0.
<mgrwt>
<rscale>  0 0.12499874E+03</rscale>
<asrwt>0</asrwt>
<pdfrwt beam="2">  1        4 0.47264921E-01 0.12499874E+03</pdfrwt>
<pdfrwt beam="1">  1       -4 0.19560756E-02 0.12499874E+03</pdfrwt>
<totfact> 0.73165720E+03</totfact>
</mgrwt>
</event>
<event>
 5    1  0.3266594E-002  0.1249894E+03  0.7818608E-02  0.1235086E+00
          4   -1    0    0  501    0  0.00000000000E+00  0.00000000000E+00  0.86187501626E+01  0.87118169383E+01  0.12700000000E+01 0. -1.
         -4   -1    0    0    0  501 -0.00000000000E+00 -0.00000000000E+00 -0.45062294857E+03  0.45062473820E+03  0.12700000000E+01 0. -1.
         25    2    1    2    0    0  0.00000000000E+00  0.00000000000E+00 -0.44200419841E+03  0.45933655514E+03  0.12498943746E+03 0.  0.
    9000005    1    3    3    0    0 -0.41591827653E+02 -0.16564476538E+02 -0.38120558562E+03  0.38382673242E+03  0.10000000000E+01 0.  0.
    9000005    1    3    3    0    0  0.41591827653E+02  0.16564476538E+02 -0.60798612788E+02  0.75509822722E+02  0.10000000000E+01 0.  0.
<mgrwt>
<rscale>  0 0.12498944E+03</rscale>
<asrwt>0</asrwt>
<pdfrwt beam="1">  1        4 0.13332586E-02 0.12498944E+03</pdfrwt>
<pdfrwt beam="2">  1       -4 0.69333886E-01 0.12498944E+03</pdfrwt>
<totfact> 0.59177189E+03</totfact>
</mgrwt>
</event>
<event>
 5    1  0.3266594E-002  0.1249909E+03  0.7818608E-02  0.1235084E+00
          4   -1    0    0  501    0  0.00000000000E+00  0.00000000000E+00  0.42093601693E+01  0.43967730251E+01  0.12700000000E+01 0. -1.
         -4   -1    0    0    0  501 -0.00000000000E+00 -0.00000000000E+00 -0.90746258384E+03  0.90746347252E+03  0.12700000000E+01 0. -1.
         25    2    1    2    0    0  0.00000000000E+00  0.00000000000E+00 -0.90325322367E+03  0.91186024555E+03  0.12499088505E+03 0.  0.
    9000005    1    3    3    0    0 -0.45023330898E+02  0.37633165235E+01 -0.13670314835E+03  0.14397921255E+03  0.10000000000E+01 0.  0.
    9000005    1    3    3    0    0  0.45023330898E+02 -0.37633165235E+01 -0.76655007532E+03  0.76788103300E+03  0.10000000000E+01 0.  0.
<mgrwt>
<rscale>  0 0.12499089E+03</rscale>
<asrwt>0</asrwt>
<pdfrwt beam="1">  1        4 0.66207933E-03 0.12499089E+03</pdfrwt>
<pdfrwt beam="2">  1       -4 0.13962396E+00 0.12499089E+03</pdfrwt>
<totfact> 0.33716575E+03</totfact>
</mgrwt>
</event>
<event>
 5    1  0.3266594E-002  0.1250066E+03  0.7818608E-02  0.1235059E+00
         -4   -1    0    0    0  501 -0.00000000000E+00  0.00000000000E+00  0.15730090247E+03  0.15730602918E+03  0.12700000000E+01 0. -1.
          4   -1    0    0  501    0  0.00000000000E+00 -0.00000000000E+00 -0.24813812848E+02  0.24846291636E+02  0.12700000000E+01 0. -1.
         25    2    1    2    0    0  0.00000000000E+00  0.00000000000E+00  0.13248708962E+03  0.18215232082E+03  0.12500655608E+03 0.  0.
    9000005    1    3    3    0    0  0.45574825508E+02 -0.21946709144E+02  0.12765495110E+02  0.52179312258E+02  0.10000000000E+01 0.  0.
    9000005    1    3    3    0    0 -0.45574825508E+02  0.21946709144E+02  0.11972159451E+03  0.12997300856E+03  0.10000000000E+01 0.  0.
<mgrwt>
<rscale>  0 0.12500656E+03</rscale>
<asrwt>0</asrwt>
<pdfrwt beam="2">  1        4 0.38204024E-02 0.12500656E+03</pdfrwt>
<pdfrwt beam="1">  1       -4 0.24203032E-01 0.12500656E+03</pdfrwt>
<totfact> 0.93217306E+03</totfact>
</mgrwt>
</event>
<event>
 5    1  0.3266594E-002  0.1250023E+03  0.7818608E-02  0.1235066E+00
          4   -1    0    0  501    0  0.00000000000E+00  0.00000000000E+00  0.17597030418E+03  0.17597488699E+03  0.12700000000E+01 0.  1.
         -4   -1    0    0    0  501 -0.00000000000E+00 -0.00000000000E+00 -0.22176137482E+02  0.22212473379E+02  0.12700000000E+01 0.  1.
         25    2    1    2    0    0  0.00000000000E+00  0.00000000000E+00  0.15379416670E+03  0.19818736037E+03  0.12500233639E+03 0.  0.
    9000005    1    3    3    0    0 -0.95415526290E+01 -0.16709421173E+02 -0.17370364360E+02  0.25941772116E+02  0.10000000000E+01 0.  0.
    9000005    1    3    3    0    0  0.95415526290E+01  0.16709421173E+02  0.17116453106E+03  0.17224558826E+03  0.10000000000E+01 0.  0.
<mgrwt>
<rscale>  0 0.12500234E+03</rscale>
<asrwt>0</asrwt>
<pdfrwt beam="1">  1        4 0.27075501E-01 0.12500234E+03</pdfrwt>
<pdfrwt beam="2">  1       -4 0.34148612E-02 0.12500234E+03</pdfrwt>
<totfact> 0.90437204E+03</totfact>
</mgrwt>
</event>
<event>
 5    1  0.3266594E-002  0.1250063E+03  0.7818608E-02  0.1235059E+00
         -4   -1    0    0    0  501 -0.00000000000E+00  0.00000000000E+00  0.29045224706E+03  0.29045502358E+03  0.12700000000E+01 0. -1.
          4   -1    0    0  501    0  0.00000000000E+00 -0.00000000000E+00 -0.13417384341E+02  0.13477355177E+02  0.12700000000E+01 0. -1.
         25    2    1    2    0    0  0.00000000000E+00  0.00000000000E+00  0.27703486272E+03  0.30393237875E+03  0.12500630262E+03 0.  0.
    9000005    1    3    3    0    0  0.58748445568E+02 -0.19257071676E+02  0.11630969729E+03  0.13172380328E+03  0.10000000000E+01 0.  0.
    9000005    1    3    3    0    0 -0.58748445568E+02  0.19257071676E+02  0.16072516542E+03  0.17220857547E+03  0.10000000000E+01 0.  0.
<mgrwt>
<rscale>  0 0.12500630E+03</rscale>
<asrwt>0</asrwt>
<pdfrwt beam="2">  1        4 0.20690399E-02 0.12500630E+03</pdfrwt>
<pdfrwt beam="1">  1       -4 0.44689782E-01 0.12500630E+03</pdfrwt>
<totfact> 0.75097699E+03</totfact>
</mgrwt>
</event>
<event>
 5    1  0.3266594E-002  0.1250022E+03  0.7818608E-02  0.1235066E+00
         -4   -1    0    0    0  501 -0.00000000000E+00  0.00000000000E+00  0.47819817952E+02  0.47836679327E+02  0.12700000000E+01 0. -1.
          4   -1    0    0  501    0  0.00000000000E+00 -0.00000000000E+00 -0.81653544866E+02  0.81663420754E+02  0.12700000000E+01 0. -1.
         25    2    1    2    0    0  0.00000000000E+00  0.00000000000E+00 -0.33833726913E+02  0.12950010008E+03  0.12500221936E+03 0.  0.
    9000005    1    3    3    0    0  0.75136648748E+00  0.49888210010E+02 -0.55900520243E+02  0.74935079990E+02  0.10000000000E+01 0.  0.
    9000005    1    3    3    0    0 -0.75136648748E+00 -0.49888210010E+02  0.22066793330E+02  0.54565020090E+02  0.10000000000E+01 0.  0.
<mgrwt>
<rscale>  0 0.12500222E+03</rscale>
<asrwt>0</asrwt>
<pdfrwt beam="2">  1        4 0.12564141E-01 0.12500222E+03</pdfrwt>
<pdfrwt beam="1">  1       -4 0.73589518E-02 0.12500222E+03</pdfrwt>
<totfact> 0.10354694E+04</totfact>
</mgrwt>
</event>
<event>
 5    1  0.3266594E-002  0.1250010E+03  0.7818608E-02  0.1235068E+00
          4   -1    0    0  501    0  0.00000000000E+00  0.00000000000E+00  0.47789953125E+02  0.47806825032E+02  0.12700000000E+01 0. -1.
         -4   -1    0    0    0  501 -0.00000000000E+00 -0.00000000000E+00 -0.81702956651E+02  0.81712826567E+02  0.12700000000E+01 0. -1.
         25    2    1    2    0    0  0.00000000000E+00  0.00000000000E+00 -0.33913003526E+02  0.12951965160E+03  0.12500099336E+03 0.  0.
    9000005    1    3    3    0    0  0.16526550197E+02 -0.23969620745E+02  0.40338344277E+02  0.49757930012E+02  0.10000000000E+01 0.  0.
    9000005    1    3    3    0    0 -0.16526550197E+02  0.23969620745E+02 -0.74251347803E+02  0.79761721588E+02  0.10000000000E+01 0.  0.
<mgrwt>
<rscale>  0 0.12500099E+03</rscale>
<asrwt>0</asrwt>
<pdfrwt beam="1">  1        4 0.73543576E-02 0.12500099E+03</pdfrwt>
<pdfrwt beam="2">  1       -4 0.12571743E-01 0.12500099E+03</pdfrwt>
<totfact> 0.10354562E+04</totfact>
</mgrwt>
</event>
<event>
 5    1  0.3266594E-002  0.1250003E+03  0.7818608E-02  0.1235069E+00
         -4   -1    0    0    0  501 -0.00000000000E+00  0.00000000000E+00  0.21408727296E+03  0.21409103985E+03  0.12700000000E+01 0. -1.
          4   -1    0    0  501    0  0.00000000000E+00 -0.00000000000E+00 -0.18220115472E+02  0.18264323361E+02  0.12700000000E+01 0. -1.
         25    2    1    2    0    0  0.00000000000E+00  0.00000000000E+00  0.19586715749E+03  0.23235536321E+03  0.12500028572E+03 0.  0.
    9000005    1    3    3    0    0  0.26279704972E+02  0.24965976107E+02  0.33089226499E+01  0.36412522921E+02  0.10000000000E+01 0.  0.
    9000005    1    3    3    0    0 -0.26279704972E+02 -0.24965976107E+02  0.19255823484E+03  0.19594284029E+03  0.10000000000E+01 0.  0.
<mgrwt>
<rscale>  0 0.12500029E+03</rscale>
<asrwt>0</asrwt>
<pdfrwt beam="2">  1        4 0.28067848E-02 0.12500029E+03</pdfrwt>
<pdfrwt beam="1">  1       -4 0.32940197E-01 0.12500029E+03</pdfrwt>
<totfact> 0.84948691E+03</totfact>
</mgrwt>
</event>
<event>
 5    1  0.3266594E-002  0.1249994E+03  0.7818608E-02  0.1235070E+00
          4   -1    0    0  501    0  0.00000000000E+00  0.00000000000E+00  0.61350372699E+03  0.61350504149E+03  0.12700000000E+01 0. -1.
         -4   -1    0    0    0  501 -0.00000000000E+00 -0.00000000000E+00 -0.63023954650E+01  0.64290814738E+01  0.12700000000E+01 0. -1.
         25    2    1    2    0    0  0.00000000000E+00  0.00000000000E+00  0.60720133153E+03  0.61993412296E+03  0.12499943922E+03 0.  0.
    9000005    1    3    3    0    0  0.50464773674E+02  0.26833549083E+02  0.17828312065E+03  0.18722340624E+03  0.10000000000E+01 0.  0.
    9000005    1    3    3    0    0 -0.50464773674E+02 -0.26833549083E+02  0.42891821088E+03  0.43271071672E+03  0.10000000000E+01 0.  0.
<mgrwt>
<rscale>  0 0.12499944E+03</rscale>
<asrwt>0</asrwt>
<pdfrwt beam="1">  1        4 0.94395064E-01 0.12499944E+03</pdfrwt>
<pdfrwt beam="2">  1       -4 0.97944519E-03 0.12499944E+03</pdfrwt>
<totfact> 0.47633585E+03</totfact>
</mgrwt>
</event>
<event>
 5    1  0.3266594E-002  0.1250043E+03  0.7818608E-02  0.1235063E+00
         -4   -1    0    0    0  501 -0.00000000000E+00  0.00000000000E+00  0.64227276692E+03  0.64227402253E+03  0.12700000000E+01 0. -1.
          4   -1    0    0  501    0  0.00000000000E+00 -0.00000000000E+00 -0.60147654009E+01  0.61473817865E+01  0.12700000000E+01 0. -1.
         25    2    1    2    0    0  0.00000000000E+00  0.00000000000E+00  0.63625800152E+03  0.64842140432E+03  0.12500429228E+03 0.  0.
    9000005    1    3    3    0    0  0.18164620137E+02  0.35455131339E+02  0.56789644346E+03  0.56929288619E+03  0.10000000000E+01 0.  0.
    9000005    1    3    3    0    0 -0.18164620137E+02 -0.35455131339E+02  0.68361558052E+02  0.79128518136E+02  0.10000000000E+01 0.  0.
<mgrwt>
<rscale>  0 0.12500429E+03</rscale>
<asrwt>0</asrwt>
<pdfrwt beam="2">  1        4 0.93564701E-03 0.12500429E+03</pdfrwt>
<pdfrwt beam="1">  1       -4 0.98821425E-01 0.12500429E+03</pdfrwt>
<totfact> 0.45942676E+03</totfact>
</mgrwt>
</event>
<event>
 5    1  0.3266594E-002  0.1249912E+03  0.7818608E-02  0.1235083E+00
          4   -1    0    0  501    0  0.00000000000E+00  0.00000000000E+00  0.37622883260E+03  0.37623097610E+03  0.12700000000E+01 0. -1.
         -4   -1    0    0    0  501 -0.00000000000E+00 -0.00000000000E+00 -0.10340159525E+02  0.10417859617E+02  0.12700000000E+01 0. -1.
         25    2    1    2    0    0  0.00000000000E+00  0.00000000000E+00  0.36588867308E+03  0.38664883572E+03  0.12499120401E+03 0.  0.
    9000005    1    3    3    0    0 -0.30401524096E+02  0.43012478153E+02  0.78940730475E+02  0.94905030805E+02  0.10000000000E+01 0.  0.
    9000005    1    3    3    0    0  0.30401524096E+02 -0.43012478153E+02  0.28694794260E+03  0.29174380492E+03  0.10000000000E+01 0.  0.
<mgrwt>
<rscale>  0 0.12499120E+03</rscale>
<asrwt>0</asrwt>
<pdfrwt beam="1">  1        4 0.57887503E-01 0.12499120E+03</pdfrwt>
<pdfrwt beam="2">  1       -4 0.15969355E-02 0.12499120E+03</pdfrwt>
<totfact> 0.65885154E+03</totfact>
</mgrwt>
</event>
<event>
 5    1  0.3266594E-002  0.1249970E+03  0.7818608E-02  0.1235074E+00
          4   -1    0    0  501    0  0.00000000000E+00  0.00000000000E+00  0.16785869395E+03  0.16786349822E+03  0.12700000000E+01 0. -1.
         -4   -1    0    0    0  501 -0.00000000000E+00 -0.00000000000E+00 -0.23247464302E+02  0.23282128263E+02  0.12700000000E+01 0. -1.
         25    2    1    2    0    0  0.00000000000E+00  0.00000000000E+00  0.14461122964E+03  0.19114562648E+03  0.12499697110E+03 0.  0.
    9000005    1    3    3    0    0 -0.17370234517E+01  0.23820435535E+02  0.16061131165E+03  0.16238049092E+03  0.10000000000E+01 0.  0.
    9000005    1    3    3    0    0  0.17370234517E+01 -0.23820435535E+02 -0.16000082010E+02  0.28765135561E+02  0.10000000000E+01 0.  0.
<mgrwt>
<rscale>  0 0.12499697E+03</rscale>
<asrwt>0</asrwt>
<pdfrwt beam="1">  1        4 0.25827451E-01 0.12499697E+03</pdfrwt>
<pdfrwt beam="2">  1       -4 0.35795690E-02 0.12499697E+03</pdfrwt>
<totfact> 0.91654578E+03</totfact>
</mgrwt>
</event>
<event>
 5    1  0.3266594E-002  0.1250011E+03  0.7818608E-02  0.1235068E+00
         -4   -1    0    0    0  501 -0.00000000000E+00  0.00000000000E+00  0.82299364705E+01  0.83273497770E+01  0.12700000000E+01 0.  1.
          4   -1    0    0  501    0  0.00000000000E+00 -0.00000000000E+00 -0.47175636949E+03  0.47175807895E+03  0.12700000000E+01 0.  1.
         25    2    1    2    0    0  0.00000000000E+00  0.00000000000E+00 -0.46352643302E+03  0.48008542872E+03  0.12500105907E+03 0.  0.
    9000005    1    3    3    0    0 -0.95402030246E+01 -0.61411461480E+02 -0.25692845454E+03  0.26433995881E+03  0.10000000000E+01 0.  0.
    9000005    1    3    3    0    0  0.95402030246E+01  0.61411461480E+02 -0.20659797848E+03  0.21574546991E+03  0.10000000000E+01 0.  0.
<mgrwt>
<rscale>  0 0.12500106E+03</rscale>
<asrwt>0</asrwt>
<pdfrwt beam="2">  1        4 0.72585506E-01 0.12500106E+03</pdfrwt>
<pdfrwt beam="1">  1       -4 0.12737693E-02 0.12500106E+03</pdfrwt>
<totfact> 0.57441960E+03</totfact>
</mgrwt>
</event>
<event>
 5    1  0.3266594E-002  0.1249960E+03  0.7818608E-02  0.1235075E+00
         -4   -1    0    0    0  501 -0.00000000000E+00  0.00000000000E+00  0.72038181843E+01  0.73149091883E+01  0.12700000000E+01 0. -1.
          4   -1    0    0  501    0  0.00000000000E+00 -0.00000000000E+00 -0.53795203765E+03  0.53795353676E+03  0.12700000000E+01 0. -1.
         25    2    1    2    0    0  0.00000000000E+00  0.00000000000E+00 -0.53074821947E+03  0.54526844595E+03  0.12499602266E+03 0.  0.
    9000005    1    3    3    0    0 -0.21063316543E+02  0.41349167940E+02 -0.82803986015E+02  0.94925850500E+02  0.10000000000E+01 0.  0.
    9000005    1    3    3    0    0  0.21063316543E+02 -0.41349167940E+02 -0.44794423346E+03  0.45034259545E+03  0.10000000000E+01 0.  0.
<mgrwt>
<rscale>  0 0.12499602E+03</rscale>
<asrwt>0</asrwt>
<pdfrwt beam="2">  1        4 0.82770481E-01 0.12499602E+03</pdfrwt>
<pdfrwt beam="1">  1       -4 0.11169409E-02 0.12499602E+03</pdfrwt>
<totfact> 0.52520156E+03</totfact>
</mgrwt>
</event>
<event>
 5    1  0.3266594E-002  0.1250186E+03  0.7818608E-02  0.1235040E+00
          4   -1    0    0  501    0  0.00000000000E+00  0.00000000000E+00  0.16757080783E+03  0.16757562036E+03  0.12700000000E+01 0. -1.
         -4   -1    0    0    0  501 -0.00000000000E+00 -0.00000000000E+00 -0.23295549911E+02  0.23330142427E+02  0.12700000000E+01 0. -1.
         25    2    1    2    0    0  0.00000000000E+00  0.00000000000E+00  0.14427525792E+03  0.19090576278E+03  0.12501863947E+03 0.  0.
    9000005    1    3    3    0    0 -0.37147453110E+02  0.49767588560E+02  0.82899470313E+02  0.10358604308E+03  0.10000000000E+01 0.  0.
    9000005    1    3    3    0    0  0.37147453110E+02 -0.49767588560E+02  0.61375787609E+02  0.87319719699E+02  0.10000000000E+01 0.  0.
<mgrwt>
<rscale>  0 0.12501864E+03</rscale>
<asrwt>0</asrwt>
<pdfrwt beam="1">  1        4 0.25783157E-01 0.12501864E+03</pdfrwt>
<pdfrwt beam="2">  1       -4 0.35869618E-02 0.12501864E+03</pdfrwt>
<totfact> 0.91651683E+03</totfact>
</mgrwt>
</event>
<event>
 5    1  0.3266594E-002  0.1249984E+03  0.7818608E-02  0.1235072E+00
         -4   -1    0    0    0  501 -0.00000000000E+00  0.00000000000E+00  0.19078666930E+03  0.19079089623E+03  0.12700000000E+01 0.  1.
          4   -1    0    0  501    0  0.00000000000E+00 -0.00000000000E+00 -0.20449746907E+02  0.20489144652E+02  0.12700000000E+01 0.  1.
         25    2    1    2    0    0  0.00000000000E+00  0.00000000000E+00  0.17033692239E+03  0.21128004088E+03  0.12499835416E+03 0.  0.
    9000005    1    3    3    0    0  0.26589523800E+02 -0.54513570601E+02  0.11060199792E+03  0.12614489327E+03  0.10000000000E+01 0.  0.
    9000005    1    3    3    0    0 -0.26589523800E+02  0.54513570601E+02  0.59734924475E+02  0.85135147604E+02  0.10000000000E+01 0.  0.
<mgrwt>
<rscale>  0 0.12499835E+03</rscale>
<asrwt>0</asrwt>
<pdfrwt beam="2">  1        4 0.31494708E-02 0.12499835E+03</pdfrwt>
<pdfrwt beam="1">  1       -4 0.29355150E-01 0.12499835E+03</pdfrwt>
<totfact> 0.88270507E+03</totfact>
</mgrwt>
</event>
<event>
 5    1  0.3266594E-002  0.1249930E+03  0.7818608E-02  0.1235080E+00
          4   -1    0    0  501    0  0.00000000000E+00  0.00000000000E+00  0.13506555130E+03  0.13507152198E+03  0.12700000000E+01 0. -1.
         -4   -1    0    0    0  501 -0.00000000000E+00 -0.00000000000E+00 -0.28897351802E+02  0.28925245741E+02  0.12700000000E+01 0. -1.
         25    2    1    2    0    0  0.00000000000E+00  0.00000000000E+00  0.10616819950E+03  0.16399676772E+03  0.12499301275E+03 0.  0.
    9000005    1    3    3    0    0  0.47161879354E+02 -0.25114566397E+02  0.10572364260E+02  0.54477143791E+02  0.10000000000E+01 0.  0.
    9000005    1    3    3    0    0 -0.47161879354E+02  0.25114566397E+02  0.95595835242E+02  0.10951962393E+03  0.10000000000E+01 0.  0.
<mgrwt>
<rscale>  0 0.12499301E+03</rscale>
<asrwt>0</asrwt>
<pdfrwt beam="1">  1        4 0.20781921E-01 0.12499301E+03</pdfrwt>
<pdfrwt beam="2">  1       -4 0.44483514E-02 0.12499301E+03</pdfrwt>
<totfact> 0.96592889E+03</totfact>
</mgrwt>
</event>
<event>
 5    1  0.3266594E-002  0.1250007E+03  0.7818608E-02  0.1235068E+00
         -4   -1    0    0    0  501 -0.00000000000E+00  0.00000000000E+00  0.50677047317E+02  0.50692958335E+02  0.12700000000E+01 0.  1.
          4   -1    0    0  501    0  0.00000000000E+00 -0.00000000000E+00 -0.77048844136E+02  0.77059310163E+02  0.12700000000E+01 0.  1.
         25    2    1    2    0    0  0.00000000000E+00  0.00000000000E+00 -0.26371796819E+02  0.12775226850E+03  0.12500068175E+03 0.  0.
    9000005    1    3    3    0    0 -0.60609825799E+02  0.11228782384E+02 -0.23691077740E+02  0.66044709869E+02  0.10000000000E+01 0.  0.
    9000005    1    3    3    0    0  0.60609825799E+02 -0.11228782384E+02 -0.26807190792E+01  0.61707558629E+02  0.10000000000E+01 0.  0.
<mgrwt>
<rscale>  0 0.12500068E+03</rscale>
<asrwt>0</asrwt>
<pdfrwt beam="2">  1        4 0.11855697E-01 0.12500068E+03</pdfrwt>
<pdfrwt beam="1">  1       -4 0.77984977E-02 0.12500068E+03</pdfrwt>
<totfact> 0.10392681E+04</totfact>
</mgrwt>
</event>
<event>
 5    1  0.3266594E-002  0.1250352E+03  0.7818608E-02  0.1235014E+00
         -4   -1    0    0    0  501 -0.00000000000E+00  0.00000000000E+00  0.12809548516E+02  0.12872351501E+02  0.12700000000E+01 0.  1.
          4   -1    0    0  501    0  0.00000000000E+00 -0.00000000000E+00 -0.30430966869E+03  0.30431231878E+03  0.12700000000E+01 0.  1.
         25    2    1    2    0    0  0.00000000000E+00  0.00000000000E+00 -0.29150012017E+03  0.31718467028E+03  0.12503517504E+03 0.  0.
    9000005    1    3    3    0    0 -0.22502241418E+02  0.51208526647E+02 -0.21654279369E+03  0.22365251076E+03  0.10000000000E+01 0.  0.
    9000005    1    3    3    0    0  0.22502241418E+02 -0.51208526647E+02 -0.74957326489E+02  0.93532159520E+02  0.10000000000E+01 0.  0.
<mgrwt>
<rscale>  0 0.12503518E+03</rscale>
<asrwt>0</asrwt>
<pdfrwt beam="2">  1        4 0.46821902E-01 0.12503518E+03</pdfrwt>
<pdfrwt beam="1">  1       -4 0.19757348E-02 0.12503518E+03</pdfrwt>
<totfact> 0.73434945E+03</totfact>
</mgrwt>
</event>
<event>
 5    1  0.3266594E-002  0.1250048E+03  0.7818608E-02  0.1235062E+00
         -4   -1    0    0    0  501 -0.00000000000E+00  0.00000000000E+00  0.44251352801E+02  0.44269573352E+02  0.12700000000E+01 0. -1.
          4   -1    0    0  501    0  0.00000000000E+00 -0.00000000000E+00 -0.88239952522E+02  0.88249091333E+02  0.12700000000E+01 0. -1.
         25    2    1    2    0    0  0.00000000000E+00  0.00000000000E+00 -0.43988599720E+02  0.13251866468E+03  0.12500479825E+03 0.  0.
    9000005    1    3    3    0    0 -0.10529374938E+02 -0.19585007087E+02  0.39921032427E+02  0.45706991470E+02  0.10000000000E+01 0.  0.
    9000005    1    3    3    0    0  0.10529374938E+02  0.19585007087E+02 -0.83909632148E+02  0.86811673215E+02  0.10000000000E+01 0.  0.
<mgrwt>
<rscale>  0 0.12500480E+03</rscale>
<asrwt>0</asrwt>
<pdfrwt beam="2">  1        4 0.13577482E-01 0.12500480E+03</pdfrwt>
<pdfrwt beam="1">  1       -4 0.68100050E-02 0.12500480E+03</pdfrwt>
<totfact> 0.10289526E+04</totfact>
</mgrwt>
</event>
<event>
 5    1  0.3266594E-002  0.1249875E+03  0.7818608E-02  0.1235089E+00
         -4   -1    0    0    0  501 -0.00000000000E+00  0.00000000000E+00  0.77303557346E+01  0.78339836472E+01  0.12700000000E+01 0.  1.
          4   -1    0    0  501    0  0.00000000000E+00 -0.00000000000E+00 -0.50174370563E+03  0.50174531292E+03  0.12700000000E+01 0.  1.
         25    2    1    2    0    0  0.00000000000E+00  0.00000000000E+00 -0.49401334990E+03  0.50957929657E+03  0.12498747784E+03 0.  0.
    9000005    1    3    3    0    0 -0.62285195612E+01  0.33452174744E+02 -0.33335985554E+02  0.47645885278E+02  0.10000000000E+01 0.  0.
    9000005    1    3    3    0    0  0.62285195612E+01 -0.33452174744E+02 -0.46067736434E+03  0.46193341129E+03  0.10000000000E+01 0.  0.
<mgrwt>
<rscale>  0 0.12498748E+03</rscale>
<asrwt>0</asrwt>
<pdfrwt beam="2">  1        4 0.77199409E-01 0.12498748E+03</pdfrwt>
<pdfrwt beam="1">  1       -4 0.11973809E-02 0.12498748E+03</pdfrwt>
<totfact> 0.55143905E+03</totfact>
</mgrwt>
</event>
<event>
 5    1  0.3266594E-002  0.1250289E+03  0.7818608E-02  0.1235024E+00
         -4   -1    0    0    0  501 -0.00000000000E+00  0.00000000000E+00  0.80940588879E+02  0.80950551746E+02  0.12700000000E+01 0.  1.
          4   -1    0    0  501    0  0.00000000000E+00 -0.00000000000E+00 -0.48261703263E+02  0.48278410308E+02  0.12700000000E+01 0.  1.
         25    2    1    2    0    0  0.00000000000E+00  0.00000000000E+00  0.32678885615E+02  0.12922896205E+03  0.12502885694E+03 0.  0.
    9000005    1    3    3    0    0 -0.47066644466E+02  0.15351256069E+02  0.55780516415E+02  0.74588176648E+02  0.10000000000E+01 0.  0.
    9000005    1    3    3    0    0  0.47066644466E+02 -0.15351256069E+02 -0.23101630800E+02  0.54640785406E+02  0.10000000000E+01 0.  0.
<mgrwt>
<rscale>  0 0.12502886E+03</rscale>
<asrwt>0</asrwt>
<pdfrwt beam="2">  1        4 0.74269289E-02 0.12502886E+03</pdfrwt>
<pdfrwt beam="1">  1       -4 0.12454450E-01 0.12502886E+03</pdfrwt>
<totfact> 0.10354283E+04</totfact>
</mgrwt>
</event>
<event>
 5    1  0.3266594E-002  0.1250048E+03  0.7818608E-02  0.1235062E+00
          4   -1    0    0  501    0  0.00000000000E+00  0.00000000000E+00  0.58140569130E+01  0.59511476025E+01  0.12700000000E+01 0. -1.
         -4   -1    0    0    0  501 -0.00000000000E+00 -0.00000000000E+00 -0.66394729347E+03  0.66394850810E+03  0.12700000000E+01 0. -1.
         25    2    1    2    0    0  0.00000000000E+00  0.00000000000E+00 -0.65813323656E+03  0.66989965570E+03  0.12500476650E+03 0.  0.
    9000005    1    3    3    0    0 -0.40944074791E+01  0.33606014387E+02 -0.47557770809E+02  0.58385528515E+02  0.10000000000E+01 0.  0.
    9000005    1    3    3    0    0  0.40944074791E+01 -0.33606014387E+02 -0.61057546575E+03  0.61151412719E+03  0.10000000000E+01 0.  0.
<mgrwt>
<rscale>  0 0.12500477E+03</rscale>
<asrwt>0</asrwt>
<pdfrwt beam="1">  1        4 0.90510969E-03 0.12500477E+03</pdfrwt>
<pdfrwt beam="2">  1       -4 0.10215632E+00 0.12500477E+03</pdfrwt>
<totfact> 0.44719326E+03</totfact>
</mgrwt>
</event>
<event>
 5    1  0.3266594E-002  0.1249853E+03  0.7818608E-02  0.1235092E+00
         -4   -1    0    0    0  501 -0.00000000000E+00  0.00000000000E+00  0.70732631799E+03  0.70732745813E+03  0.12700000000E+01 0.  1.
          4   -1    0    0  501    0  0.00000000000E+00 -0.00000000000E+00 -0.54470680219E+01  0.55931610057E+01  0.12700000000E+01 0.  1.
         25    2    1    2    0    0  0.00000000000E+00  0.00000000000E+00  0.70187924997E+03  0.71292061914E+03  0.12498530974E+03 0.  0.
    9000005    1    3    3    0    0 -0.13359183855E+02 -0.51177528014E+02  0.16118078576E+03  0.16964036331E+03  0.10000000000E+01 0.  0.
    9000005    1    3    3    0    0  0.13359183855E+02  0.51177528014E+02  0.54069846421E+03  0.54328025583E+03  0.10000000000E+01 0.  0.
<mgrwt>
<rscale>  0 0.12498531E+03</rscale>
<asrwt>0</asrwt>
<pdfrwt beam="2">  1        4 0.84933600E-03 0.12498531E+03</pdfrwt>
<pdfrwt beam="1">  1       -4 0.10883077E+00 0.12498531E+03</pdfrwt>
<totfact> 0.42426983E+03</totfact>
</mgrwt>
</event>
<event>
 5    1  0.3266594E-002  0.1250024E+03  0.7818608E-02  0.1235066E+00
          4   -1    0    0  501    0  0.00000000000E+00  0.00000000000E+00  0.23237888416E+02  0.23272566641E+02  0.12700000000E+01 0.  1.
         -4   -1    0    0    0  501 -0.00000000000E+00 -0.00000000000E+00 -0.16794224389E+03  0.16794704577E+03  0.12700000000E+01 0.  1.
         25    2    1    2    0    0  0.00000000000E+00  0.00000000000E+00 -0.14470435547E+03  0.19121961241E+03  0.12500235869E+03 0.  0.
    9000005    1    3    3    0    0 -0.45134572778E+02 -0.38810857200E+02 -0.10145664047E+03  0.11763444305E+03  0.10000000000E+01 0.  0.
    9000005    1    3    3    0    0  0.45134572778E+02  0.38810857200E+02 -0.43247715002E+02  0.73585169357E+02  0.10000000000E+01 0.  0.
<mgrwt>
<rscale>  0 0.12500236E+03</rscale>
<asrwt>0</asrwt>
<pdfrwt beam="1">  1        4 0.35780968E-02 0.12500236E+03</pdfrwt>
<pdfrwt beam="2">  1       -4 0.25840304E-01 0.12500236E+03</pdfrwt>
<totfact> 0.91630698E+03</totfact>
</mgrwt>
</event>
<event>
 5    1  0.3266594E-002  0.1249970E+03  0.7818608E-02  0.1235074E+00
         -4   -1    0    0    0  501 -0.00000000000E+00  0.00000000000E+00  0.39494440086E+02  0.39514854140E+02  0.12700000000E+01 0. -1.
          4   -1    0    0  501    0  0.00000000000E+00 -0.00000000000E+00 -0.98851521937E+02  0.98859679795E+02  0.12700000000E+01 0. -1.
         25    2    1    2    0    0  0.00000000000E+00  0.00000000000E+00 -0.59357081851E+02  0.13837453394E+03  0.12499699387E+03 0.  0.
    9000005    1    3    3    0    0  0.21753247894E+02  0.78551414757E+01 -0.93944581708E+02  0.96754800780E+02  0.10000000000E+01 0.  0.
    9000005    1    3    3    0    0 -0.21753247894E+02 -0.78551414757E+01  0.34587499858E+02  0.41619733156E+02  0.10000000000E+01 0.  0.
<mgrwt>
<rscale>  0 0.12499699E+03</rscale>
<asrwt>0</asrwt>
<pdfrwt beam="2">  1        4 0.15210124E-01 0.12499699E+03</pdfrwt>
<pdfrwt beam="1">  1       -4 0.60782656E-02 0.12499699E+03</pdfrwt>
<totfact> 0.10168075E+04</totfact>
</mgrwt>
</event>
<event>
 5    1  0.3266594E-002  0.1249987E+03  0.7818608E-02  0.1235071E+00
          4   -1    0    0  501    0  0.00000000000E+00  0.00000000000E+00  0.74864995584E+03  0.74865103305E+03  0.12700000000E+01 0.  1.
         -4   -1    0    0    0  501 -0.00000000000E+00 -0.00000000000E+00 -0.51392349640E+01  0.52938299949E+01  0.12700000000E+01 0.  1.
         25    2    1    2    0    0  0.00000000000E+00  0.00000000000E+00  0.74351072088E+03  0.75394486304E+03  0.12499865778E+03 0.  0.
    9000005    1    3    3    0    0  0.32645978050E+02  0.50793841485E+02  0.27461215301E+03  0.28117362749E+03  0.10000000000E+01 0.  0.
    9000005    1    3    3    0    0 -0.32645978050E+02 -0.50793841485E+02  0.46889856786E+03  0.47277123555E+03  0.10000000000E+01 0.  0.
<mgrwt>
<rscale>  0 0.12499866E+03</rscale>
<asrwt>0</asrwt>
<pdfrwt beam="1">  1        4 0.11518889E+00 0.12499866E+03</pdfrwt>
<pdfrwt beam="2">  1       -4 0.80262632E-03 0.12499866E+03</pdfrwt>
<totfact> 0.40387345E+03</totfact>
</mgrwt>
</event>
<event>
 5    1  0.3266594E-002  0.1250021E+03  0.7818608E-02  0.1235066E+00
         -4   -1    0    0    0  501 -0.00000000000E+00  0.00000000000E+00  0.22924305713E+02  0.22959457581E+02  0.12700000000E+01 0.  1.
          4   -1    0    0  501    0  0.00000000000E+00 -0.00000000000E+00 -0.17023538907E+03  0.17024012627E+03  0.12700000000E+01 0.  1.
         25    2    1    2    0    0  0.00000000000E+00  0.00000000000E+00 -0.14731108336E+03  0.19319958385E+03  0.12500209566E+03 0.  0.
    9000005    1    3    3    0    0 -0.52506023449E+02 -0.33885602815E+02 -0.74450276772E+02  0.97205762627E+02  0.10000000000E+01 0.  0.
    9000005    1    3    3    0    0  0.52506023449E+02  0.33885602815E+02 -0.72860806586E+02  0.95993821222E+02  0.10000000000E+01 0.  0.
<mgrwt>
<rscale>  0 0.12500210E+03</rscale>
<asrwt>0</asrwt>
<pdfrwt beam="2">  1        4 0.26193127E-01 0.12500210E+03</pdfrwt>
<pdfrwt beam="1">  1       -4 0.35298848E-02 0.12500210E+03</pdfrwt>
<totfact> 0.91289275E+03</totfact>
</mgrwt>
</event>
<event>
 5    1  0.3266594E-002  0.1249996E+03  0.7818608E-02  0.1235070E+00
         -4   -1    0    0    0  501 -0.00000000000E+00  0.00000000000E+00  0.13158476259E+03  0.13159089119E+03  0.12700000000E+01 0. -1.
          4   -1    0    0  501    0  0.00000000000E+00 -0.00000000000E+00 -0.29665584937E+02  0.29692757192E+02  0.12700000000E+01 0. -1.
         25    2    1    2    0    0  0.00000000000E+00  0.00000000000E+00  0.10191917765E+03  0.16128364838E+03  0.12499958585E+03 0.  0.
    9000005    1    3    3    0    0  0.22041201327E+02  0.48746345844E+02  0.92854871864E+01  0.54306915410E+02  0.10000000000E+01 0.  0.
    9000005    1    3    3    0    0 -0.22041201327E+02 -0.48746345844E+02  0.92633690463E+02  0.10697673297E+03  0.10000000000E+01 0.  0.
<mgrwt>
<rscale>  0 0.12499959E+03</rscale>
<asrwt>0</asrwt>
<pdfrwt beam="2">  1        4 0.45664977E-02 0.12499959E+03</pdfrwt>
<pdfrwt beam="1">  1       -4 0.20246371E-01 0.12499959E+03</pdfrwt>
<totfact> 0.97096781E+03</totfact>
</mgrwt>
</event>
<event>
 5    1  0.3266594E-002  0.1249986E+03  0.7818608E-02  0.1235071E+00
          4   -1    0    0  501    0  0.00000000000E+00  0.00000000000E+00  0.58636497773E+02  0.58650249540E+02  0.12700000000E+01 0. -1.
         -4   -1    0    0    0  501 -0.00000000000E+00 -0.00000000000E+00 -0.66588942979E+02  0.66601052747E+02  0.12700000000E+01 0. -1.
         25    2    1    2    0    0  0.00000000000E+00  0.00000000000E+00 -0.79524452060E+01  0.12525130229E+03  0.12499858935E+03 0.  0.
    9000005    1    3    3    0    0 -0.44278123825E+02 -0.72322486870E+01  0.39612346325E+02  0.59858129372E+02  0.10000000000E+01 0.  0.
    9000005    1    3    3    0    0  0.44278123825E+02  0.72322486870E+01 -0.47564791531E+02  0.65393172915E+02  0.10000000000E+01 0.  0.
<mgrwt>
<rscale>  0 0.12499859E+03</rscale>
<asrwt>0</asrwt>
<pdfrwt beam="1">  1        4 0.90229890E-02 0.12499859E+03</pdfrwt>
<pdfrwt beam="2">  1       -4 0.10246442E-01 0.12499859E+03</pdfrwt>
<totfact> 0.10447740E+04</totfact>
</mgrwt>
</event>
<event>
 5    1  0.3266594E-002  0.1250045E+03  0.7818608E-02  0.1235062E+00
          4   -1    0    0  501    0  0.00000000000E+00  0.00000000000E+00  0.13929248045E+03  0.13929826994E+03  0.12700000000E+01 0.  1.
         -4   -1    0    0    0  501 -0.00000000000E+00 -0.00000000000E+00 -0.28024789582E+02  0.28053551132E+02  0.12700000000E+01 0.  1.
         25    2    1    2    0    0  0.00000000000E+00  0.00000000000E+00  0.11126769087E+03  0.16735182108E+03  0.12500453187E+03 0.  0.
    9000005    1    3    3    0    0 -0.17121125104E+02  0.37982642277E+02  0.11799389495E+03  0.12513741760E+03  0.10000000000E+01 0.  0.
    9000005    1    3    3    0    0  0.17121125104E+02 -0.37982642277E+02 -0.67262040837E+01  0.42214403473E+02  0.10000000000E+01 0.  0.
<mgrwt>
<rscale>  0 0.12500453E+03</rscale>
<asrwt>0</asrwt>
<pdfrwt beam="1">  1        4 0.21432270E-01 0.12500453E+03</pdfrwt>
<pdfrwt beam="2">  1       -4 0.43141639E-02 0.12500453E+03</pdfrwt>
<totfact> 0.95934075E+03</totfact>
</mgrwt>
</event>
<event>
 5    1  0.3266594E-002  0.1249992E+03  0.7818608E-02  0.1235071E+00
          4   -1    0    0  501    0  0.00000000000E+00  0.00000000000E+00  0.10074549963E+02  0.10154282691E+02  0.12700000000E+01 0.  1.
         -4   -1    0    0    0  501 -0.00000000000E+00 -0.00000000000E+00 -0.38612029273E+03  0.38612238132E+03  0.12700000000E+01 0.  1.
         25    2    1    2    0    0  0.00000000000E+00  0.00000000000E+00 -0.37604574276E+03  0.39627666401E+03  0.12499917515E+03 0.  0.
    9000005    1    3    3    0    0 -0.63969609423E+01  0.25082232732E+02 -0.36834090472E+03  0.36925067582E+03  0.10000000000E+01 0.  0.
    9000005    1    3    3    0    0  0.63969609423E+01 -0.25082232732E+02 -0.77048380467E+01  0.27025988186E+02  0.10000000000E+01 0.  0.
<mgrwt>
<rscale>  0 0.12499918E+03</rscale>
<asrwt>0</asrwt>
<pdfrwt beam="1">  1        4 0.15562250E-02 0.12499918E+03</pdfrwt>
<pdfrwt beam="2">  1       -4 0.59409405E-01 0.12499918E+03</pdfrwt>
<totfact> 0.64917722E+03</totfact>
</mgrwt>
</event>
<event>
 5    1  0.3266594E-002  0.1249970E+03  0.7818608E-02  0.1235074E+00
          4   -1    0    0  501    0  0.00000000000E+00  0.00000000000E+00  0.23465784477E+03  0.23466128145E+03  0.12700000000E+01 0.  1.
         -4   -1    0    0    0  501 -0.00000000000E+00 -0.00000000000E+00 -0.16617987540E+02  0.16666445628E+02  0.12700000000E+01 0.  1.
         25    2    1    2    0    0  0.00000000000E+00  0.00000000000E+00  0.21803985723E+03  0.25132772707E+03  0.12499698819E+03 0.  0.
    9000005    1    3    3    0    0  0.54541879828E+02  0.30499202483E+02  0.10944052392E+03  0.12602875181E+03  0.10000000000E+01 0.  0.
    9000005    1    3    3    0    0 -0.54541879828E+02 -0.30499202483E+02  0.10859933331E+03  0.12529897526E+03  0.10000000000E+01 0.  0.
<mgrwt>
<rscale>  0 0.12499699E+03</rscale>
<asrwt>0</asrwt>
<pdfrwt beam="1">  1        4 0.36105195E-01 0.12499699E+03</pdfrwt>
<pdfrwt beam="2">  1       -4 0.25606056E-02 0.12499699E+03</pdfrwt>
<totfact> 0.82144220E+03</totfact>
</mgrwt>
</event>
<event>
 5    1  0.3266594E-002  0.1249999E+03  0.7818608E-02  0.1235069E+00
         -4   -1    0    0    0  501 -0.00000000000E+00  0.00000000000E+00  0.95215630127E+01  0.96058868516E+01  0.12700000000E+01 0. -1.
          4   -1    0    0  501    0  0.00000000000E+00 -0.00000000000E+00 -0.40835865625E+03  0.40836063110E+03  0.12700000000E+01 0. -1.
         25    2    1    2    0    0  0.00000000000E+00  0.00000000000E+00 -0.39883709324E+03  0.41796651795E+03  0.12499993275E+03 0.  0.
    9000005    1    3    3    0    0  0.35836548964E+02  0.35165345445E+02 -0.75007106105E+02  0.90265861366E+02  0.10000000000E+01 0.  0.
    9000005    1    3    3    0    0 -0.35836548964E+02 -0.35165345445E+02 -0.32382998713E+03  0.32770065659E+03  0.10000000000E+01 0.  0.
<mgrwt>
<rscale>  0 0.12499993E+03</rscale>
<asrwt>0</asrwt>
<pdfrwt beam="2">  1        4 0.62831033E-01 0.12499993E+03</pdfrwt>
<pdfrwt beam="1">  1       -4 0.14714945E-02 0.12499993E+03</pdfrwt>
<totfact> 0.62842208E+03</totfact>
</mgrwt>
</event>
<event>
 5    1  0.3266594E-002  0.1250044E+03  0.7818608E-02  0.1235062E+00
         -4   -1    0    0    0  501 -0.00000000000E+00  0.00000000000E+00  0.45108603583E+03  0.45108782362E+03  0.12700000000E+01 0. -1.
          4   -1    0    0  501    0  0.00000000000E+00 -0.00000000000E+00 -0.86118866329E+01  0.87050267879E+01  0.12700000000E+01 0. -1.
         25    2    1    2    0    0  0.00000000000E+00  0.00000000000E+00  0.44247414920E+03  0.45979285041E+03  0.12500437025E+03 0.  0.
    9000005    1    3    3    0    0 -0.18243449353E+02 -0.25225926632E+02  0.21921562604E+02  0.38088393583E+02  0.10000000000E+01 0.  0.
    9000005    1    3    3    0    0  0.18243449353E+02  0.25225926632E+02  0.42055258659E+03  0.42170445683E+03  0.10000000000E+01 0.  0.
<mgrwt>
<rscale>  0 0.12500437E+03</rscale>
<asrwt>0</asrwt>
<pdfrwt beam="2">  1        4 0.13322074E-02 0.12500437E+03</pdfrwt>
<pdfrwt beam="1">  1       -4 0.69405174E-01 0.12500437E+03</pdfrwt>
<totfact> 0.59119029E+03</totfact>
</mgrwt>
</event>
<event>
 5    1  0.3266594E-002  0.1249995E+03  0.7818608E-02  0.1235070E+00
         -4   -1    0    0    0  501 -0.00000000000E+00  0.00000000000E+00  0.60924437542E+01  0.62234050887E+01  0.12700000000E+01 0. -1.
          4   -1    0    0  501    0  0.00000000000E+00 -0.00000000000E+00 -0.63420892192E+03  0.63421019350E+03  0.12700000000E+01 0. -1.
         25    2    1    2    0    0  0.00000000000E+00  0.00000000000E+00 -0.62811647816E+03  0.64043359859E+03  0.12499953624E+03 0.  0.
    9000005    1    3    3    0    0 -0.61105872505E+02  0.69948848366E+01 -0.37073359018E+03  0.37580214337E+03  0.10000000000E+01 0.  0.
    9000005    1    3    3    0    0  0.61105872505E+02 -0.69948848366E+01 -0.25738288798E+03  0.26463145522E+03  0.10000000000E+01 0.  0.
<mgrwt>
<rscale>  0 0.12499954E+03</rscale>
<asrwt>0</asrwt>
<pdfrwt beam="2">  1        4 0.97580724E-01 0.12499954E+03</pdfrwt>
<pdfrwt beam="1">  1       -4 0.94747130E-03 0.12499954E+03</pdfrwt>
<totfact> 0.46411332E+03</totfact>
</mgrwt>
</event>
<event>
 5    1  0.3266594E-002  0.1250023E+03  0.7818608E-02  0.1235066E+00
          4   -1    0    0  501    0  0.00000000000E+00  0.00000000000E+00  0.50731032744E+01  0.52296536054E+01  0.12700000000E+01 0.  1.
         -4   -1    0    0    0  501 -0.00000000000E+00 -0.00000000000E+00 -0.75816279366E+03  0.75816385735E+03  0.12700000000E+01 0.  1.
         25    2    1    2    0    0  0.00000000000E+00  0.00000000000E+00 -0.75308969039E+03  0.76339351096E+03  0.12500228319E+03 0.  0.
    9000005    1    3    3    0    0 -0.15534866860E+02 -0.30961968222E+02 -0.58895739676E+02  0.68335084082E+02  0.10000000000E+01 0.  0.
    9000005    1    3    3    0    0  0.15534866860E+02  0.30961968222E+02 -0.69419395071E+03  0.69505842687E+03  0.10000000000E+01 0.  0.
<mgrwt>
<rscale>  0 0.12500228E+03</rscale>
<asrwt>0</asrwt>
<pdfrwt beam="1">  1        4 0.79260219E-03 0.12500228E+03</pdfrwt>
<pdfrwt beam="2">  1       -4 0.11665247E+00 0.12500228E+03</pdfrwt>
<totfact> 0.39939606E+03</totfact>
</mgrwt>
</event>
<event>
 5    1  0.3266594E-002  0.1249929E+03  0.7818608E-02  0.1235080E+00
         -4   -1    0    0    0  501 -0.00000000000E+00  0.00000000000E+00  0.98119647883E+02  0.98127866585E+02  0.12700000000E+01 0. -1.
          4   -1    0    0  501    0  0.00000000000E+00 -0.00000000000E+00 -0.39786519092E+02  0.39806783360E+02  0.12700000000E+01 0. -1.
         25    2    1    2    0    0  0.00000000000E+00  0.00000000000E+00  0.58333128791E+02  0.13793464994E+03  0.12499285476E+03 0.  0.
    9000005    1    3    3    0    0 -0.58501441367E+02  0.20684280706E+02  0.21016388976E+02  0.65520582384E+02  0.10000000000E+01 0.  0.
    9000005    1    3    3    0    0  0.58501441367E+02 -0.20684280706E+02  0.37316739815E+02  0.72414067561E+02  0.10000000000E+01 0.  0.
<mgrwt>
<rscale>  0 0.12499285E+03</rscale>
<asrwt>0</asrwt>
<pdfrwt beam="2">  1        4 0.61231940E-02 0.12499285E+03</pdfrwt>
<pdfrwt beam="1">  1       -4 0.15097521E-01 0.12499285E+03</pdfrwt>
<totfact> 0.10178210E+04</totfact>
</mgrwt>
</event>
<event>
 5    1  0.3266594E-002  0.1249997E+03  0.7818608E-02  0.1235070E+00
         -4   -1    0    0    0  501 -0.00000000000E+00  0.00000000000E+00  0.47296933861E+02  0.47313981577E+02  0.12700000000E+01 0.  1.
          4   -1    0    0  501    0  0.00000000000E+00 -0.00000000000E+00 -0.82552700974E+02  0.82562469307E+02  0.12700000000E+01 0.  1.
         25    2    1    2    0    0  0.00000000000E+00  0.00000000000E+00 -0.35255767113E+02  0.12987645088E+03  0.12499969352E+03 0.  0.
    9000005    1    3    3    0    0  0.56354173847E+02 -0.11664136133E+02  0.76819950259E+01  0.58067702119E+02  0.10000000000E+01 0.  0.
    9000005    1    3    3    0    0 -0.56354173847E+02  0.11664136133E+02 -0.42937762139E+02  0.71808748765E+02  0.10000000000E+01 0.  0.
<mgrwt>
<rscale>  0 0.12499969E+03</rscale>
<asrwt>0</asrwt>
<pdfrwt beam="2">  1        4 0.12702478E-01 0.12499969E+03</pdfrwt>
<pdfrwt beam="1">  1       -4 0.72785141E-02 0.12499969E+03</pdfrwt>
<totfact> 0.10347223E+04</totfact>
</mgrwt>
</event>
<event>
 5    1  0.3266594E-002  0.1250011E+03  0.7818608E-02  0.1235068E+00
          4   -1    0    0  501    0  0.00000000000E+00  0.00000000000E+00  0.19014687350E+03  0.19015111465E+03  0.12700000000E+01 0.  1.
         -4   -1    0    0    0  501 -0.00000000000E+00 -0.00000000000E+00 -0.20519598858E+02  0.20558862743E+02  0.12700000000E+01 0.  1.
         25    2    1    2    0    0  0.00000000000E+00  0.00000000000E+00  0.16962727465E+03  0.21070997739E+03  0.12500112907E+03 0.  0.
    9000005    1    3    3    0    0  0.65329629440E+00  0.55540645255E+02  0.36539708550E+02  0.66493160343E+02  0.10000000000E+01 0.  0.
    9000005    1    3    3    0    0 -0.65329629440E+00 -0.55540645255E+02  0.13308756610E+03  0.14421681705E+03  0.10000000000E+01 0.  0.
<mgrwt>
<rscale>  0 0.12500113E+03</rscale>
<asrwt>0</asrwt>
<pdfrwt beam="1">  1        4 0.29256711E-01 0.12500113E+03</pdfrwt>
<pdfrwt beam="2">  1       -4 0.31602079E-02 0.12500113E+03</pdfrwt>
<totfact> 0.88357833E+03</totfact>
</mgrwt>
</event>
<event>
 5    1  0.3266594E-002  0.1249686E+03  0.7818608E-02  0.1235118E+00
         -4   -1    0    0    0  501 -0.00000000000E+00  0.00000000000E+00  0.43835800878E+03  0.43835984848E+03  0.12700000000E+01 0. -1.
          4   -1    0    0  501    0  0.00000000000E+00 -0.00000000000E+00 -0.88594752320E+01  0.89500391835E+01  0.12700000000E+01 0. -1.
         25    2    1    2    0    0  0.00000000000E+00  0.00000000000E+00  0.42949853355E+03  0.44730988767E+03  0.12496857719E+03 0.  0.
    9000005    1    3    3    0    0 -0.21597109434E+02 -0.55893334849E+02  0.15144521068E+03  0.16287158087E+03  0.10000000000E+01 0.  0.
    9000005    1    3    3    0    0  0.21597109434E+02  0.55893334849E+02  0.27805332287E+03  0.28443830680E+03  0.10000000000E+01 0.  0.
<mgrwt>
<rscale>  0 0.12496858E+03</rscale>
<asrwt>0</asrwt>
<pdfrwt beam="2">  1        4 0.13701038E-02 0.12496858E+03</pdfrwt>
<pdfrwt beam="1">  1       -4 0.67446817E-01 0.12496858E+03</pdfrwt>
<totfact> 0.60239228E+03</totfact>
</mgrwt>
</event>
<event>
 5    1  0.3266594E-002  0.1249941E+03  0.7818608E-02  0.1235079E+00
          4   -1    0    0  501    0  0.00000000000E+00  0.00000000000E+00  0.26283838942E+03  0.26284145764E+03  0.12700000000E+01 0. -1.
         -4   -1    0    0    0  501 -0.00000000000E+00 -0.00000000000E+00 -0.14830094230E+02  0.14884374185E+02  0.12700000000E+01 0. -1.
         25    2    1    2    0    0  0.00000000000E+00  0.00000000000E+00  0.24800829519E+03  0.27772583182E+03  0.12499409257E+03 0.  0.
    9000005    1    3    3    0    0 -0.21266033473E+02  0.21535502331E+02  0.24547707118E+03  0.24733785500E+03  0.10000000000E+01 0.  0.
    9000005    1    3    3    0    0  0.21266033473E+02 -0.21535502331E+02  0.25312240078E+01  0.30387976821E+02  0.10000000000E+01 0.  0.
<mgrwt>
<rscale>  0 0.12499409E+03</rscale>
<asrwt>0</asrwt>
<pdfrwt beam="1">  1        4 0.40441087E-01 0.12499409E+03</pdfrwt>
<pdfrwt beam="2">  1       -4 0.22859643E-02 0.12499409E+03</pdfrwt>
<totfact> 0.78490919E+03</totfact>
</mgrwt>
</event>
<event>
 5    1  0.3266594E-002  0.1250041E+03  0.7818608E-02  0.1235063E+00
          4   -1    0    0  501    0  0.00000000000E+00  0.00000000000E+00  0.92401723862E+03  0.92401811138E+03  0.12700000000E+01 0. -1.
         -4   -1    0    0    0  501 -0.00000000000E+00 -0.00000000000E+00 -0.41314714271E+01  0.43222628510E+01  0.12700000000E+01 0. -1.
         25    2    1    2    0    0  0.00000000000E+00  0.00000000000E+00  0.91988576719E+03  0.92834037423E+03  0.12500410294E+03 0.  0.
    9000005    1    3    3    0    0  0.48399800285E+02 -0.23969347017E+02  0.22645879685E+03  0.23281249308E+03  0.10000000000E+01 0.  0.
    9000005    1    3    3    0    0 -0.48399800285E+02  0.23969347017E+02  0.69342697034E+03  0.69552788115E+03  0.10000000000E+01 0.  0.
<mgrwt>
<rscale>  0 0.12500410E+03</rscale>
<asrwt>0</asrwt>
<pdfrwt beam="1">  1        4 0.14217133E+00 0.12500410E+03</pdfrwt>
<pdfrwt beam="2">  1       -4 0.65035399E-03 0.12500410E+03</pdfrwt>
<totfact> 0.33094683E+03</totfact>
</mgrwt>
</event>
<event>
 5    1  0.3266594E-002  0.1249996E+03  0.7818608E-02  0.1235070E+00
          4   -1    0    0  501    0  0.00000000000E+00  0.00000000000E+00  0.22539444085E+02  0.22575195230E+02  0.12700000000E+01 0.  1.
         -4   -1    0    0    0  501 -0.00000000000E+00 -0.00000000000E+00 -0.17313082994E+03  0.17313548791E+03  0.12700000000E+01 0.  1.
         25    2    1    2    0    0  0.00000000000E+00  0.00000000000E+00 -0.15059138585E+03  0.19571068314E+03  0.12499962401E+03 0.  0.
    9000005    1    3    3    0    0 -0.80327421633E+01  0.30597996846E+02 -0.15967555979E+03  0.16278220650E+03  0.10000000000E+01 0.  0.
    9000005    1    3    3    0    0  0.80327421633E+01 -0.30597996846E+02  0.90841739423E+01  0.32928476641E+02  0.10000000000E+01 0.  0.
<mgrwt>
<rscale>  0 0.12499962E+03</rscale>
<asrwt>0</asrwt>
<pdfrwt beam="1">  1        4 0.34707153E-02 0.12499962E+03</pdfrwt>
<pdfrwt beam="2">  1       -4 0.26638620E-01 0.12499962E+03</pdfrwt>
<totfact> 0.90863825E+03</totfact>
</mgrwt>
</event>
<event>
 5    1  0.3266594E-002  0.1250009E+03  0.7818608E-02  0.1235068E+00
          4   -1    0    0  501    0  0.00000000000E+00  0.00000000000E+00  0.43629195445E+03  0.43629380287E+03  0.12700000000E+01 0.  1.
         -4   -1    0    0    0  501 -0.00000000000E+00 -0.00000000000E+00 -0.89065100481E+01  0.89966005378E+01  0.12700000000E+01 0.  1.
         25    2    1    2    0    0  0.00000000000E+00  0.00000000000E+00  0.42738544441E+03  0.44529040341E+03  0.12500090110E+03 0.  0.
    9000005    1    3    3    0    0  0.59695912621E+02 -0.11918597563E+02  0.26402728913E+03  0.27095583470E+03  0.10000000000E+01 0.  0.
    9000005    1    3    3    0    0 -0.59695912621E+02  0.11918597563E+02  0.16335815527E+03  0.17433456870E+03  0.10000000000E+01 0.  0.
<mgrwt>
<rscale>  0 0.12500090E+03</rscale>
<asrwt>0</asrwt>
<pdfrwt beam="1">  1        4 0.67128903E-01 0.12500090E+03</pdfrwt>
<pdfrwt beam="2">  1       -4 0.13773047E-02 0.12500090E+03</pdfrwt>
<totfact> 0.60372773E+03</totfact>
</mgrwt>
</event>
<event>
 5    1  0.3266594E-002  0.1250050E+03  0.7818608E-02  0.1235061E+00
          4   -1    0    0  501    0  0.00000000000E+00  0.00000000000E+00  0.40829235352E+02  0.40848982355E+02  0.12700000000E+01 0. -1.
         -4   -1    0    0    0  501 -0.00000000000E+00 -0.00000000000E+00 -0.95633392733E+02  0.95641825085E+02  0.12700000000E+01 0. -1.
         25    2    1    2    0    0  0.00000000000E+00  0.00000000000E+00 -0.54804157380E+02  0.13649080744E+03  0.12500497930E+03 0.  0.
    9000005    1    3    3    0    0 -0.23081781791E+02 -0.83945177608E+01 -0.90148068189E+02  0.93439342770E+02  0.10000000000E+01 0.  0.
    9000005    1    3    3    0    0  0.23081781791E+02  0.83945177608E+01  0.35343910808E+02  0.43051464671E+02  0.10000000000E+01 0.  0.
<mgrwt>
<rscale>  0 0.12500498E+03</rscale>
<asrwt>0</asrwt>
<pdfrwt beam="1">  1        4 0.62835885E-02 0.12500498E+03</pdfrwt>
<pdfrwt beam="2">  1       -4 0.14714997E-01 0.12500498E+03</pdfrwt>
<totfact> 0.10205597E+04</totfact>
</mgrwt>
</event>
<event>
 5    1  0.3266594E-002  0.1250165E+03  0.7818608E-02  0.1235043E+00
          4   -1    0    0  501    0  0.00000000000E+00  0.00000000000E+00  0.12992725975E+03  0.12993346654E+03  0.12700000000E+01 0. -1.
         -4   -1    0    0    0  501 -0.00000000000E+00 -0.00000000000E+00 -0.30052512243E+02  0.30079334968E+02  0.12700000000E+01 0. -1.
         25    2    1    2    0    0  0.00000000000E+00  0.00000000000E+00  0.99874747510E+02  0.16001280151E+03  0.12501652473E+03 0.  0.
    9000005    1    3    3    0    0  0.10912951503E+02  0.34595692092E+02 -0.15205171597E+02  0.39346558492E+02  0.10000000000E+01 0.  0.
    9000005    1    3    3    0    0 -0.10912951503E+02 -0.34595692092E+02  0.11507991911E+03  0.12066624302E+03  0.10000000000E+01 0.  0.
<mgrwt>
<rscale>  0 0.12501652E+03</rscale>
<asrwt>0</asrwt>
<pdfrwt beam="1">  1        4 0.19991350E-01 0.12501652E+03</pdfrwt>
<pdfrwt beam="2">  1       -4 0.46260041E-02 0.12501652E+03</pdfrwt>
<totfact> 0.97304170E+03</totfact>
</mgrwt>
</event>
<event>
 5    1  0.3266594E-002  0.1250035E+03  0.7818608E-02  0.1235064E+00
          4   -1    0    0  501    0  0.00000000000E+00  0.00000000000E+00  0.52659334204E+02  0.52674646451E+02  0.12700000000E+01 0. -1.
         -4   -1    0    0    0  501 -0.00000000000E+00 -0.00000000000E+00 -0.74152308087E+02  0.74163182878E+02  0.12700000000E+01 0. -1.
         25    2    1    2    0    0  0.00000000000E+00  0.00000000000E+00 -0.21492973883E+02  0.12683782933E+03  0.12500354804E+03 0.  0.
    9000005    1    3    3    0    0 -0.19748179822E+02 -0.50330924518E+02 -0.42547717977E+02  0.68807709409E+02  0.10000000000E+01 0.  0.
    9000005    1    3    3    0    0  0.19748179822E+02  0.50330924518E+02  0.21054744093E+02  0.58030119920E+02  0.10000000000E+01 0.  0.
<mgrwt>
<rscale>  0 0.12500355E+03</rscale>
<asrwt>0</asrwt>
<pdfrwt beam="1">  1        4 0.81034504E-02 0.12500355E+03</pdfrwt>
<pdfrwt beam="2">  1       -4 0.11410062E-01 0.12500355E+03</pdfrwt>
<totfact> 0.10411837E+04</totfact>
</mgrwt>
</event>
<event>
 5    1  0.3266594E-002  0.1249961E+03  0.7818608E-02  0.1235075E+00
          4   -1    0    0  501    0  0.00000000000E+00  0.00000000000E+00  0.83906834445E+02  0.83916445150E+02  0.12700000000E+01 0.  1.
         -4   -1    0    0    0  501 -0.00000000000E+00 -0.00000000000E+00 -0.46530743163E+02  0.46548071488E+02  0.12700000000E+01 0.  1.
         25    2    1    2    0    0  0.00000000000E+00  0.00000000000E+00  0.37376091282E+02  0.13046451664E+03  0.12499607155E+03 0.  0.
    9000005    1    3    3    0    0  0.42782161117E+01  0.28707324230E+02 -0.39073730350E+02  0.48684391760E+02  0.10000000000E+01 0.  0.
    9000005    1    3    3    0    0 -0.42782161117E+01 -0.28707324230E+02  0.76449821632E+02  0.81780124878E+02  0.10000000000E+01 0.  0.
<mgrwt>
<rscale>  0 0.12499607E+03</rscale>
<asrwt>0</asrwt>
<pdfrwt beam="1">  1        4 0.12910816E-01 0.12499607E+03</pdfrwt>
<pdfrwt beam="2">  1       -4 0.71606481E-02 0.12499607E+03</pdfrwt>
<totfact> 0.10335497E+04</totfact>
</mgrwt>
</event>
<event>
 5    1  0.3266594E-002  0.1250057E+03  0.7818608E-02  0.1235060E+00
          4   -1    0    0  501    0  0.00000000000E+00  0.00000000000E+00  0.36888085868E+01  0.39013085997E+01  0.12700000000E+01 0.  1.
         -4   -1    0    0    0  501 -0.00000000000E+00 -0.00000000000E+00 -0.10291796543E+04  0.10291804379E+04  0.12700000000E+01 0.  1.
         25    2    1    2    0    0  0.00000000000E+00  0.00000000000E+00 -0.10254908458E+04  0.10330817465E+04  0.12500568099E+03 0.  0.
    9000005    1    3    3    0    0  0.12149755480E+02  0.55442651875E+02 -0.29659056150E+03  0.30197427933E+03  0.10000000000E+01 0.  0.
    9000005    1    3    3    0    0 -0.12149755480E+02 -0.55442651875E+02 -0.72890028425E+03  0.73110746719E+03  0.10000000000E+01 0.  0.
<mgrwt>
<rscale>  0 0.12500568E+03</rscale>
<asrwt>0</asrwt>
<pdfrwt beam="1">  1        4 0.58391626E-03 0.12500568E+03</pdfrwt>
<pdfrwt beam="2">  1       -4 0.15835152E+00 0.12500568E+03</pdfrwt>
<totfact> 0.29525343E+03</totfact>
</mgrwt>
</event>
<event>
 5    1  0.3266594E-002  0.1249968E+03  0.7818608E-02  0.1235074E+00
         -4   -1    0    0    0  501 -0.00000000000E+00  0.00000000000E+00  0.36335770539E+02  0.36357958148E+02  0.12700000000E+01 0.  1.
          4   -1    0    0  501    0  0.00000000000E+00 -0.00000000000E+00 -0.10744006111E+03  0.10744756690E+03  0.12700000000E+01 0.  1.
         25    2    1    2    0    0  0.00000000000E+00  0.00000000000E+00 -0.71104290573E+02  0.14380552504E+03  0.12499683554E+03 0.  0.
    9000005    1    3    3    0    0 -0.55553376409E+02  0.28490713440E+02 -0.38629277783E+02  0.73424243168E+02  0.10000000000E+01 0.  0.
    9000005    1    3    3    0    0  0.55553376409E+02 -0.28490713440E+02 -0.32475012790E+02  0.70381281876E+02  0.10000000000E+01 0.  0.
<mgrwt>
<rscale>  0 0.12499684E+03</rscale>
<asrwt>0</asrwt>
<pdfrwt beam="2">  1        4 0.16531524E-01 0.12499684E+03</pdfrwt>
<pdfrwt beam="1">  1       -4 0.55924027E-02 0.12499684E+03</pdfrwt>
<totfact> 0.10056031E+04</totfact>
</mgrwt>
</event>
<event>
 5    1  0.3266594E-002  0.1250007E+03  0.7818608E-02  0.1235068E+00
          4   -1    0    0  501    0  0.00000000000E+00  0.00000000000E+00  0.80569216341E+02  0.80579225126E+02  0.12700000000E+01 0. -1.
         -4   -1    0    0    0  501 -0.00000000000E+00 -0.00000000000E+00 -0.48462362507E+02  0.48479000399E+02  0.12700000000E+01 0. -1.
         25    2    1    2    0    0  0.00000000000E+00  0.00000000000E+00  0.32106853835E+02  0.12905822553E+03  0.12500070205E+03 0.  0.
    9000005    1    3    3    0    0 -0.84116753663E+01  0.51131470164E+02 -0.20010481688E+02  0.55557203862E+02  0.10000000000E+01 0.  0.
    9000005    1    3    3    0    0  0.84116753663E+01 -0.51131470164E+02  0.52117335522E+02  0.73501021663E+02  0.10000000000E+01 0.  0.
<mgrwt>
<rscale>  0 0.12500070E+03</rscale>
<asrwt>0</asrwt>
<pdfrwt beam="1">  1        4 0.12397314E-01 0.12500070E+03</pdfrwt>
<pdfrwt beam="2">  1       -4 0.74577978E-02 0.12500070E+03</pdfrwt>
<totfact> 0.10364532E+04</totfact>
</mgrwt>
</event>
<event>
 5    1  0.3266594E-002  0.1250016E+03  0.7818608E-02  0.1235067E+00
         -4   -1    0    0    0  501 -0.00000000000E+00  0.00000000000E+00  0.18062735369E+03  0.18063181835E+03  0.12700000000E+01 0. -1.
          4   -1    0    0  501    0  0.00000000000E+00 -0.00000000000E+00 -0.21603203227E+02  0.21640501142E+02  0.12700000000E+01 0. -1.
         25    2    1    2    0    0  0.00000000000E+00  0.00000000000E+00  0.15902415046E+03  0.20227231949E+03  0.12500164320E+03 0.  0.
    9000005    1    3    3    0    0  0.32665959812E+02  0.72374964312E+01 -0.58969950395E+01  0.33988539767E+02  0.10000000000E+01 0.  0.
    9000005    1    3    3    0    0 -0.32665959812E+02 -0.72374964312E+01  0.16492114550E+03  0.16828377973E+03  0.10000000000E+01 0.  0.
<mgrwt>
<rscale>  0 0.12500164E+03</rscale>
<asrwt>0</asrwt>
<pdfrwt beam="2">  1        4 0.33267823E-02 0.12500164E+03</pdfrwt>
<pdfrwt beam="1">  1       -4 0.27792036E-01 0.12500164E+03</pdfrwt>
<totfact> 0.89750372E+03</totfact>
</mgrwt>
</event>
<event>
 5    1  0.3266594E-002  0.1250001E+03  0.7818608E-02  0.1235069E+00
          4   -1    0    0  501    0  0.00000000000E+00  0.00000000000E+00  0.15149429545E+03  0.15149961866E+03  0.12700000000E+01 0. -1.
         -4   -1    0    0    0  501 -0.00000000000E+00 -0.00000000000E+00 -0.25763436846E+02  0.25794719966E+02  0.12700000000E+01 0. -1.
         25    2    1    2    0    0  0.00000000000E+00  0.00000000000E+00  0.12573085861E+03  0.17729433863E+03  0.12500013482E+03 0.  0.
    9000005    1    3    3    0    0 -0.36109943446E+02  0.27723501562E+02  0.21450377299E+01  0.45586420581E+02  0.10000000000E+01 0.  0.
    9000005    1    3    3    0    0  0.36109943446E+02 -0.27723501562E+02  0.12358582088E+03  0.13170791805E+03  0.10000000000E+01 0.  0.
<mgrwt>
<rscale>  0 0.12500013E+03</rscale>
<asrwt>0</asrwt>
<pdfrwt beam="1">  1        4 0.23309630E-01 0.12500013E+03</pdfrwt>
<pdfrwt beam="2">  1       -4 0.39664216E-02 0.12500013E+03</pdfrwt>
<totfact> 0.94106026E+03</totfact>
</mgrwt>
</event>
<event>
 5    1  0.3266594E-002  0.1249737E+03  0.7818608E-02  0.1235110E+00
         -4   -1    0    0    0  501 -0.00000000000E+00  0.00000000000E+00  0.32288005345E+02  0.32312972460E+02  0.12700000000E+01 0.  1.
          4   -1    0    0  501    0  0.00000000000E+00 -0.00000000000E+00 -0.12085553949E+03  0.12086221215E+03  0.12700000000E+01 0.  1.
         25    2    1    2    0    0  0.00000000000E+00  0.00000000000E+00 -0.88567534149E+02  0.15317518461E+03  0.12497371354E+03 0.  0.
    9000005    1    3    3    0    0 -0.56927733300E+02  0.14992811943E+02 -0.18630978951E+02  0.61754875154E+02  0.10000000000E+01 0.  0.
    9000005    1    3    3    0    0  0.56927733300E+02 -0.14992811943E+02 -0.69936555198E+02  0.91420309459E+02  0.10000000000E+01 0.  0.
<mgrwt>
<rscale>  0 0.12497371E+03</rscale>
<asrwt>0</asrwt>
<pdfrwt beam="2">  1        4 0.18595594E-01 0.12497371E+03</pdfrwt>
<pdfrwt beam="1">  1       -4 0.49698193E-02 0.12497371E+03</pdfrwt>
<totfact> 0.98732874E+03</totfact>
</mgrwt>
</event>
<event>
 5    1  0.3266594E-002  0.1249983E+03  0.7818608E-02  0.1235072E+00
         -4   -1    0    0    0  501 -0.00000000000E+00  0.00000000000E+00  0.14031703481E+02  0.14089059677E+02  0.12700000000E+01 0.  1.
          4   -1    0    0  501    0  0.00000000000E+00 -0.00000000000E+00 -0.27775323008E+03  0.27775613354E+03  0.12700000000E+01 0.  1.
         25    2    1    2    0    0  0.00000000000E+00  0.00000000000E+00 -0.26372152660E+03  0.29184519321E+03  0.12499829284E+03 0.  0.
    9000005    1    3    3    0    0 -0.47132293848E+02  0.38473395413E+01 -0.22724180903E+03  0.23211224637E+03  0.10000000000E+01 0.  0.
    9000005    1    3    3    0    0  0.47132293848E+02 -0.38473395413E+01 -0.36479717568E+02  0.59732946845E+02  0.10000000000E+01 0.  0.
<mgrwt>
<rscale>  0 0.12499829E+03</rscale>
<asrwt>0</asrwt>
<pdfrwt beam="2">  1        4 0.42735897E-01 0.12499829E+03</pdfrwt>
<pdfrwt beam="1">  1       -4 0.21633592E-02 0.12499829E+03</pdfrwt>
<totfact> 0.76636190E+03</totfact>
</mgrwt>
</event>
<event>
 5    1  0.3266594E-002  0.1249997E+03  0.7818608E-02  0.1235070E+00
          4   -1    0    0  501    0  0.00000000000E+00  0.00000000000E+00  0.19841045674E+03  0.19841452126E+03  0.12700000000E+01 0.  1.
         -4   -1    0    0    0  501 -0.00000000000E+00 -0.00000000000E+00 -0.19662874640E+02  0.19703845795E+02  0.12700000000E+01 0.  1.
         25    2    1    2    0    0  0.00000000000E+00  0.00000000000E+00  0.17874758210E+03  0.21811836705E+03  0.12499969575E+03 0.  0.
    9000005    1    3    3    0    0 -0.87445338293E+01 -0.57208930032E+02  0.48232059065E+02  0.75343613325E+02  0.10000000000E+01 0.  0.
    9000005    1    3    3    0    0  0.87445338293E+01  0.57208930032E+02  0.13051552304E+03  0.14277475373E+03  0.10000000000E+01 0.  0.
<mgrwt>
<rscale>  0 0.12499970E+03</rscale>
<asrwt>0</asrwt>
<pdfrwt beam="1">  1        4 0.30528150E-01 0.12499970E+03</pdfrwt>
<pdfrwt beam="2">  1       -4 0.30285219E-02 0.12499970E+03</pdfrwt>
<totfact> 0.87167563E+03</totfact>
</mgrwt>
</event>
<event>
 5    1  0.3266594E-002  0.1249997E+03  0.7818608E-02  0.1235070E+00
          4   -1    0    0  501    0  0.00000000000E+00  0.00000000000E+00  0.11871970383E+03  0.11872649653E+03  0.12700000000E+01 0. -1.
         -4   -1    0    0    0  501 -0.00000000000E+00 -0.00000000000E+00 -0.32882988575E+02  0.32907504275E+02  0.12700000000E+01 0. -1.
         25    2    1    2    0    0  0.00000000000E+00  0.00000000000E+00  0.85836715254E+02  0.15163400080E+03  0.12499971405E+03 0.  0.
    9000005    1    3    3    0    0  0.41693199995E+02  0.27229992327E+02 -0.28812276554E+01  0.49890849670E+02  0.10000000000E+01 0.  0.
    9000005    1    3    3    0    0 -0.41693199995E+02 -0.27229992327E+02  0.88717942910E+02  0.10174315113E+03  0.10000000000E+01 0.  0.
<mgrwt>
<rscale>  0 0.12499971E+03</rscale>
<asrwt>0</asrwt>
<pdfrwt beam="1">  1        4 0.18266978E-01 0.12499971E+03</pdfrwt>
<pdfrwt beam="2">  1       -4 0.50613296E-02 0.12499971E+03</pdfrwt>
<totfact> 0.98979613E+03</totfact>
</mgrwt>
</event>
<event>
 5    1  0.3266594E-002  0.1249997E+03  0.7818608E-02  0.1235070E+00
          4   -1    0    0  501    0  0.00000000000E+00  0.00000000000E+00  0.53064312302E+03  0.53064464278E+03  0.12700000000E+01 0.  1.
         -4   -1    0    0    0  501 -0.00000000000E+00 -0.00000000000E+00 -0.73049968154E+01  0.74145720357E+01  0.12700000000E+01 0.  1.
         25    2    1    2    0    0  0.00000000000E+00  0.00000000000E+00  0.52333812620E+03  0.53805921481E+03  0.12499969722E+03 0.  0.
    9000005    1    3    3    0    0 -0.51685373360E+01 -0.61842936905E+02  0.29329119154E+03  0.29978656684E+03  0.10000000000E+01 0.  0.
    9000005    1    3    3    0    0  0.51685373360E+01  0.61842936905E+02  0.23004693467E+03  0.23827264798E+03  0.10000000000E+01 0.  0.
<mgrwt>
<rscale>  0 0.12499970E+03</rscale>
<asrwt>0</asrwt>
<pdfrwt beam="1">  1        4 0.81645981E-01 0.12499970E+03</pdfrwt>
<pdfrwt beam="2">  1       -4 0.11323910E-02 0.12499970E+03</pdfrwt>
<totfact> 0.53028143E+03</totfact>
</mgrwt>
</event>
<event>
 5    1  0.3266594E-002  0.1249993E+03  0.7818608E-02  0.1235070E+00
          4   -1    0    0  501    0  0.00000000000E+00  0.00000000000E+00  0.45382357828E+02  0.45400124471E+02  0.12700000000E+01 0. -1.
         -4   -1    0    0    0  501 -0.00000000000E+00 -0.00000000000E+00 -0.86033904154E+02  0.86043277274E+02  0.12700000000E+01 0. -1.
         25    2    1    2    0    0  0.00000000000E+00  0.00000000000E+00 -0.40651546326E+02  0.13144340175E+03  0.12499927857E+03 0.  0.
    9000005    1    3    3    0    0 -0.60283290928E+02 -0.12065936154E+02 -0.32108000949E+02  0.69365594536E+02  0.10000000000E+01 0.  0.
    9000005    1    3    3    0    0  0.60283290928E+02  0.12065936154E+02 -0.85435453770E+01  0.62077807210E+02  0.10000000000E+01 0.  0.
<mgrwt>
<rscale>  0 0.12499928E+03</rscale>
<asrwt>0</asrwt>
<pdfrwt beam="1">  1        4 0.69839889E-02 0.12499928E+03</pdfrwt>
<pdfrwt beam="2">  1       -4 0.13238073E-01 0.12499928E+03</pdfrwt>
<totfact> 0.10313761E+04</totfact>
</mgrwt>
</event>
<event>
 5    1  0.3266594E-002  0.1249946E+03  0.7818608E-02  0.1235078E+00
          4   -1    0    0  501    0  0.00000000000E+00  0.00000000000E+00  0.54702720939E+01  0.56157614605E+01  0.12700000000E+01 0. -1.
         -4   -1    0    0    0  501 -0.00000000000E+00 -0.00000000000E+00 -0.70450896657E+03  0.70451011127E+03  0.12700000000E+01 0. -1.
         25    2    1    2    0    0  0.00000000000E+00  0.00000000000E+00 -0.69903869448E+03  0.71012587273E+03  0.12499463485E+03 0.  0.
    9000005    1    3    3    0    0 -0.14225871483E+02  0.40498946462E+01 -0.69444836880E+03  0.69460658937E+03  0.10000000000E+01 0.  0.
    9000005    1    3    3    0    0  0.14225871483E+02 -0.40498946462E+01 -0.45903256743E+01  0.15519283357E+02  0.10000000000E+01 0.  0.
<mgrwt>
<rscale>  0 0.12499463E+03</rscale>
<asrwt>0</asrwt>
<pdfrwt beam="1">  1        4 0.85286042E-03 0.12499463E+03</pdfrwt>
<pdfrwt beam="2">  1       -4 0.10839720E+00 0.12499463E+03</pdfrwt>
<totfact> 0.42562549E+03</totfact>
</mgrwt>
</event>
<event>
 4    1  0.3266594E-002  0.1248679E+03  0.7818608E-02  0.1235276E+00
         -4   -1    0    0    0  501 -0.00000000000E+00  0.00000000000E+00  0.43478333118E+03  0.43478518601E+03  0.12700000000E+01 0.  1.
          4   -1    0    0  501    0  0.00000000000E+00 -0.00000000000E+00 -0.89185188897E+01  0.90084892843E+01  0.12700000000E+01 0.  1.
    9000005    1    1    2    0    0  0.61910031134E+02 -0.78576751540E+01  0.20742416485E+03  0.21661112432E+03  0.10000000000E+01 0.  0.
    9000005    1    1    2    0    0 -0.61910031134E+02  0.78576751540E+01  0.21844064744E+03  0.22718255097E+03  0.10000000000E+01 0.  0.
<mgrwt>
<rscale>  0 0.12486788E+03</rscale>
<asrwt>0</asrwt>
<pdfrwt beam="2">  1        4 0.13791430E-02 0.12486788E+03</pdfrwt>
<pdfrwt beam="1">  1       -4 0.66896823E-01 0.12486788E+03</pdfrwt>
<totfact> 0.60681697E+03</totfact>
</mgrwt>
</event>
<event>
 5    1  0.3266594E-002  0.1249999E+03  0.7818608E-02  0.1235069E+00
         -4   -1    0    0    0  501 -0.00000000000E+00  0.00000000000E+00  0.12473556582E+03  0.12474203093E+03  0.12700000000E+01 0. -1.
          4   -1    0    0  501    0  0.00000000000E+00 -0.00000000000E+00 -0.31296057926E+02  0.31321815747E+02  0.12700000000E+01 0. -1.
         25    2    1    2    0    0  0.00000000000E+00  0.00000000000E+00  0.93439507893E+02  0.15606384668E+03  0.12499993042E+03 0.  0.
    9000005    1    3    3    0    0 -0.76908868198E+01 -0.39652199170E+02  0.10625423505E+03  0.11367677469E+03  0.10000000000E+01 0.  0.
    9000005    1    3    3    0    0  0.76908868198E+01  0.39652199170E+02 -0.12814727156E+02  0.42387071982E+02  0.10000000000E+01 0.  0.
<mgrwt>
<rscale>  0 0.12499993E+03</rscale>
<asrwt>0</asrwt>
<pdfrwt beam="2">  1        4 0.48172569E-02 0.12499993E+03</pdfrwt>
<pdfrwt beam="1">  1       -4 0.19192566E-01 0.12499993E+03</pdfrwt>
<totfact> 0.98107210E+03</totfact>
</mgrwt>
</event>
<event>
 5    1  0.3266594E-002  0.1249958E+03  0.7818608E-02  0.1235076E+00
          4   -1    0    0  501    0  0.00000000000E+00  0.00000000000E+00  0.70388033992E+02  0.70399490263E+02  0.12700000000E+01 0. -1.
         -4   -1    0    0    0  501 -0.00000000000E+00 -0.00000000000E+00 -0.55468950965E+02  0.55483487825E+02  0.12700000000E+01 0. -1.
         25    2    1    2    0    0  0.00000000000E+00  0.00000000000E+00  0.14919083027E+02  0.12588297809E+03  0.12499578046E+03 0.  0.
    9000005    1    3    3    0    0  0.56514953953E+02 -0.23837242009E+02  0.19495610073E+02  0.64367949626E+02  0.10000000000E+01 0.  0.
    9000005    1    3    3    0    0 -0.56514953953E+02  0.23837242009E+02 -0.45765270461E+01  0.61515028462E+02  0.10000000000E+01 0.  0.
<mgrwt>
<rscale>  0 0.12499578E+03</rscale>
<asrwt>0</asrwt>
<pdfrwt beam="1">  1        4 0.10830928E-01 0.12499578E+03</pdfrwt>
<pdfrwt beam="2">  1       -4 0.85356843E-02 0.12499578E+03</pdfrwt>
<totfact> 0.10434517E+04</totfact>
</mgrwt>
</event>
<event>
 5    1  0.3266594E-002  0.1249576E+03  0.7818608E-02  0.1235136E+00
          4   -1    0    0  501    0  0.00000000000E+00  0.00000000000E+00  0.17306690523E+02  0.17353225546E+02  0.12700000000E+01 0.  1.
         -4   -1    0    0    0  501 -0.00000000000E+00 -0.00000000000E+00 -0.22520312947E+03  0.22520671044E+03  0.12700000000E+01 0.  1.
         25    2    1    2    0    0  0.00000000000E+00  0.00000000000E+00 -0.20789643895E+03  0.24255993598E+03  0.12495756566E+03 0.  0.
    9000005    1    3    3    0    0 -0.91816869336E+01  0.47807235211E+02 -0.17994479875E+03  0.18641610904E+03  0.10000000000E+01 0.  0.
    9000005    1    3    3    0    0  0.91816869336E+01 -0.47807235211E+02 -0.27951640204E+02  0.56143826941E+02  0.10000000000E+01 0.  0.
<mgrwt>
<rscale>  0 0.12495757E+03</rscale>
<asrwt>0</asrwt>
<pdfrwt beam="1">  1        4 0.26664230E-02 0.12495757E+03</pdfrwt>
<pdfrwt beam="2">  1       -4 0.34650488E-01 0.12495757E+03</pdfrwt>
<totfact> 0.83496530E+03</totfact>
</mgrwt>
</event>
<event>
 5    1  0.3266594E-002  0.1250019E+03  0.7818608E-02  0.1235066E+00
          4   -1    0    0  501    0  0.00000000000E+00  0.00000000000E+00  0.72095645691E+01  0.73205683711E+01  0.12700000000E+01 0.  1.
         -4   -1    0    0    0  501 -0.00000000000E+00 -0.00000000000E+00 -0.53758012974E+03  0.53758162989E+03  0.12700000000E+01 0.  1.
         25    2    1    2    0    0  0.00000000000E+00  0.00000000000E+00 -0.53037056517E+03  0.54490219826E+03  0.12500187705E+03 0.  0.
    9000005    1    3    3    0    0 -0.51731751501E+02 -0.33703486540E+02 -0.22308656961E+03  0.23147508864E+03  0.10000000000E+01 0.  0.
    9000005    1    3    3    0    0  0.51731751501E+02  0.33703486540E+02 -0.30728399556E+03  0.31342710963E+03  0.10000000000E+01 0.  0.
<mgrwt>
<rscale>  0 0.12500188E+03</rscale>
<asrwt>0</asrwt>
<pdfrwt beam="1">  1        4 0.11178183E-02 0.12500188E+03</pdfrwt>
<pdfrwt beam="2">  1       -4 0.82713259E-01 0.12500188E+03</pdfrwt>
<totfact> 0.52539243E+03</totfact>
</mgrwt>
</event>
<event>
 5    1  0.3266594E-002  0.1250006E+03  0.7818608E-02  0.1235068E+00
         -4   -1    0    0    0  501 -0.00000000000E+00  0.00000000000E+00  0.58162418636E+02  0.58176282466E+02  0.12700000000E+01 0.  1.
          4   -1    0    0  501    0  0.00000000000E+00 -0.00000000000E+00 -0.67133800464E+02  0.67145811968E+02  0.12700000000E+01 0.  1.
         25    2    1    2    0    0  0.00000000000E+00  0.00000000000E+00 -0.89713818282E+01  0.12532209443E+03  0.12500056664E+03 0.  0.
    9000005    1    3    3    0    0 -0.11365009636E+02 -0.46021584487E+02  0.36339262878E+02  0.59738527846E+02  0.10000000000E+01 0.  0.
    9000005    1    3    3    0    0  0.11365009636E+02  0.46021584487E+02 -0.45310644706E+02  0.65583566588E+02  0.10000000000E+01 0.  0.
<mgrwt>
<rscale>  0 0.12500057E+03</rscale>
<asrwt>0</asrwt>
<pdfrwt beam="2">  1        4 0.10330267E-01 0.12500057E+03</pdfrwt>
<pdfrwt beam="1">  1       -4 0.89500548E-02 0.12500057E+03</pdfrwt>
<totfact> 0.10445737E+04</totfact>
</mgrwt>
</event>
<event>
 5    1  0.3266594E-002  0.1249957E+03  0.7818608E-02  0.1235076E+00
          4   -1    0    0  501    0  0.00000000000E+00  0.00000000000E+00  0.27573686171E+02  0.27602917763E+02  0.12700000000E+01 0.  1.
         -4   -1    0    0    0  501 -0.00000000000E+00 -0.00000000000E+00 -0.14154902493E+03  0.14155472213E+03  0.12700000000E+01 0.  1.
         25    2    1    2    0    0  0.00000000000E+00  0.00000000000E+00 -0.11397533876E+03  0.16915763990E+03  0.12499571709E+03 0.  0.
    9000005    1    3    3    0    0 -0.20752329345E+02  0.43573625709E+02 -0.11070668622E+03  0.12077371570E+03  0.10000000000E+01 0.  0.
    9000005    1    3    3    0    0  0.20752329345E+02 -0.43573625709E+02 -0.32686525338E+01  0.48383924190E+02  0.10000000000E+01 0.  0.
<mgrwt>
<rscale>  0 0.12499572E+03</rscale>
<asrwt>0</asrwt>
<pdfrwt beam="1">  1        4 0.42447925E-02 0.12499572E+03</pdfrwt>
<pdfrwt beam="2">  1       -4 0.21779459E-01 0.12499572E+03</pdfrwt>
<totfact> 0.95614939E+03</totfact>
</mgrwt>
</event>
<event>
 5    1  0.3266594E-002  0.1249999E+03  0.7818608E-02  0.1235069E+00
          4   -1    0    0  501    0  0.00000000000E+00  0.00000000000E+00  0.36654151734E+02  0.36676146735E+02  0.12700000000E+01 0. -1.
         -4   -1    0    0    0  501 -0.00000000000E+00 -0.00000000000E+00 -0.10651254605E+03  0.10652011719E+03  0.12700000000E+01 0. -1.
         25    2    1    2    0    0  0.00000000000E+00  0.00000000000E+00 -0.69858394319E+02  0.14319626393E+03  0.12499989898E+03 0.  0.
    9000005    1    3    3    0    0 -0.23541464728E+02 -0.42446630850E+02  0.10162182266E+02  0.49600271979E+02  0.10000000000E+01 0.  0.
    9000005    1    3    3    0    0  0.23541464728E+02  0.42446630850E+02 -0.80020576585E+02  0.93595991949E+02  0.10000000000E+01 0.  0.
<mgrwt>
<rscale>  0 0.12499990E+03</rscale>
<asrwt>0</asrwt>
<pdfrwt beam="1">  1        4 0.56413746E-02 0.12499990E+03</pdfrwt>
<pdfrwt beam="2">  1       -4 0.16388820E-01 0.12499990E+03</pdfrwt>
<totfact> 0.10067789E+04</totfact>
</mgrwt>
</event>
<event>
 5    1  0.3266594E-002  0.1250010E+03  0.7818608E-02  0.1235068E+00
         -4   -1    0    0    0  501 -0.00000000000E+00  0.00000000000E+00  0.87189760213E+03  0.87189852706E+03  0.12700000000E+01 0.  1.
          4   -1    0    0  501    0  0.00000000000E+00 -0.00000000000E+00 -0.43892934155E+01  0.45693321928E+01  0.12700000000E+01 0.  1.
         25    2    1    2    0    0  0.00000000000E+00  0.00000000000E+00  0.86750830871E+03  0.87646785926E+03  0.12500097050E+03 0.  0.
    9000005    1    3    3    0    0 -0.22680089095E+02 -0.38662069745E+02  0.12843005641E+03  0.13603095775E+03  0.10000000000E+01 0.  0.
    9000005    1    3    3    0    0  0.22680089095E+02  0.38662069745E+02  0.73907825231E+03  0.74043690151E+03  0.10000000000E+01 0.  0.
<mgrwt>
<rscale>  0 0.12500097E+03</rscale>
<asrwt>0</asrwt>
<pdfrwt beam="2">  1        4 0.68919558E-03 0.12500097E+03</pdfrwt>
<pdfrwt beam="1">  1       -4 0.13415213E+00 0.12500097E+03</pdfrwt>
<totfact> 0.35067257E+03</totfact>
</mgrwt>
</event>
<event>
 5    1  0.3266594E-002  0.1249985E+03  0.7818608E-02  0.1235072E+00
          4   -1    0    0  501    0  0.00000000000E+00  0.00000000000E+00  0.25385628425E+03  0.25385946103E+03  0.12700000000E+01 0. -1.
         -4   -1    0    0    0  501 -0.00000000000E+00 -0.00000000000E+00 -0.15357787400E+02  0.15410208754E+02  0.12700000000E+01 0. -1.
         25    2    1    2    0    0  0.00000000000E+00  0.00000000000E+00  0.23849849685E+03  0.26926966978E+03  0.12499848825E+03 0.  0.
    9000005    1    3    3    0    0  0.44370322888E+02  0.11785236612E+02  0.21058098947E+03  0.21552951186E+03  0.10000000000E+01 0.  0.
    9000005    1    3    3    0    0 -0.44370322888E+02 -0.11785236612E+02  0.27917507377E+02  0.53740157921E+02  0.10000000000E+01 0.  0.
<mgrwt>
<rscale>  0 0.12499849E+03</rscale>
<asrwt>0</asrwt>
<pdfrwt beam="1">  1        4 0.39059088E-01 0.12499849E+03</pdfrwt>
<pdfrwt beam="2">  1       -4 0.23670134E-02 0.12499849E+03</pdfrwt>
<totfact> 0.79625219E+03</totfact>
</mgrwt>
</event>
<event>
 5    1  0.3266594E-002  0.1249989E+03  0.7818608E-02  0.1235071E+00
         -4   -1    0    0    0  501 -0.00000000000E+00  0.00000000000E+00  0.29997454097E+03  0.29997722935E+03  0.12700000000E+01 0.  1.
          4   -1    0    0  501    0  0.00000000000E+00 -0.00000000000E+00 -0.12987999142E+02  0.13049943360E+02  0.12700000000E+01 0.  1.
         25    2    1    2    0    0  0.00000000000E+00  0.00000000000E+00  0.28698654183E+03  0.31302717271E+03  0.12499894266E+03 0.  0.
    9000005    1    3    3    0    0 -0.31706244120E+02  0.42753686122E+02  0.61500189401E+02  0.81341483203E+02  0.10000000000E+01 0.  0.
    9000005    1    3    3    0    0  0.31706244120E+02 -0.42753686122E+02  0.22548635243E+03  0.23168568951E+03  0.10000000000E+01 0.  0.
<mgrwt>
<rscale>  0 0.12499894E+03</rscale>
<asrwt>0</asrwt>
<pdfrwt beam="2">  1        4 0.20031257E-02 0.12499894E+03</pdfrwt>
<pdfrwt beam="1">  1       -4 0.46154895E-01 0.12499894E+03</pdfrwt>
<totfact> 0.73994936E+03</totfact>
</mgrwt>
</event>
<event>
 5    1  0.3266594E-002  0.1250004E+03  0.7818608E-02  0.1235069E+00
         -4   -1    0    0    0  501 -0.00000000000E+00  0.00000000000E+00  0.88793049757E+02  0.88802131648E+02  0.12700000000E+01 0.  1.
          4   -1    0    0  501    0  0.00000000000E+00 -0.00000000000E+00 -0.43972519263E+02  0.43990855303E+02  0.12700000000E+01 0.  1.
         25    2    1    2    0    0  0.00000000000E+00  0.00000000000E+00  0.44820530495E+02  0.13279298695E+03  0.12500038972E+03 0.  0.
    9000005    1    3    3    0    0 -0.52252445567E+02 -0.22290688692E+02  0.50073611743E+02  0.75733476502E+02  0.10000000000E+01 0.  0.
    9000005    1    3    3    0    0  0.52252445567E+02  0.22290688692E+02 -0.52530812486E+01  0.57059510449E+02  0.10000000000E+01 0.  0.
<mgrwt>
<rscale>  0 0.12500039E+03</rscale>
<asrwt>0</asrwt>
<pdfrwt beam="2">  1        4 0.67671121E-02 0.12500039E+03</pdfrwt>
<pdfrwt beam="1">  1       -4 0.13662578E-01 0.12500039E+03</pdfrwt>
<totfact> 0.10284711E+04</totfact>
</mgrwt>
</event>
<event>
 5    1  0.3266594E-002  0.1250006E+03  0.7818608E-02  0.1235068E+00
         -4   -1    0    0    0  501 -0.00000000000E+00  0.00000000000E+00  0.12185911942E+03  0.12186573713E+03  0.12700000000E+01 0. -1.
          4   -1    0    0  501    0  0.00000000000E+00 -0.00000000000E+00 -0.32035690538E+02  0.32060854141E+02  0.12700000000E+01 0. -1.
         25    2    1    2    0    0  0.00000000000E+00  0.00000000000E+00  0.89823428880E+02  0.15392659127E+03  0.12500058849E+03 0.  0.
    9000005    1    3    3    0    0  0.23295321082E+02 -0.47015777794E+02  0.86709435889E+02  0.10135423828E+03  0.10000000000E+01 0.  0.
    9000005    1    3    3    0    0 -0.23295321082E+02  0.47015777794E+02  0.31139929907E+01  0.52572352983E+02  0.10000000000E+01 0.  0.
<mgrwt>
<rscale>  0 0.12500059E+03</rscale>
<asrwt>0</asrwt>
<pdfrwt beam="2">  1        4 0.49310125E-02 0.12500059E+03</pdfrwt>
<pdfrwt beam="1">  1       -4 0.18750001E-01 0.12500059E+03</pdfrwt>
<totfact> 0.98525331E+03</totfact>
</mgrwt>
</event>
<event>
 5    1  0.3266594E-002  0.1249984E+03  0.7818608E-02  0.1235072E+00
          4   -1    0    0  501    0  0.00000000000E+00  0.00000000000E+00  0.85560270586E+03  0.85560364841E+03  0.12700000000E+01 0.  1.
         -4   -1    0    0    0  501 -0.00000000000E+00 -0.00000000000E+00 -0.44760952232E+01  0.46527764235E+01  0.12700000000E+01 0.  1.
         25    2    1    2    0    0  0.00000000000E+00  0.00000000000E+00  0.85112661064E+03  0.86025642484E+03  0.12499843653E+03 0.  0.
    9000005    1    3    3    0    0 -0.38289590701E+02  0.42128754501E+02  0.60293396999E+03  0.60561646021E+03  0.10000000000E+01 0.  0.
    9000005    1    3    3    0    0  0.38289590701E+02 -0.42128754501E+02  0.24819264065E+03  0.25463996463E+03  0.10000000000E+01 0.  0.
<mgrwt>
<rscale>  0 0.12499844E+03</rscale>
<asrwt>0</asrwt>
<pdfrwt beam="1">  1        4 0.13164469E+00 0.12499844E+03</pdfrwt>
<pdfrwt beam="2">  1       -4 0.70229425E-03 0.12499844E+03</pdfrwt>
<totfact> 0.35712518E+03</totfact>
</mgrwt>
</event>
<event>
 5    1  0.3266594E-002  0.1250015E+03  0.7818608E-02  0.1235067E+00
         -4   -1    0    0    0  501 -0.00000000000E+00  0.00000000000E+00  0.34715838321E+03  0.34716070621E+03  0.12700000000E+01 0. -1.
          4   -1    0    0  501    0  0.00000000000E+00 -0.00000000000E+00 -0.11214129799E+02  0.11285814421E+02  0.12700000000E+01 0. -1.
         25    2    1    2    0    0  0.00000000000E+00  0.00000000000E+00  0.33594425341E+03  0.35844652063E+03  0.12500146699E+03 0.  0.
    9000005    1    3    3    0    0  0.26279916284E+02 -0.44907179065E+02  0.68718298412E+02  0.86200308979E+02  0.10000000000E+01 0.  0.
    9000005    1    3    3    0    0 -0.26279916284E+02  0.44907179065E+02  0.26722595500E+03  0.27224621165E+03  0.10000000000E+01 0.  0.
<mgrwt>
<rscale>  0 0.12500147E+03</rscale>
<asrwt>0</asrwt>
<pdfrwt beam="2">  1        4 0.17309436E-02 0.12500147E+03</pdfrwt>
<pdfrwt beam="1">  1       -4 0.53414675E-01 0.12500147E+03</pdfrwt>
<totfact> 0.68802988E+03</totfact>
</mgrwt>
</event>
<event>
 5    1  0.3266594E-002  0.1250017E+03  0.7818608E-02  0.1235067E+00
          4   -1    0    0  501    0  0.00000000000E+00  0.00000000000E+00  0.50431215314E+02  0.50447203868E+02  0.12700000000E+01 0. -1.
         -4   -1    0    0    0  501 -0.00000000000E+00 -0.00000000000E+00 -0.77425572090E+02  0.77435987198E+02  0.12700000000E+01 0. -1.
         25    2    1    2    0    0  0.00000000000E+00  0.00000000000E+00 -0.26994356775E+02  0.12788319107E+03  0.12500166103E+03 0.  0.
    9000005    1    3    3    0    0 -0.10862099461E+02 -0.26772791069E+02  0.43193066421E+02  0.51975076077E+02  0.10000000000E+01 0.  0.
    9000005    1    3    3    0    0  0.10862099461E+02  0.26772791069E+02 -0.70187423196E+02  0.75908114990E+02  0.10000000000E+01 0.  0.
<mgrwt>
<rscale>  0 0.12500166E+03</rscale>
<asrwt>0</asrwt>
<pdfrwt beam="1">  1        4 0.77606796E-02 0.12500166E+03</pdfrwt>
<pdfrwt beam="2">  1       -4 0.11913658E-01 0.12500166E+03</pdfrwt>
<totfact> 0.10389621E+04</totfact>
</mgrwt>
</event>
<event>
 5    1  0.3266594E-002  0.1250008E+03  0.7818608E-02  0.1235068E+00
         -4   -1    0    0    0  501 -0.00000000000E+00  0.00000000000E+00  0.14726870354E+02  0.14781529367E+02  0.12700000000E+01 0.  1.
          4   -1    0    0  501    0  0.00000000000E+00 -0.00000000000E+00 -0.26470242250E+03  0.26470546911E+03  0.12700000000E+01 0.  1.
         25    2    1    2    0    0  0.00000000000E+00  0.00000000000E+00 -0.24997555214E+03  0.27948699848E+03  0.12500082259E+03 0.  0.
    9000005    1    3    3    0    0  0.18118750802E+02 -0.19243809144E+02  0.16248737740E+01  0.26500066713E+02  0.10000000000E+01 0.  0.
    9000005    1    3    3    0    0 -0.18118750802E+02  0.19243809144E+02 -0.25160042592E+03  0.25298693176E+03  0.10000000000E+01 0.  0.
<mgrwt>
<rscale>  0 0.12500082E+03</rscale>
<asrwt>0</asrwt>
<pdfrwt beam="2">  1        4 0.40727885E-01 0.12500082E+03</pdfrwt>
<pdfrwt beam="1">  1       -4 0.22701115E-02 0.12500082E+03</pdfrwt>
<totfact> 0.78244746E+03</totfact>
</mgrwt>
</event>
<event>
 5    1  0.3266594E-002  0.1249920E+03  0.7818608E-02  0.1235082E+00
         -4   -1    0    0    0  501 -0.00000000000E+00  0.00000000000E+00  0.35107384753E+03  0.35107614462E+03  0.12700000000E+01 0.  1.
          4   -1    0    0  501    0  0.00000000000E+00 -0.00000000000E+00 -0.11086574873E+02  0.11159078923E+02  0.12700000000E+01 0.  1.
         25    2    1    2    0    0  0.00000000000E+00  0.00000000000E+00  0.33998727266E+03  0.36223522354E+03  0.12499204617E+03 0.  0.
    9000005    1    3    3    0    0  0.13127178301E+02  0.18652583310E+02  0.33859313559E+03  0.33936197951E+03  0.10000000000E+01 0.  0.
    9000005    1    3    3    0    0 -0.13127178301E+02 -0.18652583310E+02  0.13941370745E+01  0.22873244030E+02  0.10000000000E+01 0.  0.
<mgrwt>
<rscale>  0 0.12499205E+03</rscale>
<asrwt>0</asrwt>
<pdfrwt beam="2">  1        4 0.17113808E-02 0.12499205E+03</pdfrwt>
<pdfrwt beam="1">  1       -4 0.54017116E-01 0.12499205E+03</pdfrwt>
<totfact> 0.68411209E+03</totfact>
</mgrwt>
</event>
<event>
 5    1  0.3266594E-002  0.1249940E+03  0.7818608E-02  0.1235079E+00
          4   -1    0    0  501    0  0.00000000000E+00  0.00000000000E+00  0.78929279251E+03  0.78929381425E+03  0.12700000000E+01 0.  1.
         -4   -1    0    0    0  501 -0.00000000000E+00 -0.00000000000E+00 -0.48660510108E+01  0.50290508488E+01  0.12700000000E+01 0.  1.
         25    2    1    2    0    0  0.00000000000E+00  0.00000000000E+00  0.78442674150E+03  0.79432286510E+03  0.12499400479E+03 0.  0.
    9000005    1    3    3    0    0 -0.49812950908E+02  0.30525603350E+01  0.15323012258E+03  0.16115557287E+03  0.10000000000E+01 0.  0.
    9000005    1    3    3    0    0  0.49812950908E+02 -0.30525603350E+01  0.63119661892E+03  0.63316729223E+03  0.10000000000E+01 0.  0.
<mgrwt>
<rscale>  0 0.12499400E+03</rscale>
<asrwt>0</asrwt>
<pdfrwt beam="1">  1        4 0.12144229E+00 0.12499400E+03</pdfrwt>
<pdfrwt beam="2">  1       -4 0.76124019E-03 0.12499400E+03</pdfrwt>
<totfact> 0.38524469E+03</totfact>
</mgrwt>
</event>
<event>
 5    1  0.3266594E-002  0.1250008E+03  0.7818608E-02  0.1235068E+00
          4   -1    0    0  501    0  0.00000000000E+00  0.00000000000E+00  0.15192258565E+03  0.15192789386E+03  0.12700000000E+01 0.  1.
         -4   -1    0    0    0  501 -0.00000000000E+00 -0.00000000000E+00 -0.25690987638E+02  0.25722358869E+02  0.12700000000E+01 0.  1.
         25    2    1    2    0    0  0.00000000000E+00  0.00000000000E+00  0.12623159801E+03  0.17765025272E+03  0.12500078382E+03 0.  0.
    9000005    1    3    3    0    0 -0.83192440845E+01 -0.31919236787E+02  0.13854958442E+03  0.14242554139E+03  0.10000000000E+01 0.  0.
    9000005    1    3    3    0    0  0.83192440845E+01  0.31919236787E+02 -0.12317986403E+02  0.35224711329E+02  0.10000000000E+01 0.  0.
<mgrwt>
<rscale>  0 0.12500078E+03</rscale>
<asrwt>0</asrwt>
<pdfrwt beam="1">  1        4 0.23375527E-01 0.12500078E+03</pdfrwt>
<pdfrwt beam="2">  1       -4 0.39552811E-02 0.12500078E+03</pdfrwt>
<totfact> 0.94040030E+03</totfact>
</mgrwt>
</event>
<event>
 5    1  0.3266594E-002  0.1249975E+03  0.7818608E-02  0.1235073E+00
          4   -1    0    0  501    0  0.00000000000E+00  0.00000000000E+00  0.40827387748E+02  0.40847135645E+02  0.12700000000E+01 0.  1.
         -4   -1    0    0    0  501 -0.00000000000E+00 -0.00000000000E+00 -0.95626328678E+02  0.95634761653E+02  0.12700000000E+01 0.  1.
         25    2    1    2    0    0  0.00000000000E+00  0.00000000000E+00 -0.54798940930E+02  0.13648189730E+03  0.12499753743E+03 0.  0.
    9000005    1    3    3    0    0 -0.26345855582E+02  0.26722169170E+02 -0.81959639174E+02  0.90147439703E+02  0.10000000000E+01 0.  0.
    9000005    1    3    3    0    0  0.26345855582E+02 -0.26722169170E+02  0.27160698244E+02  0.46334457595E+02  0.10000000000E+01 0.  0.
<mgrwt>
<rscale>  0 0.12499754E+03</rscale>
<asrwt>0</asrwt>
<pdfrwt beam="1">  1        4 0.62833044E-02 0.12499754E+03</pdfrwt>
<pdfrwt beam="2">  1       -4 0.14713911E-01 0.12499754E+03</pdfrwt>
<totfact> 0.10207497E+04</totfact>
</mgrwt>
</event>
<event>
 5    1  0.3266594E-002  0.1250025E+03  0.7818608E-02  0.1235065E+00
          4   -1    0    0  501    0  0.00000000000E+00  0.00000000000E+00  0.64877742752E+02  0.64890171864E+02  0.12700000000E+01 0.  1.
         -4   -1    0    0    0  501 -0.00000000000E+00 -0.00000000000E+00 -0.60186917030E+02  0.60200314630E+02  0.12700000000E+01 0.  1.
         25    2    1    2    0    0  0.00000000000E+00  0.00000000000E+00  0.46908257226E+01  0.12509048649E+03  0.12500250384E+03 0.  0.
    9000005    1    3    3    0    0  0.27576508982E+02 -0.48878758171E+02 -0.25165929650E+02  0.61513582753E+02  0.10000000000E+01 0.  0.
    9000005    1    3    3    0    0 -0.27576508982E+02  0.48878758171E+02  0.29856755372E+02  0.63576903741E+02  0.10000000000E+01 0.  0.
<mgrwt>
<rscale>  0 0.12500250E+03</rscale>
<asrwt>0</asrwt>
<pdfrwt beam="1">  1        4 0.99831778E-02 0.12500250E+03</pdfrwt>
<pdfrwt beam="2">  1       -4 0.92615124E-02 0.12500250E+03</pdfrwt>
<totfact> 0.10450306E+04</totfact>
</mgrwt>
</event>
<event>
 5    1  0.3266594E-002  0.1250004E+03  0.7818608E-02  0.1235069E+00
          4   -1    0    0  501    0  0.00000000000E+00  0.00000000000E+00  0.17574075990E+02  0.17619904849E+02  0.12700000000E+01 0.  1.
         -4   -1    0    0    0  501 -0.00000000000E+00 -0.00000000000E+00 -0.22193765217E+03  0.22194128582E+03  0.12700000000E+01 0.  1.
         25    2    1    2    0    0  0.00000000000E+00  0.00000000000E+00 -0.20436357618E+03  0.23956119067E+03  0.12500037122E+03 0.  0.
    9000005    1    3    3    0    0 -0.96150673912E+01 -0.37455482109E+02 -0.19626358872E+03  0.20003939342E+03  0.10000000000E+01 0.  0.
    9000005    1    3    3    0    0  0.96150673912E+01  0.37455482109E+02 -0.80999874569E+01  0.39521797249E+02  0.10000000000E+01 0.  0.
<mgrwt>
<rscale>  0 0.12500037E+03</rscale>
<asrwt>0</asrwt>
<pdfrwt beam="1">  1        4 0.27075090E-02 0.12500037E+03</pdfrwt>
<pdfrwt beam="2">  1       -4 0.34148057E-01 0.12500037E+03</pdfrwt>
<totfact> 0.83862071E+03</totfact>
</mgrwt>
</event>
<event>
 5    1  0.3266594E-002  0.1250013E+03  0.7818608E-02  0.1235067E+00
          4   -1    0    0  501    0  0.00000000000E+00  0.00000000000E+00  0.12680051596E+02  0.12743492790E+02  0.12700000000E+01 0.  1.
         -4   -1    0    0    0  501 -0.00000000000E+00 -0.00000000000E+00 -0.30723571223E+03  0.30723833708E+03  0.12700000000E+01 0.  1.
         25    2    1    2    0    0  0.00000000000E+00  0.00000000000E+00 -0.29455566064E+03  0.31998182987E+03  0.12500133693E+03 0.  0.
    9000005    1    3    3    0    0 -0.55072501761E-01 -0.62378192330E+02 -0.13760058389E+03  0.15108263500E+03  0.10000000000E+01 0.  0.
    9000005    1    3    3    0    0  0.55072501761E-01  0.62378192330E+02 -0.15695507675E+03  0.16889919487E+03  0.10000000000E+01 0.  0.
<mgrwt>
<rscale>  0 0.12500134E+03</rscale>
<asrwt>0</asrwt>
<pdfrwt beam="1">  1        4 0.19558594E-02 0.12500134E+03</pdfrwt>
<pdfrwt beam="2">  1       -4 0.47272109E-01 0.12500134E+03</pdfrwt>
<totfact> 0.73156120E+03</totfact>
</mgrwt>
</event>
<event>
 5    1  0.3266594E-002  0.1250022E+03  0.7818608E-02  0.1235066E+00
         -4   -1    0    0    0  501 -0.00000000000E+00  0.00000000000E+00  0.11741130278E+03  0.11741817117E+03  0.12700000000E+01 0. -1.
          4   -1    0    0  501    0  0.00000000000E+00 -0.00000000000E+00 -0.33251014135E+02  0.33275258692E+02  0.12700000000E+01 0. -1.
         25    2    1    2    0    0  0.00000000000E+00  0.00000000000E+00  0.84160288647E+02  0.15069342986E+03  0.12500222245E+03 0.  0.
    9000005    1    3    3    0    0 -0.30220944777E+02 -0.48488327067E+02  0.11559484121E+02  0.58301329643E+02  0.10000000000E+01 0.  0.
    9000005    1    3    3    0    0  0.30220944777E+02  0.48488327067E+02  0.72600804526E+02  0.92392100219E+02  0.10000000000E+01 0.  0.
<mgrwt>
<rscale>  0 0.12500222E+03</rscale>
<asrwt>0</asrwt>
<pdfrwt beam="2">  1        4 0.51179340E-02 0.12500222E+03</pdfrwt>
<pdfrwt beam="1">  1       -4 0.18065670E-01 0.12500222E+03</pdfrwt>
<totfact> 0.99160693E+03</totfact>
</mgrwt>
</event>
<event>
 5    1  0.3266594E-002  0.1250017E+03  0.7818608E-02  0.1235067E+00
         -4   -1    0    0    0  501 -0.00000000000E+00  0.00000000000E+00  0.96046814789E+02  0.96055210848E+02  0.12700000000E+01 0.  1.
          4   -1    0    0  501    0  0.00000000000E+00 -0.00000000000E+00 -0.40651285516E+02  0.40671118918E+02  0.12700000000E+01 0.  1.
         25    2    1    2    0    0  0.00000000000E+00  0.00000000000E+00  0.55395529273E+02  0.13672632977E+03  0.12500169834E+03 0.  0.
    9000005    1    3    3    0    0 -0.41262147034E+02 -0.26069654862E+02 -0.14990612212E+02  0.51067701505E+02  0.10000000000E+01 0.  0.
    9000005    1    3    3    0    0  0.41262147034E+02  0.26069654862E+02  0.70386141486E+02  0.85658628262E+02  0.10000000000E+01 0.  0.
<mgrwt>
<rscale>  0 0.12500170E+03</rscale>
<asrwt>0</asrwt>
<pdfrwt beam="2">  1        4 0.62562155E-02 0.12500170E+03</pdfrwt>
<pdfrwt beam="1">  1       -4 0.14778604E-01 0.12500170E+03</pdfrwt>
<totfact> 0.10201420E+04</totfact>
</mgrwt>
</event>
<event>
 5    1  0.3266594E-002  0.1250019E+03  0.7818608E-02  0.1235066E+00
          4   -1    0    0  501    0  0.00000000000E+00  0.00000000000E+00  0.13387574201E+02  0.13447677977E+02  0.12700000000E+01 0.  1.
         -4   -1    0    0    0  501 -0.00000000000E+00 -0.00000000000E+00 -0.29107582825E+03  0.29107859882E+03  0.12700000000E+01 0.  1.
         25    2    1    2    0    0  0.00000000000E+00  0.00000000000E+00 -0.27768825405E+03  0.30452627680E+03  0.12500194728E+03 0.  0.
    9000005    1    3    3    0    0  0.61979730712E+01  0.84766337194E+01 -0.28892308561E+03  0.28911557825E+03  0.10000000000E+01 0.  0.
    9000005    1    3    3    0    0 -0.61979730712E+01 -0.84766337194E+01  0.11234831562E+02  0.15410698545E+02  0.10000000000E+01 0.  0.
<mgrwt>
<rscale>  0 0.12500195E+03</rscale>
<asrwt>0</asrwt>
<pdfrwt beam="1">  1        4 0.20644635E-02 0.12500195E+03</pdfrwt>
<pdfrwt beam="2">  1       -4 0.44785728E-01 0.12500195E+03</pdfrwt>
<totfact> 0.75031316E+03</totfact>
</mgrwt>
</event>
<event>
 5    1  0.3266594E-002  0.1249824E+03  0.7818608E-02  0.1235097E+00
          4   -1    0    0  501    0  0.00000000000E+00  0.00000000000E+00  0.17580548478E+02  0.17626360509E+02  0.12700000000E+01 0. -1.
         -4   -1    0    0    0  501 -0.00000000000E+00 -0.00000000000E+00 -0.22179236943E+03  0.22179600546E+03  0.12700000000E+01 0. -1.
         25    2    1    2    0    0  0.00000000000E+00  0.00000000000E+00 -0.20421182096E+03  0.23942236597E+03  0.12498240480E+03 0.  0.
    9000005    1    3    3    0    0  0.53391622636E+02 -0.80838717536E+01 -0.41888204288E+02  0.68349367288E+02  0.10000000000E+01 0.  0.
    9000005    1    3    3    0    0 -0.53391622636E+02  0.80838717536E+01 -0.16232361667E+03  0.17107299868E+03  0.10000000000E+01 0.  0.
<mgrwt>
<rscale>  0 0.12498240E+03</rscale>
<asrwt>0</asrwt>
<pdfrwt beam="1">  1        4 0.27085036E-02 0.12498240E+03</pdfrwt>
<pdfrwt beam="2">  1       -4 0.34125705E-01 0.12498240E+03</pdfrwt>
<totfact> 0.83916386E+03</totfact>
</mgrwt>
</event>
<event>
 5    1  0.3266594E-002  0.1249937E+03  0.7818608E-02  0.1235079E+00
          4   -1    0    0  501    0  0.00000000000E+00  0.00000000000E+00  0.13055969217E+02  0.13117592470E+02  0.12700000000E+01 0. -1.
         -4   -1    0    0    0  501 -0.00000000000E+00 -0.00000000000E+00 -0.29839518320E+03  0.29839788581E+03  0.12700000000E+01 0. -1.
         25    2    1    2    0    0  0.00000000000E+00  0.00000000000E+00 -0.28533921398E+03  0.31151547828E+03  0.12499370453E+03 0.  0.
    9000005    1    3    3    0    0 -0.61672582693E+02 -0.37746344453E+01 -0.16592928052E+03  0.17706293077E+03  0.10000000000E+01 0.  0.
    9000005    1    3    3    0    0  0.61672582693E+02  0.37746344453E+01 -0.11940993346E+03  0.13445254751E+03  0.10000000000E+01 0.  0.
<mgrwt>
<rscale>  0 0.12499370E+03</rscale>
<asrwt>0</asrwt>
<pdfrwt beam="1">  1        4 0.20135590E-02 0.12499370E+03</pdfrwt>
<pdfrwt beam="2">  1       -4 0.45911894E-01 0.12499370E+03</pdfrwt>
<totfact> 0.74187057E+03</totfact>
</mgrwt>
</event>
<event>
 5    1  0.3266594E-002  0.1250030E+03  0.7818608E-02  0.1235065E+00
          4   -1    0    0  501    0  0.00000000000E+00  0.00000000000E+00  0.81298948571E+02  0.81308867529E+02  0.12700000000E+01 0.  1.
         -4   -1    0    0    0  501 -0.00000000000E+00 -0.00000000000E+00 -0.48029018451E+02  0.48045806407E+02  0.12700000000E+01 0.  1.
         25    2    1    2    0    0  0.00000000000E+00  0.00000000000E+00  0.33269930121E+02  0.12935467394E+03  0.12500297364E+03 0.  0.
    9000005    1    3    3    0    0  0.58138231308E+02 -0.14727407692E+02 -0.15402296796E+01  0.60002689810E+02  0.10000000000E+01 0.  0.
    9000005    1    3    3    0    0 -0.58138231308E+02  0.14727407692E+02  0.34810159801E+02  0.69351984126E+02  0.10000000000E+01 0.  0.
<mgrwt>
<rscale>  0 0.12500297E+03</rscale>
<asrwt>0</asrwt>
<pdfrwt beam="1">  1        4 0.12509585E-01 0.12500297E+03</pdfrwt>
<pdfrwt beam="2">  1       -4 0.73911342E-02 0.12500297E+03</pdfrwt>
<totfact> 0.10357636E+04</totfact>
</mgrwt>
</event>
<event>
 5    1  0.3266594E-002  0.1250019E+03  0.7818608E-02  0.1235066E+00
         -4   -1    0    0    0  501 -0.00000000000E+00  0.00000000000E+00  0.11138691720E+02  0.11210858720E+02  0.12700000000E+01 0. -1.
          4   -1    0    0  501    0  0.00000000000E+00 -0.00000000000E+00 -0.34949703837E+03  0.34949934582E+03  0.12700000000E+01 0. -1.
         25    2    1    2    0    0  0.00000000000E+00  0.00000000000E+00 -0.33835834665E+03  0.36071020454E+03  0.12500192363E+03 0.  0.
    9000005    1    3    3    0    0  0.34736055635E+02 -0.33932847160E+02 -0.28268924692E+03  0.28683138253E+03  0.10000000000E+01 0.  0.
    9000005    1    3    3    0    0 -0.34736055635E+02  0.33932847160E+02 -0.55669099726E+02  0.73878822011E+02  0.10000000000E+01 0.  0.
<mgrwt>
<rscale>  0 0.12500192E+03</rscale>
<asrwt>0</asrwt>
<pdfrwt beam="2">  1        4 0.53774495E-01 0.12500192E+03</pdfrwt>
<pdfrwt beam="1">  1       -4 0.17193740E-02 0.12500192E+03</pdfrwt>
<totfact> 0.68559240E+03</totfact>
</mgrwt>
</event>
<event>
 5    1  0.3266594E-002  0.1250013E+03  0.7818608E-02  0.1235067E+00
          4   -1    0    0  501    0  0.00000000000E+00  0.00000000000E+00  0.11802919948E+03  0.11803603191E+03  0.12700000000E+01 0. -1.
         -4   -1    0    0    0  501 -0.00000000000E+00 -0.00000000000E+00 -0.33076357224E+02  0.33100729708E+02  0.12700000000E+01 0. -1.
         25    2    1    2    0    0  0.00000000000E+00  0.00000000000E+00  0.84952842257E+02  0.15113676162E+03  0.12500134122E+03 0.  0.
    9000005    1    3    3    0    0 -0.40441345709E+02  0.45868247814E+02  0.26901540183E+02  0.66813856830E+02  0.10000000000E+01 0.  0.
    9000005    1    3    3    0    0  0.40441345709E+02 -0.45868247814E+02  0.58051302075E+02  0.84322904793E+02  0.10000000000E+01 0.  0.
<mgrwt>
<rscale>  0 0.12500134E+03</rscale>
<asrwt>0</asrwt>
<pdfrwt beam="1">  1        4 0.18160738E-01 0.12500134E+03</pdfrwt>
<pdfrwt beam="2">  1       -4 0.50910708E-02 0.12500134E+03</pdfrwt>
<totfact> 0.99074593E+03</totfact>
</mgrwt>
</event>
<event>
 4    1  0.3266594E-002  0.1247807E+03  0.7818608E-02  0.1235412E+00
          4   -1    0    0  501    0  0.00000000000E+00  0.00000000000E+00  0.11194097397E+03  0.11194817798E+03  0.12700000000E+01 0. -1.
         -4   -1    0    0    0  501 -0.00000000000E+00 -0.00000000000E+00 -0.34753374702E+02  0.34776571901E+02  0.12700000000E+01 0. -1.
    9000005    1    1    2    0    0 -0.47896896205E+01  0.14617432595E+02 -0.32494218229E+02  0.35965048042E+02  0.10000000000E+01 0.  0.
    9000005    1    1    2    0    0  0.47896896205E+01 -0.14617432595E+02  0.10968181750E+03  0.11075970184E+03  0.10000000000E+01 0.  0.
<mgrwt>
<rscale>  0 0.12478071E+03</rscale>
<asrwt>0</asrwt>
<pdfrwt beam="1">  1        4 0.17224027E-01 0.12478071E+03</pdfrwt>
<pdfrwt beam="2">  1       -4 0.53490115E-02 0.12478071E+03</pdfrwt>
<totfact> 0.10045573E+04</totfact>
</mgrwt>
</event>
<event>
 5    1  0.3266594E-002  0.1250026E+03  0.7818608E-02  0.1235065E+00
         -4   -1    0    0    0  501 -0.00000000000E+00  0.00000000000E+00  0.35318257758E+01  0.37532243886E+01  0.12700000000E+01 0.  1.
          4   -1    0    0  501    0  0.00000000000E+00 -0.00000000000E+00 -0.10722244266E+04  0.10722251787E+04  0.12700000000E+01 0.  1.
         25    2    1    2    0    0  0.00000000000E+00  0.00000000000E+00 -0.10686926008E+04  0.10759784031E+04  0.12500259564E+03 0.  0.
    9000005    1    3    3    0    0 -0.59826391655E+02  0.14933992681E+02 -0.44690726959E+03  0.45114224906E+03  0.10000000000E+01 0.  0.
    9000005    1    3    3    0    0  0.59826391655E+02 -0.14933992681E+02 -0.62178533121E+03  0.62483615403E+03  0.10000000000E+01 0.  0.
<mgrwt>
<rscale>  0 0.12500260E+03</rscale>
<asrwt>0</asrwt>
<pdfrwt beam="2">  1        4 0.16497444E+00 0.12500260E+03</pdfrwt>
<pdfrwt beam="1">  1       -4 0.56044718E-03 0.12500260E+03</pdfrwt>
<totfact> 0.28195739E+03</totfact>
</mgrwt>
</event>
<event>
 5    1  0.3266594E-002  0.1250005E+03  0.7818608E-02  0.1235069E+00
          4   -1    0    0  501    0  0.00000000000E+00  0.00000000000E+00  0.43171657351E+01  0.45000911085E+01  0.12700000000E+01 0.  1.
         -4   -1    0    0    0  501 -0.00000000000E+00 -0.00000000000E+00 -0.88586974223E+03  0.88587065258E+03  0.12700000000E+01 0.  1.
         25    2    1    2    0    0  0.00000000000E+00  0.00000000000E+00 -0.88155257650E+03  0.89037074369E+03  0.12500046435E+03 0.  0.
    9000005    1    3    3    0    0  0.16958665781E+02 -0.29900935594E+02 -0.81251025953E+03  0.81323771686E+03  0.10000000000E+01 0.  0.
    9000005    1    3    3    0    0 -0.16958665781E+02  0.29900935594E+02 -0.69042316971E+02  0.77133026825E+02  0.10000000000E+01 0.  0.
<mgrwt>
<rscale>  0 0.12500046E+03</rscale>
<asrwt>0</asrwt>
<pdfrwt beam="1">  1        4 0.67832126E-03 0.12500046E+03</pdfrwt>
<pdfrwt beam="2">  1       -4 0.13630165E+00 0.12500046E+03</pdfrwt>
<totfact> 0.34529438E+03</totfact>
</mgrwt>
</event>
<event>
 5    1  0.3266594E-002  0.1250086E+03  0.7818608E-02  0.1235056E+00
          4   -1    0    0  501    0  0.00000000000E+00  0.00000000000E+00  0.25646755663E+03  0.25647070106E+03  0.12700000000E+01 0. -1.
         -4   -1    0    0    0  501 -0.00000000000E+00 -0.00000000000E+00 -0.15203362672E+02  0.15256314645E+02  0.12700000000E+01 0. -1.
         25    2    1    2    0    0  0.00000000000E+00  0.00000000000E+00  0.24126419395E+03  0.27172701570E+03  0.12500863882E+03 0.  0.
    9000005    1    3    3    0    0 -0.22683371349E+02 -0.16864682586E+02  0.24179007961E+03  0.24343868931E+03  0.10000000000E+01 0.  0.
    9000005    1    3    3    0    0  0.22683371349E+02  0.16864682586E+02 -0.52588565740E+00  0.28288326394E+02  0.10000000000E+01 0.  0.
<mgrwt>
<rscale>  0 0.12500864E+03</rscale>
<asrwt>0</asrwt>
<pdfrwt beam="1">  1        4 0.39460860E-01 0.12500864E+03</pdfrwt>
<pdfrwt beam="2">  1       -4 0.23432941E-02 0.12500864E+03</pdfrwt>
<totfact> 0.79272756E+03</totfact>
</mgrwt>
</event>
<event>
 5    1  0.3266594E-002  0.1250004E+03  0.7818608E-02  0.1235069E+00
          4   -1    0    0  501    0  0.00000000000E+00  0.00000000000E+00  0.84694835710E+01  0.85641725788E+01  0.12700000000E+01 0.  1.
         -4   -1    0    0    0  501 -0.00000000000E+00 -0.00000000000E+00 -0.45855795127E+03  0.45855970994E+03  0.12700000000E+01 0.  1.
         25    2    1    2    0    0  0.00000000000E+00  0.00000000000E+00 -0.45008846770E+03  0.46712388251E+03  0.12500037143E+03 0.  0.
    9000005    1    3    3    0    0 -0.26774005934E+02  0.29302944030E+02 -0.44669099537E+02  0.59764859040E+02  0.10000000000E+01 0.  0.
    9000005    1    3    3    0    0  0.26774005934E+02 -0.29302944030E+02 -0.40541936817E+03  0.40735902347E+03  0.10000000000E+01 0.  0.
<mgrwt>
<rscale>  0 0.12500037E+03</rscale>
<asrwt>0</asrwt>
<pdfrwt beam="1">  1        4 0.13104169E-02 0.12500037E+03</pdfrwt>
<pdfrwt beam="2">  1       -4 0.70554777E-01 0.12500037E+03</pdfrwt>
<totfact> 0.58508066E+03</totfact>
</mgrwt>
</event>
<event>
 5    1  0.3266594E-002  0.1249905E+03  0.7818608E-02  0.1235084E+00
          4   -1    0    0  501    0  0.00000000000E+00  0.00000000000E+00  0.10819863157E+03  0.10820608473E+03  0.12700000000E+01 0.  1.
         -4   -1    0    0    0  501 -0.00000000000E+00 -0.00000000000E+00 -0.36077248300E+02  0.36099594803E+02  0.12700000000E+01 0.  1.
         25    2    1    2    0    0  0.00000000000E+00  0.00000000000E+00  0.72121383269E+02  0.14430567954E+03  0.12499054053E+03 0.  0.
    9000005    1    3    3    0    0 -0.40255058077E+02 -0.17730771621E+02  0.87301776904E+02  0.97762212606E+02  0.10000000000E+01 0.  0.
    9000005    1    3    3    0    0  0.40255058077E+02  0.17730771621E+02 -0.15180393635E+02  0.46543466931E+02  0.10000000000E+01 0.  0.
<mgrwt>
<rscale>  0 0.12499054E+03</rscale>
<asrwt>0</asrwt>
<pdfrwt beam="1">  1        4 0.16648235E-01 0.12499054E+03</pdfrwt>
<pdfrwt beam="2">  1       -4 0.55526382E-02 0.12499054E+03</pdfrwt>
<totfact> 0.10047255E+04</totfact>
</mgrwt>
</event>
<event>
 5    1  0.3266594E-002  0.1249976E+03  0.7818608E-02  0.1235073E+00
         -4   -1    0    0    0  501 -0.00000000000E+00  0.00000000000E+00  0.27644571137E+02  0.27673727854E+02  0.12700000000E+01 0. -1.
          4   -1    0    0  501    0  0.00000000000E+00 -0.00000000000E+00 -0.14119073683E+03  0.14119644849E+03  0.12700000000E+01 0. -1.
         25    2    1    2    0    0  0.00000000000E+00  0.00000000000E+00 -0.11354616569E+03  0.16887017635E+03  0.12499761884E+03 0.  0.
    9000005    1    3    3    0    0  0.21008867935E+02 -0.17084870178E+02 -0.13285940106E+03  0.13559456394E+03  0.10000000000E+01 0.  0.
    9000005    1    3    3    0    0 -0.21008867935E+02  0.17084870178E+02  0.19313235362E+02  0.33275612407E+02  0.10000000000E+01 0.  0.
<mgrwt>
<rscale>  0 0.12499762E+03</rscale>
<asrwt>0</asrwt>
<pdfrwt beam="2">  1        4 0.21724334E-01 0.12499762E+03</pdfrwt>
<pdfrwt beam="1">  1       -4 0.42556932E-02 0.12499762E+03</pdfrwt>
<totfact> 0.95664536E+03</totfact>
</mgrwt>
</event>
<event>
 5    1  0.3266594E-002  0.1249680E+03  0.7818608E-02  0.1235119E+00
         -4   -1    0    0    0  501 -0.00000000000E+00  0.00000000000E+00  0.11514686831E+02  0.11584511764E+02  0.12700000000E+01 0. -1.
          4   -1    0    0  501    0  0.00000000000E+00 -0.00000000000E+00 -0.33797097833E+03  0.33797336448E+03  0.12700000000E+01 0. -1.
         25    2    1    2    0    0  0.00000000000E+00  0.00000000000E+00 -0.32645629150E+03  0.34955787624E+03  0.12496799022E+03 0.  0.
    9000005    1    3    3    0    0  0.49175140324E+02  0.34967723445E+02 -0.20853153125E+03  0.21708831298E+03  0.10000000000E+01 0.  0.
    9000005    1    3    3    0    0 -0.49175140324E+02 -0.34967723445E+02 -0.11792476025E+03  0.13246956326E+03  0.10000000000E+01 0.  0.
<mgrwt>
<rscale>  0 0.12496799E+03</rscale>
<asrwt>0</asrwt>
<pdfrwt beam="2">  1        4 0.52001082E-01 0.12496799E+03</pdfrwt>
<pdfrwt beam="1">  1       -4 0.17770452E-02 0.12496799E+03</pdfrwt>
<totfact> 0.69822676E+03</totfact>
</mgrwt>
</event>
<event>
 5    1  0.3266594E-002  0.1250045E+03  0.7818608E-02  0.1235062E+00
          4   -1    0    0  501    0  0.00000000000E+00  0.00000000000E+00  0.43115420433E+03  0.43115607477E+03  0.12700000000E+01 0.  1.
         -4   -1    0    0    0  501 -0.00000000000E+00 -0.00000000000E+00 -0.90142388052E+01  0.91032632191E+01  0.12700000000E+01 0.  1.
         25    2    1    2    0    0  0.00000000000E+00  0.00000000000E+00  0.42213996552E+03  0.44025933799E+03  0.12500453669E+03 0.  0.
    9000005    1    3    3    0    0 -0.45765172925E+02  0.41380610702E+02  0.24606465973E+03  0.25368410033E+03  0.10000000000E+01 0.  0.
    9000005    1    3    3    0    0  0.45765172925E+02 -0.41380610702E+02  0.17607530579E+03  0.18657523765E+03  0.10000000000E+01 0.  0.
<mgrwt>
<rscale>  0 0.12500454E+03</rscale>
<asrwt>0</asrwt>
<pdfrwt beam="1">  1        4 0.66338406E-01 0.12500454E+03</pdfrwt>
<pdfrwt beam="2">  1       -4 0.13937979E-02 0.12500454E+03</pdfrwt>
<totfact> 0.60810846E+03</totfact>
</mgrwt>
</event>
<event>
 5    1  0.3266594E-002  0.1250131E+03  0.7818608E-02  0.1235049E+00
         -4   -1    0    0    0  501 -0.00000000000E+00  0.00000000000E+00  0.42593654095E+02  0.42612583460E+02  0.12700000000E+01 0.  1.
          4   -1    0    0  501    0  0.00000000000E+00 -0.00000000000E+00 -0.91685160119E+02  0.91693955559E+02  0.12700000000E+01 0.  1.
         25    2    1    2    0    0  0.00000000000E+00  0.00000000000E+00 -0.49091506024E+02  0.13430653902E+03  0.12501308115E+03 0.  0.
    9000005    1    3    3    0    0  0.31850702480E+02  0.14622633852E+02 -0.80139898574E+02  0.87473950481E+02  0.10000000000E+01 0.  0.
    9000005    1    3    3    0    0 -0.31850702480E+02 -0.14622633852E+02  0.31048392551E+02  0.46832588538E+02  0.10000000000E+01 0.  0.
<mgrwt>
<rscale>  0 0.12501308E+03</rscale>
<asrwt>0</asrwt>
<pdfrwt beam="2">  1        4 0.14107542E-01 0.12501308E+03</pdfrwt>
<pdfrwt beam="1">  1       -4 0.65550026E-02 0.12501308E+03</pdfrwt>
<totfact> 0.10249684E+04</totfact>
</mgrwt>
</event>
<event>
 5    1  0.3266594E-002  0.1249882E+03  0.7818608E-02  0.1235088E+00
         -4   -1    0    0    0  501 -0.00000000000E+00  0.00000000000E+00  0.52966683962E+02  0.52981907382E+02  0.12700000000E+01 0. -1.
          4   -1    0    0  501    0  0.00000000000E+00 -0.00000000000E+00 -0.73703973353E+02  0.73714914285E+02  0.12700000000E+01 0. -1.
         25    2    1    2    0    0  0.00000000000E+00  0.00000000000E+00 -0.20737289392E+02  0.12669682167E+03  0.12498819724E+03 0.  0.
    9000005    1    3    3    0    0 -0.52256167227E+02  0.70392616033E+01  0.23619617894E+02  0.57785331761E+02  0.10000000000E+01 0.  0.
    9000005    1    3    3    0    0  0.52256167227E+02 -0.70392616033E+01 -0.44356907286E+02  0.68911489907E+02  0.10000000000E+01 0.  0.
<mgrwt>
<rscale>  0 0.12498820E+03</rscale>
<asrwt>0</asrwt>
<pdfrwt beam="2">  1        4 0.11341086E-01 0.12498820E+03</pdfrwt>
<pdfrwt beam="1">  1       -4 0.81507332E-02 0.12498820E+03</pdfrwt>
<totfact> 0.10418515E+04</totfact>
</mgrwt>
</event>
<event>
 5    1  0.3266594E-002  0.1249802E+03  0.7818608E-02  0.1235100E+00
          4   -1    0    0  501    0  0.00000000000E+00  0.00000000000E+00  0.28684100046E+03  0.28684381194E+03  0.12700000000E+01 0. -1.
         -4   -1    0    0    0  501 -0.00000000000E+00 -0.00000000000E+00 -0.13581347958E+02  0.13640597947E+02  0.12700000000E+01 0. -1.
         25    2    1    2    0    0  0.00000000000E+00  0.00000000000E+00  0.27325965251E+03  0.30048440988E+03  0.12498017001E+03 0.  0.
    9000005    1    3    3    0    0  0.30039209505E+02 -0.48263344487E+02  0.19896948059E+03  0.20693370613E+03  0.10000000000E+01 0.  0.
    9000005    1    3    3    0    0 -0.30039209505E+02  0.48263344487E+02  0.74290171917E+02  0.93550703751E+02  0.10000000000E+01 0.  0.
<mgrwt>
<rscale>  0 0.12498017E+03</rscale>
<asrwt>0</asrwt>
<pdfrwt beam="1">  1        4 0.44134155E-01 0.12498017E+03</pdfrwt>
<pdfrwt beam="2">  1       -4 0.20942123E-02 0.12498017E+03</pdfrwt>
<totfact> 0.75571378E+03</totfact>
</mgrwt>
</event>
<event>
 5    1  0.3266594E-002  0.1250039E+03  0.7818608E-02  0.1235063E+00
          4   -1    0    0  501    0  0.00000000000E+00  0.00000000000E+00  0.10340332709E+03  0.10341112587E+03  0.12700000000E+01 0. -1.
         -4   -1    0    0    0  501 -0.00000000000E+00 -0.00000000000E+00 -0.37759280535E+02  0.37780632161E+02  0.12700000000E+01 0. -1.
         25    2    1    2    0    0  0.00000000000E+00  0.00000000000E+00  0.65644046555E+02  0.14119175803E+03  0.12500388669E+03 0.  0.
    9000005    1    3    3    0    0 -0.49252069828E+02  0.24481969577E+02 -0.69117742349E+00  0.55014642986E+02  0.10000000000E+01 0.  0.
    9000005    1    3    3    0    0  0.49252069828E+02 -0.24481969577E+02  0.66335223978E+02  0.86177115042E+02  0.10000000000E+01 0.  0.
<mgrwt>
<rscale>  0 0.12500389E+03</rscale>
<asrwt>0</asrwt>
<pdfrwt beam="1">  1        4 0.15910447E-01 0.12500389E+03</pdfrwt>
<pdfrwt beam="2">  1       -4 0.58113624E-02 0.12500389E+03</pdfrwt>
<totfact> 0.10108060E+04</totfact>
</mgrwt>
</event>
<event>
 4    1  0.3266594E-002  0.1249059E+03  0.7818608E-02  0.1235216E+00
         -4   -1    0    0    0  501 -0.00000000000E+00  0.00000000000E+00  0.98433968942E+01  0.99249867716E+01  0.12700000000E+01 0.  1.
          4   -1    0    0  501    0  0.00000000000E+00 -0.00000000000E+00 -0.39452422794E+03  0.39452627204E+03  0.12700000000E+01 0.  1.
    9000005    1    1    2    0    0  0.61268633465E+01  0.44687711028E+02 -0.33217161015E+03  0.33522158128E+03  0.10000000000E+01 0.  0.
    9000005    1    1    2    0    0 -0.61268633465E+01 -0.44687711028E+02 -0.52509220898E+02  0.69229677529E+02  0.10000000000E+01 0.  0.
<mgrwt>
<rscale>  0 0.12490588E+03</rscale>
<asrwt>0</asrwt>
<pdfrwt beam="2">  1        4 0.60702456E-01 0.12490588E+03</pdfrwt>
<pdfrwt beam="1">  1       -4 0.15208024E-02 0.12490588E+03</pdfrwt>
<totfact> 0.64255555E+03</totfact>
</mgrwt>
</event>
<event>
 5    1  0.3266594E-002  0.1250006E+03  0.7818608E-02  0.1235068E+00
         -4   -1    0    0    0  501 -0.00000000000E+00  0.00000000000E+00  0.28923585421E+02  0.28951454085E+02  0.12700000000E+01 0.  1.
          4   -1    0    0  501    0  0.00000000000E+00 -0.00000000000E+00 -0.13495960170E+03  0.13496557706E+03  0.12700000000E+01 0.  1.
         25    2    1    2    0    0  0.00000000000E+00  0.00000000000E+00 -0.10603601627E+03  0.16391703114E+03  0.12500062540E+03 0.  0.
    9000005    1    3    3    0    0 -0.38428812912E+02 -0.83354731956E+00  0.11595034411E+02  0.40161091693E+02  0.10000000000E+01 0.  0.
    9000005    1    3    3    0    0  0.38428812912E+02  0.83354731956E+00 -0.11763105069E+03  0.12375593945E+03  0.10000000000E+01 0.  0.
<mgrwt>
<rscale>  0 0.12500063E+03</rscale>
<asrwt>0</asrwt>
<pdfrwt beam="2">  1        4 0.20765619E-01 0.12500063E+03</pdfrwt>
<pdfrwt beam="1">  1       -4 0.44523859E-02 0.12500063E+03</pdfrwt>
<totfact> 0.96591526E+03</totfact>
</mgrwt>
</event>
<event>
 5    1  0.3266594E-002  0.1249974E+03  0.7818608E-02  0.1235073E+00
         -4   -1    0    0    0  501 -0.00000000000E+00  0.00000000000E+00  0.40621705827E+02  0.40641553665E+02  0.12700000000E+01 0. -1.
          4   -1    0    0  501    0  0.00000000000E+00 -0.00000000000E+00 -0.96110088305E+02  0.96118478838E+02  0.12700000000E+01 0. -1.
         25    2    1    2    0    0  0.00000000000E+00  0.00000000000E+00 -0.55488382479E+02  0.13676003250E+03  0.12499738357E+03 0.  0.
    9000005    1    3    3    0    0  0.50732986628E+02  0.31877912975E+02 -0.83242698177E+01  0.60500667235E+02  0.10000000000E+01 0.  0.
    9000005    1    3    3    0    0 -0.50732986628E+02 -0.31877912975E+02 -0.47164112661E+02  0.76259365267E+02  0.10000000000E+01 0.  0.
<mgrwt>
<rscale>  0 0.12499738E+03</rscale>
<asrwt>0</asrwt>
<pdfrwt beam="2">  1        4 0.14788339E-01 0.12499738E+03</pdfrwt>
<pdfrwt beam="1">  1       -4 0.62516654E-02 0.12499738E+03</pdfrwt>
<totfact> 0.10201707E+04</totfact>
</mgrwt>
</event>
<event>
 5    1  0.3266594E-002  0.1249977E+03  0.7818608E-02  0.1235073E+00
         -4   -1    0    0    0  501 -0.00000000000E+00  0.00000000000E+00  0.81808427103E+02  0.81818284295E+02  0.12700000000E+01 0. -1.
          4   -1    0    0  501    0  0.00000000000E+00 -0.00000000000E+00 -0.47725826330E+02  0.47742720899E+02  0.12700000000E+01 0. -1.
         25    2    1    2    0    0  0.00000000000E+00  0.00000000000E+00  0.34082600773E+02  0.12956100519E+03  0.12499772155E+03 0.  0.
    9000005    1    3    3    0    0  0.40818788408E+02  0.26551858790E+02  0.57636566625E+02  0.75459581927E+02  0.10000000000E+01 0.  0.
    9000005    1    3    3    0    0 -0.40818788408E+02 -0.26551858790E+02 -0.23553965852E+02  0.54101423268E+02  0.10000000000E+01 0.  0.
<mgrwt>
<rscale>  0 0.12499772E+03</rscale>
<asrwt>0</asrwt>
<pdfrwt beam="2">  1        4 0.73444927E-02 0.12499772E+03</pdfrwt>
<pdfrwt beam="1">  1       -4 0.12587970E-01 0.12499772E+03</pdfrwt>
<totfact> 0.10354440E+04</totfact>
</mgrwt>
</event>
<event>
 5    1  0.3266594E-002  0.1249997E+03  0.7818608E-02  0.1235070E+00
          4   -1    0    0  501    0  0.00000000000E+00  0.00000000000E+00  0.32125273248E+03  0.32125524280E+03  0.12700000000E+01 0. -1.
         -4   -1    0    0    0  501 -0.00000000000E+00 -0.00000000000E+00 -0.12123648947E+02  0.12189986209E+02  0.12700000000E+01 0. -1.
         25    2    1    2    0    0  0.00000000000E+00  0.00000000000E+00  0.30912908353E+03  0.33344522901E+03  0.12499972185E+03 0.  0.
    9000005    1    3    3    0    0 -0.96191346771E+00 -0.56717835958E+02  0.84625695597E+02  0.10188398573E+03  0.10000000000E+01 0.  0.
    9000005    1    3    3    0    0  0.96191346771E+00  0.56717835958E+02  0.22450338794E+03  0.23156124328E+03  0.10000000000E+01 0.  0.
<mgrwt>
<rscale>  0 0.12499972E+03</rscale>
<asrwt>0</asrwt>
<pdfrwt beam="1">  1        4 0.49428791E-01 0.12499972E+03</pdfrwt>
<pdfrwt beam="2">  1       -4 0.18704728E-02 0.12499972E+03</pdfrwt>
<totfact> 0.71585463E+03</totfact>
</mgrwt>
</event>
<event>
 5    1  0.3266594E-002  0.1250005E+03  0.7818608E-02  0.1235069E+00
          4   -1    0    0  501    0  0.00000000000E+00  0.00000000000E+00  0.31033508141E+03  0.31033768005E+03  0.12700000000E+01 0. -1.
         -4   -1    0    0    0  501 -0.00000000000E+00 -0.00000000000E+00 -0.12552605984E+02  0.12616688036E+02  0.12700000000E+01 0. -1.
         25    2    1    2    0    0  0.00000000000E+00  0.00000000000E+00  0.29778247543E+03  0.32295436808E+03  0.12500048476E+03 0.  0.
    9000005    1    3    3    0    0  0.29483358992E+02 -0.21897897523E+02  0.18258554281E+02  0.41026347361E+02  0.10000000000E+01 0.  0.
    9000005    1    3    3    0    0 -0.29483358992E+02  0.21897897523E+02  0.27952392115E+03  0.28192802072E+03  0.10000000000E+01 0.  0.
<mgrwt>
<rscale>  0 0.12500048E+03</rscale>
<asrwt>0</asrwt>
<pdfrwt beam="1">  1        4 0.47748988E-01 0.12500048E+03</pdfrwt>
<pdfrwt beam="2">  1       -4 0.19362994E-02 0.12500048E+03</pdfrwt>
<totfact> 0.72805331E+03</totfact>
</mgrwt>
</event>
<event>
 5    1  0.3266594E-002  0.1249948E+03  0.7818608E-02  0.1235077E+00
          4   -1    0    0  501    0  0.00000000000E+00  0.00000000000E+00  0.21643580886E+04  0.21643584612E+04  0.12700000000E+01 0. -1.
         -4   -1    0    0    0  501 -0.00000000000E+00 -0.00000000000E+00 -0.15808042328E+01  0.20277677437E+01  0.12700000000E+01 0. -1.
         25    2    1    2    0    0  0.00000000000E+00  0.00000000000E+00  0.21627772844E+04  0.21663862290E+04  0.12499484470E+03 0.  0.
    9000005    1    3    3    0    0 -0.10783802094E+02  0.36903700982E+02  0.22758758939E+03  0.23081439378E+03  0.10000000000E+01 0.  0.
    9000005    1    3    3    0    0  0.10783802094E+02 -0.36903700982E+02  0.19351896950E+04  0.19355718352E+04  0.10000000000E+01 0.  0.
<mgrwt>
<rscale>  0 0.12499484E+03</rscale>
<asrwt>0</asrwt>
<pdfrwt beam="1">  1        4 0.33301239E+00 0.12499484E+03</pdfrwt>
<pdfrwt beam="2">  1       -4 0.27761128E-03 0.12499484E+03</pdfrwt>
<totfact> 0.78437471E+02</totfact>
</mgrwt>
</event>
<event>
 5    1  0.3266594E-002  0.1249981E+03  0.7818608E-02  0.1235072E+00
          4   -1    0    0  501    0  0.00000000000E+00  0.00000000000E+00  0.13867472507E+03  0.13868054036E+03  0.12700000000E+01 0. -1.
         -4   -1    0    0    0  501 -0.00000000000E+00 -0.00000000000E+00 -0.28146876503E+02  0.28175513427E+02  0.12700000000E+01 0. -1.
         25    2    1    2    0    0  0.00000000000E+00  0.00000000000E+00  0.11052784857E+03  0.16685605378E+03  0.12499814949E+03 0.  0.
    9000005    1    3    3    0    0  0.37844832013E+02 -0.47440884580E+02  0.75164902150E+02  0.96610720704E+02  0.10000000000E+01 0.  0.
    9000005    1    3    3    0    0 -0.37844832013E+02  0.47440884580E+02  0.35362946418E+02  0.70245333078E+02  0.10000000000E+01 0.  0.
<mgrwt>
<rscale>  0 0.12499815E+03</rscale>
<asrwt>0</asrwt>
<pdfrwt beam="1">  1        4 0.21337223E-01 0.12499815E+03</pdfrwt>
<pdfrwt beam="2">  1       -4 0.43329390E-02 0.12499815E+03</pdfrwt>
<totfact> 0.96041027E+03</totfact>
</mgrwt>
</event>
<event>
 5    1  0.3266594E-002  0.1250001E+03  0.7818608E-02  0.1235069E+00
         -4   -1    0    0    0  501 -0.00000000000E+00  0.00000000000E+00  0.66549095692E+01  0.67750071125E+01  0.12700000000E+01 0.  1.
          4   -1    0    0  501    0  0.00000000000E+00 -0.00000000000E+00 -0.58160419865E+03  0.58160558525E+03  0.12700000000E+01 0.  1.
         25    2    1    2    0    0  0.00000000000E+00  0.00000000000E+00 -0.57494928908E+03  0.58838059236E+03  0.12500014579E+03 0.  0.
    9000005    1    3    3    0    0 -0.52634420382E+02 -0.28278898092E+02 -0.20129843201E+03  0.20998127777E+03  0.10000000000E+01 0.  0.
    9000005    1    3    3    0    0  0.52634420382E+02  0.28278898092E+02 -0.37365085708E+03  0.37839931459E+03  0.10000000000E+01 0.  0.
<mgrwt>
<rscale>  0 0.12500015E+03</rscale>
<asrwt>0</asrwt>
<pdfrwt beam="2">  1        4 0.89486874E-01 0.12500015E+03</pdfrwt>
<pdfrwt beam="1">  1       -4 0.10331776E-02 0.12500015E+03</pdfrwt>
<totfact> 0.49609230E+03</totfact>
</mgrwt>
</event>
<event>
 5    1  0.3266594E-002  0.1249928E+03  0.7818608E-02  0.1235081E+00
          4   -1    0    0  501    0  0.00000000000E+00  0.00000000000E+00  0.16684231792E+03  0.16684715146E+03  0.12700000000E+01 0.  1.
         -4   -1    0    0    0  501 -0.00000000000E+00 -0.00000000000E+00 -0.23387718623E+02  0.23422175014E+02  0.12700000000E+01 0.  1.
         25    2    1    2    0    0  0.00000000000E+00  0.00000000000E+00  0.14345459930E+03  0.19026932647E+03  0.12499277794E+03 0.  0.
    9000005    1    3    3    0    0  0.30843826361E+02 -0.43071664718E+02  0.12217508666E+03  0.13317004815E+03  0.10000000000E+01 0.  0.
    9000005    1    3    3    0    0 -0.30843826361E+02  0.43071664718E+02  0.21279512644E+02  0.57099278319E+02  0.10000000000E+01 0.  0.
<mgrwt>
<rscale>  0 0.12499278E+03</rscale>
<asrwt>0</asrwt>
<pdfrwt beam="1">  1        4 0.25671069E-01 0.12499278E+03</pdfrwt>
<pdfrwt beam="2">  1       -4 0.36011331E-02 0.12499278E+03</pdfrwt>
<totfact> 0.91815327E+03</totfact>
</mgrwt>
</event>
<event>
 5    1  0.3266594E-002  0.1250008E+03  0.7818608E-02  0.1235068E+00
          4   -1    0    0  501    0  0.00000000000E+00  0.00000000000E+00  0.13243202915E+02  0.13303958939E+02  0.12700000000E+01 0.  1.
         -4   -1    0    0    0  501 -0.00000000000E+00 -0.00000000000E+00 -0.29422901600E+03  0.29423175688E+03  0.12700000000E+01 0.  1.
         25    2    1    2    0    0  0.00000000000E+00  0.00000000000E+00 -0.28098581309E+03  0.30753571582E+03  0.12500075740E+03 0.  0.
    9000005    1    3    3    0    0  0.44978009965E+02  0.28548756362E+02 -0.22086677497E+03  0.22720296027E+03  0.10000000000E+01 0.  0.
    9000005    1    3    3    0    0 -0.44978009965E+02 -0.28548756362E+02 -0.60119038118E+02  0.80332755551E+02  0.10000000000E+01 0.  0.
<mgrwt>
<rscale>  0 0.12500076E+03</rscale>
<asrwt>0</asrwt>
<pdfrwt beam="1">  1        4 0.20423004E-02 0.12500076E+03</pdfrwt>
<pdfrwt beam="2">  1       -4 0.45270882E-01 0.12500076E+03</pdfrwt>
<totfact> 0.74661939E+03</totfact>
</mgrwt>
</event>
<event>
 4    1  0.3266594E-002  0.1248151E+03  0.7818608E-02  0.1235359E+00
         -4   -1    0    0    0  501 -0.00000000000E+00  0.00000000000E+00  0.24825569345E+01  0.27885460249E+01  0.12700000000E+01 0.  1.
          4   -1    0    0  501    0  0.00000000000E+00 -0.00000000000E+00 -0.14774491864E+04  0.14774497323E+04  0.12700000000E+01 0.  1.
    9000005    1    1    2    0    0  0.36260300776E+02 -0.18925213626E+02 -0.12963551574E+04  0.12970006427E+04  0.10000000000E+01 0.  0.
    9000005    1    1    2    0    0 -0.36260300776E+02  0.18925213626E+02 -0.17861147209E+03  0.18323763556E+03  0.10000000000E+01 0.  0.
<mgrwt>
<rscale>  0 0.12481507E+03</rscale>
<asrwt>0</asrwt>
<pdfrwt beam="2">  1        4 0.22732279E+00 0.12481507E+03</pdfrwt>
<pdfrwt beam="1">  1       -4 0.40551263E-03 0.12481507E+03</pdfrwt>
<totfact> 0.18396111E+03</totfact>
</mgrwt>
</event>
<event>
 5    1  0.3266594E-002  0.1250000E+03  0.7818608E-02  0.1235069E+00
          4   -1    0    0  501    0  0.00000000000E+00  0.00000000000E+00  0.47269636649E+01  0.48945975819E+01  0.12700000000E+01 0. -1.
         -4   -1    0    0    0  501 -0.00000000000E+00 -0.00000000000E+00 -0.81181080872E+03  0.81181180211E+03  0.12700000000E+01 0. -1.
         25    2    1    2    0    0  0.00000000000E+00  0.00000000000E+00 -0.80708384505E+03  0.81670639969E+03  0.12500004143E+03 0.  0.
    9000005    1    3    3    0    0  0.82016395815E+01  0.35461557637E+02 -0.71643893975E+02  0.80365642570E+02  0.10000000000E+01 0.  0.
    9000005    1    3    3    0    0 -0.82016395815E+01 -0.35461557637E+02 -0.73543995108E+03  0.73634075712E+03  0.10000000000E+01 0.  0.
<mgrwt>
<rscale>  0 0.12500004E+03</rscale>
<asrwt>0</asrwt>
<pdfrwt beam="1">  1        4 0.74019715E-03 0.12500004E+03</pdfrwt>
<pdfrwt beam="2">  1       -4 0.12490683E+00 0.12500004E+03</pdfrwt>
<totfact> 0.37529701E+03</totfact>
</mgrwt>
</event>
<event>
 5    1  0.3266594E-002  0.1249979E+03  0.7818608E-02  0.1235073E+00
          4   -1    0    0  501    0  0.00000000000E+00  0.00000000000E+00  0.11222565326E+04  0.11222572512E+04  0.12700000000E+01 0.  1.
         -4   -1    0    0    0  501 -0.00000000000E+00 -0.00000000000E+00 -0.33640020416E+01  0.35957488421E+01  0.12700000000E+01 0.  1.
         25    2    1    2    0    0  0.00000000000E+00  0.00000000000E+00  0.11188925306E+04  0.11258530001E+04  0.12499793101E+03 0.  0.
    9000005    1    3    3    0    0 -0.19133497057E+02 -0.20271510271E+02  0.10632007100E+04  0.10635665351E+04  0.10000000000E+01 0.  0.
    9000005    1    3    3    0    0  0.19133497057E+02  0.20271510271E+02  0.55691820615E+02  0.62286464996E+02  0.10000000000E+01 0.  0.
<mgrwt>
<rscale>  0 0.12499793E+03</rscale>
<asrwt>0</asrwt>
<pdfrwt beam="1">  1        4 0.17267272E+00 0.12499793E+03</pdfrwt>
<pdfrwt beam="2">  1       -4 0.53542078E-03 0.12499793E+03</pdfrwt>
<totfact> 0.26740007E+03</totfact>
</mgrwt>
</event>
<event>
 5    1  0.3266594E-002  0.1249975E+03  0.7818608E-02  0.1235073E+00
          4   -1    0    0  501    0  0.00000000000E+00  0.00000000000E+00  0.10262055197E+03  0.10262841023E+03  0.12700000000E+01 0. -1.
         -4   -1    0    0    0  501 -0.00000000000E+00 -0.00000000000E+00 -0.38043532252E+02  0.38064724433E+02  0.12700000000E+01 0. -1.
         25    2    1    2    0    0  0.00000000000E+00  0.00000000000E+00  0.64577019718E+02  0.14069313466E+03  0.12499746664E+03 0.  0.
    9000005    1    3    3    0    0 -0.31882391663E+02 -0.49216187023E+02  0.79811499858E+01  0.59189684222E+02  0.10000000000E+01 0.  0.
    9000005    1    3    3    0    0  0.31882391663E+02  0.49216187023E+02  0.56595869733E+02  0.81503450442E+02  0.10000000000E+01 0.  0.
<mgrwt>
<rscale>  0 0.12499747E+03</rscale>
<asrwt>0</asrwt>
<pdfrwt beam="1">  1        4 0.15790012E-01 0.12499747E+03</pdfrwt>
<pdfrwt beam="2">  1       -4 0.58550859E-02 0.12499747E+03</pdfrwt>
<totfact> 0.10119818E+04</totfact>
</mgrwt>
</event>
<event>
 5    1  0.3266594E-002  0.1249990E+03  0.7818608E-02  0.1235071E+00
          4   -1    0    0  501    0  0.00000000000E+00  0.00000000000E+00  0.68796122124E+02  0.68807843443E+02  0.12700000000E+01 0.  1.
         -4   -1    0    0    0  501 -0.00000000000E+00 -0.00000000000E+00 -0.56755532867E+02  0.56769740276E+02  0.12700000000E+01 0.  1.
         25    2    1    2    0    0  0.00000000000E+00  0.00000000000E+00  0.12040589257E+02  0.12557758372E+03  0.12499901497E+03 0.  0.
    9000005    1    3    3    0    0  0.10070314882E+02  0.53913343025E+02 -0.24070447016E+02  0.59903641104E+02  0.10000000000E+01 0.  0.
    9000005    1    3    3    0    0 -0.10070314882E+02 -0.53913343025E+02  0.36111036274E+02  0.65673942616E+02  0.10000000000E+01 0.  0.
<mgrwt>
<rscale>  0 0.12499901E+03</rscale>
<asrwt>0</asrwt>
<pdfrwt beam="1">  1        4 0.10586013E-01 0.12499901E+03</pdfrwt>
<pdfrwt beam="2">  1       -4 0.87336150E-02 0.12499901E+03</pdfrwt>
<totfact> 0.10440473E+04</totfact>
</mgrwt>
</event>
<event>
 5    1  0.3266594E-002  0.1250043E+03  0.7818608E-02  0.1235062E+00
          4   -1    0    0  501    0  0.00000000000E+00  0.00000000000E+00  0.26388757516E+02  0.26419300203E+02  0.12700000000E+01 0. -1.
         -4   -1    0    0    0  501 -0.00000000000E+00 -0.00000000000E+00 -0.14791845748E+03  0.14792390937E+03  0.12700000000E+01 0. -1.
         25    2    1    2    0    0  0.00000000000E+00  0.00000000000E+00 -0.12152969996E+03  0.17434320957E+03  0.12500434693E+03 0.  0.
    9000005    1    3    3    0    0 -0.20666583585E+02 -0.53447230505E+02 -0.95543115673E+02  0.11141454608E+03  0.10000000000E+01 0.  0.
    9000005    1    3    3    0    0  0.20666583585E+02  0.53447230505E+02 -0.25986584290E+02  0.62928663491E+02  0.10000000000E+01 0.  0.
<mgrwt>
<rscale>  0 0.12500435E+03</rscale>
<asrwt>0</asrwt>
<pdfrwt beam="1">  1        4 0.40625777E-02 0.12500435E+03</pdfrwt>
<pdfrwt beam="2">  1       -4 0.22759454E-01 0.12500435E+03</pdfrwt>
<totfact> 0.94636039E+03</totfact>
</mgrwt>
</event>
<event>
 5    1  0.3266594E-002  0.1250000E+03  0.7818608E-02  0.1235069E+00
         -4   -1    0    0    0  501 -0.00000000000E+00  0.00000000000E+00  0.13009960040E+02  0.13071800192E+02  0.12700000000E+01 0. -1.
          4   -1    0    0  501    0  0.00000000000E+00 -0.00000000000E+00 -0.29947545342E+03  0.29947814628E+03  0.12700000000E+01 0. -1.
         25    2    1    2    0    0  0.00000000000E+00  0.00000000000E+00 -0.28646549338E+03  0.31254994647E+03  0.12499996058E+03 0.  0.
    9000005    1    3    3    0    0 -0.41324643845E+02 -0.18136558366E+02 -0.25131793104E+03  0.25533970197E+03  0.10000000000E+01 0.  0.
    9000005    1    3    3    0    0  0.41324643845E+02  0.18136558366E+02 -0.35147562340E+02  0.57210244509E+02  0.10000000000E+01 0.  0.
<mgrwt>
<rscale>  0 0.12499996E+03</rscale>
<asrwt>0</asrwt>
<pdfrwt beam="2">  1        4 0.46078106E-01 0.12499996E+03</pdfrwt>
<pdfrwt beam="1">  1       -4 0.20064966E-02 0.12499996E+03</pdfrwt>
<totfact> 0.74051127E+03</totfact>
</mgrwt>
</event>
<event>
 5    1  0.3266594E-002  0.1249999E+03  0.7818608E-02  0.1235069E+00
         -4   -1    0    0    0  501 -0.00000000000E+00  0.00000000000E+00  0.49581213289E+02  0.49597475855E+02  0.12700000000E+01 0. -1.
          4   -1    0    0  501    0  0.00000000000E+00 -0.00000000000E+00 -0.78750434373E+02  0.78760674285E+02  0.12700000000E+01 0. -1.
         25    2    1    2    0    0  0.00000000000E+00  0.00000000000E+00 -0.29169221083E+02  0.12835815014E+03  0.12499988500E+03 0.  0.
    9000005    1    3    3    0    0  0.53266340359E+02  0.46093583560E+01  0.18637224925E+02  0.56629456581E+02  0.10000000000E+01 0.  0.
    9000005    1    3    3    0    0 -0.53266340359E+02 -0.46093583560E+01 -0.47806446009E+02  0.71728693559E+02  0.10000000000E+01 0.  0.
<mgrwt>
<rscale>  0 0.12499988E+03</rscale>
<asrwt>0</asrwt>
<pdfrwt beam="2">  1        4 0.12117490E-01 0.12499988E+03</pdfrwt>
<pdfrwt beam="1">  1       -4 0.76299176E-02 0.12499988E+03</pdfrwt>
<totfact> 0.10379787E+04</totfact>
</mgrwt>
</event>
<event>
 5    1  0.3266594E-002  0.1250039E+03  0.7818608E-02  0.1235063E+00
          4   -1    0    0  501    0  0.00000000000E+00  0.00000000000E+00  0.69464121423E+02  0.69475730043E+02  0.12700000000E+01 0.  1.
         -4   -1    0    0    0  501 -0.00000000000E+00 -0.00000000000E+00 -0.56214071032E+02  0.56228415254E+02  0.12700000000E+01 0.  1.
         25    2    1    2    0    0  0.00000000000E+00  0.00000000000E+00  0.13250050391E+02  0.12570414530E+03  0.12500387318E+03 0.  0.
    9000005    1    3    3    0    0 -0.24551943367E+02 -0.26924597483E+02 -0.44431045391E+02  0.57470424283E+02  0.10000000000E+01 0.  0.
    9000005    1    3    3    0    0  0.24551943367E+02  0.26924597483E+02  0.57681095782E+02  0.68233721014E+02  0.10000000000E+01 0.  0.
<mgrwt>
<rscale>  0 0.12500387E+03</rscale>
<asrwt>0</asrwt>
<pdfrwt beam="1">  1        4 0.10688784E-01 0.12500387E+03</pdfrwt>
<pdfrwt beam="2">  1       -4 0.86503151E-02 0.12500387E+03</pdfrwt>
<totfact> 0.10436541E+04</totfact>
</mgrwt>
</event>
<event>
 5    1  0.3266594E-002  0.1250126E+03  0.7818608E-02  0.1235050E+00
         -4   -1    0    0    0  501 -0.00000000000E+00  0.00000000000E+00  0.29179482675E+02  0.29207107169E+02  0.12700000000E+01 0. -1.
          4   -1    0    0  501    0  0.00000000000E+00 -0.00000000000E+00 -0.13380267691E+03  0.13380870394E+03  0.12700000000E+01 0. -1.
         25    2    1    2    0    0  0.00000000000E+00  0.00000000000E+00 -0.10462319424E+03  0.16301581110E+03  0.12501256696E+03 0.  0.
    9000005    1    3    3    0    0 -0.33934504529E+02 -0.86433372665E+01  0.15191769393E+02  0.38184391235E+02  0.10000000000E+01 0.  0.
    9000005    1    3    3    0    0  0.33934504529E+02  0.86433372665E+01 -0.11981496363E+03  0.12483141987E+03  0.10000000000E+01 0.  0.
<mgrwt>
<rscale>  0 0.12501257E+03</rscale>
<asrwt>0</asrwt>
<pdfrwt beam="2">  1        4 0.20587616E-01 0.12501257E+03</pdfrwt>
<pdfrwt beam="1">  1       -4 0.44917398E-02 0.12501257E+03</pdfrwt>
<totfact> 0.96737172E+03</totfact>
</mgrwt>
</event>
<event>
 5    1  0.3266594E-002  0.1250032E+03  0.7818608E-02  0.1235064E+00
          4   -1    0    0  501    0  0.00000000000E+00  0.00000000000E+00  0.11530579923E+02  0.11600309193E+02  0.12700000000E+01 0.  1.
         -4   -1    0    0    0  501 -0.00000000000E+00 -0.00000000000E+00 -0.33769834861E+03  0.33770073668E+03  0.12700000000E+01 0.  1.
         25    2    1    2    0    0  0.00000000000E+00  0.00000000000E+00 -0.32616776869E+03  0.34930104588E+03  0.12500322923E+03 0.  0.
    9000005    1    3    3    0    0  0.22375018601E+02 -0.44746362229E+02 -0.58433347920E+02  0.76930712588E+02  0.10000000000E+01 0.  0.
    9000005    1    3    3    0    0 -0.22375018601E+02  0.44746362229E+02 -0.26773442077E+03  0.27237033329E+03  0.10000000000E+01 0.  0.
<mgrwt>
<rscale>  0 0.12500323E+03</rscale>
<asrwt>0</asrwt>
<pdfrwt beam="1">  1        4 0.17794831E-02 0.12500323E+03</pdfrwt>
<pdfrwt beam="2">  1       -4 0.51959132E-01 0.12500323E+03</pdfrwt>
<totfact> 0.69796533E+03</totfact>
</mgrwt>
</event>
<event>
 5    1  0.3266594E-002  0.1249919E+03  0.7818608E-02  0.1235082E+00
          4   -1    0    0  501    0  0.00000000000E+00  0.00000000000E+00  0.25447156080E+02  0.25478827535E+02  0.12700000000E+01 0.  1.
         -4   -1    0    0    0  501 -0.00000000000E+00 -0.00000000000E+00 -0.15335473016E+03  0.15335998879E+03  0.12700000000E+01 0.  1.
         25    2    1    2    0    0  0.00000000000E+00  0.00000000000E+00 -0.12790757408E+03  0.17883881633E+03  0.12499189861E+03 0.  0.
    9000005    1    3    3    0    0  0.37548338543E+02  0.48538568634E+02 -0.80815019306E+02  0.10147875501E+03  0.10000000000E+01 0.  0.
    9000005    1    3    3    0    0 -0.37548338543E+02 -0.48538568634E+02 -0.47092554773E+02  0.77360061320E+02  0.10000000000E+01 0.  0.
<mgrwt>
<rscale>  0 0.12499190E+03</rscale>
<asrwt>0</asrwt>
<pdfrwt beam="1">  1        4 0.39177879E-02 0.12499190E+03</pdfrwt>
<pdfrwt beam="2">  1       -4 0.23595876E-01 0.12499190E+03</pdfrwt>
<totfact> 0.93843486E+03</totfact>
</mgrwt>
</event>
<event>
 5    1  0.3266594E-002  0.1249984E+03  0.7818608E-02  0.1235072E+00
         -4   -1    0    0    0  501 -0.00000000000E+00  0.00000000000E+00  0.17610293644E+02  0.17656028496E+02  0.12700000000E+01 0. -1.
          4   -1    0    0  501    0  0.00000000000E+00 -0.00000000000E+00 -0.22147554217E+03  0.22147918340E+03  0.12700000000E+01 0. -1.
         25    2    1    2    0    0  0.00000000000E+00  0.00000000000E+00 -0.20386524852E+03  0.23913521189E+03  0.12499844004E+03 0.  0.
    9000005    1    3    3    0    0  0.27857629618E+02  0.44343593958E+02 -0.16716785933E+03  0.17518132048E+03  0.10000000000E+01 0.  0.
    9000005    1    3    3    0    0 -0.27857629618E+02 -0.44343593958E+02 -0.36697389195E+02  0.63953891412E+02  0.10000000000E+01 0.  0.
<mgrwt>
<rscale>  0 0.12499844E+03</rscale>
<asrwt>0</asrwt>
<pdfrwt beam="2">  1        4 0.34076957E-01 0.12499844E+03</pdfrwt>
<pdfrwt beam="1">  1       -4 0.27130743E-02 0.12499844E+03</pdfrwt>
<totfact> 0.83929251E+03</totfact>
</mgrwt>
</event>
<event>
 5    1  0.3266594E-002  0.1249991E+03  0.7818608E-02  0.1235071E+00
         -4   -1    0    0    0  501 -0.00000000000E+00  0.00000000000E+00  0.45163458043E+02  0.45181310764E+02  0.12700000000E+01 0. -1.
          4   -1    0    0  501    0  0.00000000000E+00 -0.00000000000E+00 -0.86450548761E+02  0.86459876713E+02  0.12700000000E+01 0. -1.
         25    2    1    2    0    0  0.00000000000E+00  0.00000000000E+00 -0.41287090719E+02  0.13164118748E+03  0.12499911352E+03 0.  0.
    9000005    1    3    3    0    0  0.40136949121E+02  0.43607006514E+02  0.22475346552E+00  0.59275595450E+02  0.10000000000E+01 0.  0.
    9000005    1    3    3    0    0 -0.40136949121E+02 -0.43607006514E+02 -0.41511844184E+02  0.72365592027E+02  0.10000000000E+01 0.  0.
<mgrwt>
<rscale>  0 0.12499911E+03</rscale>
<asrwt>0</asrwt>
<pdfrwt beam="2">  1        4 0.13302175E-01 0.12499911E+03</pdfrwt>
<pdfrwt beam="1">  1       -4 0.69503152E-02 0.12499911E+03</pdfrwt>
<totfact> 0.10309569E+04</totfact>
</mgrwt>
</event>
<event>
 5    1  0.3266594E-002  0.1249479E+03  0.7818608E-02  0.1235151E+00
          4   -1    0    0  501    0  0.00000000000E+00  0.00000000000E+00  0.70555504931E+01  0.71689394446E+01  0.12700000000E+01 0.  1.
         -4   -1    0    0    0  501 -0.00000000000E+00 -0.00000000000E+00 -0.54865727222E+03  0.54865874208E+03  0.12700000000E+01 0.  1.
         25    2    1    2    0    0  0.00000000000E+00  0.00000000000E+00 -0.54160172173E+03  0.55582768152E+03  0.12494793544E+03 0.  0.
    9000005    1    3    3    0    0  0.29626257344E+02 -0.39082770284E+02 -0.98694995693E+02  0.11021288596E+03  0.10000000000E+01 0.  0.
    9000005    1    3    3    0    0 -0.29626257344E+02  0.39082770284E+02 -0.44290672603E+03  0.44561479556E+03  0.10000000000E+01 0.  0.
<mgrwt>
<rscale>  0 0.12494794E+03</rscale>
<asrwt>0</asrwt>
<pdfrwt beam="1">  1        4 0.10943050E-02 0.12494794E+03</pdfrwt>
<pdfrwt beam="2">  1       -4 0.84417613E-01 0.12494794E+03</pdfrwt>
<totfact> 0.51839377E+03</totfact>
</mgrwt>
</event>
<event>
 5    1  0.3266594E-002  0.1250025E+03  0.7818608E-02  0.1235065E+00
          4   -1    0    0  501    0  0.00000000000E+00  0.00000000000E+00  0.12338285417E+02  0.12403474797E+02  0.12700000000E+01 0.  1.
         -4   -1    0    0    0  501 -0.00000000000E+00 -0.00000000000E+00 -0.31570787228E+03  0.31571042669E+03  0.12700000000E+01 0.  1.
         25    2    1    2    0    0  0.00000000000E+00  0.00000000000E+00 -0.30336958686E+03  0.32811390148E+03  0.12500250443E+03 0.  0.
    9000005    1    3    3    0    0 -0.29659288815E+02 -0.28076543956E+02 -0.27524796600E+02  0.49260330504E+02  0.10000000000E+01 0.  0.
    9000005    1    3    3    0    0  0.29659288815E+02  0.28076543956E+02 -0.27584479026E+03  0.27885357098E+03  0.10000000000E+01 0.  0.
<mgrwt>
<rscale>  0 0.12500250E+03</rscale>
<asrwt>0</asrwt>
<pdfrwt beam="1">  1        4 0.19034090E-02 0.12500250E+03</pdfrwt>
<pdfrwt beam="2">  1       -4 0.48575647E-01 0.12500250E+03</pdfrwt>
<totfact> 0.72197361E+03</totfact>
</mgrwt>
</event>
<event>
 5    1  0.3266594E-002  0.1249989E+03  0.7818608E-02  0.1235071E+00
         -4   -1    0    0    0  501 -0.00000000000E+00  0.00000000000E+00  0.31792707489E+02  0.31818063258E+02  0.12700000000E+01 0. -1.
          4   -1    0    0  501    0  0.00000000000E+00 -0.00000000000E+00 -0.12278641482E+03  0.12279298255E+03  0.12700000000E+01 0. -1.
         25    2    1    2    0    0  0.00000000000E+00  0.00000000000E+00 -0.90993707332E+02  0.15461104581E+03  0.12499888285E+03 0.  0.
    9000005    1    3    3    0    0  0.10128088058E+02  0.37016259920E+02 -0.10649993198E+03  0.11320784945E+03  0.10000000000E+01 0.  0.
    9000005    1    3    3    0    0 -0.10128088058E+02 -0.37016259920E+02  0.15506224646E+02  0.41403196361E+02  0.10000000000E+01 0.  0.
<mgrwt>
<rscale>  0 0.12499888E+03</rscale>
<asrwt>0</asrwt>
<pdfrwt beam="2">  1        4 0.18892673E-01 0.12499888E+03</pdfrwt>
<pdfrwt beam="1">  1       -4 0.48936415E-02 0.12499888E+03</pdfrwt>
<totfact> 0.98394382E+03</totfact>
</mgrwt>
</event>
<event>
 5    1  0.3266594E-002  0.1250020E+03  0.7818608E-02  0.1235066E+00
         -4   -1    0    0    0  501 -0.00000000000E+00  0.00000000000E+00  0.19385461088E+03  0.19385877091E+03  0.12700000000E+01 0.  1.
          4   -1    0    0  501    0  0.00000000000E+00 -0.00000000000E+00 -0.20126658555E+02  0.20166687497E+02  0.12700000000E+01 0.  1.
         25    2    1    2    0    0  0.00000000000E+00  0.00000000000E+00  0.17372795232E+03  0.21402545841E+03  0.12500198170E+03 0.  0.
    9000005    1    3    3    0    0 -0.27493959162E+02 -0.44040552550E+02  0.27308633575E+02  0.58670687119E+02  0.10000000000E+01 0.  0.
    9000005    1    3    3    0    0  0.27493959162E+02  0.44040552550E+02  0.14641931875E+03  0.15535477129E+03  0.10000000000E+01 0.  0.
<mgrwt>
<rscale>  0 0.12500198E+03</rscale>
<asrwt>0</asrwt>
<pdfrwt beam="2">  1        4 0.30998082E-02 0.12500198E+03</pdfrwt>
<pdfrwt beam="1">  1       -4 0.29827185E-01 0.12500198E+03</pdfrwt>
<totfact> 0.87818772E+03</totfact>
</mgrwt>
</event>
<event>
 5    1  0.3266594E-002  0.1249919E+03  0.7818608E-02  0.1235082E+00
         -4   -1    0    0    0  501 -0.00000000000E+00  0.00000000000E+00  0.98594703715E+01  0.99409283272E+01  0.12700000000E+01 0. -1.
          4   -1    0    0  501    0  0.00000000000E+00 -0.00000000000E+00 -0.39442931469E+03  0.39443135929E+03  0.12700000000E+01 0. -1.
         25    2    1    2    0    0  0.00000000000E+00  0.00000000000E+00 -0.38456984432E+03  0.40437228762E+03  0.12499192706E+03 0.  0.
    9000005    1    3    3    0    0  0.39613152063E+02  0.49439820198E+01 -0.34781301770E+03  0.35009790067E+03  0.10000000000E+01 0.  0.
    9000005    1    3    3    0    0 -0.39613152063E+02 -0.49439820198E+01 -0.36756826623E+02  0.54274386942E+02  0.10000000000E+01 0.  0.
<mgrwt>
<rscale>  0 0.12499193E+03</rscale>
<asrwt>0</asrwt>
<pdfrwt beam="2">  1        4 0.60687844E-01 0.12499193E+03</pdfrwt>
<pdfrwt beam="1">  1       -4 0.15232652E-02 0.12499193E+03</pdfrwt>
<totfact> 0.64141190E+03</totfact>
</mgrwt>
</event>
<event>
 5    1  0.3266594E-002  0.1250026E+03  0.7818608E-02  0.1235065E+00
         -4   -1    0    0    0  501 -0.00000000000E+00  0.00000000000E+00  0.26833463300E+01  0.29687114253E+01  0.12700000000E+01 0. -1.
          4   -1    0    0  501    0  0.00000000000E+00 -0.00000000000E+00 -0.13820120427E+04  0.13820126262E+04  0.12700000000E+01 0. -1.
         25    2    1    2    0    0  0.00000000000E+00  0.00000000000E+00 -0.13793286964E+04  0.13849813376E+04  0.12500261210E+03 0.  0.
    9000005    1    3    3    0    0  0.52794932140E+02 -0.29956128393E+02 -0.85427735290E+03  0.85643182459E+03  0.10000000000E+01 0.  0.
    9000005    1    3    3    0    0 -0.52794932140E+02  0.29956128393E+02 -0.52505134345E+03  0.52854951305E+03  0.10000000000E+01 0.  0.
<mgrwt>
<rscale>  0 0.12500261E+03</rscale>
<asrwt>0</asrwt>
<pdfrwt beam="2">  1        4 0.21263869E+00 0.12500261E+03</pdfrwt>
<pdfrwt beam="1">  1       -4 0.43481967E-03 0.12500261E+03</pdfrwt>
<totfact> 0.20304443E+03</totfact>
</mgrwt>
</event>
<event>
 5    1  0.3266594E-002  0.1249993E+03  0.7818608E-02  0.1235070E+00
          4   -1    0    0  501    0  0.00000000000E+00  0.00000000000E+00  0.80173180238E+03  0.80173280826E+03  0.12700000000E+01 0. -1.
         -4   -1    0    0    0  501 -0.00000000000E+00 -0.00000000000E+00 -0.47884240843E+01  0.49539787254E+01  0.12700000000E+01 0. -1.
         25    2    1    2    0    0  0.00000000000E+00  0.00000000000E+00  0.79694337829E+03  0.80668678699E+03  0.12499929638E+03 0.  0.
    9000005    1    3    3    0    0 -0.25008877189E+02  0.47234207226E+02  0.18948371239E+03  0.19687963716E+03  0.10000000000E+01 0.  0.
    9000005    1    3    3    0    0  0.25008877189E+02 -0.47234207226E+02  0.60745966591E+03  0.60980714982E+03  0.10000000000E+01 0.  0.
<mgrwt>
<rscale>  0 0.12499930E+03</rscale>
<asrwt>0</asrwt>
<pdfrwt beam="1">  1        4 0.12335616E+00 0.12499930E+03</pdfrwt>
<pdfrwt beam="2">  1       -4 0.74949302E-03 0.12499930E+03</pdfrwt>
<totfact> 0.37968532E+03</totfact>
</mgrwt>
</event>
<event>
 5    1  0.3266594E-002  0.1249983E+03  0.7818608E-02  0.1235072E+00
          4   -1    0    0  501    0  0.00000000000E+00  0.00000000000E+00  0.50659776925E+03  0.50659936114E+03  0.12700000000E+01 0.  1.
         -4   -1    0    0    0  501 -0.00000000000E+00 -0.00000000000E+00 -0.76566306174E+01  0.77612429681E+01  0.12700000000E+01 0.  1.
         25    2    1    2    0    0  0.00000000000E+00  0.00000000000E+00  0.49894113863E+03  0.51436060411E+03  0.12499828495E+03 0.  0.
    9000005    1    3    3    0    0 -0.55655032684E+02  0.16439900020E+01  0.36621874525E+03  0.37042860950E+03  0.10000000000E+01 0.  0.
    9000005    1    3    3    0    0  0.55655032684E+02 -0.16439900020E+01  0.13272239339E+03  0.14393199461E+03  0.10000000000E+01 0.  0.
<mgrwt>
<rscale>  0 0.12499828E+03</rscale>
<asrwt>0</asrwt>
<pdfrwt beam="1">  1        4 0.77946292E-01 0.12499828E+03</pdfrwt>
<pdfrwt beam="2">  1       -4 0.11861127E-02 0.12499828E+03</pdfrwt>
<totfact> 0.54769186E+03</totfact>
</mgrwt>
</event>
<event>
 5    1  0.3266594E-002  0.1250004E+03  0.7818608E-02  0.1235069E+00
          4   -1    0    0  501    0  0.00000000000E+00  0.00000000000E+00  0.27548492733E+03  0.27548785470E+03  0.12700000000E+01 0. -1.
         -4   -1    0    0    0  501 -0.00000000000E+00 -0.00000000000E+00 -0.14148194953E+02  0.14205080796E+02  0.12700000000E+01 0. -1.
         25    2    1    2    0    0  0.00000000000E+00  0.00000000000E+00  0.26133673238E+03  0.28969293549E+03  0.12500043674E+03 0.  0.
    9000005    1    3    3    0    0 -0.50061867664E+02 -0.19743880959E+02  0.57042711932E+02  0.78427561570E+02  0.10000000000E+01 0.  0.
    9000005    1    3    3    0    0  0.50061867664E+02  0.19743880959E+02  0.20429402045E+03  0.21126537392E+03  0.10000000000E+01 0.  0.
<mgrwt>
<rscale>  0 0.12500044E+03</rscale>
<asrwt>0</asrwt>
<pdfrwt beam="1">  1        4 0.42386896E-01 0.12500044E+03</pdfrwt>
<pdfrwt beam="2">  1       -4 0.21812465E-02 0.12500044E+03</pdfrwt>
<totfact> 0.76909453E+03</totfact>
</mgrwt>
</event>
<event>
 5    1  0.3266594E-002  0.1250014E+03  0.7818608E-02  0.1235067E+00
         -4   -1    0    0    0  501 -0.00000000000E+00  0.00000000000E+00  0.14020724775E+02  0.14078125700E+02  0.12700000000E+01 0.  1.
          4   -1    0    0  501    0  0.00000000000E+00 -0.00000000000E+00 -0.27798361899E+03  0.27798652005E+03  0.12700000000E+01 0.  1.
         25    2    1    2    0    0  0.00000000000E+00  0.00000000000E+00 -0.26396289422E+03  0.29206464575E+03  0.12500139108E+03 0.  0.
    9000005    1    3    3    0    0  0.11092704121E+01  0.19180675075E+02 -0.27092328980E+03  0.27160551860E+03  0.10000000000E+01 0.  0.
    9000005    1    3    3    0    0 -0.11092704121E+01 -0.19180675075E+02  0.69603955799E+01  0.20459127152E+02  0.10000000000E+01 0.  0.
<mgrwt>
<rscale>  0 0.12500139E+03</rscale>
<asrwt>0</asrwt>
<pdfrwt beam="2">  1        4 0.42771345E-01 0.12500139E+03</pdfrwt>
<pdfrwt beam="1">  1       -4 0.21616734E-02 0.12500139E+03</pdfrwt>
<totfact> 0.76602775E+03</totfact>
</mgrwt>
</event>
<event>
 5    1  0.3266594E-002  0.1249989E+03  0.7818608E-02  0.1235071E+00
         -4   -1    0    0    0  501 -0.00000000000E+00  0.00000000000E+00  0.12199731427E+03  0.12200392448E+03  0.12700000000E+01 0. -1.
          4   -1    0    0  501    0  0.00000000000E+00 -0.00000000000E+00 -0.31998514474E+02  0.32023707289E+02  0.12700000000E+01 0. -1.
         25    2    1    2    0    0  0.00000000000E+00  0.00000000000E+00  0.89998799795E+02  0.15402763177E+03  0.12499890953E+03 0.  0.
    9000005    1    3    3    0    0  0.50432095843E+01 -0.62279941194E+02  0.43794073080E+02  0.76309539869E+02  0.10000000000E+01 0.  0.
    9000005    1    3    3    0    0 -0.50432095843E+01  0.62279941194E+02  0.46204726715E+02  0.77718091902E+02  0.10000000000E+01 0.  0.
<mgrwt>
<rscale>  0 0.12499891E+03</rscale>
<asrwt>0</asrwt>
<pdfrwt beam="2">  1        4 0.49252948E-02 0.12499891E+03</pdfrwt>
<pdfrwt beam="1">  1       -4 0.18771264E-01 0.12499891E+03</pdfrwt>
<totfact> 0.98509141E+03</totfact>
</mgrwt>
</event>
<event>
 5    1  0.3266594E-002  0.1249989E+03  0.7818608E-02  0.1235071E+00
         -4   -1    0    0    0  501 -0.00000000000E+00  0.00000000000E+00  0.68794127126E+01  0.69956571722E+01  0.12700000000E+01 0.  1.
          4   -1    0    0  501    0  0.00000000000E+00 -0.00000000000E+00 -0.56293348936E+03  0.56293492194E+03  0.12700000000E+01 0.  1.
         25    2    1    2    0    0  0.00000000000E+00  0.00000000000E+00 -0.55605407665E+03  0.56993057911E+03  0.12499891541E+03 0.  0.
    9000005    1    3    3    0    0 -0.27247948581E+02  0.14733801285E+02 -0.30566452770E+02  0.43529801712E+02  0.10000000000E+01 0.  0.
    9000005    1    3    3    0    0  0.27247948581E+02 -0.14733801285E+02 -0.52548762388E+03  0.52640077740E+03  0.10000000000E+01 0.  0.
<mgrwt>
<rscale>  0 0.12499892E+03</rscale>
<asrwt>0</asrwt>
<pdfrwt beam="2">  1        4 0.86614168E-01 0.12499892E+03</pdfrwt>
<pdfrwt beam="1">  1       -4 0.10674237E-02 0.12499892E+03</pdfrwt>
<totfact> 0.50823631E+03</totfact>
</mgrwt>
</event>
<event>
 5    1  0.3266594E-002  0.1249989E+03  0.7818608E-02  0.1235071E+00
          4   -1    0    0  501    0  0.00000000000E+00  0.00000000000E+00  0.13311906866E+03  0.13312512664E+03  0.12700000000E+01 0.  1.
         -4   -1    0    0    0  501 -0.00000000000E+00 -0.00000000000E+00 -0.29323026557E+02  0.29350515949E+02  0.12700000000E+01 0.  1.
         25    2    1    2    0    0  0.00000000000E+00  0.00000000000E+00  0.10379604211E+03  0.16247564259E+03  0.12499886430E+03 0.  0.
    9000005    1    3    3    0    0 -0.47684821754E+02 -0.24942636922E+02  0.93190520678E+02  0.10761714783E+03  0.10000000000E+01 0.  0.
    9000005    1    3    3    0    0  0.47684821754E+02  0.24942636922E+02  0.10605521429E+02  0.54858494758E+02  0.10000000000E+01 0.  0.
<mgrwt>
<rscale>  0 0.12499886E+03</rscale>
<asrwt>0</asrwt>
<pdfrwt beam="1">  1        4 0.20482438E-01 0.12499886E+03</pdfrwt>
<pdfrwt beam="2">  1       -4 0.45138154E-02 0.12499886E+03</pdfrwt>
<totfact> 0.96870085E+03</totfact>
</mgrwt>
</event>
<event>
 5    1  0.3266594E-002  0.1250052E+03  0.7818608E-02  0.1235061E+00
         -4   -1    0    0    0  501 -0.00000000000E+00  0.00000000000E+00  0.79962963033E+02  0.79973047691E+02  0.12700000000E+01 0. -1.
          4   -1    0    0  501    0  0.00000000000E+00 -0.00000000000E+00 -0.48833382086E+02  0.48849893613E+02  0.12700000000E+01 0. -1.
         25    2    1    2    0    0  0.00000000000E+00  0.00000000000E+00  0.31129580947E+02  0.12882294130E+03  0.12500519748E+03 0.  0.
    9000005    1    3    3    0    0 -0.30271136900E+02  0.48740072131E+02 -0.99634825544E+01  0.58242659153E+02  0.10000000000E+01 0.  0.
    9000005    1    3    3    0    0  0.30271136900E+02 -0.48740072131E+02  0.41093063501E+02  0.70580282151E+02  0.10000000000E+01 0.  0.
<mgrwt>
<rscale>  0 0.12500520E+03</rscale>
<asrwt>0</asrwt>
<pdfrwt beam="2">  1        4 0.75148739E-02 0.12500520E+03</pdfrwt>
<pdfrwt beam="1">  1       -4 0.12304040E-01 0.12500520E+03</pdfrwt>
<totfact> 0.10368536E+04</totfact>
</mgrwt>
</event>
<event>
 5    1  0.3266594E-002  0.1249984E+03  0.7818608E-02  0.1235072E+00
         -4   -1    0    0    0  501 -0.00000000000E+00  0.00000000000E+00  0.18716458600E+03  0.18716889473E+03  0.12700000000E+01 0. -1.
          4   -1    0    0  501    0  0.00000000000E+00 -0.00000000000E+00 -0.20846251174E+02  0.20884900958E+02  0.12700000000E+01 0. -1.
         25    2    1    2    0    0  0.00000000000E+00  0.00000000000E+00  0.16631833483E+03  0.20805379569E+03  0.12499837359E+03 0.  0.
    9000005    1    3    3    0    0 -0.42646200460E+02 -0.36624134876E+02  0.37724728136E+02  0.67706578573E+02  0.10000000000E+01 0.  0.
    9000005    1    3    3    0    0  0.42646200460E+02  0.36624134876E+02  0.12859360669E+03  0.14034721711E+03  0.10000000000E+01 0.  0.
<mgrwt>
<rscale>  0 0.12499837E+03</rscale>
<asrwt>0</asrwt>
<pdfrwt beam="2">  1        4 0.32104202E-02 0.12499837E+03</pdfrwt>
<pdfrwt beam="1">  1       -4 0.28797855E-01 0.12499837E+03</pdfrwt>
<totfact> 0.88797941E+03</totfact>
</mgrwt>
</event>
<event>
 5    1  0.3266594E-002  0.1250010E+03  0.7818608E-02  0.1235068E+00
          4   -1    0    0  501    0  0.00000000000E+00  0.00000000000E+00  0.28749013385E+01  0.31429218422E+01  0.12700000000E+01 0.  1.
         -4   -1    0    0    0  501 -0.00000000000E+00 -0.00000000000E+00 -0.12979801507E+04  0.12979807720E+04  0.12700000000E+01 0.  1.
         25    2    1    2    0    0  0.00000000000E+00  0.00000000000E+00 -0.12951052493E+04  0.13011236938E+04  0.12500103913E+03 0.  0.
    9000005    1    3    3    0    0 -0.22767771178E+02  0.58169809806E+02 -0.62888389093E+03  0.63197946679E+03  0.10000000000E+01 0.  0.
    9000005    1    3    3    0    0  0.22767771178E+02 -0.58169809806E+02 -0.66622135841E+03  0.66914422704E+03  0.10000000000E+01 0.  0.
<mgrwt>
<rscale>  0 0.12500104E+03</rscale>
<asrwt>0</asrwt>
<pdfrwt beam="1">  1        4 0.46295831E-03 0.12500104E+03</pdfrwt>
<pdfrwt beam="2">  1       -4 0.19970947E+00 0.12500104E+03</pdfrwt>
<totfact> 0.22201573E+03</totfact>
</mgrwt>
</event>
<event>
 5    1  0.3266594E-002  0.1250164E+03  0.7818608E-02  0.1235044E+00
          4   -1    0    0  501    0  0.00000000000E+00  0.00000000000E+00  0.35883148437E+02  0.35905615741E+02  0.12700000000E+01 0.  1.
         -4   -1    0    0    0  501 -0.00000000000E+00 -0.00000000000E+00 -0.10882864363E+03  0.10883605365E+03  0.12700000000E+01 0.  1.
         25    2    1    2    0    0  0.00000000000E+00  0.00000000000E+00 -0.72945495191E+02  0.14474166939E+03  0.12501642128E+03 0.  0.
    9000005    1    3    3    0    0 -0.32639767480E+02 -0.23907670356E+02  0.18681225565E+02  0.44574873097E+02  0.10000000000E+01 0.  0.
    9000005    1    3    3    0    0  0.32639767480E+02  0.23907670356E+02 -0.91626720756E+02  0.10016679629E+03  0.10000000000E+01 0.  0.
<mgrwt>
<rscale>  0 0.12501642E+03</rscale>
<asrwt>0</asrwt>
<pdfrwt beam="1">  1        4 0.55227827E-02 0.12501642E+03</pdfrwt>
<pdfrwt beam="2">  1       -4 0.16745166E-01 0.12501642E+03</pdfrwt>
<totfact> 0.10032529E+04</totfact>
</mgrwt>
</event>
<event>
 5    1  0.3266594E-002  0.1250079E+03  0.7818608E-02  0.1235057E+00
         -4   -1    0    0    0  501 -0.00000000000E+00  0.00000000000E+00  0.85968184087E+03  0.85968277895E+03  0.12700000000E+01 0. -1.
          4   -1    0    0  501    0  0.00000000000E+00 -0.00000000000E+00 -0.44547161240E+01  0.46322128346E+01  0.12700000000E+01 0. -1.
         25    2    1    2    0    0  0.00000000000E+00  0.00000000000E+00  0.85522712475E+03  0.86431499179E+03  0.12500788023E+03 0.  0.
    9000005    1    3    3    0    0 -0.60844210345E+02 -0.26130049377E+01  0.52463193539E+03  0.52815576619E+03  0.10000000000E+01 0.  0.
    9000005    1    3    3    0    0  0.60844210345E+02  0.26130049377E+01  0.33059518936E+03  0.33615922560E+03  0.10000000000E+01 0.  0.
<mgrwt>
<rscale>  0 0.12500788E+03</rscale>
<asrwt>0</asrwt>
<pdfrwt beam="2">  1        4 0.69906708E-03 0.12500788E+03</pdfrwt>
<pdfrwt beam="1">  1       -4 0.13227240E+00 0.12500788E+03</pdfrwt>
<totfact> 0.35542500E+03</totfact>
</mgrwt>
</event>
<event>
 5    1  0.3266594E-002  0.1250065E+03  0.7818608E-02  0.1235059E+00
          4   -1    0    0  501    0  0.00000000000E+00  0.00000000000E+00  0.10891485029E+04  0.10891492433E+04  0.12700000000E+01 0.  1.
         -4   -1    0    0    0  501 -0.00000000000E+00 -0.00000000000E+00 -0.34737073827E+01  0.36985866193E+01  0.12700000000E+01 0.  1.
         25    2    1    2    0    0  0.00000000000E+00  0.00000000000E+00  0.10856747955E+04  0.10928478299E+04  0.12500647114E+03 0.  0.
    9000005    1    3    3    0    0 -0.61302520534E+02 -0.11521193490E+02  0.57660309376E+03  0.57996798589E+03  0.10000000000E+01 0.  0.
    9000005    1    3    3    0    0  0.61302520534E+02  0.11521193490E+02  0.50907170172E+03  0.51287984403E+03  0.10000000000E+01 0.  0.
<mgrwt>
<rscale>  0 0.12500647E+03</rscale>
<asrwt>0</asrwt>
<pdfrwt beam="1">  1        4 0.16757895E+00 0.12500647E+03</pdfrwt>
<pdfrwt beam="2">  1       -4 0.55177094E-03 0.12500647E+03</pdfrwt>
<totfact> 0.27689694E+03</totfact>
</mgrwt>
</event>
<event>
 5    1  0.3266594E-002  0.1250264E+03  0.7818608E-02  0.1235028E+00
         -4   -1    0    0    0  501 -0.00000000000E+00  0.00000000000E+00  0.13162449072E+03  0.13163061747E+03  0.12700000000E+01 0. -1.
          4   -1    0    0  501    0  0.00000000000E+00 -0.00000000000E+00 -0.29669351806E+02  0.29696520614E+02  0.12700000000E+01 0. -1.
         25    2    1    2    0    0  0.00000000000E+00  0.00000000000E+00  0.10195513891E+03  0.16132713809E+03  0.12502637775E+03 0.  0.
    9000005    1    3    3    0    0  0.42447244943E+02  0.44242689317E+02  0.35294988998E+02  0.70752529351E+02  0.10000000000E+01 0.  0.
    9000005    1    3    3    0    0 -0.42447244943E+02 -0.44242689317E+02  0.66660149914E+02  0.90574608736E+02  0.10000000000E+01 0.  0.
<mgrwt>
<rscale>  0 0.12502638E+03</rscale>
<asrwt>0</asrwt>
<pdfrwt beam="2">  1        4 0.45670769E-02 0.12502638E+03</pdfrwt>
<pdfrwt beam="1">  1       -4 0.20252483E-01 0.12502638E+03</pdfrwt>
<totfact> 0.97030000E+03</totfact>
</mgrwt>
</event>
<event>
 5    1  0.3266594E-002  0.1250062E+03  0.7818608E-02  0.1235060E+00
          4   -1    0    0  501    0  0.00000000000E+00  0.00000000000E+00  0.71956852441E+02  0.71968058979E+02  0.12700000000E+01 0.  1.
         -4   -1    0    0    0  501 -0.00000000000E+00 -0.00000000000E+00 -0.54268484846E+02  0.54283343187E+02  0.12700000000E+01 0.  1.
         25    2    1    2    0    0  0.00000000000E+00  0.00000000000E+00  0.17688367595E+02  0.12625140217E+03  0.12500615265E+03 0.  0.
    9000005    1    3    3    0    0 -0.45327862750E+02  0.16744047962E+02  0.48870479257E+02  0.68733558227E+02  0.10000000000E+01 0.  0.
    9000005    1    3    3    0    0  0.45327862750E+02 -0.16744047962E+02 -0.31182111663E+02  0.57517843939E+02  0.10000000000E+01 0.  0.
<mgrwt>
<rscale>  0 0.12500615E+03</rscale>
<asrwt>0</asrwt>
<pdfrwt beam="1">  1        4 0.11072290E-01 0.12500615E+03</pdfrwt>
<pdfrwt beam="2">  1       -4 0.83510027E-02 0.12500615E+03</pdfrwt>
<totfact> 0.10424008E+04</totfact>
</mgrwt>
</event>
<event>
 5    1  0.3266594E-002  0.1250013E+03  0.7818608E-02  0.1235067E+00
         -4   -1    0    0    0  501 -0.00000000000E+00  0.00000000000E+00  0.53623340241E+01  0.55106738414E+01  0.12700000000E+01 0.  1.
          4   -1    0    0  501    0  0.00000000000E+00 -0.00000000000E+00 -0.71838827546E+03  0.71838939804E+03  0.12700000000E+01 0.  1.
         25    2    1    2    0    0  0.00000000000E+00  0.00000000000E+00 -0.71302594144E+03  0.72390007188E+03  0.12500128364E+03 0.  0.
    9000005    1    3    3    0    0 -0.53893213685E+02 -0.28751349441E+02 -0.28007612688E+03  0.28666139507E+03  0.10000000000E+01 0.  0.
    9000005    1    3    3    0    0  0.53893213685E+02  0.28751349441E+02 -0.43294981456E+03  0.43723867681E+03  0.10000000000E+01 0.  0.
<mgrwt>
<rscale>  0 0.12500128E+03</rscale>
<asrwt>0</asrwt>
<pdfrwt beam="2">  1        4 0.11053269E+00 0.12500128E+03</pdfrwt>
<pdfrwt beam="1">  1       -4 0.83647214E-03 0.12500128E+03</pdfrwt>
<totfact> 0.41853511E+03</totfact>
</mgrwt>
</event>
<event>
 5    1  0.3266594E-002  0.1250052E+03  0.7818608E-02  0.1235061E+00
          4   -1    0    0  501    0  0.00000000000E+00  0.00000000000E+00  0.13428479537E+02  0.13488401042E+02  0.12700000000E+01 0.  1.
         -4   -1    0    0    0  501 -0.00000000000E+00 -0.00000000000E+00 -0.29020829068E+03  0.29021106954E+03  0.12700000000E+01 0.  1.
         25    2    1    2    0    0  0.00000000000E+00  0.00000000000E+00 -0.27677981115E+03  0.30369947058E+03  0.12500521818E+03 0.  0.
    9000005    1    3    3    0    0 -0.39014381950E+02  0.15484929193E+02 -0.25904812989E+02  0.49335224404E+02  0.10000000000E+01 0.  0.
    9000005    1    3    3    0    0  0.39014381950E+02 -0.15484929193E+02 -0.25087499816E+03  0.25436424617E+03  0.10000000000E+01 0.  0.
<mgrwt>
<rscale>  0 0.12500522E+03</rscale>
<asrwt>0</asrwt>
<pdfrwt beam="1">  1        4 0.20707433E-02 0.12500522E+03</pdfrwt>
<pdfrwt beam="2">  1       -4 0.44652248E-01 0.12500522E+03</pdfrwt>
<totfact> 0.75128416E+03</totfact>
</mgrwt>
</event>
<event>
 5    1  0.3266594E-002  0.1250003E+03  0.7818608E-02  0.1235069E+00
          4   -1    0    0  501    0  0.00000000000E+00  0.00000000000E+00  0.27581978593E+03  0.27582270974E+03  0.12700000000E+01 0.  1.
         -4   -1    0    0    0  501 -0.00000000000E+00 -0.00000000000E+00 -0.14130917622E+02  0.14187872739E+02  0.12700000000E+01 0.  1.
         25    2    1    2    0    0  0.00000000000E+00  0.00000000000E+00  0.26168886831E+03  0.29001058248E+03  0.12500029662E+03 0.  0.
    9000005    1    3    3    0    0 -0.25824186699E+02 -0.56168454021E+02  0.15204298776E+03  0.16413364668E+03  0.10000000000E+01 0.  0.
    9000005    1    3    3    0    0  0.25824186699E+02  0.56168454021E+02  0.10964588055E+03  0.12587693580E+03  0.10000000000E+01 0.  0.
<mgrwt>
<rscale>  0 0.12500030E+03</rscale>
<asrwt>0</asrwt>
<pdfrwt beam="1">  1        4 0.42438418E-01 0.12500030E+03</pdfrwt>
<pdfrwt beam="2">  1       -4 0.21785935E-02 0.12500030E+03</pdfrwt>
<totfact> 0.76868718E+03</totfact>
</mgrwt>
</event>
<event>
 5    1  0.3266594E-002  0.1249863E+03  0.7818608E-02  0.1235091E+00
         -4   -1    0    0    0  501 -0.00000000000E+00  0.00000000000E+00  0.20558557319E+03  0.20558949585E+03  0.12700000000E+01 0.  1.
          4   -1    0    0  501    0  0.00000000000E+00 -0.00000000000E+00 -0.18971118305E+02  0.19013580140E+02  0.12700000000E+01 0.  1.
         25    2    1    2    0    0  0.00000000000E+00  0.00000000000E+00  0.18661445489E+03  0.22460307599E+03  0.12498634714E+03 0.  0.
    9000005    1    3    3    0    0  0.51522945820E+02 -0.23162171308E+00  0.29779828521E+02  0.59518953127E+02  0.10000000000E+01 0.  0.
    9000005    1    3    3    0    0 -0.51522945820E+02  0.23162171308E+00  0.15683462637E+03  0.16508412286E+03  0.10000000000E+01 0.  0.
<mgrwt>
<rscale>  0 0.12498635E+03</rscale>
<asrwt>0</asrwt>
<pdfrwt beam="2">  1        4 0.29222016E-02 0.12498635E+03</pdfrwt>
<pdfrwt beam="1">  1       -4 0.31632118E-01 0.12498635E+03</pdfrwt>
<totfact> 0.86171438E+03</totfact>
</mgrwt>
</event>
<event>
 5    1  0.3266594E-002  0.1249984E+03  0.7818608E-02  0.1235072E+00
          4   -1    0    0  501    0  0.00000000000E+00  0.00000000000E+00  0.59000392638E+02  0.59014059609E+02  0.12700000000E+01 0. -1.
         -4   -1    0    0    0  501 -0.00000000000E+00 -0.00000000000E+00 -0.66178048747E+02  0.66190233690E+02  0.12700000000E+01 0. -1.
         25    2    1    2    0    0  0.00000000000E+00  0.00000000000E+00 -0.71776561083E+01  0.12520429330E+03  0.12499838524E+03 0.  0.
    9000005    1    3    3    0    0  0.70043076357E+01  0.59614267822E+02 -0.21002166511E+02  0.63600410781E+02  0.10000000000E+01 0.  0.
    9000005    1    3    3    0    0 -0.70043076357E+01 -0.59614267822E+02  0.13824510403E+02  0.61603882518E+02  0.10000000000E+01 0.  0.
<mgrwt>
<rscale>  0 0.12499839E+03</rscale>
<asrwt>0</asrwt>
<pdfrwt beam="1">  1        4 0.90789721E-02 0.12499839E+03</pdfrwt>
<pdfrwt beam="2">  1       -4 0.10183227E-01 0.12499839E+03</pdfrwt>
<totfact> 0.10448808E+04</totfact>
</mgrwt>
</event>
<event>
 5    1  0.3266594E-002  0.1249997E+03  0.7818608E-02  0.1235070E+00
         -4   -1    0    0    0  501 -0.00000000000E+00  0.00000000000E+00  0.30172332532E+02  0.30199048833E+02  0.12700000000E+01 0.  1.
          4   -1    0    0  501    0  0.00000000000E+00 -0.00000000000E+00 -0.12937691818E+03  0.12938315137E+03  0.12700000000E+01 0.  1.
         25    2    1    2    0    0  0.00000000000E+00  0.00000000000E+00 -0.99204585647E+02  0.15958220020E+03  0.12499971523E+03 0.  0.
    9000005    1    3    3    0    0  0.55245554043E+02  0.20545111507E+02 -0.23096306991E+02  0.63313602369E+02  0.10000000000E+01 0.  0.
    9000005    1    3    3    0    0 -0.55245554043E+02 -0.20545111507E+02 -0.76108278656E+02  0.96268597831E+02  0.10000000000E+01 0.  0.
<mgrwt>
<rscale>  0 0.12499972E+03</rscale>
<asrwt>0</asrwt>
<pdfrwt beam="2">  1        4 0.19906676E-01 0.12499972E+03</pdfrwt>
<pdfrwt beam="1">  1       -4 0.46444320E-02 0.12499972E+03</pdfrwt>
<totfact> 0.97424018E+03</totfact>
</mgrwt>
</event>
<event>
 5    1  0.3266594E-002  0.1249974E+03  0.7818608E-02  0.1235073E+00
          4   -1    0    0  501    0  0.00000000000E+00  0.00000000000E+00  0.11434164369E+03  0.11434869646E+03  0.12700000000E+01 0. -1.
         -4   -1    0    0    0  501 -0.00000000000E+00 -0.00000000000E+00 -0.34141642253E+02  0.34165254803E+02  0.12700000000E+01 0. -1.
         25    2    1    2    0    0  0.00000000000E+00  0.00000000000E+00  0.80200001438E+02  0.14851395126E+03  0.12499741393E+03 0.  0.
    9000005    1    3    3    0    0 -0.90809074349E+01 -0.31986703381E+02 -0.22764377203E+02  0.40309166978E+02  0.10000000000E+01 0.  0.
    9000005    1    3    3    0    0  0.90809074349E+01  0.31986703381E+02  0.10296437864E+03  0.10820478428E+03  0.10000000000E+01 0.  0.
<mgrwt>
<rscale>  0 0.12499741E+03</rscale>
<asrwt>0</asrwt>
<pdfrwt beam="1">  1        4 0.17593381E-01 0.12499741E+03</pdfrwt>
<pdfrwt beam="2">  1       -4 0.52549193E-02 0.12499741E+03</pdfrwt>
<totfact> 0.99606546E+03</totfact>
</mgrwt>
</event>
<event>
 5    1  0.3266594E-002  0.1249911E+03  0.7818608E-02  0.1235083E+00
         -4   -1    0    0    0  501 -0.00000000000E+00  0.00000000000E+00  0.60878672548E+02  0.60891917946E+02  0.12700000000E+01 0. -1.
          4   -1    0    0  501    0  0.00000000000E+00 -0.00000000000E+00 -0.64128867687E+02  0.64141441914E+02  0.12700000000E+01 0. -1.
         25    2    1    2    0    0  0.00000000000E+00  0.00000000000E+00 -0.32501951389E+01  0.12503335986E+03  0.12499110892E+03 0.  0.
    9000005    1    3    3    0    0 -0.22870195308E+02 -0.52056122003E+02 -0.27553131004E+02  0.63190669402E+02  0.10000000000E+01 0.  0.
    9000005    1    3    3    0    0  0.22870195308E+02  0.52056122003E+02  0.24302935865E+02  0.61842690458E+02  0.10000000000E+01 0.  0.
<mgrwt>
<rscale>  0 0.12499111E+03</rscale>
<asrwt>0</asrwt>
<pdfrwt beam="2">  1        4 0.98679658E-02 0.12499111E+03</pdfrwt>
<pdfrwt beam="1">  1       -4 0.93679357E-02 0.12499111E+03</pdfrwt>
<totfact> 0.10454239E+04</totfact>
</mgrwt>
</event>
<event>
 5    1  0.3266594E-002  0.1249981E+03  0.7818608E-02  0.1235072E+00
          4   -1    0    0  501    0  0.00000000000E+00  0.00000000000E+00  0.97163860767E+02  0.97172160309E+02  0.12700000000E+01 0.  1.
         -4   -1    0    0    0  501 -0.00000000000E+00 -0.00000000000E+00 -0.40181414466E+02  0.40201479680E+02  0.12700000000E+01 0.  1.
         25    2    1    2    0    0  0.00000000000E+00  0.00000000000E+00  0.56982446301E+02  0.13737363999E+03  0.12499807109E+03 0.  0.
    9000005    1    3    3    0    0  0.27295277218E+01  0.54605390791E+02  0.61751919394E+02  0.82483323005E+02  0.10000000000E+01 0.  0.
    9000005    1    3    3    0    0 -0.27295277218E+01 -0.54605390791E+02 -0.47694730932E+01  0.54890316984E+02  0.10000000000E+01 0.  0.
<mgrwt>
<rscale>  0 0.12499807E+03</rscale>
<asrwt>0</asrwt>
<pdfrwt beam="1">  1        4 0.14950468E-01 0.12499807E+03</pdfrwt>
<pdfrwt beam="2">  1       -4 0.61839381E-02 0.12499807E+03</pdfrwt>
<totfact> 0.10188722E+04</totfact>
</mgrwt>
</event>
<event>
 5    1  0.3266594E-002  0.1249405E+03  0.7818608E-02  0.1235162E+00
          4   -1    0    0  501    0  0.00000000000E+00  0.00000000000E+00  0.54587318070E+03  0.54587465806E+03  0.12700000000E+01 0. -1.
         -4   -1    0    0    0  501 -0.00000000000E+00 -0.00000000000E+00 -0.70912525582E+01  0.72040795973E+01  0.12700000000E+01 0. -1.
         25    2    1    2    0    0  0.00000000000E+00  0.00000000000E+00  0.53878192814E+03  0.55307873765E+03  0.12494048164E+03 0.  0.
    9000005    1    3    3    0    0 -0.37553966513E+02 -0.49344160191E+02  0.30263114899E+03  0.30892031154E+03  0.10000000000E+01 0.  0.
    9000005    1    3    3    0    0  0.37553966513E+02  0.49344160191E+02  0.23615077916E+03  0.24415842611E+03  0.10000000000E+01 0.  0.
<mgrwt>
<rscale>  0 0.12494048E+03</rscale>
<asrwt>0</asrwt>
<pdfrwt beam="1">  1        4 0.83989282E-01 0.12494048E+03</pdfrwt>
<pdfrwt beam="2">  1       -4 0.10997546E-02 0.12494048E+03</pdfrwt>
<totfact> 0.52037977E+03</totfact>
</mgrwt>
</event>
<event>
 5    1  0.3266594E-002  0.1250006E+03  0.7818608E-02  0.1235068E+00
         -4   -1    0    0    0  501 -0.00000000000E+00  0.00000000000E+00  0.12949341467E+03  0.12949964225E+03  0.12700000000E+01 0. -1.
          4   -1    0    0  501    0  0.00000000000E+00 -0.00000000000E+00 -0.30145600014E+02  0.30172339986E+02  0.12700000000E+01 0. -1.
         25    2    1    2    0    0  0.00000000000E+00  0.00000000000E+00  0.99347814653E+02  0.15967198223E+03  0.12500061453E+03 0.  0.
    9000005    1    3    3    0    0  0.36902084064E+02  0.46038828293E+02  0.75975033468E+02  0.96200536534E+02  0.10000000000E+01 0.  0.
    9000005    1    3    3    0    0 -0.36902084064E+02 -0.46038828293E+02  0.23372781185E+02  0.63471445699E+02  0.10000000000E+01 0.  0.
<mgrwt>
<rscale>  0 0.12500061E+03</rscale>
<asrwt>0</asrwt>
<pdfrwt beam="2">  1        4 0.46403205E-02 0.12500061E+03</pdfrwt>
<pdfrwt beam="1">  1       -4 0.19924600E-01 0.12500061E+03</pdfrwt>
<totfact> 0.97404716E+03</totfact>
</mgrwt>
</event>
<event>
 5    1  0.3266594E-002  0.1249995E+03  0.7818608E-02  0.1235070E+00
          4   -1    0    0  501    0  0.00000000000E+00  0.00000000000E+00  0.10004188976E+03  0.10004995056E+03  0.12700000000E+01 0. -1.
         -4   -1    0    0    0  501 -0.00000000000E+00 -0.00000000000E+00 -0.39025896521E+02  0.39046555536E+02  0.12700000000E+01 0. -1.
         25    2    1    2    0    0  0.00000000000E+00  0.00000000000E+00  0.61015993240E+02  0.13909650610E+03  0.12499954631E+03 0.  0.
    9000005    1    3    3    0    0  0.34544404213E+02  0.19237352242E+02  0.84357967500E+02  0.93170050255E+02  0.10000000000E+01 0.  0.
    9000005    1    3    3    0    0 -0.34544404213E+02 -0.19237352242E+02 -0.23341974261E+02  0.45926455841E+02  0.10000000000E+01 0.  0.
<mgrwt>
<rscale>  0 0.12499955E+03</rscale>
<asrwt>0</asrwt>
<pdfrwt beam="1">  1        4 0.15393269E-01 0.12499955E+03</pdfrwt>
<pdfrwt beam="2">  1       -4 0.60061933E-02 0.12499955E+03</pdfrwt>
<totfact> 0.10152449E+04</totfact>
</mgrwt>
</event>
<event>
 5    1  0.3266594E-002  0.1250001E+03  0.7818608E-02  0.1235069E+00
          4   -1    0    0  501    0  0.00000000000E+00  0.00000000000E+00  0.36915683229E+01  0.39039181193E+01  0.12700000000E+01 0.  1.
         -4   -1    0    0    0  501 -0.00000000000E+00 -0.00000000000E+00 -0.10283595552E+04  0.10283603394E+04  0.12700000000E+01 0.  1.
         25    2    1    2    0    0  0.00000000000E+00  0.00000000000E+00 -0.10246679869E+04  0.10322642575E+04  0.12500005617E+03 0.  0.
    9000005    1    3    3    0    0  0.50651993773E+02 -0.26551029467E+01 -0.21087569725E+03  0.21689221687E+03  0.10000000000E+01 0.  0.
    9000005    1    3    3    0    0 -0.50651993773E+02  0.26551029467E+01 -0.81379228964E+03  0.81537204068E+03  0.10000000000E+01 0.  0.
<mgrwt>
<rscale>  0 0.12500006E+03</rscale>
<asrwt>0</asrwt>
<pdfrwt beam="1">  1        4 0.58432933E-03 0.12500006E+03</pdfrwt>
<pdfrwt beam="2">  1       -4 0.15822534E+00 0.12500006E+03</pdfrwt>
<totfact> 0.29555080E+03</totfact>
</mgrwt>
</event>
<event>
 4    1  0.3266594E-002  0.1249327E+03  0.7818608E-02  0.1235174E+00
          4   -1    0    0  501    0  0.00000000000E+00  0.00000000000E+00  0.78361273753E+01  0.79383746600E+01  0.12700000000E+01 0.  1.
         -4   -1    0    0    0  501 -0.00000000000E+00 -0.00000000000E+00 -0.49462542187E+03  0.49462705230E+03  0.12700000000E+01 0.  1.
    9000005    1    1    2    0    0  0.15863824760E+02 -0.53661067441E+02 -0.13177853116E+03  0.14317036135E+03  0.10000000000E+01 0.  0.
    9000005    1    1    2    0    0 -0.15863824760E+02  0.53661067441E+02 -0.35501076334E+03  0.35939506561E+03  0.10000000000E+01 0.  0.
<mgrwt>
<rscale>  0 0.12493275E+03</rscale>
<asrwt>0</asrwt>
<pdfrwt beam="1">  1        4 0.12135490E-02 0.12493275E+03</pdfrwt>
<pdfrwt beam="2">  1       -4 0.76104185E-01 0.12493275E+03</pdfrwt>
<totfact> 0.55748272E+03</totfact>
</mgrwt>
</event>
<event>
 5    1  0.3266594E-002  0.1249968E+03  0.7818608E-02  0.1235074E+00
          4   -1    0    0  501    0  0.00000000000E+00  0.00000000000E+00  0.40021450952E+03  0.40021652456E+03  0.12700000000E+01 0. -1.
         -4   -1    0    0    0  501 -0.00000000000E+00 -0.00000000000E+00 -0.97165334797E+01  0.97991797036E+01  0.12700000000E+01 0. -1.
         25    2    1    2    0    0  0.00000000000E+00  0.00000000000E+00  0.39049797604E+03  0.41001570427E+03  0.12499683376E+03 0.  0.
    9000005    1    3    3    0    0  0.31571319218E+02 -0.15817699473E+02  0.36436607443E+03  0.36607456073E+03  0.10000000000E+01 0.  0.
    9000005    1    3    3    0    0 -0.31571319218E+02  0.15817699473E+02  0.26131901612E+02  0.43941143540E+02  0.10000000000E+01 0.  0.
<mgrwt>
<rscale>  0 0.12499683E+03</rscale>
<asrwt>0</asrwt>
<pdfrwt beam="1">  1        4 0.61577979E-01 0.12499683E+03</pdfrwt>
<pdfrwt beam="2">  1       -4 0.15013636E-02 0.12499683E+03</pdfrwt>
<totfact> 0.63594632E+03</totfact>
</mgrwt>
</event>
<event>
 5    1  0.3266594E-002  0.1250003E+03  0.7818608E-02  0.1235069E+00
         -4   -1    0    0    0  501 -0.00000000000E+00  0.00000000000E+00  0.15325441483E+03  0.15325967691E+03  0.12700000000E+01 0. -1.
          4   -1    0    0  501    0  0.00000000000E+00 -0.00000000000E+00 -0.25467276580E+02  0.25498923044E+02  0.12700000000E+01 0. -1.
         25    2    1    2    0    0  0.00000000000E+00  0.00000000000E+00  0.12778713825E+03  0.17875859995E+03  0.12500033742E+03 0.  0.
    9000005    1    3    3    0    0  0.23747230917E+02 -0.57804038938E+02  0.63633019113E+02  0.89193043535E+02  0.10000000000E+01 0.  0.
    9000005    1    3    3    0    0 -0.23747230917E+02  0.57804038938E+02  0.64154119142E+02  0.89565556419E+02  0.10000000000E+01 0.  0.
<mgrwt>
<rscale>  0 0.12500034E+03</rscale>
<asrwt>0</asrwt>
<pdfrwt beam="2">  1        4 0.39208817E-02 0.12500034E+03</pdfrwt>
<pdfrwt beam="1">  1       -4 0.23580441E-01 0.12500034E+03</pdfrwt>
<totfact> 0.93840227E+03</totfact>
</mgrwt>
</event>
<event>
 5    1  0.3266594E-002  0.1250001E+03  0.7818608E-02  0.1235069E+00
         -4   -1    0    0    0  501 -0.00000000000E+00  0.00000000000E+00  0.20969217229E+02  0.21007640782E+02  0.12700000000E+01 0.  1.
          4   -1    0    0  501    0  0.00000000000E+00 -0.00000000000E+00 -0.18607402928E+03  0.18607836326E+03  0.12700000000E+01 0.  1.
         25    2    1    2    0    0  0.00000000000E+00  0.00000000000E+00 -0.16510481205E+03  0.20708600404E+03  0.12500005643E+03 0.  0.
    9000005    1    3    3    0    0 -0.11250541248E+02  0.38614078169E+02 -0.16179042384E+03  0.16671761442E+03  0.10000000000E+01 0.  0.
    9000005    1    3    3    0    0  0.11250541248E+02 -0.38614078169E+02 -0.33143882098E+01  0.40368389619E+02  0.10000000000E+01 0.  0.
<mgrwt>
<rscale>  0 0.12500006E+03</rscale>
<asrwt>0</asrwt>
<pdfrwt beam="2">  1        4 0.28630062E-01 0.12500006E+03</pdfrwt>
<pdfrwt beam="1">  1       -4 0.32293226E-02 0.12500006E+03</pdfrwt>
<totfact> 0.88953885E+03</totfact>
</mgrwt>
</event>
<event>
 5    1  0.3266594E-002  0.1249992E+03  0.7818608E-02  0.1235071E+00
         -4   -1    0    0    0  501 -0.00000000000E+00  0.00000000000E+00  0.10491317169E+03  0.10492085824E+03  0.12700000000E+01 0. -1.
          4   -1    0    0  501    0  0.00000000000E+00 -0.00000000000E+00 -0.37212797064E+02  0.37234462066E+02  0.12700000000E+01 0. -1.
         25    2    1    2    0    0  0.00000000000E+00  0.00000000000E+00  0.67700374624E+02  0.14215532031E+03  0.12499917747E+03 0.  0.
    9000005    1    3    3    0    0 -0.26072915839E+02 -0.35314772273E+02 -0.16732113743E+02  0.46988229498E+02  0.10000000000E+01 0.  0.
    9000005    1    3    3    0    0  0.26072915839E+02  0.35314772273E+02  0.84432488367E+02  0.95167090808E+02  0.10000000000E+01 0.  0.
<mgrwt>
<rscale>  0 0.12499918E+03</rscale>
<asrwt>0</asrwt>
<pdfrwt beam="2">  1        4 0.57273037E-02 0.12499918E+03</pdfrwt>
<pdfrwt beam="1">  1       -4 0.16142745E-01 0.12499918E+03</pdfrwt>
<totfact> 0.10089296E+04</totfact>
</mgrwt>
</event>
<event>
 5    1  0.3266594E-002  0.1249972E+03  0.7818608E-02  0.1235074E+00
          4   -1    0    0  501    0  0.00000000000E+00  0.00000000000E+00  0.14264730767E+02  0.14321153719E+02  0.12700000000E+01 0.  1.
         -4   -1    0    0    0  501 -0.00000000000E+00 -0.00000000000E+00 -0.27322907861E+03  0.27323203015E+03  0.12700000000E+01 0.  1.
         25    2    1    2    0    0  0.00000000000E+00  0.00000000000E+00 -0.25896434785E+03  0.28755318387E+03  0.12499720036E+03 0.  0.
    9000005    1    3    3    0    0 -0.19096304378E+02 -0.12174189967E+00 -0.26636328788E+03  0.26704884346E+03  0.10000000000E+01 0.  0.
    9000005    1    3    3    0    0  0.19096304378E+02  0.12174189967E+00  0.73989400348E+01  0.20504340410E+02  0.10000000000E+01 0.  0.
<mgrwt>
<rscale>  0 0.12499720E+03</rscale>
<asrwt>0</asrwt>
<pdfrwt beam="1">  1        4 0.21991414E-02 0.12499720E+03</pdfrwt>
<pdfrwt beam="2">  1       -4 0.42039806E-01 0.12499720E+03</pdfrwt>
<totfact> 0.77191953E+03</totfact>
</mgrwt>
</event>
<event>
 5    1  0.3266594E-002  0.1250042E+03  0.7818608E-02  0.1235063E+00
         -4   -1    0    0    0  501 -0.00000000000E+00  0.00000000000E+00  0.59149627215E+02  0.59163259712E+02  0.12700000000E+01 0. -1.
          4   -1    0    0  501    0  0.00000000000E+00 -0.00000000000E+00 -0.66017198352E+02  0.66029412978E+02  0.12700000000E+01 0. -1.
         25    2    1    2    0    0  0.00000000000E+00  0.00000000000E+00 -0.68675711363E+01  0.12519267269E+03  0.12500416698E+03 0.  0.
    9000005    1    3    3    0    0 -0.17566592895E+02 -0.59828733986E+02 -0.76171462271E+01  0.62825818840E+02  0.10000000000E+01 0.  0.
    9000005    1    3    3    0    0  0.17566592895E+02  0.59828733986E+02  0.74957509073E+00  0.62366853850E+02  0.10000000000E+01 0.  0.
<mgrwt>
<rscale>  0 0.12500417E+03</rscale>
<asrwt>0</asrwt>
<pdfrwt beam="2">  1        4 0.10158480E-01 0.12500417E+03</pdfrwt>
<pdfrwt beam="1">  1       -4 0.91019309E-02 0.12500417E+03</pdfrwt>
<totfact> 0.10447695E+04</totfact>
</mgrwt>
</event>
<event>
 5    1  0.3266594E-002  0.1250060E+03  0.7818608E-02  0.1235060E+00
          4   -1    0    0  501    0  0.00000000000E+00  0.00000000000E+00  0.44615501133E+02  0.44633573029E+02  0.12700000000E+01 0. -1.
         -4   -1    0    0    0  501 -0.00000000000E+00 -0.00000000000E+00 -0.87521579691E+02  0.87530793505E+02  0.12700000000E+01 0. -1.
         25    2    1    2    0    0  0.00000000000E+00  0.00000000000E+00 -0.42906078558E+02  0.13216436653E+03  0.12500595267E+03 0.  0.
    9000005    1    3    3    0    0  0.40500060441E+02 -0.21370390204E+02 -0.66416919434E+02  0.80679338497E+02  0.10000000000E+01 0.  0.
    9000005    1    3    3    0    0 -0.40500060441E+02  0.21370390204E+02  0.23510840876E+02  0.51485028036E+02  0.10000000000E+01 0.  0.
<mgrwt>
<rscale>  0 0.12500595E+03</rscale>
<asrwt>0</asrwt>
<pdfrwt beam="1">  1        4 0.68660222E-02 0.12500595E+03</pdfrwt>
<pdfrwt beam="2">  1       -4 0.13466957E-01 0.12500595E+03</pdfrwt>
<totfact> 0.10296809E+04</totfact>
</mgrwt>
</event>
<event>
 5    1  0.3266594E-002  0.1249997E+03  0.7818608E-02  0.1235070E+00
         -4   -1    0    0    0  501 -0.00000000000E+00  0.00000000000E+00  0.32625387219E+03  0.32625634403E+03  0.12700000000E+01 0. -1.
          4   -1    0    0  501    0  0.00000000000E+00 -0.00000000000E+00 -0.11936780003E+02  0.12004149984E+02  0.12700000000E+01 0. -1.
         25    2    1    2    0    0  0.00000000000E+00  0.00000000000E+00  0.31431709219E+03  0.33826049402E+03  0.12499970948E+03 0.  0.
    9000005    1    3    3    0    0 -0.37310132378E+02  0.13599945719E+02  0.26585069495E+02  0.47799272188E+02  0.10000000000E+01 0.  0.
    9000005    1    3    3    0    0  0.37310132378E+02 -0.13599945719E+02  0.28773202270E+03  0.29046122183E+03  0.10000000000E+01 0.  0.
<mgrwt>
<rscale>  0 0.12499971E+03</rscale>
<asrwt>0</asrwt>
<pdfrwt beam="2">  1        4 0.18418006E-02 0.12499971E+03</pdfrwt>
<pdfrwt beam="1">  1       -4 0.50198262E-01 0.12499971E+03</pdfrwt>
<totfact> 0.71036116E+03</totfact>
</mgrwt>
</event>
<event>
 5    1  0.3266594E-002  0.1250091E+03  0.7818608E-02  0.1235055E+00
         -4   -1    0    0    0  501 -0.00000000000E+00  0.00000000000E+00  0.11301844004E+02  0.11372975771E+02  0.12700000000E+01 0.  1.
          4   -1    0    0  501    0  0.00000000000E+00 -0.00000000000E+00 -0.34452295855E+03  0.34452529931E+03  0.12700000000E+01 0.  1.
         25    2    1    2    0    0  0.00000000000E+00  0.00000000000E+00 -0.33322111454E+03  0.35589827508E+03  0.12500908379E+03 0.  0.
    9000005    1    3    3    0    0 -0.16057140123E+02 -0.53309850479E+02 -0.24743899491E+03  0.25362734101E+03  0.10000000000E+01 0.  0.
    9000005    1    3    3    0    0  0.16057140123E+02  0.53309850479E+02 -0.85782119634E+02  0.10227093407E+03  0.10000000000E+01 0.  0.
<mgrwt>
<rscale>  0 0.12500908E+03</rscale>
<asrwt>0</asrwt>
<pdfrwt beam="2">  1        4 0.53009176E-01 0.12500908E+03</pdfrwt>
<pdfrwt beam="1">  1       -4 0.17443972E-02 0.12500908E+03</pdfrwt>
<totfact> 0.69066633E+03</totfact>
</mgrwt>
</event>
<event>
 5    1  0.3266594E-002  0.1249869E+03  0.7818608E-02  0.1235090E+00
          4   -1    0    0  501    0  0.00000000000E+00  0.00000000000E+00  0.17993711019E+03  0.17994159198E+03  0.12700000000E+01 0.  1.
         -4   -1    0    0    0  501 -0.00000000000E+00 -0.00000000000E+00 -0.21681081350E+02  0.21718245521E+02  0.12700000000E+01 0.  1.
         25    2    1    2    0    0  0.00000000000E+00  0.00000000000E+00  0.15825602884E+03  0.20165983750E+03  0.12498687689E+03 0.  0.
    9000005    1    3    3    0    0  0.12693021605E+02 -0.60105583273E+02  0.97569091610E+02  0.11530187152E+03  0.10000000000E+01 0.  0.
    9000005    1    3    3    0    0 -0.12693021605E+02  0.60105583273E+02  0.60686937231E+02  0.86357965982E+02  0.10000000000E+01 0.  0.
<mgrwt>
<rscale>  0 0.12498688E+03</rscale>
<asrwt>0</asrwt>
<pdfrwt beam="1">  1        4 0.27685836E-01 0.12498688E+03</pdfrwt>
<pdfrwt beam="2">  1       -4 0.33387545E-02 0.12498688E+03</pdfrwt>
<totfact> 0.89882702E+03</totfact>
</mgrwt>
</event>
<event>
 5    1  0.3266594E-002  0.1250111E+03  0.7818608E-02  0.1235052E+00
          4   -1    0    0  501    0  0.00000000000E+00  0.00000000000E+00  0.34356503152E+01  0.36628667855E+01  0.12700000000E+01 0. -1.
         -4   -1    0    0    0  501 -0.00000000000E+00 -0.00000000000E+00 -0.11005496433E+04  0.11005503761E+04  0.12700000000E+01 0. -1.
         25    2    1    2    0    0  0.00000000000E+00  0.00000000000E+00 -0.10971139930E+04  0.11042132429E+04  0.12501108789E+03 0.  0.
    9000005    1    3    3    0    0  0.47290487670E+02  0.30828985525E+02 -0.78542535394E+03  0.78745209580E+03  0.10000000000E+01 0.  0.
    9000005    1    3    3    0    0 -0.47290487670E+02 -0.30828985525E+02 -0.31168863906E+03  0.31676114707E+03  0.10000000000E+01 0.  0.
<mgrwt>
<rscale>  0 0.12501109E+03</rscale>
<asrwt>0</asrwt>
<pdfrwt beam="1">  1        4 0.54609702E-03 0.12501109E+03</pdfrwt>
<pdfrwt beam="2">  1       -4 0.16933259E+00 0.12501109E+03</pdfrwt>
<totfact> 0.27353843E+03</totfact>
</mgrwt>
</event>
<event>
 5    1  0.3266594E-002  0.1249972E+03  0.7818608E-02  0.1235074E+00
         -4   -1    0    0    0  501 -0.00000000000E+00  0.00000000000E+00  0.19675580488E+01  0.23418336139E+01  0.12700000000E+01 0.  1.
          4   -1    0    0  501    0  0.00000000000E+00 -0.00000000000E+00 -0.18124450658E+04  0.18124455108E+04  0.12700000000E+01 0.  1.
         25    2    1    2    0    0  0.00000000000E+00  0.00000000000E+00 -0.18104775078E+04  0.18147873444E+04  0.12499719675E+03 0.  0.
    9000005    1    3    3    0    0  0.34606153035E+02 -0.39698394222E+02 -0.41685880282E+03  0.42017354726E+03  0.10000000000E+01 0.  0.
    9000005    1    3    3    0    0 -0.34606153035E+02  0.39698394222E+02 -0.13936187049E+04  0.13946137971E+04  0.10000000000E+01 0.  0.
<mgrwt>
<rscale>  0 0.12499720E+03</rscale>
<asrwt>0</asrwt>
<pdfrwt beam="2">  1        4 0.27886531E+00 0.12499720E+03</pdfrwt>
<pdfrwt beam="1">  1       -4 0.33152734E-03 0.12499720E+03</pdfrwt>
<totfact> 0.12477937E+03</totfact>
</mgrwt>
</event>
<event>
 5    1  0.3266594E-002  0.1249987E+03  0.7818608E-02  0.1235071E+00
         -4   -1    0    0    0  501 -0.00000000000E+00  0.00000000000E+00  0.32785780374E+01  0.35159598899E+01  0.12700000000E+01 0. -1.
          4   -1    0    0  501    0  0.00000000000E+00 -0.00000000000E+00 -0.11495592417E+04  0.11495599433E+04  0.12700000000E+01 0. -1.
         25    2    1    2    0    0  0.00000000000E+00  0.00000000000E+00 -0.11462806637E+04  0.11530759031E+04  0.12499871387E+03 0.  0.
    9000005    1    3    3    0    0  0.47370525393E+02 -0.23343940693E+02 -0.26493816375E+03  0.27015206246E+03  0.10000000000E+01 0.  0.
    9000005    1    3    3    0    0 -0.47370525393E+02  0.23343940693E+02 -0.88134249994E+03  0.88292384068E+03  0.10000000000E+01 0.  0.
<mgrwt>
<rscale>  0 0.12499871E+03</rscale>
<asrwt>0</asrwt>
<pdfrwt beam="2">  1        4 0.17687327E+00 0.12499871E+03</pdfrwt>
<pdfrwt beam="1">  1       -4 0.52271165E-03 0.12499871E+03</pdfrwt>
<totfact> 0.25975825E+03</totfact>
</mgrwt>
</event>
<event>
 5    1  0.3266594E-002  0.1250003E+03  0.7818608E-02  0.1235069E+00
          4   -1    0    0  501    0  0.00000000000E+00  0.00000000000E+00  0.65981266448E+02  0.65993487724E+02  0.12700000000E+01 0. -1.
         -4   -1    0    0    0  501 -0.00000000000E+00 -0.00000000000E+00 -0.59178186363E+02  0.59191812282E+02  0.12700000000E+01 0. -1.
         25    2    1    2    0    0  0.00000000000E+00  0.00000000000E+00  0.68030800849E+01  0.12518530001E+03  0.12500030976E+03 0.  0.
    9000005    1    3    3    0    0 -0.57511129748E+02 -0.11661934470E+02  0.24921444349E+02  0.63762129426E+02  0.10000000000E+01 0.  0.
    9000005    1    3    3    0    0  0.57511129748E+02  0.11661934470E+02 -0.18118364264E+02  0.61423170580E+02  0.10000000000E+01 0.  0.
<mgrwt>
<rscale>  0 0.12500031E+03</rscale>
<asrwt>0</asrwt>
<pdfrwt beam="1">  1        4 0.10152952E-01 0.12500031E+03</pdfrwt>
<pdfrwt beam="2">  1       -4 0.91063246E-02 0.12500031E+03</pdfrwt>
<totfact> 0.10448766E+04</totfact>
</mgrwt>
</event>
<event>
 5    1  0.3266594E-002  0.1249990E+03  0.7818608E-02  0.1235071E+00
         -4   -1    0    0    0  501 -0.00000000000E+00  0.00000000000E+00  0.42182609137E+01  0.44052951248E+01  0.12700000000E+01 0. -1.
          4   -1    0    0  501    0  0.00000000000E+00 -0.00000000000E+00 -0.90574733729E+03  0.90574822766E+03  0.12700000000E+01 0. -1.
         25    2    1    2    0    0  0.00000000000E+00  0.00000000000E+00 -0.90152907638E+03  0.91015352279E+03  0.12499903793E+03 0.  0.
    9000005    1    3    3    0    0 -0.10376726045E+02  0.42657091076E+02 -0.77458822506E+03  0.77583195491E+03  0.10000000000E+01 0.  0.
    9000005    1    3    3    0    0  0.10376726045E+02 -0.42657091076E+02 -0.12694085132E+03  0.13432156787E+03  0.10000000000E+01 0.  0.
<mgrwt>
<rscale>  0 0.12499904E+03</rscale>
<asrwt>0</asrwt>
<pdfrwt beam="2">  1        4 0.13936005E+00 0.12499904E+03</pdfrwt>
<pdfrwt beam="1">  1       -4 0.66341968E-03 0.12499904E+03</pdfrwt>
<totfact> 0.33774848E+03</totfact>
</mgrwt>
</event>
<event>
 5    1  0.3266594E-002  0.1249963E+03  0.7818608E-02  0.1235075E+00
          4   -1    0    0  501    0  0.00000000000E+00  0.00000000000E+00  0.21751519691E+01  0.25187667794E+01  0.12700000000E+01 0. -1.
         -4   -1    0    0    0  501 -0.00000000000E+00 -0.00000000000E+00 -0.16639449047E+04  0.16639453894E+04  0.12700000000E+01 0. -1.
         25    2    1    2    0    0  0.00000000000E+00  0.00000000000E+00 -0.16617697527E+04  0.16664641561E+04  0.12499629039E+03 0.  0.
    9000005    1    3    3    0    0 -0.17999293029E+02 -0.37491161392E+02 -0.14527182782E+04  0.14533137850E+04  0.10000000000E+01 0.  0.
    9000005    1    3    3    0    0  0.17999293029E+02  0.37491161392E+02 -0.20905147455E+03  0.21315037120E+03  0.10000000000E+01 0.  0.
<mgrwt>
<rscale>  0 0.12499629E+03</rscale>
<asrwt>0</asrwt>
<pdfrwt beam="1">  1        4 0.36110928E-03 0.12499629E+03</pdfrwt>
<pdfrwt beam="2">  1       -4 0.25601705E+00 0.12499629E+03</pdfrwt>
<totfact> 0.14876480E+03</totfact>
</mgrwt>
</event>
<event>
 5    1  0.3266594E-002  0.1250057E+03  0.7818608E-02  0.1235060E+00
          4   -1    0    0  501    0  0.00000000000E+00  0.00000000000E+00  0.52042594899E+03  0.52042749859E+03  0.12700000000E+01 0. -1.
         -4   -1    0    0    0  501 -0.00000000000E+00 -0.00000000000E+00 -0.74512621386E+01  0.75587173157E+01  0.12700000000E+01 0. -1.
         25    2    1    2    0    0  0.00000000000E+00  0.00000000000E+00  0.51297468686E+03  0.52798621590E+03  0.12500565919E+03 0.  0.
    9000005    1    3    3    0    0 -0.44504722455E+02 -0.42111227546E+02  0.30848824276E+03  0.31451553496E+03  0.10000000000E+01 0.  0.
    9000005    1    3    3    0    0  0.44504722455E+02  0.42111227546E+02  0.20448644409E+03  0.21347068095E+03  0.10000000000E+01 0.  0.
<mgrwt>
<rscale>  0 0.12500566E+03</rscale>
<asrwt>0</asrwt>
<pdfrwt beam="1">  1        4 0.80073953E-01 0.12500566E+03</pdfrwt>
<pdfrwt beam="2">  1       -4 0.11547325E-02 0.12500566E+03</pdfrwt>
<totfact> 0.53749832E+03</totfact>
</mgrwt>
</event>
<event>
 5    1  0.3266594E-002  0.1249990E+03  0.7818608E-02  0.1235071E+00
         -4   -1    0    0    0  501 -0.00000000000E+00  0.00000000000E+00  0.86310439567E+02  0.86319782658E+02  0.12700000000E+01 0.  1.
          4   -1    0    0  501    0  0.00000000000E+00 -0.00000000000E+00 -0.45236745627E+02  0.45254569437E+02  0.12700000000E+01 0.  1.
         25    2    1    2    0    0  0.00000000000E+00  0.00000000000E+00  0.41073693940E+02  0.13157435209E+03  0.12499904718E+03 0.  0.
    9000005    1    3    3    0    0 -0.11909503956E+02 -0.50645679366E+02 -0.15901601747E+02  0.54412149939E+02  0.10000000000E+01 0.  0.
    9000005    1    3    3    0    0  0.11909503956E+02  0.50645679366E+02  0.56975295687E+02  0.77162202156E+02  0.10000000000E+01 0.  0.
<mgrwt>
<rscale>  0 0.12499905E+03</rscale>
<asrwt>0</asrwt>
<pdfrwt beam="2">  1        4 0.69615891E-02 0.12499905E+03</pdfrwt>
<pdfrwt beam="1">  1       -4 0.13280619E-01 0.12499905E+03</pdfrwt>
<totfact> 0.10311014E+04</totfact>
</mgrwt>
</event>
<event>
 5    1  0.3266594E-002  0.1249921E+03  0.7818608E-02  0.1235082E+00
          4   -1    0    0  501    0  0.00000000000E+00  0.00000000000E+00  0.17327660862E+02  0.17374139718E+02  0.12700000000E+01 0. -1.
         -4   -1    0    0    0  501 -0.00000000000E+00 -0.00000000000E+00 -0.22505567037E+03  0.22505925368E+03  0.12700000000E+01 0. -1.
         25    2    1    2    0    0  0.00000000000E+00  0.00000000000E+00 -0.20772800951E+03  0.24243339340E+03  0.12499209695E+03 0.  0.
    9000005    1    3    3    0    0 -0.60065817126E+02 -0.15858897754E+02 -0.90802476855E+02  0.11002498274E+03  0.10000000000E+01 0.  0.
    9000005    1    3    3    0    0  0.60065817126E+02  0.15858897754E+02 -0.11692553266E+03  0.13240841065E+03  0.10000000000E+01 0.  0.
<mgrwt>
<rscale>  0 0.12499210E+03</rscale>
<asrwt>0</asrwt>
<pdfrwt beam="1">  1        4 0.26696451E-02 0.12499210E+03</pdfrwt>
<pdfrwt beam="2">  1       -4 0.34627798E-01 0.12499210E+03</pdfrwt>
<totfact> 0.83450986E+03</totfact>
</mgrwt>
</event>
<event>
 5    1  0.3266594E-002  0.1250085E+03  0.7818608E-02  0.1235056E+00
          4   -1    0    0  501    0  0.00000000000E+00  0.00000000000E+00  0.34664952983E+01  0.36918138703E+01  0.12700000000E+01 0. -1.
         -4   -1    0    0    0  501 -0.00000000000E+00 -0.00000000000E+00 -0.10913111522E+04  0.10913118912E+04  0.12700000000E+01 0. -1.
         25    2    1    2    0    0  0.00000000000E+00  0.00000000000E+00 -0.10878446569E+04  0.10950037051E+04  0.12500846575E+03 0.  0.
    9000005    1    3    3    0    0 -0.66715090272E+01 -0.51370143825E+02 -0.23767028134E+03  0.24325205722E+03  0.10000000000E+01 0.  0.
    9000005    1    3    3    0    0  0.66715090272E+01  0.51370143825E+02 -0.85017437558E+03  0.85175164785E+03  0.10000000000E+01 0.  0.
<mgrwt>
<rscale>  0 0.12500847E+03</rscale>
<asrwt>0</asrwt>
<pdfrwt beam="1">  1        4 0.55069688E-03 0.12500847E+03</pdfrwt>
<pdfrwt beam="2">  1       -4 0.16791115E+00 0.12500847E+03</pdfrwt>
<totfact> 0.27625024E+03</totfact>
</mgrwt>
</event>
<event>
 5    1  0.3266594E-002  0.1249417E+03  0.7818608E-02  0.1235160E+00
          4   -1    0    0  501    0  0.00000000000E+00  0.00000000000E+00  0.13439258495E+02  0.13499132153E+02  0.12700000000E+01 0. -1.
         -4   -1    0    0    0  501 -0.00000000000E+00 -0.00000000000E+00 -0.28968178885E+03  0.28968457276E+03  0.12700000000E+01 0. -1.
         25    2    1    2    0    0  0.00000000000E+00  0.00000000000E+00 -0.27624253036E+03  0.30318370491E+03  0.12494167977E+03 0.  0.
    9000005    1    3    3    0    0  0.43955242498E+02 -0.23309484557E+02 -0.46480159975E+02  0.68094057631E+02  0.10000000000E+01 0.  0.
    9000005    1    3    3    0    0 -0.43955242498E+02  0.23309484557E+02 -0.22976237038E+03  0.23508964728E+03  0.10000000000E+01 0.  0.
<mgrwt>
<rscale>  0 0.12494168E+03</rscale>
<asrwt>0</asrwt>
<pdfrwt beam="1">  1        4 0.20723983E-02 0.12494168E+03</pdfrwt>
<pdfrwt beam="2">  1       -4 0.44571244E-01 0.12494168E+03</pdfrwt>
<totfact> 0.75298634E+03</totfact>
</mgrwt>
</event>
<event>
 5    1  0.3266594E-002  0.1249980E+03  0.7818608E-02  0.1235072E+00
          4   -1    0    0  501    0  0.00000000000E+00  0.00000000000E+00  0.91738347464E+02  0.91747137805E+02  0.12700000000E+01 0.  1.
         -4   -1    0    0    0  501 -0.00000000000E+00 -0.00000000000E+00 -0.42558702549E+02  0.42577647453E+02  0.12700000000E+01 0.  1.
         25    2    1    2    0    0  0.00000000000E+00  0.00000000000E+00  0.49179644915E+02  0.13432478526E+03  0.12499804183E+03 0.  0.
    9000005    1    3    3    0    0  0.44007653431E+02  0.19819989013E+02 -0.18066064408E+02  0.51545011477E+02  0.10000000000E+01 0.  0.
    9000005    1    3    3    0    0 -0.44007653431E+02 -0.19819989013E+02  0.67245709322E+02  0.82779773781E+02  0.10000000000E+01 0.  0.
<mgrwt>
<rscale>  0 0.12499804E+03</rscale>
<asrwt>0</asrwt>
<pdfrwt beam="1">  1        4 0.14115725E-01 0.12499804E+03</pdfrwt>
<pdfrwt beam="2">  1       -4 0.65496262E-02 0.12499804E+03</pdfrwt>
<totfact> 0.10252775E+04</totfact>
</mgrwt>
</event>
<event>
 5    1  0.3266594E-002  0.1250002E+03  0.7818608E-02  0.1235069E+00
          4   -1    0    0  501    0  0.00000000000E+00  0.00000000000E+00  0.11717571615E+03  0.11718259834E+03  0.12700000000E+01 0. -1.
         -4   -1    0    0    0  501 -0.00000000000E+00 -0.00000000000E+00 -0.33316833559E+02  0.33341030254E+02  0.12700000000E+01 0. -1.
         25    2    1    2    0    0  0.00000000000E+00  0.00000000000E+00  0.83858882587E+02  0.15052362860E+03  0.12500020231E+03 0.  0.
    9000005    1    3    3    0    0  0.38261891091E+02  0.27933182304E+02 -0.71480546198E+01  0.47920034102E+02  0.10000000000E+01 0.  0.
    9000005    1    3    3    0    0 -0.38261891091E+02 -0.27933182304E+02  0.91006937207E+02  0.10260359450E+03  0.10000000000E+01 0.  0.
<mgrwt>
<rscale>  0 0.12500020E+03</rscale>
<asrwt>0</asrwt>
<pdfrwt beam="1">  1        4 0.18029424E-01 0.12500020E+03</pdfrwt>
<pdfrwt beam="2">  1       -4 0.51280573E-02 0.12500020E+03</pdfrwt>
<totfact> 0.99198971E+03</totfact>
</mgrwt>
</event>
<event>
 5    1  0.3266594E-002  0.1250098E+03  0.7818608E-02  0.1235054E+00
          4   -1    0    0  501    0  0.00000000000E+00  0.00000000000E+00  0.49511535869E+02  0.49527821314E+02  0.12700000000E+01 0. -1.
         -4   -1    0    0    0  501 -0.00000000000E+00 -0.00000000000E+00 -0.78873697190E+02  0.78883921101E+02  0.12700000000E+01 0. -1.
         25    2    1    2    0    0  0.00000000000E+00  0.00000000000E+00 -0.29362161320E+02  0.12841174242E+03  0.12500975591E+03 0.  0.
    9000005    1    3    3    0    0  0.47869521395E+02 -0.54547551536E+01 -0.55571599587E+02  0.73555748334E+02  0.10000000000E+01 0.  0.
    9000005    1    3    3    0    0 -0.47869521395E+02  0.54547551536E+01  0.26209438267E+02  0.54855994081E+02  0.10000000000E+01 0.  0.
<mgrwt>
<rscale>  0 0.12500976E+03</rscale>
<asrwt>0</asrwt>
<pdfrwt beam="1">  1        4 0.76191986E-02 0.12500976E+03</pdfrwt>
<pdfrwt beam="2">  1       -4 0.12136454E-01 0.12500976E+03</pdfrwt>
<totfact> 0.10376320E+04</totfact>
</mgrwt>
</event>
<event>
 5    1  0.3266594E-002  0.1249972E+03  0.7818608E-02  0.1235074E+00
          4   -1    0    0  501    0  0.00000000000E+00  0.00000000000E+00  0.25027492397E+02  0.25059694245E+02  0.12700000000E+01 0. -1.
         -4   -1    0    0    0  501 -0.00000000000E+00 -0.00000000000E+00 -0.15593611991E+03  0.15594129150E+03  0.12700000000E+01 0. -1.
         25    2    1    2    0    0  0.00000000000E+00  0.00000000000E+00 -0.13090862752E+03  0.18100098574E+03  0.12499715229E+03 0.  0.
    9000005    1    3    3    0    0 -0.14020489031E+02 -0.40739324409E+02  0.89419036816E-01  0.43096109589E+02  0.10000000000E+01 0.  0.
    9000005    1    3    3    0    0  0.14020489031E+02  0.40739324409E+02 -0.13099804655E+03  0.13790487615E+03  0.10000000000E+01 0.  0.
<mgrwt>
<rscale>  0 0.12499715E+03</rscale>
<asrwt>0</asrwt>
<pdfrwt beam="1">  1        4 0.38532584E-02 0.12499715E+03</pdfrwt>
<pdfrwt beam="2">  1       -4 0.23993047E-01 0.12499715E+03</pdfrwt>
<totfact> 0.93443098E+03</totfact>
</mgrwt>
</event>
<event>
 5    1  0.3266594E-002  0.1250020E+03  0.7818608E-02  0.1235066E+00
         -4   -1    0    0    0  501 -0.00000000000E+00  0.00000000000E+00  0.11707725415E+04  0.11707732303E+04  0.12700000000E+01 0. -1.
          4   -1    0    0  501    0  0.00000000000E+00 -0.00000000000E+00 -0.32150161095E+01  0.34567656247E+01  0.12700000000E+01 0. -1.
         25    2    1    2    0    0  0.00000000000E+00  0.00000000000E+00  0.11675575254E+04  0.11742299960E+04  0.12500203309E+03 0.  0.
    9000005    1    3    3    0    0 -0.17500291237E+02  0.41318762187E+02  0.99236385390E+03  0.99337833620E+03  0.10000000000E+01 0.  0.
    9000005    1    3    3    0    0  0.17500291237E+02 -0.41318762187E+02  0.17519367150E+03  0.18085165976E+03  0.10000000000E+01 0.  0.
<mgrwt>
<rscale>  0 0.12500203E+03</rscale>
<asrwt>0</asrwt>
<pdfrwt beam="2">  1        4 0.51326674E-03 0.12500203E+03</pdfrwt>
<pdfrwt beam="1">  1       -4 0.18013758E+00 0.12500203E+03</pdfrwt>
<totfact> 0.25396277E+03</totfact>
</mgrwt>
</event>
<event>
 5    1  0.3266594E-002  0.1250039E+03  0.7818608E-02  0.1235063E+00
          4   -1    0    0  501    0  0.00000000000E+00  0.00000000000E+00  0.51044918458E+01  0.52601080791E+01  0.12700000000E+01 0. -1.
         -4   -1    0    0    0  501 -0.00000000000E+00 -0.00000000000E+00 -0.75365812204E+03  0.75365919209E+03  0.12700000000E+01 0. -1.
         25    2    1    2    0    0  0.00000000000E+00  0.00000000000E+00 -0.74855363020E+03  0.75891930017E+03  0.12500386749E+03 0.  0.
    9000005    1    3    3    0    0  0.59334390401E+01 -0.61064060599E+02 -0.30206654118E+03  0.30823565741E+03  0.10000000000E+01 0.  0.
    9000005    1    3    3    0    0 -0.59334390401E+01  0.61064060599E+02 -0.44648708902E+03  0.45068364276E+03  0.10000000000E+01 0.  0.
<mgrwt>
<rscale>  0 0.12500387E+03</rscale>
<asrwt>0</asrwt>
<pdfrwt beam="1">  1        4 0.79735982E-03 0.12500387E+03</pdfrwt>
<pdfrwt beam="2">  1       -4 0.11595937E+00 0.12500387E+03</pdfrwt>
<totfact> 0.40147750E+03</totfact>
</mgrwt>
</event>
<event>
 5    1  0.3266594E-002  0.1249956E+03  0.7818608E-02  0.1235076E+00
          4   -1    0    0  501    0  0.00000000000E+00  0.00000000000E+00  0.99997519947E+02  0.10000558432E+03  0.12700000000E+01 0.  1.
         -4   -1    0    0    0  501 -0.00000000000E+00 -0.00000000000E+00 -0.39040754256E+02  0.39061405413E+02  0.12700000000E+01 0.  1.
         25    2    1    2    0    0  0.00000000000E+00  0.00000000000E+00  0.60956765691E+02  0.13906698973E+03  0.12499560132E+03 0.  0.
    9000005    1    3    3    0    0  0.19320876035E+02 -0.13483108347E+02  0.94872211645E+02  0.97759025179E+02  0.10000000000E+01 0.  0.
    9000005    1    3    3    0    0 -0.19320876035E+02  0.13483108347E+02 -0.33915445954E+02  0.41307964556E+02  0.10000000000E+01 0.  0.
<mgrwt>
<rscale>  0 0.12499560E+03</rscale>
<asrwt>0</asrwt>
<pdfrwt beam="1">  1        4 0.15386442E-01 0.12499560E+03</pdfrwt>
<pdfrwt beam="2">  1       -4 0.60084790E-02 0.12499560E+03</pdfrwt>
<totfact> 0.10153966E+04</totfact>
</mgrwt>
</event>
<event>
 5    1  0.3266594E-002  0.1250010E+03  0.7818608E-02  0.1235068E+00
          4   -1    0    0  501    0  0.00000000000E+00  0.00000000000E+00  0.61362153600E+02  0.61375294659E+02  0.12700000000E+01 0.  1.
         -4   -1    0    0    0  501 -0.00000000000E+00 -0.00000000000E+00 -0.63633679838E+02  0.63646351897E+02  0.12700000000E+01 0.  1.
         25    2    1    2    0    0  0.00000000000E+00  0.00000000000E+00 -0.22715262383E+01  0.12502164656E+03  0.12500100910E+03 0.  0.
    9000005    1    3    3    0    0  0.52446289018E+01  0.56441969390E+02 -0.27448109643E+02  0.62988893973E+02  0.10000000000E+01 0.  0.
    9000005    1    3    3    0    0 -0.52446289018E+01 -0.56441969390E+02  0.25176583405E+02  0.62032752582E+02  0.10000000000E+01 0.  0.
<mgrwt>
<rscale>  0 0.12500101E+03</rscale>
<asrwt>0</asrwt>
<pdfrwt beam="1">  1        4 0.94423170E-02 0.12500101E+03</pdfrwt>
<pdfrwt beam="2">  1       -4 0.97917825E-02 0.12500101E+03</pdfrwt>
<totfact> 0.10452154E+04</totfact>
</mgrwt>
</event>
<event>
 4    1  0.3266594E-002  0.1246785E+03  0.7818608E-02  0.1235573E+00
          4   -1    0    0  501    0  0.00000000000E+00  0.00000000000E+00  0.16084058292E+02  0.16134120092E+02  0.12700000000E+01 0. -1.
         -4   -1    0    0    0  501 -0.00000000000E+00 -0.00000000000E+00 -0.24118993711E+03  0.24119328071E+03  0.12700000000E+01 0. -1.
    9000005    1    1    2    0    0 -0.47191121718E+02 -0.40720385562E+02 -0.11218452482E+03  0.12834141724E+03  0.10000000000E+01 0.  0.
    9000005    1    1    2    0    0  0.47191121718E+02  0.40720385562E+02 -0.11292135399E+03  0.12898598357E+03  0.10000000000E+01 0.  0.
<mgrwt>
<rscale>  0 0.12467852E+03</rscale>
<asrwt>0</asrwt>
<pdfrwt beam="1">  1        4 0.24785788E-02 0.12467852E+03</pdfrwt>
<pdfrwt beam="2">  1       -4 0.37110250E-01 0.12467852E+03</pdfrwt>
<totfact> 0.81867117E+03</totfact>
</mgrwt>
</event>
<event>
 5    1  0.3266594E-002  0.1250059E+03  0.7818608E-02  0.1235060E+00
         -4   -1    0    0    0  501 -0.00000000000E+00  0.00000000000E+00  0.11307226941E+02  0.11378325056E+02  0.12700000000E+01 0. -1.
          4   -1    0    0  501    0  0.00000000000E+00 -0.00000000000E+00 -0.34434243213E+03  0.34434477412E+03  0.12700000000E+01 0. -1.
         25    2    1    2    0    0  0.00000000000E+00  0.00000000000E+00 -0.33303520519E+03  0.35572309918E+03  0.12500590143E+03 0.  0.
    9000005    1    3    3    0    0  0.59810062588E+02  0.26002595917E+01 -0.21755035172E+03  0.22563944795E+03  0.10000000000E+01 0.  0.
    9000005    1    3    3    0    0 -0.59810062588E+02 -0.26002595917E+01 -0.11548485347E+03  0.13008365123E+03  0.10000000000E+01 0.  0.
<mgrwt>
<rscale>  0 0.12500590E+03</rscale>
<asrwt>0</asrwt>
<pdfrwt beam="2">  1        4 0.52981400E-01 0.12500590E+03</pdfrwt>
<pdfrwt beam="1">  1       -4 0.17452229E-02 0.12500590E+03</pdfrwt>
<totfact> 0.69090483E+03</totfact>
</mgrwt>
</event>
<event>
 5    1  0.3266594E-002  0.1249979E+03  0.7818608E-02  0.1235073E+00
         -4   -1    0    0    0  501 -0.00000000000E+00  0.00000000000E+00  0.82281200469E+02  0.82291001030E+02  0.12700000000E+01 0. -1.
          4   -1    0    0  501    0  0.00000000000E+00 -0.00000000000E+00 -0.47451685936E+02  0.47468678075E+02  0.12700000000E+01 0. -1.
         25    2    1    2    0    0  0.00000000000E+00  0.00000000000E+00  0.34829514532E+02  0.12975967911E+03  0.12499791694E+03 0.  0.
    9000005    1    3    3    0    0 -0.43279344705E+02  0.44921375825E+02  0.13518356723E+02  0.63833985091E+02  0.10000000000E+01 0.  0.
    9000005    1    3    3    0    0  0.43279344705E+02 -0.44921375825E+02  0.21311157810E+02  0.65925694014E+02  0.10000000000E+01 0.  0.
<mgrwt>
<rscale>  0 0.12499792E+03</rscale>
<asrwt>0</asrwt>
<pdfrwt beam="2">  1        4 0.73023203E-02 0.12499792E+03</pdfrwt>
<pdfrwt beam="1">  1       -4 0.12660707E-01 0.12499792E+03</pdfrwt>
<totfact> 0.10350138E+04</totfact>
</mgrwt>
</event>
<event>
 5    1  0.3266594E-002  0.1249628E+03  0.7818608E-02  0.1235127E+00
          4   -1    0    0  501    0  0.00000000000E+00  0.00000000000E+00  0.38831429776E+01  0.40855476236E+01  0.12700000000E+01 0.  1.
         -4   -1    0    0    0  501 -0.00000000000E+00 -0.00000000000E+00 -0.97961305689E+03  0.97961388013E+03  0.12700000000E+01 0.  1.
         25    2    1    2    0    0  0.00000000000E+00  0.00000000000E+00 -0.97572991392E+03  0.98369942775E+03  0.12496279144E+03 0.  0.
    9000005    1    3    3    0    0  0.17153706320E+02 -0.13295286859E+02 -0.26707029582E+02  0.34427891633E+02  0.10000000000E+01 0.  0.
    9000005    1    3    3    0    0 -0.17153706320E+02  0.13295286859E+02 -0.94902288433E+03  0.94927153612E+03  0.10000000000E+01 0.  0.
<mgrwt>
<rscale>  0 0.12496279E+03</rscale>
<asrwt>0</asrwt>
<pdfrwt beam="1">  1        4 0.61304031E-03 0.12496279E+03</pdfrwt>
<pdfrwt beam="2">  1       -4 0.15072514E+00 0.12496279E+03</pdfrwt>
<totfact> 0.31174235E+03</totfact>
</mgrwt>
</event>
<event>
 5    1  0.3266594E-002  0.1249963E+03  0.7818608E-02  0.1235075E+00
         -4   -1    0    0    0  501 -0.00000000000E+00  0.00000000000E+00  0.12104744627E+04  0.12104751289E+04  0.12700000000E+01 0. -1.
          4   -1    0    0  501    0  0.00000000000E+00 -0.00000000000E+00 -0.31011991991E+01  0.33511694186E+01  0.12700000000E+01 0. -1.
         25    2    1    2    0    0  0.00000000000E+00  0.00000000000E+00  0.12073732635E+04  0.12138262983E+04  0.12499634049E+03 0.  0.
    9000005    1    3    3    0    0 -0.59209392889E+02  0.37109334064E+00  0.79769353085E+03  0.79988865417E+03  0.10000000000E+01 0.  0.
    9000005    1    3    3    0    0  0.59209392889E+02 -0.37109334064E+00  0.40967973265E+03  0.41393764417E+03  0.10000000000E+01 0.  0.
<mgrwt>
<rscale>  0 0.12499634E+03</rscale>
<asrwt>0</asrwt>
<pdfrwt beam="2">  1        4 0.49638696E-03 0.12499634E+03</pdfrwt>
<pdfrwt beam="1">  1       -4 0.18624625E+00 0.12499634E+03</pdfrwt>
<totfact> 0.24355615E+03</totfact>
</mgrwt>
</event>
<event>
 5    1  0.3266594E-002  0.1249972E+03  0.7818608E-02  0.1235074E+00
          4   -1    0    0  501    0  0.00000000000E+00  0.00000000000E+00  0.11646408401E+03  0.11647100826E+03  0.12700000000E+01 0.  1.
         -4   -1    0    0    0  501 -0.00000000000E+00 -0.00000000000E+00 -0.33518944824E+02  0.33542995723E+02  0.12700000000E+01 0.  1.
         25    2    1    2    0    0  0.00000000000E+00  0.00000000000E+00  0.82945139189E+02  0.15001400398E+03  0.12499722107E+03 0.  0.
    9000005    1    3    3    0    0 -0.64060293728E+01 -0.43623083733E+02 -0.11674278522E+02  0.45621260677E+02  0.10000000000E+01 0.  0.
    9000005    1    3    3    0    0  0.64060293728E+01  0.43623083733E+02  0.94619417711E+02  0.10439274330E+03  0.10000000000E+01 0.  0.
<mgrwt>
<rscale>  0 0.12499722E+03</rscale>
<asrwt>0</asrwt>
<pdfrwt beam="1">  1        4 0.17919934E-01 0.12499722E+03</pdfrwt>
<pdfrwt beam="2">  1       -4 0.51591433E-02 0.12499722E+03</pdfrwt>
<totfact> 0.99307117E+03</totfact>
</mgrwt>
</event>
<event>
 5    1  0.3266594E-002  0.1249797E+03  0.7818608E-02  0.1235101E+00
         -4   -1    0    0    0  501 -0.00000000000E+00  0.00000000000E+00  0.23475637498E+02  0.23509965035E+02  0.12700000000E+01 0. -1.
          4   -1    0    0  501    0  0.00000000000E+00 -0.00000000000E+00 -0.16618362250E+03  0.16618847520E+03  0.12700000000E+01 0. -1.
         25    2    1    2    0    0  0.00000000000E+00  0.00000000000E+00 -0.14270798500E+03  0.18969844023E+03  0.12497971532E+03 0.  0.
    9000005    1    3    3    0    0 -0.59759037804E+02 -0.94309322338E+01 -0.47649663764E+02  0.77016722463E+02  0.10000000000E+01 0.  0.
    9000005    1    3    3    0    0  0.59759037804E+02  0.94309322338E+01 -0.95058321241E+02  0.11268171777E+03  0.10000000000E+01 0.  0.
<mgrwt>
<rscale>  0 0.12497972E+03</rscale>
<asrwt>0</asrwt>
<pdfrwt beam="2">  1        4 0.25569724E-01 0.12497972E+03</pdfrwt>
<pdfrwt beam="1">  1       -4 0.36146505E-02 0.12497972E+03</pdfrwt>
<totfact> 0.91941582E+03</totfact>
</mgrwt>
</event>
<event>
 5    1  0.3266594E-002  0.1250025E+03  0.7818608E-02  0.1235065E+00
         -4   -1    0    0    0  501 -0.00000000000E+00  0.00000000000E+00  0.18002289267E+03  0.18002737232E+03  0.12700000000E+01 0. -1.
          4   -1    0    0  501    0  0.00000000000E+00 -0.00000000000E+00 -0.21676159274E+02  0.21713331870E+02  0.12700000000E+01 0. -1.
         25    2    1    2    0    0  0.00000000000E+00  0.00000000000E+00  0.15834673339E+03  0.20174070419E+03  0.12500249498E+03 0.  0.
    9000005    1    3    3    0    0  0.33908756618E+02  0.51785318797E+02  0.93045615671E+02  0.11175871158E+03  0.10000000000E+01 0.  0.
    9000005    1    3    3    0    0 -0.33908756618E+02 -0.51785318797E+02  0.65301117722E+02  0.89981992610E+02  0.10000000000E+01 0.  0.
<mgrwt>
<rscale>  0 0.12500249E+03</rscale>
<asrwt>0</asrwt>
<pdfrwt beam="2">  1        4 0.33379978E-02 0.12500249E+03</pdfrwt>
<pdfrwt beam="1">  1       -4 0.27699033E-01 0.12500249E+03</pdfrwt>
<totfact> 0.89837736E+03</totfact>
</mgrwt>
</event>
<event>
 5    1  0.3266594E-002  0.1250001E+03  0.7818608E-02  0.1235069E+00
         -4   -1    0    0    0  501 -0.00000000000E+00  0.00000000000E+00  0.60438132502E+02  0.60451474427E+02  0.12700000000E+01 0.  1.
          4   -1    0    0  501    0  0.00000000000E+00 -0.00000000000E+00 -0.64605601394E+02  0.64618082852E+02  0.12700000000E+01 0.  1.
         25    2    1    2    0    0  0.00000000000E+00  0.00000000000E+00 -0.41674688923E+01  0.12506955728E+03  0.12500010544E+03 0.  0.
    9000005    1    3    3    0    0 -0.45561840483E+02  0.13579757096E+02 -0.42664443157E+02  0.63886976927E+02  0.10000000000E+01 0.  0.
    9000005    1    3    3    0    0  0.45561840483E+02 -0.13579757096E+02  0.38496974265E+02  0.61182580352E+02  0.10000000000E+01 0.  0.
<mgrwt>
<rscale>  0 0.12500011E+03</rscale>
<asrwt>0</asrwt>
<pdfrwt beam="2">  1        4 0.99413096E-02 0.12500011E+03</pdfrwt>
<pdfrwt beam="1">  1       -4 0.93001607E-02 0.12500011E+03</pdfrwt>
<totfact> 0.10451327E+04</totfact>
</mgrwt>
</event>
<event>
 5    1  0.3266594E-002  0.1249994E+03  0.7818608E-02  0.1235070E+00
          4   -1    0    0  501    0  0.00000000000E+00  0.00000000000E+00  0.20269796177E+04  0.20269800155E+04  0.12700000000E+01 0.  1.
         -4   -1    0    0    0  501 -0.00000000000E+00 -0.00000000000E+00 -0.17174302504E+01  0.21359931332E+01  0.12700000000E+01 0.  1.
         25    2    1    2    0    0  0.00000000000E+00  0.00000000000E+00  0.20252621874E+04  0.20291160087E+04  0.12499939525E+03 0.  0.
    9000005    1    3    3    0    0 -0.19826514048E+02 -0.34490433907E+02  0.23031948816E+03  0.23373221284E+03  0.10000000000E+01 0.  0.
    9000005    1    3    3    0    0  0.19826514048E+02  0.34490433907E+02  0.17949426993E+04  0.17953837958E+04  0.10000000000E+01 0.  0.
<mgrwt>
<rscale>  0 0.12499940E+03</rscale>
<asrwt>0</asrwt>
<pdfrwt beam="1">  1        4 0.31187627E+00 0.12499940E+03</pdfrwt>
<pdfrwt beam="2">  1       -4 0.29644682E-03 0.12499940E+03</pdfrwt>
<totfact> 0.94859718E+02</totfact>
</mgrwt>
</event>
<event>
 5    1  0.3266594E-002  0.1249990E+03  0.7818608E-02  0.1235071E+00
          4   -1    0    0  501    0  0.00000000000E+00  0.00000000000E+00  0.45641031746E+02  0.45658697734E+02  0.12700000000E+01 0. -1.
         -4   -1    0    0    0  501 -0.00000000000E+00 -0.00000000000E+00 -0.85546104999E+02  0.85555531560E+02  0.12700000000E+01 0. -1.
         25    2    1    2    0    0  0.00000000000E+00  0.00000000000E+00 -0.39905073253E+02  0.13121422929E+03  0.12499903639E+03 0.  0.
    9000005    1    3    3    0    0  0.15562226409E+01 -0.52516321801E+02 -0.55469826278E+02  0.76408687410E+02  0.10000000000E+01 0.  0.
    9000005    1    3    3    0    0 -0.15562226409E+01  0.52516321801E+02  0.15564753025E+02  0.54805541884E+02  0.10000000000E+01 0.  0.
<mgrwt>
<rscale>  0 0.12499904E+03</rscale>
<asrwt>0</asrwt>
<pdfrwt beam="1">  1        4 0.70237812E-02 0.12499904E+03</pdfrwt>
<pdfrwt beam="2">  1       -4 0.13163023E-01 0.12499904E+03</pdfrwt>
<totfact> 0.10318723E+04</totfact>
</mgrwt>
</event>
<event>
 5    1  0.3266594E-002  0.1249991E+03  0.7818608E-02  0.1235071E+00
         -4   -1    0    0    0  501 -0.00000000000E+00  0.00000000000E+00  0.14728716941E+01  0.19448010251E+01  0.12700000000E+01 0. -1.
          4   -1    0    0  501    0  0.00000000000E+00 -0.00000000000E+00 -0.22854065691E+04  0.22854069219E+04  0.12700000000E+01 0. -1.
         25    2    1    2    0    0  0.00000000000E+00  0.00000000000E+00 -0.22839336974E+04  0.22873517230E+04  0.12499908215E+03 0.  0.
    9000005    1    3    3    0    0  0.22623819810E+02  0.38319232957E+01 -0.22056177893E+04  0.22057373718E+04  0.10000000000E+01 0.  0.
    9000005    1    3    3    0    0 -0.22623819810E+02 -0.38319232957E+01 -0.78315908071E+02  0.81614351164E+02  0.10000000000E+01 0.  0.
<mgrwt>
<rscale>  0 0.12499908E+03</rscale>
<asrwt>0</asrwt>
<pdfrwt beam="2">  1        4 0.35163489E+00 0.12499908E+03</pdfrwt>
<pdfrwt beam="1">  1       -4 0.26292687E-03 0.12499908E+03</pdfrwt>
<totfact> 0.65617602E+02</totfact>
</mgrwt>
</event>
<event>
 5    1  0.3266594E-002  0.1250039E+03  0.7818608E-02  0.1235063E+00
          4   -1    0    0  501    0  0.00000000000E+00  0.00000000000E+00  0.34135128441E+01  0.36421106431E+01  0.12700000000E+01 0. -1.
         -4   -1    0    0    0  501 -0.00000000000E+00 -0.00000000000E+00 -0.11071127428E+04  0.11071134712E+04  0.12700000000E+01 0. -1.
         25    2    1    2    0    0  0.00000000000E+00  0.00000000000E+00 -0.11036992299E+04  0.11107555818E+04  0.12500388973E+03 0.  0.
    9000005    1    3    3    0    0 -0.26764677073E+02 -0.41705166169E+02 -0.21351014647E+03  0.21918770830E+03  0.10000000000E+01 0.  0.
    9000005    1    3    3    0    0  0.26764677073E+02  0.41705166169E+02 -0.89018908344E+03  0.89156787353E+03  0.10000000000E+01 0.  0.
<mgrwt>
<rscale>  0 0.12500389E+03</rscale>
<asrwt>0</asrwt>
<pdfrwt beam="1">  1        4 0.54279719E-03 0.12500389E+03</pdfrwt>
<pdfrwt beam="2">  1       -4 0.17034240E+00 0.12500389E+03</pdfrwt>
<totfact> 0.27168471E+03</totfact>
</mgrwt>
</event>
<event>
 5    1  0.3266594E-002  0.1249933E+03  0.7818608E-02  0.1235080E+00
         -4   -1    0    0    0  501 -0.00000000000E+00  0.00000000000E+00  0.22567640511E+02  0.22603347058E+02  0.12700000000E+01 0. -1.
          4   -1    0    0  501    0  0.00000000000E+00 -0.00000000000E+00 -0.17289734947E+03  0.17290201374E+03  0.12700000000E+01 0. -1.
         25    2    1    2    0    0  0.00000000000E+00  0.00000000000E+00 -0.15032970896E+03  0.19550536080E+03  0.12499329863E+03 0.  0.
    9000005    1    3    3    0    0  0.10057254190E+02  0.50223373261E+02 -0.19176641375E+02  0.54701729022E+02  0.10000000000E+01 0.  0.
    9000005    1    3    3    0    0 -0.10057254190E+02 -0.50223373261E+02 -0.13115306759E+03  0.14080363177E+03  0.10000000000E+01 0.  0.
<mgrwt>
<rscale>  0 0.12499330E+03</rscale>
<asrwt>0</asrwt>
<pdfrwt beam="2">  1        4 0.26602697E-01 0.12499330E+03</pdfrwt>
<pdfrwt beam="1">  1       -4 0.34750503E-02 0.12499330E+03</pdfrwt>
<totfact> 0.90911765E+03</totfact>
</mgrwt>
</event>
<event>
 5    1  0.3266594E-002  0.1250005E+03  0.7818608E-02  0.1235069E+00
          4   -1    0    0  501    0  0.00000000000E+00  0.00000000000E+00  0.37871446293E+01  0.39944166587E+01  0.12700000000E+01 0.  1.
         -4   -1    0    0    0  501 -0.00000000000E+00 -0.00000000000E+00 -0.10037756950E+04  0.10037764985E+04  0.12700000000E+01 0.  1.
         25    2    1    2    0    0  0.00000000000E+00  0.00000000000E+00 -0.99998855041E+03  0.10077709151E+04  0.12500046559E+03 0.  0.
    9000005    1    3    3    0    0 -0.12233283113E+02  0.40767477523E+02 -0.13110073167E+03  0.13784064090E+03  0.10000000000E+01 0.  0.
    9000005    1    3    3    0    0  0.12233283113E+02 -0.40767477523E+02 -0.86888781875E+03  0.86993027422E+03  0.10000000000E+01 0.  0.
<mgrwt>
<rscale>  0 0.12500047E+03</rscale>
<asrwt>0</asrwt>
<pdfrwt beam="1">  1        4 0.59864424E-03 0.12500047E+03</pdfrwt>
<pdfrwt beam="2">  1       -4 0.15444283E+00 0.12500047E+03</pdfrwt>
<totfact> 0.30349003E+03</totfact>
</mgrwt>
</event>
<event>
 5    1  0.3266594E-002  0.1249890E+03  0.7818608E-02  0.1235086E+00
         -4   -1    0    0    0  501 -0.00000000000E+00  0.00000000000E+00  0.59144553984E+02  0.59158187649E+02  0.12700000000E+01 0. -1.
          4   -1    0    0  501    0  0.00000000000E+00 -0.00000000000E+00 -0.66006857315E+02  0.66019073855E+02  0.12700000000E+01 0. -1.
         25    2    1    2    0    0  0.00000000000E+00  0.00000000000E+00 -0.68623033315E+01  0.12517726150E+03  0.12498902188E+03 0.  0.
    9000005    1    3    3    0    0 -0.11287913716E+02 -0.61068654887E+02  0.34905733400E+01  0.62209177040E+02  0.10000000000E+01 0.  0.
    9000005    1    3    3    0    0  0.11287913716E+02  0.61068654887E+02 -0.10352876672E+02  0.62968084464E+02  0.10000000000E+01 0.  0.
<mgrwt>
<rscale>  0 0.12498902E+03</rscale>
<asrwt>0</asrwt>
<pdfrwt beam="2">  1        4 0.10156890E-01 0.12498902E+03</pdfrwt>
<pdfrwt beam="1">  1       -4 0.91011506E-02 0.12498902E+03</pdfrwt>
<totfact> 0.10451607E+04</totfact>
</mgrwt>
</event>
<event>
 5    1  0.3266594E-002  0.1250012E+03  0.7818608E-02  0.1235067E+00
         -4   -1    0    0    0  501 -0.00000000000E+00  0.00000000000E+00  0.13353836952E+02  0.13414091894E+02  0.12700000000E+01 0.  1.
          4   -1    0    0  501    0  0.00000000000E+00 -0.00000000000E+00 -0.29180450140E+03  0.29180726505E+03  0.12700000000E+01 0.  1.
         25    2    1    2    0    0  0.00000000000E+00  0.00000000000E+00 -0.27845066444E+03  0.30522135694E+03  0.12500121681E+03 0.  0.
    9000005    1    3    3    0    0  0.87489150644E+01 -0.47389452964E+02 -0.42075021854E+02  0.63981335021E+02  0.10000000000E+01 0.  0.
    9000005    1    3    3    0    0 -0.87489150644E+01  0.47389452964E+02 -0.23637564259E+03  0.24124002192E+03  0.10000000000E+01 0.  0.
<mgrwt>
<rscale>  0 0.12500122E+03</rscale>
<asrwt>0</asrwt>
<pdfrwt beam="2">  1        4 0.44897843E-01 0.12500122E+03</pdfrwt>
<pdfrwt beam="1">  1       -4 0.20592842E-02 0.12500122E+03</pdfrwt>
<totfact> 0.74946493E+03</totfact>
</mgrwt>
</event>
<event>
 5    1  0.3266594E-002  0.1249949E+03  0.7818608E-02  0.1235077E+00
         -4   -1    0    0    0  501 -0.00000000000E+00  0.00000000000E+00  0.13105649506E+03  0.13106264837E+03  0.12700000000E+01 0.  1.
          4   -1    0    0  501    0  0.00000000000E+00 -0.00000000000E+00 -0.29783024766E+02  0.29810089973E+02  0.12700000000E+01 0.  1.
         25    2    1    2    0    0  0.00000000000E+00  0.00000000000E+00  0.10127347029E+03  0.16087273834E+03  0.12499488852E+03 0.  0.
    9000005    1    3    3    0    0 -0.23102898414E+02 -0.27958412085E+02 -0.14856933339E+02  0.39206443216E+02  0.10000000000E+01 0.  0.
    9000005    1    3    3    0    0  0.23102898414E+02  0.27958412085E+02  0.11613040363E+03  0.12166629513E+03  0.10000000000E+01 0.  0.
<mgrwt>
<rscale>  0 0.12499489E+03</rscale>
<asrwt>0</asrwt>
<pdfrwt beam="2">  1        4 0.45845590E-02 0.12499489E+03</pdfrwt>
<pdfrwt beam="1">  1       -4 0.20165093E-01 0.12499489E+03</pdfrwt>
<totfact> 0.97185955E+03</totfact>
</mgrwt>
</event>
<event>
 5    1  0.3266594E-002  0.1250044E+03  0.7818608E-02  0.1235062E+00
          4   -1    0    0  501    0  0.00000000000E+00  0.00000000000E+00  0.24681292776E+02  0.24713945721E+02  0.12700000000E+01 0. -1.
         -4   -1    0    0    0  501 -0.00000000000E+00 -0.00000000000E+00 -0.15813886329E+03  0.15814396284E+03  0.12700000000E+01 0. -1.
         25    2    1    2    0    0  0.00000000000E+00  0.00000000000E+00 -0.13345757052E+03  0.18285790856E+03  0.12500436631E+03 0.  0.
    9000005    1    3    3    0    0 -0.58950909522E+02  0.10217100092E+02 -0.93137469077E+02  0.11070314817E+03  0.10000000000E+01 0.  0.
    9000005    1    3    3    0    0  0.58950909522E+02 -0.10217100092E+02 -0.40320101439E+02  0.72154760396E+02  0.10000000000E+01 0.  0.
<mgrwt>
<rscale>  0 0.12500437E+03</rscale>
<asrwt>0</asrwt>
<pdfrwt beam="1">  1        4 0.38000261E-02 0.12500437E+03</pdfrwt>
<pdfrwt beam="2">  1       -4 0.24331959E-01 0.12500437E+03</pdfrwt>
<totfact> 0.93095974E+03</totfact>
</mgrwt>
</event>
<event>
 5    1  0.3266594E-002  0.1249993E+03  0.7818608E-02  0.1235070E+00
          4   -1    0    0  501    0  0.00000000000E+00  0.00000000000E+00  0.17717724728E+02  0.17763182979E+02  0.12700000000E+01 0.  1.
         -4   -1    0    0    0  501 -0.00000000000E+00 -0.00000000000E+00 -0.22013907762E+03  0.22014274096E+03  0.12700000000E+01 0.  1.
         25    2    1    2    0    0  0.00000000000E+00  0.00000000000E+00 -0.20242135289E+03  0.23790592394E+03  0.12499929815E+03 0.  0.
    9000005    1    3    3    0    0  0.26998974635E+02  0.27276205008E+02 -0.73456977071E+01  0.39088300881E+02  0.10000000000E+01 0.  0.
    9000005    1    3    3    0    0 -0.26998974635E+02 -0.27276205008E+02 -0.19507565519E+03  0.19881762306E+03  0.10000000000E+01 0.  0.
<mgrwt>
<rscale>  0 0.12499930E+03</rscale>
<asrwt>0</asrwt>
<pdfrwt beam="1">  1        4 0.27295825E-02 0.12499930E+03</pdfrwt>
<pdfrwt beam="2">  1       -4 0.33871327E-01 0.12499930E+03</pdfrwt>
<totfact> 0.84111552E+03</totfact>
</mgrwt>
</event>
<event>
 5    1  0.3266594E-002  0.1249980E+03  0.7818608E-02  0.1235072E+00
         -4   -1    0    0    0  501 -0.00000000000E+00  0.00000000000E+00  0.11186947309E+02  0.11258805003E+02  0.12700000000E+01 0. -1.
          4   -1    0    0  501    0  0.00000000000E+00 -0.00000000000E+00 -0.34797740725E+03  0.34797972478E+03  0.12700000000E+01 0. -1.
         25    2    1    2    0    0  0.00000000000E+00  0.00000000000E+00 -0.33679045994E+03  0.35923852978E+03  0.12499802947E+03 0.  0.
    9000005    1    3    3    0    0 -0.52731955820E+02 -0.27534946474E+02 -0.11339115266E+03  0.12805227816E+03  0.10000000000E+01 0.  0.
    9000005    1    3    3    0    0  0.52731955820E+02  0.27534946474E+02 -0.22339930728E+03  0.23118625162E+03  0.10000000000E+01 0.  0.
<mgrwt>
<rscale>  0 0.12499803E+03</rscale>
<asrwt>0</asrwt>
<pdfrwt beam="2">  1        4 0.53540683E-01 0.12499803E+03</pdfrwt>
<pdfrwt beam="1">  1       -4 0.17267749E-02 0.12499803E+03</pdfrwt>
<totfact> 0.68723020E+03</totfact>
</mgrwt>
</event>
<event>
 5    1  0.3266594E-002  0.1250038E+03  0.7818608E-02  0.1235063E+00
          4   -1    0    0  501    0  0.00000000000E+00  0.00000000000E+00  0.62068801520E+02  0.62081793000E+02  0.12700000000E+01 0. -1.
         -4   -1    0    0    0  501 -0.00000000000E+00 -0.00000000000E+00 -0.62912075730E+02  0.62924893108E+02  0.12700000000E+01 0. -1.
         25    2    1    2    0    0  0.00000000000E+00  0.00000000000E+00 -0.84327420983E+00  0.12500668611E+03  0.12500384178E+03 0.  0.
    9000005    1    3    3    0    0  0.14175499765E+02 -0.13719778943E+02 -0.59721493840E+02  0.62903369976E+02  0.10000000000E+01 0.  0.
    9000005    1    3    3    0    0 -0.14175499765E+02  0.13719778943E+02  0.58878219630E+02  0.62103316132E+02  0.10000000000E+01 0.  0.
<mgrwt>
<rscale>  0 0.12500384E+03</rscale>
<asrwt>0</asrwt>
<pdfrwt beam="1">  1        4 0.95510316E-02 0.12500384E+03</pdfrwt>
<pdfrwt beam="2">  1       -4 0.96807662E-02 0.12500384E+03</pdfrwt>
<totfact> 0.10451810E+04</totfact>
</mgrwt>
</event>
<event>
 5    1  0.3266594E-002  0.1249981E+03  0.7818608E-02  0.1235072E+00
          4   -1    0    0  501    0  0.00000000000E+00  0.00000000000E+00  0.52419671626E+02  0.52435053861E+02  0.12700000000E+01 0. -1.
         -4   -1    0    0    0  501 -0.00000000000E+00 -0.00000000000E+00 -0.74484846853E+02  0.74495673100E+02  0.12700000000E+01 0. -1.
         25    2    1    2    0    0  0.00000000000E+00  0.00000000000E+00 -0.22065175226E+02  0.12693072696E+03  0.12499814994E+03 0.  0.
    9000005    1    3    3    0    0  0.14412254940E+02 -0.22699908026E+02  0.46249984883E+02  0.53507569731E+02  0.10000000000E+01 0.  0.
    9000005    1    3    3    0    0 -0.14412254940E+02  0.22699908026E+02 -0.68315160109E+02  0.73423157230E+02  0.10000000000E+01 0.  0.
<mgrwt>
<rscale>  0 0.12499815E+03</rscale>
<asrwt>0</asrwt>
<pdfrwt beam="1">  1        4 0.80665809E-02 0.12499815E+03</pdfrwt>
<pdfrwt beam="2">  1       -4 0.11461223E-01 0.12499815E+03</pdfrwt>
<totfact> 0.10411086E+04</totfact>
</mgrwt>
</event>
<event>
 4    1  0.3266594E-002  0.1250754E+03  0.7818608E-02  0.1234951E+00
         -4   -1    0    0    0  501 -0.00000000000E+00  0.00000000000E+00  0.38283772513E+02  0.38304831782E+02  0.12700000000E+01 0.  1.
          4   -1    0    0  501    0  0.00000000000E+00 -0.00000000000E+00 -0.10210416714E+03  0.10211206515E+03  0.12700000000E+01 0.  1.
    9000005    1    1    2    0    0 -0.41737735249E+01 -0.26608331046E+02  0.31443339183E+02  0.41413853304E+02  0.10000000000E+01 0.  0.
    9000005    1    1    2    0    0  0.41737735249E+01  0.26608331046E+02 -0.95263733815E+02  0.99003043624E+02  0.10000000000E+01 0.  0.
<mgrwt>
<rscale>  0 0.12507543E+03</rscale>
<asrwt>0</asrwt>
<pdfrwt beam="2">  1        4 0.15710561E-01 0.12507543E+03</pdfrwt>
<pdfrwt beam="1">  1       -4 0.58920387E-02 0.12507543E+03</pdfrwt>
<totfact> 0.10107767E+04</totfact>
</mgrwt>
</event>
<event>
 5    1  0.3266594E-002  0.1249892E+03  0.7818608E-02  0.1235086E+00
         -4   -1    0    0    0  501 -0.00000000000E+00  0.00000000000E+00  0.51189042158E+02  0.51204794082E+02  0.12700000000E+01 0. -1.
          4   -1    0    0  501    0  0.00000000000E+00 -0.00000000000E+00 -0.76264287563E+02  0.76274861242E+02  0.12700000000E+01 0. -1.
         25    2    1    2    0    0  0.00000000000E+00  0.00000000000E+00 -0.25075245405E+02  0.12747965532E+03  0.12498917789E+03 0.  0.
    9000005    1    3    3    0    0  0.58593327697E+02 -0.11033922155E+01  0.95780257442E+01  0.59389680098E+02  0.10000000000E+01 0.  0.
    9000005    1    3    3    0    0 -0.58593327697E+02  0.11033922155E+01 -0.34653271149E+02  0.68089975226E+02  0.10000000000E+01 0.  0.
<mgrwt>
<rscale>  0 0.12498918E+03</rscale>
<asrwt>0</asrwt>
<pdfrwt beam="2">  1        4 0.11734992E-01 0.12498918E+03</pdfrwt>
<pdfrwt beam="1">  1       -4 0.78772623E-02 0.12498918E+03</pdfrwt>
<totfact> 0.10401282E+04</totfact>
</mgrwt>
</event>
<event>
 5    1  0.3266594E-002  0.1249997E+03  0.7818608E-02  0.1235070E+00
          4   -1    0    0  501    0  0.00000000000E+00  0.00000000000E+00  0.22085469801E+03  0.22085834948E+03  0.12700000000E+01 0.  1.
         -4   -1    0    0    0  501 -0.00000000000E+00 -0.00000000000E+00 -0.17660280627E+02  0.17705886360E+02  0.12700000000E+01 0.  1.
         25    2    1    2    0    0  0.00000000000E+00  0.00000000000E+00  0.20319441739E+03  0.23856423584E+03  0.12499969346E+03 0.  0.
    9000005    1    3    3    0    0  0.41868999152E+01 -0.59918890289E+02  0.13451167376E+03  0.14731664510E+03  0.10000000000E+01 0.  0.
    9000005    1    3    3    0    0 -0.41868999152E+01  0.59918890289E+02  0.68682743623E+02  0.91247590741E+02  0.10000000000E+01 0.  0.
<mgrwt>
<rscale>  0 0.12499969E+03</rscale>
<asrwt>0</asrwt>
<pdfrwt beam="1">  1        4 0.33981434E-01 0.12499969E+03</pdfrwt>
<pdfrwt beam="2">  1       -4 0.27207553E-02 0.12499969E+03</pdfrwt>
<totfact> 0.84012238E+03</totfact>
</mgrwt>
</event>
<event>
 5    1  0.3266594E-002  0.1250002E+03  0.7818608E-02  0.1235069E+00
         -4   -1    0    0    0  501 -0.00000000000E+00  0.00000000000E+00  0.84449680942E+02  0.84459229876E+02  0.12700000000E+01 0.  1.
          4   -1    0    0  501    0  0.00000000000E+00 -0.00000000000E+00 -0.46234594022E+02  0.46252033300E+02  0.12700000000E+01 0.  1.
         25    2    1    2    0    0  0.00000000000E+00  0.00000000000E+00  0.38215086921E+02  0.13071126318E+03  0.12500016581E+03 0.  0.
    9000005    1    3    3    0    0 -0.49764525416E+02 -0.36465649615E+02  0.29512475748E+02  0.68397644817E+02  0.10000000000E+01 0.  0.
    9000005    1    3    3    0    0  0.49764525416E+02  0.36465649615E+02  0.87026111722E+01  0.62313618359E+02  0.10000000000E+01 0.  0.
<mgrwt>
<rscale>  0 0.12500017E+03</rscale>
<asrwt>0</asrwt>
<pdfrwt beam="2">  1        4 0.71150904E-02 0.12500017E+03</pdfrwt>
<pdfrwt beam="1">  1       -4 0.12994335E-01 0.12500017E+03</pdfrwt>
<totfact> 0.10329245E+04</totfact>
</mgrwt>
</event>
<event>
 4    1  0.3266594E-002  0.1250611E+03  0.7818608E-02  0.1234974E+00
         -4   -1    0    0    0  501 -0.00000000000E+00  0.00000000000E+00  0.25029040660E+03  0.25029362864E+03  0.12700000000E+01 0. -1.
          4   -1    0    0  501    0  0.00000000000E+00 -0.00000000000E+00 -0.15592981954E+02  0.15644615247E+02  0.12700000000E+01 0. -1.
    9000005    1    1    2    0    0  0.60615018642E+02 -0.15291343563E+02  0.11515790077E+03  0.13103567370E+03  0.10000000000E+01 0.  0.
    9000005    1    1    2    0    0 -0.60615018642E+02  0.15291343563E+02  0.11953952388E+03  0.13490257018E+03  0.10000000000E+01 0.  0.
<mgrwt>
<rscale>  0 0.12506106E+03</rscale>
<asrwt>0</asrwt>
<pdfrwt beam="2">  1        4 0.24031398E-02 0.12506106E+03</pdfrwt>
<pdfrwt beam="1">  1       -4 0.38510438E-01 0.12506106E+03</pdfrwt>
<totfact> 0.79971168E+03</totfact>
</mgrwt>
</event>
<event>
 5    1  0.3266594E-002  0.1249990E+03  0.7818608E-02  0.1235071E+00
          4   -1    0    0  501    0  0.00000000000E+00  0.00000000000E+00  0.39514657509E+02  0.39535061124E+02  0.12700000000E+01 0. -1.
         -4   -1    0    0    0  501 -0.00000000000E+00 -0.00000000000E+00 -0.98804097645E+02  0.98812259419E+02  0.12700000000E+01 0. -1.
         25    2    1    2    0    0  0.00000000000E+00  0.00000000000E+00 -0.59289440136E+02  0.13834732054E+03  0.12499897355E+03 0.  0.
    9000005    1    3    3    0    0 -0.71501910403E+00 -0.56019853835E+02 -0.60285963259E+02  0.82305119173E+02  0.10000000000E+01 0.  0.
    9000005    1    3    3    0    0  0.71501910403E+00  0.56019853835E+02  0.99652312315E+00  0.56042201369E+02  0.10000000000E+01 0.  0.
<mgrwt>
<rscale>  0 0.12499897E+03</rscale>
<asrwt>0</asrwt>
<pdfrwt beam="1">  1        4 0.60813754E-02 0.12499897E+03</pdfrwt>
<pdfrwt beam="2">  1       -4 0.15202828E-01 0.12499897E+03</pdfrwt>
<totfact> 0.10168189E+04</totfact>
</mgrwt>
</event>
<event>
 5    1  0.3266594E-002  0.1249991E+03  0.7818608E-02  0.1235071E+00
         -4   -1    0    0    0  501 -0.00000000000E+00  0.00000000000E+00  0.37093958655E+01  0.39207802396E+01  0.12700000000E+01 0.  1.
          4   -1    0    0  501    0  0.00000000000E+00 -0.00000000000E+00 -0.10236686701E+04  0.10236694579E+04  0.12700000000E+01 0.  1.
         25    2    1    2    0    0  0.00000000000E+00  0.00000000000E+00 -0.10199592742E+04  0.10275902381E+04  0.12499910571E+03 0.  0.
    9000005    1    3    3    0    0  0.21184337743E+02  0.52241967272E+02 -0.73166572809E+03  0.73383495213E+03  0.10000000000E+01 0.  0.
    9000005    1    3    3    0    0 -0.21184337743E+02 -0.52241967272E+02 -0.28829354611E+03  0.29375528597E+03  0.10000000000E+01 0.  0.
<mgrwt>
<rscale>  0 0.12499911E+03</rscale>
<asrwt>0</asrwt>
<pdfrwt beam="2">  1        4 0.15750359E+00 0.12499911E+03</pdfrwt>
<pdfrwt beam="1">  1       -4 0.58699804E-03 0.12499911E+03</pdfrwt>
<totfact> 0.29705554E+03</totfact>
</mgrwt>
</event>
<event>
 5    1  0.3266594E-002  0.1250047E+03  0.7818608E-02  0.1235062E+00
          4   -1    0    0  501    0  0.00000000000E+00  0.00000000000E+00  0.30821118365E+03  0.30821380019E+03  0.12700000000E+01 0. -1.
         -4   -1    0    0    0  501 -0.00000000000E+00 -0.00000000000E+00 -0.12640398918E+02  0.12704038130E+02  0.12700000000E+01 0. -1.
         25    2    1    2    0    0  0.00000000000E+00  0.00000000000E+00  0.29557078473E+03  0.32091783832E+03  0.12500468057E+03 0.  0.
    9000005    1    3    3    0    0  0.21051392984E+02  0.44416031625E+02  0.48701729001E+02  0.69201180767E+02  0.10000000000E+01 0.  0.
    9000005    1    3    3    0    0 -0.21051392984E+02 -0.44416031625E+02  0.24686905573E+03  0.25171665755E+03  0.10000000000E+01 0.  0.
<mgrwt>
<rscale>  0 0.12500468E+03</rscale>
<asrwt>0</asrwt>
<pdfrwt beam="1">  1        4 0.47422205E-01 0.12500468E+03</pdfrwt>
<pdfrwt beam="2">  1       -4 0.19497732E-02 0.12500468E+03</pdfrwt>
<totfact> 0.73039511E+03</totfact>
</mgrwt>
</event>
<event>
 5    1  0.3266594E-002  0.1249970E+03  0.7818608E-02  0.1235074E+00
          4   -1    0    0  501    0  0.00000000000E+00  0.00000000000E+00  0.75983455693E+02  0.75994068446E+02  0.12700000000E+01 0. -1.
         -4   -1    0    0    0  501 -0.00000000000E+00 -0.00000000000E+00 -0.51384683584E+02  0.51400375554E+02  0.12700000000E+01 0. -1.
         25    2    1    2    0    0  0.00000000000E+00  0.00000000000E+00  0.24598772109E+02  0.12739444400E+03  0.12499697905E+03 0.  0.
    9000005    1    3    3    0    0 -0.18829286445E+02  0.53461123252E+01 -0.48184799794E+02  0.52018245609E+02  0.10000000000E+01 0.  0.
    9000005    1    3    3    0    0  0.18829286445E+02 -0.53461123252E+01  0.72783571903E+02  0.75376198391E+02  0.10000000000E+01 0.  0.
<mgrwt>
<rscale>  0 0.12499698E+03</rscale>
<asrwt>0</asrwt>
<pdfrwt beam="1">  1        4 0.11691786E-01 0.12499698E+03</pdfrwt>
<pdfrwt beam="2">  1       -4 0.79073595E-02 0.12499698E+03</pdfrwt>
<totfact> 0.10401297E+04</totfact>
</mgrwt>
</event>
<event>
 5    1  0.3266594E-002  0.1249993E+03  0.7818608E-02  0.1235070E+00
         -4   -1    0    0    0  501 -0.00000000000E+00  0.00000000000E+00  0.21154780209E+02  0.21192867331E+02  0.12700000000E+01 0.  1.
          4   -1    0    0  501    0  0.00000000000E+00 -0.00000000000E+00 -0.18444255031E+03  0.18444692262E+03  0.12700000000E+01 0.  1.
         25    2    1    2    0    0  0.00000000000E+00  0.00000000000E+00 -0.16328777010E+03  0.20563978995E+03  0.12499930939E+03 0.  0.
    9000005    1    3    3    0    0 -0.22806812715E+02 -0.49022420543E+02 -0.30094442735E+02  0.61887186926E+02  0.10000000000E+01 0.  0.
    9000005    1    3    3    0    0  0.22806812715E+02  0.49022420543E+02 -0.13319332736E+03  0.14375260302E+03  0.10000000000E+01 0.  0.
<mgrwt>
<rscale>  0 0.12499931E+03</rscale>
<asrwt>0</asrwt>
<pdfrwt beam="2">  1        4 0.28379042E-01 0.12499931E+03</pdfrwt>
<pdfrwt beam="1">  1       -4 0.32578478E-02 0.12499931E+03</pdfrwt>
<totfact> 0.89194326E+03</totfact>
</mgrwt>
</event>
<event>
 5    1  0.3266594E-002  0.1249983E+03  0.7818608E-02  0.1235072E+00
          4   -1    0    0  501    0  0.00000000000E+00  0.00000000000E+00  0.74402711702E+02  0.74413549899E+02  0.12700000000E+01 0.  1.
         -4   -1    0    0    0  501 -0.00000000000E+00 -0.00000000000E+00 -0.52477695503E+02  0.52493060735E+02  0.12700000000E+01 0.  1.
         25    2    1    2    0    0  0.00000000000E+00  0.00000000000E+00  0.21925016198E+02  0.12690661063E+03  0.12499832594E+03 0.  0.
    9000005    1    3    3    0    0 -0.48717262191E+02 -0.34650931786E+02  0.29436080706E+02  0.66644891450E+02  0.10000000000E+01 0.  0.
    9000005    1    3    3    0    0  0.48717262191E+02  0.34650931786E+02 -0.75110645076E+01  0.60261719184E+02  0.10000000000E+01 0.  0.
<mgrwt>
<rscale>  0 0.12499833E+03</rscale>
<asrwt>0</asrwt>
<pdfrwt beam="1">  1        4 0.11448587E-01 0.12499833E+03</pdfrwt>
<pdfrwt beam="2">  1       -4 0.80755073E-02 0.12499833E+03</pdfrwt>
<totfact> 0.10411569E+04</totfact>
</mgrwt>
</event>
<event>
 5    1  0.3266594E-002  0.1250016E+03  0.7818608E-02  0.1235067E+00
          4   -1    0    0  501    0  0.00000000000E+00  0.00000000000E+00  0.30688911655E+02  0.30715178635E+02  0.12700000000E+01 0.  1.
         -4   -1    0    0    0  501 -0.00000000000E+00 -0.00000000000E+00 -0.12720481273E+03  0.12721115235E+03  0.12700000000E+01 0.  1.
         25    2    1    2    0    0  0.00000000000E+00  0.00000000000E+00 -0.96515901074E+02  0.15792633098E+03  0.12500162742E+03 0.  0.
    9000005    1    3    3    0    0  0.68303813396E+00 -0.12928831513E+02  0.28982157066E+02  0.31758253314E+02  0.10000000000E+01 0.  0.
    9000005    1    3    3    0    0 -0.68303813396E+00  0.12928831513E+02 -0.12549805814E+03  0.12616807767E+03  0.10000000000E+01 0.  0.
<mgrwt>
<rscale>  0 0.12500163E+03</rscale>
<asrwt>0</asrwt>
<pdfrwt beam="1">  1        4 0.47238793E-02 0.12500163E+03</pdfrwt>
<pdfrwt beam="2">  1       -4 0.19572479E-01 0.12500163E+03</pdfrwt>
<totfact> 0.97740492E+03</totfact>
</mgrwt>
</event>
<event>
 5    1  0.3266594E-002  0.1249995E+03  0.7818608E-02  0.1235070E+00
         -4   -1    0    0    0  501 -0.00000000000E+00  0.00000000000E+00  0.41320808095E+01  0.43228453380E+01  0.12700000000E+01 0. -1.
          4   -1    0    0  501    0  0.00000000000E+00 -0.00000000000E+00 -0.92381889098E+03  0.92381976394E+03  0.12700000000E+01 0. -1.
         25    2    1    2    0    0  0.00000000000E+00  0.00000000000E+00 -0.91968681017E+03  0.92814260927E+03  0.12499949736E+03 0.  0.
    9000005    1    3    3    0    0  0.45005858027E+02  0.46382718494E+01 -0.77991716632E+03  0.78122904909E+03  0.10000000000E+01 0.  0.
    9000005    1    3    3    0    0 -0.45005858027E+02 -0.46382718494E+01 -0.13976964385E+03  0.14691356018E+03  0.10000000000E+01 0.  0.
<mgrwt>
<rscale>  0 0.12499950E+03</rscale>
<asrwt>0</asrwt>
<pdfrwt beam="2">  1        4 0.14214056E+00 0.12499950E+03</pdfrwt>
<pdfrwt beam="1">  1       -4 0.65044682E-03 0.12499950E+03</pdfrwt>
<totfact> 0.33105324E+03</totfact>
</mgrwt>
</event>
<event>
 5    1  0.3266594E-002  0.1250001E+03  0.7818608E-02  0.1235069E+00
          4   -1    0    0  501    0  0.00000000000E+00  0.00000000000E+00  0.22342142321E+02  0.22378208675E+02  0.12700000000E+01 0. -1.
         -4   -1    0    0    0  501 -0.00000000000E+00 -0.00000000000E+00 -0.17465878522E+03  0.17466340244E+03  0.12700000000E+01 0. -1.
         25    2    1    2    0    0  0.00000000000E+00  0.00000000000E+00 -0.15231664289E+03  0.19704161112E+03  0.12500014724E+03 0.  0.
    9000005    1    3    3    0    0  0.15631611793E+02 -0.87095977300E+01 -0.17054165797E+03  0.17148079042E+03  0.10000000000E+01 0.  0.
    9000005    1    3    3    0    0 -0.15631611793E+02  0.87095977300E+01  0.18225015080E+02  0.25560820693E+02  0.10000000000E+01 0.  0.
<mgrwt>
<rscale>  0 0.12500015E+03</rscale>
<asrwt>0</asrwt>
<pdfrwt beam="1">  1        4 0.34403823E-02 0.12500015E+03</pdfrwt>
<pdfrwt beam="2">  1       -4 0.26873711E-01 0.12500015E+03</pdfrwt>
<totfact> 0.90636029E+03</totfact>
</mgrwt>
</event>
<event>
 5    1  0.3266594E-002  0.1250028E+03  0.7818608E-02  0.1235065E+00
         -4   -1    0    0    0  501 -0.00000000000E+00  0.00000000000E+00  0.18643288032E+03  0.18643720596E+03  0.12700000000E+01 0. -1.
          4   -1    0    0  501    0  0.00000000000E+00 -0.00000000000E+00 -0.20929712624E+02  0.20968208568E+02  0.12700000000E+01 0. -1.
         25    2    1    2    0    0  0.00000000000E+00  0.00000000000E+00  0.16550316770E+03  0.20740541453E+03  0.12500282979E+03 0.  0.
    9000005    1    3    3    0    0 -0.86776624428E+01  0.37730166705E+02  0.16414673846E+03  0.16865354741E+03  0.10000000000E+01 0.  0.
    9000005    1    3    3    0    0  0.86776624428E+01 -0.37730166705E+02  0.13564292380E+01  0.38751867121E+02  0.10000000000E+01 0.  0.
<mgrwt>
<rscale>  0 0.12500283E+03</rscale>
<asrwt>0</asrwt>
<pdfrwt beam="2">  1        4 0.32232498E-02 0.12500283E+03</pdfrwt>
<pdfrwt beam="1">  1       -4 0.28685275E-01 0.12500283E+03</pdfrwt>
<totfact> 0.88895746E+03</totfact>
</mgrwt>
</event>
<event>
 5    1  0.3266594E-002  0.1250002E+03  0.7818608E-02  0.1235069E+00
         -4   -1    0    0    0  501 -0.00000000000E+00  0.00000000000E+00  0.27276171074E+03  0.27276466734E+03  0.12700000000E+01 0.  1.
          4   -1    0    0  501    0  0.00000000000E+00 -0.00000000000E+00 -0.14289964854E+02  0.14346288562E+02  0.12700000000E+01 0.  1.
         25    2    1    2    0    0  0.00000000000E+00  0.00000000000E+00  0.25847174589E+03  0.28711095590E+03  0.12500023030E+03 0.  0.
    9000005    1    3    3    0    0  0.24884625015E+02 -0.18141711554E+02  0.25413434732E+03  0.25599537642E+03  0.10000000000E+01 0.  0.
    9000005    1    3    3    0    0 -0.24884625015E+02  0.18141711554E+02  0.43373985731E+01  0.31115579484E+02  0.10000000000E+01 0.  0.
<mgrwt>
<rscale>  0 0.12500023E+03</rscale>
<asrwt>0</asrwt>
<pdfrwt beam="2">  1        4 0.22030162E-02 0.12500023E+03</pdfrwt>
<pdfrwt beam="1">  1       -4 0.41967900E-01 0.12500023E+03</pdfrwt>
<totfact> 0.77244198E+03</totfact>
</mgrwt>
</event>
<event>
 5    1  0.3266594E-002  0.1250012E+03  0.7818608E-02  0.1235067E+00
         -4   -1    0    0    0  501 -0.00000000000E+00  0.00000000000E+00  0.24972088252E+03  0.24972411191E+03  0.12700000000E+01 0.  1.
          4   -1    0    0  501    0  0.00000000000E+00 -0.00000000000E+00 -0.15613646010E+02  0.15665211193E+02  0.12700000000E+01 0.  1.
         25    2    1    2    0    0  0.00000000000E+00  0.00000000000E+00  0.23410723651E+03  0.26538932310E+03  0.12500117851E+03 0.  0.
    9000005    1    3    3    0    0  0.62343924239E+02  0.26072838671E+01  0.12433457550E+03  0.13911739461E+03  0.10000000000E+01 0.  0.
    9000005    1    3    3    0    0 -0.62343924239E+02 -0.26072838671E+01  0.10977266101E+03  0.12627192849E+03  0.10000000000E+01 0.  0.
<mgrwt>
<rscale>  0 0.12500118E+03</rscale>
<asrwt>0</asrwt>
<pdfrwt beam="2">  1        4 0.24063144E-02 0.12500118E+03</pdfrwt>
<pdfrwt beam="1">  1       -4 0.38422812E-01 0.12500118E+03</pdfrwt>
<totfact> 0.80153542E+03</totfact>
</mgrwt>
</event>
<event>
 5    1  0.3266594E-002  0.1250078E+03  0.7818608E-02  0.1235057E+00
          4   -1    0    0  501    0  0.00000000000E+00  0.00000000000E+00  0.15534436053E+03  0.15534955182E+03  0.12700000000E+01 0. -1.
         -4   -1    0    0    0  501 -0.00000000000E+00 -0.00000000000E+00 -0.25127221341E+02  0.25159295545E+02  0.12700000000E+01 0. -1.
         25    2    1    2    0    0  0.00000000000E+00  0.00000000000E+00  0.13021713919E+03  0.18050884736E+03  0.12500776230E+03 0.  0.
    9000005    1    3    3    0    0  0.45895919181E+02 -0.26455957473E+02  0.17230587515E+02  0.55715762845E+02  0.10000000000E+01 0.  0.
    9000005    1    3    3    0    0 -0.45895919181E+02  0.26455957473E+02  0.11298655168E+03  0.12479308452E+03  0.10000000000E+01 0.  0.
<mgrwt>
<rscale>  0 0.12500776E+03</rscale>
<asrwt>0</asrwt>
<pdfrwt beam="1">  1        4 0.23901999E-01 0.12500776E+03</pdfrwt>
<pdfrwt beam="2">  1       -4 0.38685929E-02 0.12500776E+03</pdfrwt>
<totfact> 0.93509213E+03</totfact>
</mgrwt>
</event>
<event>
 5    1  0.3266594E-002  0.1250006E+03  0.7818608E-02  0.1235068E+00
          4   -1    0    0  501    0  0.00000000000E+00  0.00000000000E+00  0.57254865182E+02  0.57268948715E+02  0.12700000000E+01 0. -1.
         -4   -1    0    0    0  501 -0.00000000000E+00 -0.00000000000E+00 -0.68197890589E+02  0.68209714710E+02  0.12700000000E+01 0. -1.
         25    2    1    2    0    0  0.00000000000E+00  0.00000000000E+00 -0.10943025408E+02  0.12547866343E+03  0.12500058068E+03 0.  0.
    9000005    1    3    3    0    0  0.59647916728E+02  0.15011001068E+02 -0.16562851530E+02  0.63706610127E+02  0.10000000000E+01 0.  0.
    9000005    1    3    3    0    0 -0.59647916728E+02 -0.15011001068E+02  0.56198261222E+01  0.61772053299E+02  0.10000000000E+01 0.  0.
<mgrwt>
<rscale>  0 0.12500058E+03</rscale>
<asrwt>0</asrwt>
<pdfrwt beam="1">  1        4 0.88104336E-02 0.12500058E+03</pdfrwt>
<pdfrwt beam="2">  1       -4 0.10493976E-01 0.12500058E+03</pdfrwt>
<totfact> 0.10442289E+04</totfact>
</mgrwt>
</event>
<event>
 5    1  0.3266594E-002  0.1250002E+03  0.7818608E-02  0.1235069E+00
         -4   -1    0    0    0  501 -0.00000000000E+00  0.00000000000E+00  0.10031851805E+03  0.10032655662E+03  0.12700000000E+01 0. -1.
          4   -1    0    0  501    0  0.00000000000E+00 -0.00000000000E+00 -0.38918642986E+02  0.38939358904E+02  0.12700000000E+01 0. -1.
         25    2    1    2    0    0  0.00000000000E+00  0.00000000000E+00  0.61399875064E+02  0.13926591553E+03  0.12500020228E+03 0.  0.
    9000005    1    3    3    0    0 -0.59401585936E+02 -0.16751957468E+02  0.19778884335E+02  0.64818058875E+02  0.10000000000E+01 0.  0.
    9000005    1    3    3    0    0  0.59401585936E+02  0.16751957468E+02  0.41620990729E+02  0.74447856652E+02  0.10000000000E+01 0.  0.
<mgrwt>
<rscale>  0 0.12500020E+03</rscale>
<asrwt>0</asrwt>
<pdfrwt beam="2">  1        4 0.59896954E-02 0.12500020E+03</pdfrwt>
<pdfrwt beam="1">  1       -4 0.15435830E-01 0.12500020E+03</pdfrwt>
<totfact> 0.10148776E+04</totfact>
</mgrwt>
</event>
<event>
 5    1  0.3266594E-002  0.1250046E+03  0.7818608E-02  0.1235062E+00
          4   -1    0    0  501    0  0.00000000000E+00  0.00000000000E+00  0.34474559753E+03  0.34474793678E+03  0.12700000000E+01 0. -1.
         -4   -1    0    0    0  501 -0.00000000000E+00 -0.00000000000E+00 -0.11293692047E+02  0.11364874837E+02  0.12700000000E+01 0. -1.
         25    2    1    2    0    0  0.00000000000E+00  0.00000000000E+00  0.33345190548E+03  0.35611281162E+03  0.12500464523E+03 0.  0.
    9000005    1    3    3    0    0 -0.14463693837E+02 -0.37348284726E+02  0.30339242510E+03  0.30602623485E+03  0.10000000000E+01 0.  0.
    9000005    1    3    3    0    0  0.14463693837E+02  0.37348284726E+02  0.30059480388E+02  0.50086576771E+02  0.10000000000E+01 0.  0.
<mgrwt>
<rscale>  0 0.12500465E+03</rscale>
<asrwt>0</asrwt>
<pdfrwt beam="1">  1        4 0.53043440E-01 0.12500465E+03</pdfrwt>
<pdfrwt beam="2">  1       -4 0.17431466E-02 0.12500465E+03</pdfrwt>
<totfact> 0.69050168E+03</totfact>
</mgrwt>
</event>
<event>
 5    1  0.3266594E-002  0.1250026E+03  0.7818608E-02  0.1235065E+00
          4   -1    0    0  501    0  0.00000000000E+00  0.00000000000E+00  0.29525785183E+03  0.29526058316E+03  0.12700000000E+01 0. -1.
         -4   -1    0    0    0  501 -0.00000000000E+00 -0.00000000000E+00 -0.13197232425E+02  0.13258199111E+02  0.12700000000E+01 0. -1.
         25    2    1    2    0    0  0.00000000000E+00  0.00000000000E+00  0.28206061940E+03  0.30851878227E+03  0.12500258395E+03 0.  0.
    9000005    1    3    3    0    0 -0.52401534173E+02  0.14727518240E+02  0.21680501296E+03  0.22353575602E+03  0.10000000000E+01 0.  0.
    9000005    1    3    3    0    0  0.52401534173E+02 -0.14727518240E+02  0.65255606445E+02  0.84983026245E+02  0.10000000000E+01 0.  0.
<mgrwt>
<rscale>  0 0.12500258E+03</rscale>
<asrwt>0</asrwt>
<pdfrwt beam="1">  1        4 0.45429186E-01 0.12500258E+03</pdfrwt>
<pdfrwt beam="2">  1       -4 0.20352433E-02 0.12500258E+03</pdfrwt>
<totfact> 0.74538258E+03</totfact>
</mgrwt>
</event>
<event>
 5    1  0.3266594E-002  0.1249984E+03  0.7818608E-02  0.1235072E+00
         -4   -1    0    0    0  501 -0.00000000000E+00  0.00000000000E+00  0.61592846768E+02  0.61605938617E+02  0.12700000000E+01 0.  1.
          4   -1    0    0  501    0  0.00000000000E+00 -0.00000000000E+00 -0.63392712193E+02  0.63405432410E+02  0.12700000000E+01 0.  1.
         25    2    1    2    0    0  0.00000000000E+00  0.00000000000E+00 -0.17998654249E+01  0.12501137103E+03  0.12499841347E+03 0.  0.
    9000005    1    3    3    0    0  0.60611764144E+02  0.66021620200E+01 -0.14604504182E+02  0.62702998639E+02  0.10000000000E+01 0.  0.
    9000005    1    3    3    0    0 -0.60611764144E+02 -0.66021620200E+01  0.12804638757E+02  0.62308372388E+02  0.10000000000E+01 0.  0.
<mgrwt>
<rscale>  0 0.12499841E+03</rscale>
<asrwt>0</asrwt>
<pdfrwt beam="2">  1        4 0.97547106E-02 0.12499841E+03</pdfrwt>
<pdfrwt beam="1">  1       -4 0.94778080E-02 0.12499841E+03</pdfrwt>
<totfact> 0.10452990E+04</totfact>
</mgrwt>
</event>
<event>
 5    1  0.3266594E-002  0.1249991E+03  0.7818608E-02  0.1235071E+00
          4   -1    0    0  501    0  0.00000000000E+00  0.00000000000E+00  0.47594011546E+02  0.47610952889E+02  0.12700000000E+01 0. -1.
         -4   -1    0    0    0  501 -0.00000000000E+00 -0.00000000000E+00 -0.82036734099E+02  0.82046563862E+02  0.12700000000E+01 0. -1.
         25    2    1    2    0    0  0.00000000000E+00  0.00000000000E+00 -0.34442722553E+02  0.12965751675E+03  0.12499908205E+03 0.  0.
    9000005    1    3    3    0    0  0.45317197839E+02 -0.17747312801E+02  0.23438702327E+02  0.54027662344E+02  0.10000000000E+01 0.  0.
    9000005    1    3    3    0    0 -0.45317197839E+02  0.17747312801E+02 -0.57881424880E+02  0.75629854408E+02  0.10000000000E+01 0.  0.
<mgrwt>
<rscale>  0 0.12499908E+03</rscale>
<asrwt>0</asrwt>
<pdfrwt beam="1">  1        4 0.73242149E-02 0.12499908E+03</pdfrwt>
<pdfrwt beam="2">  1       -4 0.12623095E-01 0.12499908E+03</pdfrwt>
<totfact> 0.10352054E+04</totfact>
</mgrwt>
</event>
<event>
 5    1  0.3266594E-002  0.1249583E+03  0.7818608E-02  0.1235134E+00
         -4   -1    0    0    0  501 -0.00000000000E+00  0.00000000000E+00  0.27027976557E+03  0.27028274931E+03  0.12700000000E+01 0.  1.
          4   -1    0    0  501    0  0.00000000000E+00 -0.00000000000E+00 -0.14411994676E+02  0.14467843327E+02  0.12700000000E+01 0.  1.
         25    2    1    2    0    0  0.00000000000E+00  0.00000000000E+00  0.25586777089E+03  0.28475059264E+03  0.12495832836E+03 0.  0.
    9000005    1    3    3    0    0 -0.30813971148E+02 -0.44217315360E+02  0.19992171478E+03  0.20706125624E+03  0.10000000000E+01 0.  0.
    9000005    1    3    3    0    0  0.30813971148E+02  0.44217315360E+02  0.55946056115E+02  0.77689336400E+02  0.10000000000E+01 0.  0.
<mgrwt>
<rscale>  0 0.12495833E+03</rscale>
<asrwt>0</asrwt>
<pdfrwt beam="2">  1        4 0.22217555E-02 0.12495833E+03</pdfrwt>
<pdfrwt beam="1">  1       -4 0.41586028E-01 0.12495833E+03</pdfrwt>
<totfact> 0.77624255E+03</totfact>
</mgrwt>
</event>
<event>
 5    1  0.3266594E-002  0.1249931E+03  0.7818608E-02  0.1235080E+00
          4   -1    0    0  501    0  0.00000000000E+00  0.00000000000E+00  0.21042327904E+02  0.21080618198E+02  0.12700000000E+01 0.  1.
         -4   -1    0    0    0  501 -0.00000000000E+00 -0.00000000000E+00 -0.18540808503E+03  0.18541243457E+03  0.12700000000E+01 0.  1.
         25    2    1    2    0    0  0.00000000000E+00  0.00000000000E+00 -0.16436575712E+03  0.20649305277E+03  0.12499311472E+03 0.  0.
    9000005    1    3    3    0    0  0.43465395942E+02  0.26995462148E+02 -0.22920518779E+02  0.56074466579E+02  0.10000000000E+01 0.  0.
    9000005    1    3    3    0    0 -0.43465395942E+02 -0.26995462148E+02 -0.14144523834E+03  0.15041858619E+03  0.10000000000E+01 0.  0.
<mgrwt>
<rscale>  0 0.12499311E+03</rscale>
<asrwt>0</asrwt>
<pdfrwt beam="1">  1        4 0.32405613E-02 0.12499311E+03</pdfrwt>
<pdfrwt beam="2">  1       -4 0.28527600E-01 0.12499311E+03</pdfrwt>
<totfact> 0.89065547E+03</totfact>
</mgrwt>
</event>
<event>
 5    1  0.3266594E-002  0.1250009E+03  0.7818608E-02  0.1235068E+00
         -4   -1    0    0    0  501 -0.00000000000E+00  0.00000000000E+00  0.34262615528E+02  0.34286144764E+02  0.12700000000E+01 0. -1.
          4   -1    0    0  501    0  0.00000000000E+00 -0.00000000000E+00 -0.11394448710E+03  0.11395156445E+03  0.12700000000E+01 0. -1.
         25    2    1    2    0    0  0.00000000000E+00  0.00000000000E+00 -0.79681871569E+02  0.14823770921E+03  0.12500087110E+03 0.  0.
    9000005    1    3    3    0    0  0.39168526189E+02  0.17119583861E+02 -0.93900649392E+02  0.10317744691E+03  0.10000000000E+01 0.  0.
    9000005    1    3    3    0    0 -0.39168526189E+02 -0.17119583861E+02  0.14218777824E+02  0.45060262296E+02  0.10000000000E+01 0.  0.
<mgrwt>
<rscale>  0 0.12500087E+03</rscale>
<asrwt>0</asrwt>
<pdfrwt beam="2">  1        4 0.17532275E-01 0.12500087E+03</pdfrwt>
<pdfrwt beam="1">  1       -4 0.52735260E-02 0.12500087E+03</pdfrwt>
<totfact> 0.99654197E+03</totfact>
</mgrwt>
</event>
<event>
 5    1  0.3266594E-002  0.1249964E+03  0.7818608E-02  0.1235075E+00
         -4   -1    0    0    0  501 -0.00000000000E+00  0.00000000000E+00  0.11297475662E+02  0.11368634761E+02  0.12700000000E+01 0. -1.
          4   -1    0    0  501    0  0.00000000000E+00 -0.00000000000E+00 -0.34458560671E+03  0.34458794705E+03  0.12700000000E+01 0. -1.
         25    2    1    2    0    0  0.00000000000E+00  0.00000000000E+00 -0.33328813104E+03  0.35595658181E+03  0.12499643929E+03 0.  0.
    9000005    1    3    3    0    0 -0.32045439862E+02  0.32787707004E+02 -0.45721512703E+02  0.64756472035E+02  0.10000000000E+01 0.  0.
    9000005    1    3    3    0    0  0.32045439862E+02 -0.32787707004E+02 -0.28756661834E+03  0.29120010977E+03  0.10000000000E+01 0.  0.
<mgrwt>
<rscale>  0 0.12499644E+03</rscale>
<asrwt>0</asrwt>
<pdfrwt beam="2">  1        4 0.53018816E-01 0.12499644E+03</pdfrwt>
<pdfrwt beam="1">  1       -4 0.17437272E-02 0.12499644E+03</pdfrwt>
<totfact> 0.69079637E+03</totfact>
</mgrwt>
</event>
<event>
 5    1  0.3266594E-002  0.1250072E+03  0.7818608E-02  0.1235058E+00
         -4   -1    0    0    0  501 -0.00000000000E+00  0.00000000000E+00  0.19225375586E+02  0.19267277089E+02  0.12700000000E+01 0.  1.
          4   -1    0    0  501    0  0.00000000000E+00 -0.00000000000E+00 -0.20294038967E+03  0.20294436346E+03  0.12700000000E+01 0.  1.
         25    2    1    2    0    0  0.00000000000E+00  0.00000000000E+00 -0.18371501409E+03  0.22221164055E+03  0.12500722697E+03 0.  0.
    9000005    1    3    3    0    0  0.53011696495E+02  0.31640612365E+02 -0.74592594287E+02  0.96831933981E+02  0.10000000000E+01 0.  0.
    9000005    1    3    3    0    0 -0.53011696495E+02 -0.31640612365E+02 -0.10912241980E+03  0.12537970657E+03  0.10000000000E+01 0.  0.
<mgrwt>
<rscale>  0 0.12500723E+03</rscale>
<asrwt>0</asrwt>
<pdfrwt beam="2">  1        4 0.31225126E-01 0.12500723E+03</pdfrwt>
<pdfrwt beam="1">  1       -4 0.29612791E-02 0.12500723E+03</pdfrwt>
<totfact> 0.86505630E+03</totfact>
</mgrwt>
</event>
<event>
 5    1  0.3266594E-002  0.1250092E+03  0.7818608E-02  0.1235055E+00
          4   -1    0    0  501    0  0.00000000000E+00  0.00000000000E+00  0.21455320010E+04  0.21455323769E+04  0.12700000000E+01 0. -1.
         -4   -1    0    0    0  501 -0.00000000000E+00 -0.00000000000E+00 -0.15990499855E+01  0.20420237158E+01  0.12700000000E+01 0. -1.
         25    2    1    2    0    0  0.00000000000E+00  0.00000000000E+00  0.21439329510E+04  0.21475744006E+04  0.12500923015E+03 0.  0.
    9000005    1    3    3    0    0  0.58133714290E+02  0.20435036694E+02  0.12510830521E+04  0.12526000650E+04  0.10000000000E+01 0.  0.
    9000005    1    3    3    0    0 -0.58133714290E+02 -0.20435036694E+02  0.89284989890E+03  0.89497433563E+03  0.10000000000E+01 0.  0.
<mgrwt>
<rscale>  0 0.12500923E+03</rscale>
<asrwt>0</asrwt>
<pdfrwt beam="1">  1        4 0.33011484E+00 0.12500923E+03</pdfrwt>
<pdfrwt beam="2">  1       -4 0.28011245E-03 0.12500923E+03</pdfrwt>
<totfact> 0.80543684E+02</totfact>
</mgrwt>
</event>
<event>
 5    1  0.3266594E-002  0.1250014E+03  0.7818608E-02  0.1235067E+00
          4   -1    0    0  501    0  0.00000000000E+00  0.00000000000E+00  0.48067252599E+02  0.48084027207E+02  0.12700000000E+01 0. -1.
         -4   -1    0    0    0  501 -0.00000000000E+00 -0.00000000000E+00 -0.81232208602E+02  0.81242135708E+02  0.12700000000E+01 0. -1.
         25    2    1    2    0    0  0.00000000000E+00  0.00000000000E+00 -0.33164956002E+02  0.12932616291E+03  0.12500136842E+03 0.  0.
    9000005    1    3    3    0    0 -0.33168906197E+02 -0.17378690559E+02  0.35179900173E+02  0.51388915148E+02  0.10000000000E+01 0.  0.
    9000005    1    3    3    0    0  0.33168906197E+02  0.17378690559E+02 -0.68344856175E+02  0.77937247767E+02  0.10000000000E+01 0.  0.
<mgrwt>
<rscale>  0 0.12500137E+03</rscale>
<asrwt>0</asrwt>
<pdfrwt beam="1">  1        4 0.73970159E-02 0.12500137E+03</pdfrwt>
<pdfrwt beam="2">  1       -4 0.12499317E-01 0.12500137E+03</pdfrwt>
<totfact> 0.10358623E+04</totfact>
</mgrwt>
</event>
<event>
 5    1  0.3266594E-002  0.1249872E+03  0.7818608E-02  0.1235089E+00
         -4   -1    0    0    0  501 -0.00000000000E+00  0.00000000000E+00  0.45072330060E+03  0.45072508983E+03  0.12700000000E+01 0. -1.
          4   -1    0    0  501    0  0.00000000000E+00 -0.00000000000E+00 -0.86164981437E+01  0.87095889834E+01  0.12700000000E+01 0. -1.
         25    2    1    2    0    0  0.00000000000E+00  0.00000000000E+00  0.44210680245E+03  0.45943467881E+03  0.12498719662E+03 0.  0.
    9000005    1    3    3    0    0  0.60747584941E+02  0.10954706751E+02  0.25672531544E+03  0.26404386428E+03  0.10000000000E+01 0.  0.
    9000005    1    3    3    0    0 -0.60747584941E+02 -0.10954706751E+02  0.18538148702E+03  0.19539081454E+03  0.10000000000E+01 0.  0.
<mgrwt>
<rscale>  0 0.12498720E+03</rscale>
<asrwt>0</asrwt>
<pdfrwt beam="2">  1        4 0.13329136E-02 0.12498720E+03</pdfrwt>
<pdfrwt beam="1">  1       -4 0.69349343E-01 0.12498720E+03</pdfrwt>
<totfact> 0.59171775E+03</totfact>
</mgrwt>
</event>
<event>
 5    1  0.3266594E-002  0.1249998E+03  0.7818608E-02  0.1235070E+00
         -4   -1    0    0    0  501 -0.00000000000E+00  0.00000000000E+00  0.24170011175E+03  0.24170344830E+03  0.12700000000E+01 0. -1.
          4   -1    0    0  501    0  0.00000000000E+00 -0.00000000000E+00 -0.16133106888E+02  0.16183016958E+02  0.12700000000E+01 0. -1.
         25    2    1    2    0    0  0.00000000000E+00  0.00000000000E+00  0.22556700487E+03  0.25788646526E+03  0.12499982112E+03 0.  0.
    9000005    1    3    3    0    0  0.89563620121E+00  0.17537228175E+02 -0.10948565227E+02  0.20717809170E+02  0.10000000000E+01 0.  0.
    9000005    1    3    3    0    0 -0.89563620121E+00 -0.17537228175E+02  0.23651557009E+03  0.23716865609E+03  0.10000000000E+01 0.  0.
<mgrwt>
<rscale>  0 0.12499982E+03</rscale>
<asrwt>0</asrwt>
<pdfrwt beam="2">  1        4 0.24861123E-02 0.12499982E+03</pdfrwt>
<pdfrwt beam="1">  1       -4 0.37188728E-01 0.12499982E+03</pdfrwt>
<totfact> 0.81203905E+03</totfact>
</mgrwt>
</event>
<event>
 5    1  0.3266594E-002  0.1249981E+03  0.7818608E-02  0.1235072E+00
          4   -1    0    0  501    0  0.00000000000E+00  0.00000000000E+00  0.69575749363E+01  0.70725348352E+01  0.12700000000E+01 0. -1.
         -4   -1    0    0    0  501 -0.00000000000E+00 -0.00000000000E+00 -0.55670539100E+03  0.55670683961E+03  0.12700000000E+01 0. -1.
         25    2    1    2    0    0  0.00000000000E+00  0.00000000000E+00 -0.54974781606E+03  0.56377937444E+03  0.12499808712E+03 0.  0.
    9000005    1    3    3    0    0  0.36385371481E+02  0.49697602760E+02 -0.22727289624E+03  0.23547338776E+03  0.10000000000E+01 0.  0.
    9000005    1    3    3    0    0 -0.36385371481E+02 -0.49697602760E+02 -0.32247491982E+03  0.32830598669E+03  0.10000000000E+01 0.  0.
<mgrwt>
<rscale>  0 0.12499809E+03</rscale>
<asrwt>0</asrwt>
<pdfrwt beam="1">  1        4 0.10793511E-02 0.12499809E+03</pdfrwt>
<pdfrwt beam="2">  1       -4 0.85655903E-01 0.12499809E+03</pdfrwt>
<totfact> 0.51238968E+03</totfact>
</mgrwt>
</event>
<event>
 5    1  0.3266594E-002  0.1249995E+03  0.7818608E-02  0.1235070E+00
          4   -1    0    0  501    0  0.00000000000E+00  0.00000000000E+00  0.27371232376E+03  0.27371527009E+03  0.12700000000E+01 0.  1.
         -4   -1    0    0    0  501 -0.00000000000E+00 -0.00000000000E+00 -0.14239968044E+02  0.14296488726E+02  0.12700000000E+01 0.  1.
         25    2    1    2    0    0  0.00000000000E+00  0.00000000000E+00  0.25947235572E+03  0.28801175881E+03  0.12499947933E+03 0.  0.
    9000005    1    3    3    0    0  0.19152202831E+02 -0.10910411576E+02 -0.49972274158E+01  0.22623355982E+02  0.10000000000E+01 0.  0.
    9000005    1    3    3    0    0 -0.19152202831E+02  0.10910411576E+02  0.26446958313E+03  0.26538840283E+03  0.10000000000E+01 0.  0.
<mgrwt>
<rscale>  0 0.12499948E+03</rscale>
<asrwt>0</asrwt>
<pdfrwt beam="1">  1        4 0.42114162E-01 0.12499948E+03</pdfrwt>
<pdfrwt beam="2">  1       -4 0.21953387E-02 0.12499948E+03</pdfrwt>
<totfact> 0.77128548E+03</totfact>
</mgrwt>
</event>
<event>
 5    1  0.3266594E-002  0.1249905E+03  0.7818608E-02  0.1235084E+00
          4   -1    0    0  501    0  0.00000000000E+00  0.00000000000E+00  0.82463493129E+01  0.83435709975E+01  0.12700000000E+01 0. -1.
         -4   -1    0    0    0  501 -0.00000000000E+00 -0.00000000000E+00 -0.47074869009E+03  0.47075040321E+03  0.12700000000E+01 0. -1.
         25    2    1    2    0    0  0.00000000000E+00  0.00000000000E+00 -0.46250234077E+03  0.47909397420E+03  0.12499048322E+03 0.  0.
    9000005    1    3    3    0    0  0.44184988818E+02  0.16136304519E+02 -0.38891752294E+03  0.39175315342E+03  0.10000000000E+01 0.  0.
    9000005    1    3    3    0    0 -0.44184988818E+02 -0.16136304519E+02 -0.73584817833E+02  0.87340820788E+02  0.10000000000E+01 0.  0.
<mgrwt>
<rscale>  0 0.12499048E+03</rscale>
<asrwt>0</asrwt>
<pdfrwt beam="1">  1        4 0.12762799E-02 0.12499048E+03</pdfrwt>
<pdfrwt beam="2">  1       -4 0.72430465E-01 0.12499048E+03</pdfrwt>
<totfact> 0.57535759E+03</totfact>
</mgrwt>
</event>
<event>
 5    1  0.3266594E-002  0.1250046E+03  0.7818608E-02  0.1235062E+00
          4   -1    0    0  501    0  0.00000000000E+00  0.00000000000E+00  0.12158598080E+03  0.12159261338E+03  0.12700000000E+01 0.  1.
         -4   -1    0    0    0  501 -0.00000000000E+00 -0.00000000000E+00 -0.32109782438E+02  0.32134888023E+02  0.12700000000E+01 0.  1.
         25    2    1    2    0    0  0.00000000000E+00  0.00000000000E+00  0.89476198363E+02  0.15372750140E+03  0.12500461837E+03 0.  0.
    9000005    1    3    3    0    0  0.15593005339E+02 -0.55535595490E+02  0.15167339817E+02  0.59652262146E+02  0.10000000000E+01 0.  0.
    9000005    1    3    3    0    0 -0.15593005339E+02  0.55535595490E+02  0.74308858546E+02  0.94075239253E+02  0.10000000000E+01 0.  0.
<mgrwt>
<rscale>  0 0.12500462E+03</rscale>
<asrwt>0</asrwt>
<pdfrwt beam="1">  1        4 0.18707977E-01 0.12500462E+03</pdfrwt>
<pdfrwt beam="2">  1       -4 0.49424080E-02 0.12500462E+03</pdfrwt>
<totfact> 0.98555559E+03</totfact>
</mgrwt>
</event>
<event>
 5    1  0.3266594E-002  0.1250238E+03  0.7818608E-02  0.1235032E+00
          4   -1    0    0  501    0  0.00000000000E+00  0.00000000000E+00  0.13350370779E+02  0.13410641295E+02  0.12700000000E+01 0. -1.
         -4   -1    0    0    0  501 -0.00000000000E+00 -0.00000000000E+00 -0.29198541420E+03  0.29198817614E+03  0.12700000000E+01 0. -1.
         25    2    1    2    0    0  0.00000000000E+00  0.00000000000E+00 -0.27863504342E+03  0.30539881744E+03  0.12502379881E+03 0.  0.
    9000005    1    3    3    0    0  0.29451985206E+02  0.47272177290E+02 -0.20860913962E+03  0.21591862196E+03  0.10000000000E+01 0.  0.
    9000005    1    3    3    0    0 -0.29451985206E+02 -0.47272177290E+02 -0.70025903805E+02  0.89480195474E+02  0.10000000000E+01 0.  0.
<mgrwt>
<rscale>  0 0.12502380E+03</rscale>
<asrwt>0</asrwt>
<pdfrwt beam="1">  1        4 0.20587521E-02 0.12502380E+03</pdfrwt>
<pdfrwt beam="2">  1       -4 0.44925677E-01 0.12502380E+03</pdfrwt>
<totfact> 0.74887018E+03</totfact>
</mgrwt>
</event>
<event>
 5    1  0.3266594E-002  0.1249990E+03  0.7818608E-02  0.1235071E+00
         -4   -1    0    0    0  501 -0.00000000000E+00  0.00000000000E+00  0.52483116731E+02  0.52498480376E+02  0.12700000000E+01 0. -1.
          4   -1    0    0  501    0  0.00000000000E+00 -0.00000000000E+00 -0.74395798524E+02  0.74406637728E+02  0.12700000000E+01 0. -1.
         25    2    1    2    0    0  0.00000000000E+00  0.00000000000E+00 -0.21912681793E+02  0.12690511810E+03  0.12499897351E+03 0.  0.
    9000005    1    3    3    0    0 -0.41385314495E+02 -0.87725865376E+01  0.35739423934E+02  0.55389610519E+02  0.10000000000E+01 0.  0.
    9000005    1    3    3    0    0  0.41385314495E+02  0.87725865376E+01 -0.57652105727E+02  0.71515507585E+02  0.10000000000E+01 0.  0.
<mgrwt>
<rscale>  0 0.12499897E+03</rscale>
<asrwt>0</asrwt>
<pdfrwt beam="2">  1        4 0.11447523E-01 0.12499897E+03</pdfrwt>
<pdfrwt beam="1">  1       -4 0.80763413E-02 0.12499897E+03</pdfrwt>
<totfact> 0.10411449E+04</totfact>
</mgrwt>
</event>
<event>
 5    1  0.3266594E-002  0.1250028E+03  0.7818608E-02  0.1235065E+00
         -4   -1    0    0    0  501 -0.00000000000E+00  0.00000000000E+00  0.45112557713E+02  0.45130430570E+02  0.12700000000E+01 0.  1.
          4   -1    0    0  501    0  0.00000000000E+00 -0.00000000000E+00 -0.86553118620E+02  0.86562435518E+02  0.12700000000E+01 0.  1.
         25    2    1    2    0    0  0.00000000000E+00  0.00000000000E+00 -0.41440560906E+02  0.13169286609E+03  0.12500276353E+03 0.  0.
    9000005    1    3    3    0    0 -0.37209798146E+02 -0.32311988002E+02  0.19765439871E+02  0.53106555716E+02  0.10000000000E+01 0.  0.
    9000005    1    3    3    0    0  0.37209798146E+02  0.32311988002E+02 -0.61206000777E+02  0.78586310372E+02  0.10000000000E+01 0.  0.
<mgrwt>
<rscale>  0 0.12500276E+03</rscale>
<asrwt>0</asrwt>
<pdfrwt beam="2">  1        4 0.13317956E-01 0.12500276E+03</pdfrwt>
<pdfrwt beam="1">  1       -4 0.69424851E-02 0.12500276E+03</pdfrwt>
<totfact> 0.10307616E+04</totfact>
</mgrwt>
</event>
<event>
 5    1  0.3266594E-002  0.1250013E+03  0.7818608E-02  0.1235067E+00
          4   -1    0    0  501    0  0.00000000000E+00  0.00000000000E+00  0.80640238115E+02  0.80650238086E+02  0.12700000000E+01 0. -1.
         -4   -1    0    0    0  501 -0.00000000000E+00 -0.00000000000E+00 -0.48420125359E+02  0.48436777760E+02  0.12700000000E+01 0. -1.
         25    2    1    2    0    0  0.00000000000E+00  0.00000000000E+00  0.32220112757E+02  0.12908701585E+03  0.12500128797E+03 0.  0.
    9000005    1    3    3    0    0 -0.43637195822E+02 -0.19515483781E+02  0.57678328657E+02  0.74918946623E+02  0.10000000000E+01 0.  0.
    9000005    1    3    3    0    0  0.43637195822E+02  0.19515483781E+02 -0.25458215901E+02  0.54168069222E+02  0.10000000000E+01 0.  0.
<mgrwt>
<rscale>  0 0.12500129E+03</rscale>
<asrwt>0</asrwt>
<pdfrwt beam="1">  1        4 0.12408241E-01 0.12500129E+03</pdfrwt>
<pdfrwt beam="2">  1       -4 0.74513003E-02 0.12500129E+03</pdfrwt>
<totfact> 0.10363776E+04</totfact>
</mgrwt>
</event>
<event>
 5    1  0.3266594E-002  0.1249985E+03  0.7818608E-02  0.1235072E+00
         -4   -1    0    0    0  501 -0.00000000000E+00  0.00000000000E+00  0.21924031086E+02  0.21960784118E+02  0.12700000000E+01 0.  1.
          4   -1    0    0  501    0  0.00000000000E+00 -0.00000000000E+00 -0.17797959475E+03  0.17798412583E+03  0.12700000000E+01 0.  1.
         25    2    1    2    0    0  0.00000000000E+00  0.00000000000E+00 -0.15605556366E+03  0.19994490995E+03  0.12499851224E+03 0.  0.
    9000005    1    3    3    0    0  0.44697867715E+02 -0.14680255533E+02 -0.14381981544E+03  0.15132266385E+03  0.10000000000E+01 0.  0.
    9000005    1    3    3    0    0 -0.44697867715E+02  0.14680255533E+02 -0.12235748217E+02  0.48622246093E+02  0.10000000000E+01 0.  0.
<mgrwt>
<rscale>  0 0.12499851E+03</rscale>
<asrwt>0</asrwt>
<pdfrwt beam="2">  1        4 0.27384651E-01 0.12499851E+03</pdfrwt>
<pdfrwt beam="1">  1       -4 0.33761037E-02 0.12499851E+03</pdfrwt>
<totfact> 0.90147800E+03</totfact>
</mgrwt>
</event>
<event>
 5    1  0.3266594E-002  0.1249967E+03  0.7818608E-02  0.1235074E+00
          4   -1    0    0  501    0  0.00000000000E+00  0.00000000000E+00  0.70023953787E+02  0.70035469614E+02  0.12700000000E+01 0. -1.
         -4   -1    0    0    0  501 -0.00000000000E+00 -0.00000000000E+00 -0.55758230826E+02  0.55772692286E+02  0.12700000000E+01 0. -1.
         25    2    1    2    0    0  0.00000000000E+00  0.00000000000E+00  0.14265722962E+02  0.12580816190E+03  0.12499673095E+03 0.  0.
    9000005    1    3    3    0    0 -0.60734858172E+02  0.53497755484E+01 -0.66565361997E+01  0.61340464376E+02  0.10000000000E+01 0.  0.
    9000005    1    3    3    0    0  0.60734858172E+02 -0.53497755484E+01  0.20922259161E+02  0.64467697524E+02  0.10000000000E+01 0.  0.
<mgrwt>
<rscale>  0 0.12499673E+03</rscale>
<asrwt>0</asrwt>
<pdfrwt beam="1">  1        4 0.10774914E-01 0.12499673E+03</pdfrwt>
<pdfrwt beam="2">  1       -4 0.85801876E-02 0.12499673E+03</pdfrwt>
<totfact> 0.10435936E+04</totfact>
</mgrwt>
</event>
<event>
 5    1  0.3266594E-002  0.1249999E+03  0.7818608E-02  0.1235069E+00
          4   -1    0    0  501    0  0.00000000000E+00  0.00000000000E+00  0.12550253671E+04  0.12550260097E+04  0.12700000000E+01 0.  1.
         -4   -1    0    0    0  501 -0.00000000000E+00 -0.00000000000E+00 -0.29822588662E+01  0.32414144975E+01  0.12700000000E+01 0.  1.
         25    2    1    2    0    0  0.00000000000E+00  0.00000000000E+00  0.12520431082E+04  0.12582674242E+04  0.12499986345E+03 0.  0.
    9000005    1    3    3    0    0  0.21370576290E+02 -0.13211447947E+02  0.12019951721E+04  0.12022581411E+04  0.10000000000E+01 0.  0.
    9000005    1    3    3    0    0 -0.21370576290E+02  0.13211447947E+02  0.50047936068E+02  0.56009283092E+02  0.10000000000E+01 0.  0.
<mgrwt>
<rscale>  0 0.12499986E+03</rscale>
<asrwt>0</asrwt>
<pdfrwt beam="1">  1        4 0.19310070E+00 0.12499986E+03</pdfrwt>
<pdfrwt beam="2">  1       -4 0.47879380E-03 0.12499986E+03</pdfrwt>
<totfact> 0.23235485E+03</totfact>
</mgrwt>
</event>
<event>
 5    1  0.3266594E-002  0.1250000E+03  0.7818608E-02  0.1235069E+00
          4   -1    0    0  501    0  0.00000000000E+00  0.00000000000E+00  0.43587175227E+02  0.43605673304E+02  0.12700000000E+01 0.  1.
         -4   -1    0    0    0  501 -0.00000000000E+00 -0.00000000000E+00 -0.89577210944E+02  0.89586213340E+02  0.12700000000E+01 0.  1.
         25    2    1    2    0    0  0.00000000000E+00  0.00000000000E+00 -0.45990035717E+02  0.13319188664E+03  0.12499998113E+03 0.  0.
    9000005    1    3    3    0    0  0.12911190123E+02  0.56993701009E+02  0.59806064512E+00  0.58449452192E+02  0.10000000000E+01 0.  0.
    9000005    1    3    3    0    0 -0.12911190123E+02 -0.56993701009E+02 -0.46588096362E+02  0.74742434451E+02  0.10000000000E+01 0.  0.
<mgrwt>
<rscale>  0 0.12499998E+03</rscale>
<asrwt>0</asrwt>
<pdfrwt beam="1">  1        4 0.67078347E-02 0.12499998E+03</pdfrwt>
<pdfrwt beam="2">  1       -4 0.13783225E-01 0.12499998E+03</pdfrwt>
<totfact> 0.10276328E+04</totfact>
</mgrwt>
</event>
<event>
 5    1  0.3266594E-002  0.1250025E+03  0.7818608E-02  0.1235065E+00
          4   -1    0    0  501    0  0.00000000000E+00  0.00000000000E+00  0.19586678065E+02  0.19627808274E+02  0.12700000000E+01 0. -1.
         -4   -1    0    0    0  501 -0.00000000000E+00 -0.00000000000E+00 -0.19918961797E+03  0.19919366658E+03  0.12700000000E+01 0. -1.
         25    2    1    2    0    0  0.00000000000E+00  0.00000000000E+00 -0.17960293990E+03  0.21882147486E+03  0.12500248732E+03 0.  0.
    9000005    1    3    3    0    0 -0.38012860001E+01 -0.61361512268E+02 -0.70173547707E+02  0.93300652521E+02  0.10000000000E+01 0.  0.
    9000005    1    3    3    0    0  0.38012860001E+01  0.61361512268E+02 -0.10942939220E+03  0.12552082234E+03  0.10000000000E+01 0.  0.
<mgrwt>
<rscale>  0 0.12500249E+03</rscale>
<asrwt>0</asrwt>
<pdfrwt beam="1">  1        4 0.30168105E-02 0.12500249E+03</pdfrwt>
<pdfrwt beam="2">  1       -4 0.30648030E-01 0.12500249E+03</pdfrwt>
<totfact> 0.87050344E+03</totfact>
</mgrwt>
</event>
<event>
 5    1  0.3266594E-002  0.1250000E+03  0.7818608E-02  0.1235069E+00
         -4   -1    0    0    0  501 -0.00000000000E+00  0.00000000000E+00  0.86871536222E+02  0.86880818974E+02  0.12700000000E+01 0.  1.
          4   -1    0    0  501    0  0.00000000000E+00 -0.00000000000E+00 -0.44945152822E+02  0.44963092222E+02  0.12700000000E+01 0.  1.
         25    2    1    2    0    0  0.00000000000E+00  0.00000000000E+00  0.41926383400E+02  0.13184391120E+03  0.12499998118E+03 0.  0.
    9000005    1    3    3    0    0 -0.10000559249E+02 -0.34865472022E+02 -0.32711496983E+02  0.48853396601E+02  0.10000000000E+01 0.  0.
    9000005    1    3    3    0    0  0.10000559249E+02  0.34865472022E+02  0.74637880383E+02  0.82990514595E+02  0.10000000000E+01 0.  0.
<mgrwt>
<rscale>  0 0.12499998E+03</rscale>
<asrwt>0</asrwt>
<pdfrwt beam="2">  1        4 0.69167330E-02 0.12499998E+03</pdfrwt>
<pdfrwt beam="1">  1       -4 0.13366946E-01 0.12499998E+03</pdfrwt>
<totfact> 0.10305035E+04</totfact>
</mgrwt>
</event>
<event>
 5    1  0.3266594E-002  0.1250025E+03  0.7818608E-02  0.1235065E+00
         -4   -1    0    0    0  501 -0.00000000000E+00  0.00000000000E+00  0.51580201189E+02  0.51595833695E+02  0.12700000000E+01 0.  1.
          4   -1    0    0  501    0  0.00000000000E+00 -0.00000000000E+00 -0.75702142653E+02  0.75712794838E+02  0.12700000000E+01 0.  1.
         25    2    1    2    0    0  0.00000000000E+00  0.00000000000E+00 -0.24121941464E+02  0.12730862853E+03  0.12500247533E+03 0.  0.
    9000005    1    3    3    0    0 -0.11934112158E+02  0.46028893396E+02  0.29237383588E+02  0.55829263467E+02  0.10000000000E+01 0.  0.
    9000005    1    3    3    0    0  0.11934112158E+02 -0.46028893396E+02 -0.53359325052E+02  0.71479365066E+02  0.10000000000E+01 0.  0.
<mgrwt>
<rscale>  0 0.12500248E+03</rscale>
<asrwt>0</asrwt>
<pdfrwt beam="2">  1        4 0.11648505E-01 0.12500248E+03</pdfrwt>
<pdfrwt beam="1">  1       -4 0.79374375E-02 0.12500248E+03</pdfrwt>
<totfact> 0.10401866E+04</totfact>
</mgrwt>
</event>
<event>
 5    1  0.3266594E-002  0.1249996E+03  0.7818608E-02  0.1235070E+00
         -4   -1    0    0    0  501 -0.00000000000E+00  0.00000000000E+00  0.24187923111E+03  0.24188256519E+03  0.12700000000E+01 0.  1.
          4   -1    0    0  501    0  0.00000000000E+00 -0.00000000000E+00 -0.16121058301E+02  0.16171005558E+02  0.12700000000E+01 0.  1.
         25    2    1    2    0    0  0.00000000000E+00  0.00000000000E+00  0.22575817281E+03  0.25805357075E+03  0.12499957114E+03 0.  0.
    9000005    1    3    3    0    0 -0.53374457115E+02  0.13801297641E+02  0.17362805488E+03  0.18217302196E+03  0.10000000000E+01 0.  0.
    9000005    1    3    3    0    0  0.53374457115E+02 -0.13801297641E+02  0.52130117932E+02  0.75880548789E+02  0.10000000000E+01 0.  0.
<mgrwt>
<rscale>  0 0.12499957E+03</rscale>
<asrwt>0</asrwt>
<pdfrwt beam="2">  1        4 0.24842614E-02 0.12499957E+03</pdfrwt>
<pdfrwt beam="1">  1       -4 0.37216287E-01 0.12499957E+03</pdfrwt>
<totfact> 0.81180767E+03</totfact>
</mgrwt>
</event>
<event>
 5    1  0.3266594E-002  0.1249987E+03  0.7818608E-02  0.1235071E+00
          4   -1    0    0  501    0  0.00000000000E+00  0.00000000000E+00  0.88823310811E+02  0.88832389608E+02  0.12700000000E+01 0.  1.
         -4   -1    0    0    0  501 -0.00000000000E+00 -0.00000000000E+00 -0.43956360221E+02  0.43974702999E+02  0.12700000000E+01 0.  1.
         25    2    1    2    0    0  0.00000000000E+00  0.00000000000E+00  0.44866950590E+02  0.13280709261E+03  0.12499872236E+03 0.  0.
    9000005    1    3    3    0    0  0.80541934303E+01  0.18672696053E+02  0.85214707726E+02  0.87613275379E+02  0.10000000000E+01 0.  0.
    9000005    1    3    3    0    0 -0.80541934303E+01 -0.18672696053E+02 -0.40347757137E+02  0.45193817228E+02  0.10000000000E+01 0.  0.
<mgrwt>
<rscale>  0 0.12499872E+03</rscale>
<asrwt>0</asrwt>
<pdfrwt beam="1">  1        4 0.13667234E-01 0.12499872E+03</pdfrwt>
<pdfrwt beam="2">  1       -4 0.67646263E-02 0.12499872E+03</pdfrwt>
<totfact> 0.10284798E+04</totfact>
</mgrwt>
</event>
<event>
 5    1  0.3266594E-002  0.1250069E+03  0.7818608E-02  0.1235059E+00
          4   -1    0    0  501    0  0.00000000000E+00  0.00000000000E+00  0.91694421473E+01  0.92569740894E+01  0.12700000000E+01 0.  1.
         -4   -1    0    0    0  501 -0.00000000000E+00 -0.00000000000E+00 -0.42394168698E+03  0.42394358924E+03  0.12700000000E+01 0.  1.
         25    2    1    2    0    0  0.00000000000E+00  0.00000000000E+00 -0.41477224483E+03  0.43320056333E+03  0.12500685176E+03 0.  0.
    9000005    1    3    3    0    0 -0.61327074794E+02 -0.11460904891E+02 -0.19474053883E+03  0.20449264023E+03  0.10000000000E+01 0.  0.
    9000005    1    3    3    0    0  0.61327074794E+02  0.11460904891E+02 -0.22003170600E+03  0.22870792310E+03  0.10000000000E+01 0.  0.
<mgrwt>
<rscale>  0 0.12500685E+03</rscale>
<asrwt>0</asrwt>
<pdfrwt beam="1">  1        4 0.14175633E-02 0.12500685E+03</pdfrwt>
<pdfrwt beam="2">  1       -4 0.65228663E-01 0.12500685E+03</pdfrwt>
<totfact> 0.61437674E+03</totfact>
</mgrwt>
</event>
<event>
 5    1  0.3266594E-002  0.1250027E+03  0.7818608E-02  0.1235065E+00
          4   -1    0    0  501    0  0.00000000000E+00  0.00000000000E+00  0.76995270552E+02  0.77005743859E+02  0.12700000000E+01 0.  1.
         -4   -1    0    0    0  501 -0.00000000000E+00 -0.00000000000E+00 -0.50713951008E+02  0.50729850451E+02  0.12700000000E+01 0.  1.
         25    2    1    2    0    0  0.00000000000E+00  0.00000000000E+00  0.26281319544E+02  0.12773559431E+03  0.12500269716E+03 0.  0.
    9000005    1    3    3    0    0 -0.54472702164E+02 -0.13322618515E+02  0.41323535543E+02  0.69666362291E+02  0.10000000000E+01 0.  0.
    9000005    1    3    3    0    0  0.54472702164E+02  0.13322618515E+02 -0.15042215999E+02  0.58069232019E+02  0.10000000000E+01 0.  0.
<mgrwt>
<rscale>  0 0.12500270E+03</rscale>
<asrwt>0</asrwt>
<pdfrwt beam="1">  1        4 0.11847455E-01 0.12500270E+03</pdfrwt>
<pdfrwt beam="2">  1       -4 0.78041750E-02 0.12500270E+03</pdfrwt>
<totfact> 0.10392569E+04</totfact>
</mgrwt>
</event>
<event>
 5    1  0.3266594E-002  0.1250162E+03  0.7818608E-02  0.1235044E+00
          4   -1    0    0  501    0  0.00000000000E+00  0.00000000000E+00  0.26062546098E+03  0.26062855525E+03  0.12700000000E+01 0.  1.
         -4   -1    0    0    0  501 -0.00000000000E+00 -0.00000000000E+00 -0.14961794061E+02  0.15015597941E+02  0.12700000000E+01 0.  1.
         25    2    1    2    0    0  0.00000000000E+00  0.00000000000E+00  0.24566366692E+03  0.27564415319E+03  0.12501624672E+03 0.  0.
    9000005    1    3    3    0    0 -0.19666466799E+02 -0.15498137808E+02  0.24909396632E+03  0.25035128570E+03  0.10000000000E+01 0.  0.
    9000005    1    3    3    0    0  0.19666466799E+02  0.15498137808E+02 -0.34302994064E+01  0.25292867490E+02  0.10000000000E+01 0.  0.
<mgrwt>
<rscale>  0 0.12501625E+03</rscale>
<asrwt>0</asrwt>
<pdfrwt beam="1">  1        4 0.40100603E-01 0.12501625E+03</pdfrwt>
<pdfrwt beam="2">  1       -4 0.23061912E-02 0.12501625E+03</pdfrwt>
<totfact> 0.78730779E+03</totfact>
</mgrwt>
</event>
<event>
 5    1  0.3266594E-002  0.1250033E+03  0.7818608E-02  0.1235064E+00
         -4   -1    0    0    0  501 -0.00000000000E+00  0.00000000000E+00  0.10616402937E+04  0.10616410533E+04  0.12700000000E+01 0. -1.
          4   -1    0    0  501    0  0.00000000000E+00 -0.00000000000E+00 -0.35692758406E+01  0.37884865087E+01  0.12700000000E+01 0. -1.
         25    2    1    2    0    0  0.00000000000E+00  0.00000000000E+00  0.10580710178E+04  0.10654295398E+04  0.12500330203E+03 0.  0.
    9000005    1    3    3    0    0  0.47832932172E+02 -0.32818083180E+02  0.72717778625E+03  0.72948855289E+03  0.10000000000E+01 0.  0.
    9000005    1    3    3    0    0 -0.47832932172E+02  0.32818083180E+02  0.33089323160E+03  0.33594098694E+03  0.10000000000E+01 0.  0.
<mgrwt>
<rscale>  0 0.12500330E+03</rscale>
<asrwt>0</asrwt>
<pdfrwt beam="2">  1        4 0.56603871E-03 0.12500330E+03</pdfrwt>
<pdfrwt beam="1">  1       -4 0.16334661E+00 0.12500330E+03</pdfrwt>
<totfact> 0.28515713E+03</totfact>
</mgrwt>
</event>
<event>
 5    1  0.3266594E-002  0.1249886E+03  0.7818608E-02  0.1235087E+00
          4   -1    0    0  501    0  0.00000000000E+00  0.00000000000E+00  0.38933837188E+01  0.40952822591E+01  0.12700000000E+01 0.  1.
         -4   -1    0    0    0  501 -0.00000000000E+00 -0.00000000000E+00 -0.97756787987E+03  0.97756870483E+03  0.12700000000E+01 0.  1.
         25    2    1    2    0    0  0.00000000000E+00  0.00000000000E+00 -0.97367449616E+03  0.98166398709E+03  0.12498863582E+03 0.  0.
    9000005    1    3    3    0    0  0.53140035779E+01 -0.53813182889E+02 -0.24091184506E+03  0.24690810918E+03  0.10000000000E+01 0.  0.
    9000005    1    3    3    0    0 -0.53140035779E+01  0.53813182889E+02 -0.73276265109E+03  0.73475587791E+03  0.10000000000E+01 0.  0.
<mgrwt>
<rscale>  0 0.12498864E+03</rscale>
<asrwt>0</asrwt>
<pdfrwt beam="1">  1        4 0.61457701E-03 0.12498864E+03</pdfrwt>
<pdfrwt beam="2">  1       -4 0.15041046E+00 0.12498864E+03</pdfrwt>
<totfact> 0.31225549E+03</totfact>
</mgrwt>
</event>
<event>
 5    1  0.3266594E-002  0.1250013E+03  0.7818608E-02  0.1235067E+00
          4   -1    0    0  501    0  0.00000000000E+00  0.00000000000E+00  0.73881830004E+02  0.73892744602E+02  0.12700000000E+01 0.  1.
         -4   -1    0    0    0  501 -0.00000000000E+00 -0.00000000000E+00 -0.52850212736E+02  0.52865469697E+02  0.12700000000E+01 0.  1.
         25    2    1    2    0    0  0.00000000000E+00  0.00000000000E+00  0.21031617268E+02  0.12675821430E+03  0.12500126386E+03 0.  0.
    9000005    1    3    3    0    0  0.35018167486E+02 -0.20013144882E+02 -0.37889074540E+02  0.55347809277E+02  0.10000000000E+01 0.  0.
    9000005    1    3    3    0    0 -0.35018167486E+02  0.20013144882E+02  0.58920691809E+02  0.71410405022E+02  0.10000000000E+01 0.  0.
<mgrwt>
<rscale>  0 0.12500126E+03</rscale>
<asrwt>0</asrwt>
<pdfrwt beam="1">  1        4 0.11368449E-01 0.12500126E+03</pdfrwt>
<pdfrwt beam="2">  1       -4 0.81328152E-02 0.12500126E+03</pdfrwt>
<totfact> 0.10414106E+04</totfact>
</mgrwt>
</event>
<event>
 5    1  0.3266594E-002  0.1250062E+03  0.7818608E-02  0.1235060E+00
          4   -1    0    0  501    0  0.00000000000E+00  0.00000000000E+00  0.21601168723E+02  0.21638470144E+02  0.12700000000E+01 0.  1.
         -4   -1    0    0    0  501 -0.00000000000E+00 -0.00000000000E+00 -0.18065753422E+03  0.18066199814E+03  0.12700000000E+01 0.  1.
         25    2    1    2    0    0  0.00000000000E+00  0.00000000000E+00 -0.15905636550E+03  0.20230046828E+03  0.12500620809E+03 0.  0.
    9000005    1    3    3    0    0  0.11123091317E+02  0.22111112416E+02 -0.17239532174E+03  0.17416593068E+03  0.10000000000E+01 0.  0.
    9000005    1    3    3    0    0 -0.11123091317E+02 -0.22111112416E+02  0.13338956236E+02  0.28134537604E+02  0.10000000000E+01 0.  0.
<mgrwt>
<rscale>  0 0.12500621E+03</rscale>
<asrwt>0</asrwt>
<pdfrwt beam="1">  1        4 0.33264696E-02 0.12500621E+03</pdfrwt>
<pdfrwt beam="2">  1       -4 0.27796678E-01 0.12500621E+03</pdfrwt>
<totfact> 0.89736496E+03</totfact>
</mgrwt>
</event>
<event>
 5    1  0.3266594E-002  0.1249996E+03  0.7818608E-02  0.1235070E+00
         -4   -1    0    0    0  501 -0.00000000000E+00  0.00000000000E+00  0.68999377999E+01  0.70158421905E+01  0.12700000000E+01 0.  1.
          4   -1    0    0  501    0  0.00000000000E+00 -0.00000000000E+00 -0.56129255317E+03  0.56129398995E+03  0.12700000000E+01 0.  1.
         25    2    1    2    0    0  0.00000000000E+00  0.00000000000E+00 -0.55439261537E+03  0.56830983214E+03  0.12499957328E+03 0.  0.
    9000005    1    3    3    0    0 -0.63677710730E+00 -0.57015629582E+02 -0.16092370093E+03  0.17072968407E+03  0.10000000000E+01 0.  0.
    9000005    1    3    3    0    0  0.63677710730E+00  0.57015629582E+02 -0.39346891445E+03  0.39758014807E+03  0.10000000000E+01 0.  0.
<mgrwt>
<rscale>  0 0.12499957E+03</rscale>
<asrwt>0</asrwt>
<pdfrwt beam="2">  1        4 0.86361691E-01 0.12499957E+03</pdfrwt>
<pdfrwt beam="1">  1       -4 0.10705556E-02 0.12499957E+03</pdfrwt>
<totfact> 0.50931591E+03</totfact>
</mgrwt>
</event>
<event>
 5    1  0.3266594E-002  0.1249973E+03  0.7818608E-02  0.1235073E+00
          4   -1    0    0  501    0  0.00000000000E+00  0.00000000000E+00  0.77011834395E+02  0.77022305450E+02  0.12700000000E+01 0.  1.
         -4   -1    0    0    0  501 -0.00000000000E+00 -0.00000000000E+00 -0.50698668332E+02  0.50714572567E+02  0.12700000000E+01 0.  1.
         25    2    1    2    0    0  0.00000000000E+00  0.00000000000E+00  0.26313166063E+02  0.12773687802E+03  0.12499730916E+03 0.  0.
    9000005    1    3    3    0    0  0.31127130610E+02 -0.52999519974E+02  0.16295380852E+01  0.61493924674E+02  0.10000000000E+01 0.  0.
    9000005    1    3    3    0    0 -0.31127130610E+02  0.52999519974E+02  0.24683627978E+02  0.66242953343E+02  0.10000000000E+01 0.  0.
<mgrwt>
<rscale>  0 0.12499731E+03</rscale>
<asrwt>0</asrwt>
<pdfrwt beam="1">  1        4 0.11850003E-01 0.12499731E+03</pdfrwt>
<pdfrwt beam="2">  1       -4 0.78018240E-02 0.12499731E+03</pdfrwt>
<totfact> 0.10393805E+04</totfact>
</mgrwt>
</event>
<event>
 5    1  0.3266594E-002  0.1249971E+03  0.7818608E-02  0.1235074E+00
         -4   -1    0    0    0  501 -0.00000000000E+00  0.00000000000E+00  0.26124331831E+02  0.26155183303E+02  0.12700000000E+01 0.  1.
          4   -1    0    0  501    0  0.00000000000E+00 -0.00000000000E+00 -0.14939652157E+03  0.14940191952E+03  0.12700000000E+01 0.  1.
         25    2    1    2    0    0  0.00000000000E+00  0.00000000000E+00 -0.12327218974E+03  0.17555710283E+03  0.12499705432E+03 0.  0.
    9000005    1    3    3    0    0  0.12068296465E+02 -0.20935138562E+02  0.19303747639E+02  0.30944441813E+02  0.10000000000E+01 0.  0.
    9000005    1    3    3    0    0 -0.12068296465E+02  0.20935138562E+02 -0.14257593738E+03  0.14461266101E+03  0.10000000000E+01 0.  0.
<mgrwt>
<rscale>  0 0.12499705E+03</rscale>
<asrwt>0</asrwt>
<pdfrwt beam="2">  1        4 0.22986868E-01 0.12499705E+03</pdfrwt>
<pdfrwt beam="1">  1       -4 0.40219165E-02 0.12499705E+03</pdfrwt>
<totfact> 0.94429147E+03</totfact>
</mgrwt>
</event>
<event>
 5    1  0.3266594E-002  0.1250100E+03  0.7818608E-02  0.1235054E+00
         -4   -1    0    0    0  501 -0.00000000000E+00  0.00000000000E+00  0.39601914070E+03  0.39602117709E+03  0.12700000000E+01 0.  1.
          4   -1    0    0  501    0  0.00000000000E+00 -0.00000000000E+00 -0.98224305458E+01  0.99041931436E+01  0.12700000000E+01 0.  1.
         25    2    1    2    0    0  0.00000000000E+00  0.00000000000E+00  0.38619671016E+03  0.40592537023E+03  0.12501002865E+03 0.  0.
    9000005    1    3    3    0    0  0.35241627590E+02  0.33809408317E+02  0.31972976697E+03  0.32343959605E+03  0.10000000000E+01 0.  0.
    9000005    1    3    3    0    0 -0.35241627590E+02 -0.33809408317E+02  0.66466943184E+02  0.82485774181E+02  0.10000000000E+01 0.  0.
<mgrwt>
<rscale>  0 0.12501003E+03</rscale>
<asrwt>0</asrwt>
<pdfrwt beam="2">  1        4 0.15175893E-02 0.12501003E+03</pdfrwt>
<pdfrwt beam="1">  1       -4 0.60932463E-01 0.12501003E+03</pdfrwt>
<totfact> 0.63966387E+03</totfact>
</mgrwt>
</event>
<event>
 5    1  0.3266594E-002  0.1249987E+03  0.7818608E-02  0.1235071E+00
         -4   -1    0    0    0  501 -0.00000000000E+00  0.00000000000E+00  0.41054650230E+02  0.41074288862E+02  0.12700000000E+01 0.  1.
          4   -1    0    0  501    0  0.00000000000E+00 -0.00000000000E+00 -0.95098978279E+02  0.95107458014E+02  0.12700000000E+01 0.  1.
         25    2    1    2    0    0  0.00000000000E+00  0.00000000000E+00 -0.54044328049E+02  0.13618174688E+03  0.12499871514E+03 0.  0.
    9000005    1    3    3    0    0  0.57596774122E+02 -0.22035581144E+02 -0.16007543352E+02  0.63719672549E+02  0.10000000000E+01 0.  0.
    9000005    1    3    3    0    0 -0.57596774122E+02  0.22035581144E+02 -0.38036784697E+02  0.72462074326E+02  0.10000000000E+01 0.  0.
<mgrwt>
<rscale>  0 0.12499872E+03</rscale>
<asrwt>0</asrwt>
<pdfrwt beam="2">  1        4 0.14632775E-01 0.12499872E+03</pdfrwt>
<pdfrwt beam="1">  1       -4 0.63182630E-02 0.12499872E+03</pdfrwt>
<totfact> 0.10213518E+04</totfact>
</mgrwt>
</event>
<event>
 5    1  0.3266594E-002  0.1250019E+03  0.7818608E-02  0.1235066E+00
         -4   -1    0    0    0  501 -0.00000000000E+00  0.00000000000E+00  0.25174551846E+02  0.25206565824E+02  0.12700000000E+01 0. -1.
          4   -1    0    0  501    0  0.00000000000E+00 -0.00000000000E+00 -0.15503820088E+03  0.15504340241E+03  0.12700000000E+01 0. -1.
         25    2    1    2    0    0  0.00000000000E+00  0.00000000000E+00 -0.12986364903E+03  0.18024996824E+03  0.12500193482E+03 0.  0.
    9000005    1    3    3    0    0 -0.34344575574E+02 -0.37591407253E+02 -0.12687106663E+02  0.52484535304E+02  0.10000000000E+01 0.  0.
    9000005    1    3    3    0    0  0.34344575574E+02  0.37591407253E+02 -0.11717654237E+03  0.12776543293E+03  0.10000000000E+01 0.  0.
<mgrwt>
<rscale>  0 0.12500193E+03</rscale>
<asrwt>0</asrwt>
<pdfrwt beam="2">  1        4 0.23854893E-01 0.12500193E+03</pdfrwt>
<pdfrwt beam="1">  1       -4 0.38758708E-02 0.12500193E+03</pdfrwt>
<totfact> 0.93567969E+03</totfact>
</mgrwt>
</event>
<event>
 5    1  0.3266594E-002  0.1250007E+03  0.7818608E-02  0.1235068E+00
          4   -1    0    0  501    0  0.00000000000E+00  0.00000000000E+00  0.36431035744E+02  0.36453165368E+02  0.12700000000E+01 0.  1.
         -4   -1    0    0    0  501 -0.00000000000E+00 -0.00000000000E+00 -0.10716580774E+03  0.10717333273E+03  0.12700000000E+01 0.  1.
         25    2    1    2    0    0  0.00000000000E+00  0.00000000000E+00 -0.70734771993E+02  0.14362649810E+03  0.12500065194E+03 0.  0.
    9000005    1    3    3    0    0  0.55502139730E+02 -0.21153322037E+02 -0.13047661455E+02  0.60820983363E+02  0.10000000000E+01 0.  0.
    9000005    1    3    3    0    0 -0.55502139730E+02  0.21153322037E+02 -0.57687110539E+02  0.82805514732E+02  0.10000000000E+01 0.  0.
<mgrwt>
<rscale>  0 0.12500065E+03</rscale>
<asrwt>0</asrwt>
<pdfrwt beam="1">  1        4 0.56070559E-02 0.12500065E+03</pdfrwt>
<pdfrwt beam="2">  1       -4 0.16489328E-01 0.12500065E+03</pdfrwt>
<totfact> 0.10058822E+04</totfact>
</mgrwt>
</event>
<event>
 5    1  0.3266594E-002  0.1250021E+03  0.7818608E-02  0.1235066E+00
          4   -1    0    0  501    0  0.00000000000E+00  0.00000000000E+00  0.30637726553E+03  0.30637989773E+03  0.12700000000E+01 0. -1.
         -4   -1    0    0    0  501 -0.00000000000E+00 -0.00000000000E+00 -0.12715912648E+02  0.12779175814E+02  0.12700000000E+01 0. -1.
         25    2    1    2    0    0  0.00000000000E+00  0.00000000000E+00  0.29366135288E+03  0.31915907354E+03  0.12500209618E+03 0.  0.
    9000005    1    3    3    0    0  0.61228797677E+02 -0.45170166524E+01  0.11705385297E+03  0.13218159327E+03  0.10000000000E+01 0.  0.
    9000005    1    3    3    0    0 -0.61228797677E+02  0.45170166524E+01  0.17660749991E+03  0.18697748027E+03  0.10000000000E+01 0.  0.
<mgrwt>
<rscale>  0 0.12500210E+03</rscale>
<asrwt>0</asrwt>
<pdfrwt beam="1">  1        4 0.47140029E-01 0.12500210E+03</pdfrwt>
<pdfrwt beam="2">  1       -4 0.19613633E-02 0.12500210E+03</pdfrwt>
<totfact> 0.73252851E+03</totfact>
</mgrwt>
</event>
<event>
 5    1  0.3266594E-002  0.1250009E+03  0.7818608E-02  0.1235068E+00
          4   -1    0    0  501    0  0.00000000000E+00  0.00000000000E+00  0.19026208266E+02  0.19068547427E+02  0.12700000000E+01 0.  1.
         -4   -1    0    0    0  501 -0.00000000000E+00 -0.00000000000E+00 -0.20503928286E+03  0.20504321597E+03  0.12700000000E+01 0.  1.
         25    2    1    2    0    0  0.00000000000E+00  0.00000000000E+00 -0.18601307460E+03  0.22411176340E+03  0.12500087429E+03 0.  0.
    9000005    1    3    3    0    0  0.16115069476E+02 -0.37213315094E+02 -0.77592445223E+01  0.41300510409E+02  0.10000000000E+01 0.  0.
    9000005    1    3    3    0    0 -0.16115069476E+02  0.37213315094E+02 -0.17825383007E+03  0.18281125299E+03  0.10000000000E+01 0.  0.
<mgrwt>
<rscale>  0 0.12500087E+03</rscale>
<asrwt>0</asrwt>
<pdfrwt beam="1">  1        4 0.29306685E-02 0.12500087E+03</pdfrwt>
<pdfrwt beam="2">  1       -4 0.31548063E-01 0.12500087E+03</pdfrwt>
<totfact> 0.86220187E+03</totfact>
</mgrwt>
</event>
<event>
 5    1  0.3266594E-002  0.1250010E+03  0.7818608E-02  0.1235068E+00
         -4   -1    0    0    0  501 -0.00000000000E+00  0.00000000000E+00  0.86238163952E+02  0.86247514873E+02  0.12700000000E+01 0. -1.
          4   -1    0    0  501    0  0.00000000000E+00 -0.00000000000E+00 -0.45276115388E+02  0.45293923705E+02  0.12700000000E+01 0. -1.
         25    2    1    2    0    0  0.00000000000E+00  0.00000000000E+00  0.40962048564E+02  0.13154143858E+03  0.12500104256E+03 0.  0.
    9000005    1    3    3    0    0 -0.26079860025E+02  0.39554678504E+02 -0.22401397796E+02  0.52417118518E+02  0.10000000000E+01 0.  0.
    9000005    1    3    3    0    0  0.26079860025E+02 -0.39554678504E+02  0.63363446359E+02  0.79124320061E+02  0.10000000000E+01 0.  0.
<mgrwt>
<rscale>  0 0.12500104E+03</rscale>
<asrwt>0</asrwt>
<pdfrwt beam="2">  1        4 0.69676454E-02 0.12500104E+03</pdfrwt>
<pdfrwt beam="1">  1       -4 0.13269499E-01 0.12500104E+03</pdfrwt>
<totfact> 0.10311253E+04</totfact>
</mgrwt>
</event>
<event>
 5    1  0.3266594E-002  0.1250006E+03  0.7818608E-02  0.1235068E+00
          4   -1    0    0  501    0  0.00000000000E+00  0.00000000000E+00  0.15174352428E+03  0.15174883874E+03  0.12700000000E+01 0. -1.
         -4   -1    0    0    0  501 -0.00000000000E+00 -0.00000000000E+00 -0.25721271280E+02  0.25752605621E+02  0.12700000000E+01 0. -1.
         25    2    1    2    0    0  0.00000000000E+00  0.00000000000E+00  0.12602225300E+03  0.17750144437E+03  0.12500061800E+03 0.  0.
    9000005    1    3    3    0    0 -0.51915249773E+02 -0.27617985546E+02  0.93044888443E+02  0.11007405484E+03  0.10000000000E+01 0.  0.
    9000005    1    3    3    0    0  0.51915249773E+02  0.27617985546E+02  0.32977364555E+02  0.67427389521E+02  0.10000000000E+01 0.  0.
<mgrwt>
<rscale>  0 0.12500062E+03</rscale>
<asrwt>0</asrwt>
<pdfrwt beam="1">  1        4 0.23347976E-01 0.12500062E+03</pdfrwt>
<pdfrwt beam="2">  1       -4 0.39599379E-02 0.12500062E+03</pdfrwt>
<totfact> 0.94067391E+03</totfact>
</mgrwt>
</event>
<event>
 5    1  0.3266594E-002  0.1250010E+03  0.7818608E-02  0.1235068E+00
          4   -1    0    0  501    0  0.00000000000E+00  0.00000000000E+00  0.49812272387E+02  0.49828459542E+02  0.12700000000E+01 0. -1.
         -4   -1    0    0    0  501 -0.00000000000E+00 -0.00000000000E+00 -0.78386581255E+02  0.78396868693E+02  0.12700000000E+01 0. -1.
         25    2    1    2    0    0  0.00000000000E+00  0.00000000000E+00 -0.28574308868E+02  0.12822532823E+03  0.12500097469E+03 0.  0.
    9000005    1    3    3    0    0  0.38710108662E+02  0.33940037524E+02  0.22051354319E+02  0.56014827386E+02  0.10000000000E+01 0.  0.
    9000005    1    3    3    0    0 -0.38710108662E+02 -0.33940037524E+02 -0.50625663187E+02  0.72210500849E+02  0.10000000000E+01 0.  0.
<mgrwt>
<rscale>  0 0.12500097E+03</rscale>
<asrwt>0</asrwt>
<pdfrwt beam="1">  1        4 0.76654630E-02 0.12500097E+03</pdfrwt>
<pdfrwt beam="2">  1       -4 0.12061511E-01 0.12500097E+03</pdfrwt>
<totfact> 0.10382396E+04</totfact>
</mgrwt>
</event>
<event>
 5    1  0.3266594E-002  0.1249995E+03  0.7818608E-02  0.1235070E+00
         -4   -1    0    0    0  501 -0.00000000000E+00  0.00000000000E+00  0.93006277357E+02  0.93014947873E+02  0.12700000000E+01 0. -1.
          4   -1    0    0  501    0  0.00000000000E+00 -0.00000000000E+00 -0.41979282592E+02  0.41998488865E+02  0.12700000000E+01 0. -1.
         25    2    1    2    0    0  0.00000000000E+00  0.00000000000E+00  0.51026994765E+02  0.13501343674E+03  0.12499949562E+03 0.  0.
    9000005    1    3    3    0    0 -0.43913979319E+02  0.33979620181E+02 -0.54570277838E+01  0.55801714306E+02  0.10000000000E+01 0.  0.
    9000005    1    3    3    0    0  0.43913979319E+02 -0.33979620181E+02  0.56484022549E+02  0.79211722432E+02  0.10000000000E+01 0.  0.
<mgrwt>
<rscale>  0 0.12499950E+03</rscale>
<asrwt>0</asrwt>
<pdfrwt beam="2">  1        4 0.64604957E-02 0.12499950E+03</pdfrwt>
<pdfrwt beam="1">  1       -4 0.14310802E-01 0.12499950E+03</pdfrwt>
<totfact> 0.10237904E+04</totfact>
</mgrwt>
</event>
<event>
 5    1  0.3266594E-002  0.1250027E+03  0.7818608E-02  0.1235065E+00
          4   -1    0    0  501    0  0.00000000000E+00  0.00000000000E+00  0.82014594456E+02  0.82024426873E+02  0.12700000000E+01 0. -1.
         -4   -1    0    0    0  501 -0.00000000000E+00 -0.00000000000E+00 -0.47609643762E+02  0.47626579544E+02  0.12700000000E+01 0. -1.
         25    2    1    2    0    0  0.00000000000E+00  0.00000000000E+00  0.34404950695E+02  0.12965100642E+03  0.12500273130E+03 0.  0.
    9000005    1    3    3    0    0 -0.17058450282E+01  0.18307590734E+02  0.79150693573E+02  0.81264445355E+02  0.10000000000E+01 0.  0.
    9000005    1    3    3    0    0  0.17058450282E+01 -0.18307590734E+02 -0.44745742878E+02  0.48386561063E+02  0.10000000000E+01 0.  0.
<mgrwt>
<rscale>  0 0.12500273E+03</rscale>
<asrwt>0</asrwt>
<pdfrwt beam="1">  1        4 0.12619689E-01 0.12500273E+03</pdfrwt>
<pdfrwt beam="2">  1       -4 0.73266197E-02 0.12500273E+03</pdfrwt>
<totfact> 0.10351341E+04</totfact>
</mgrwt>
</event>
<event>
 5    1  0.3266594E-002  0.1250032E+03  0.7818608E-02  0.1235064E+00
          4   -1    0    0  501    0  0.00000000000E+00  0.00000000000E+00  0.80089087159E+02  0.80099155938E+02  0.12700000000E+01 0.  1.
         -4   -1    0    0    0  501 -0.00000000000E+00 -0.00000000000E+00 -0.48754878926E+02  0.48771417029E+02  0.12700000000E+01 0.  1.
         25    2    1    2    0    0  0.00000000000E+00  0.00000000000E+00  0.31334208234E+02  0.12887057297E+03  0.12500316785E+03 0.  0.
    9000005    1    3    3    0    0 -0.55322695933E+02  0.24868767325E+02  0.31178933141E+02  0.68206906874E+02  0.10000000000E+01 0.  0.
    9000005    1    3    3    0    0  0.55322695933E+02 -0.24868767325E+02  0.15527509231E+00  0.60663666093E+02  0.10000000000E+01 0.  0.
<mgrwt>
<rscale>  0 0.12500317E+03</rscale>
<asrwt>0</asrwt>
<pdfrwt beam="1">  1        4 0.12323445E-01 0.12500317E+03</pdfrwt>
<pdfrwt beam="2">  1       -4 0.75027974E-02 0.12500317E+03</pdfrwt>
<totfact> 0.10367987E+04</totfact>
</mgrwt>
</event>
<event>
 5    1  0.3266594E-002  0.1249991E+03  0.7818608E-02  0.1235071E+00
          4   -1    0    0  501    0  0.00000000000E+00  0.00000000000E+00  0.24921813013E+02  0.24954151235E+02  0.12700000000E+01 0.  1.
         -4   -1    0    0    0  501 -0.00000000000E+00 -0.00000000000E+00 -0.15660147358E+03  0.15660662319E+03  0.12700000000E+01 0.  1.
         25    2    1    2    0    0  0.00000000000E+00  0.00000000000E+00 -0.13167966057E+03  0.18156077443E+03  0.12499912721E+03 0.  0.
    9000005    1    3    3    0    0  0.60359098277E+02  0.10696113331E+01 -0.89298012064E+02  0.10779378355E+03  0.10000000000E+01 0.  0.
    9000005    1    3    3    0    0 -0.60359098277E+02 -0.10696113331E+01 -0.42381648505E+02  0.73766990879E+02  0.10000000000E+01 0.  0.
<mgrwt>
<rscale>  0 0.12499913E+03</rscale>
<asrwt>0</asrwt>
<pdfrwt beam="1">  1        4 0.38370088E-02 0.12499913E+03</pdfrwt>
<pdfrwt beam="2">  1       -4 0.24095418E-01 0.12499913E+03</pdfrwt>
<totfact> 0.93338637E+03</totfact>
</mgrwt>
</event>
<event>
 5    1  0.3266594E-002  0.1249946E+03  0.7818608E-02  0.1235078E+00
          4   -1    0    0  501    0  0.00000000000E+00  0.00000000000E+00  0.96882660507E+01  0.97711513686E+01  0.12700000000E+01 0.  1.
         -4   -1    0    0    0  501 -0.00000000000E+00 -0.00000000000E+00 -0.40135803837E+03  0.40136004766E+03  0.12700000000E+01 0.  1.
         25    2    1    2    0    0  0.00000000000E+00  0.00000000000E+00 -0.39166977231E+03  0.41113119903E+03  0.12499460897E+03 0.  0.
    9000005    1    3    3    0    0  0.23020123989E+02  0.58066885491E+02 -0.20174058250E+03  0.21119174209E+03  0.10000000000E+01 0.  0.
    9000005    1    3    3    0    0 -0.23020123989E+02 -0.58066885491E+02 -0.18992918982E+03  0.19993945695E+03  0.10000000000E+01 0.  0.
<mgrwt>
<rscale>  0 0.12499461E+03</rscale>
<asrwt>0</asrwt>
<pdfrwt beam="1">  1        4 0.14970331E-02 0.12499461E+03</pdfrwt>
<pdfrwt beam="2">  1       -4 0.61753908E-01 0.12499461E+03</pdfrwt>
<totfact> 0.63491950E+03</totfact>
</mgrwt>
</event>
<event>
 5    1  0.3266594E-002  0.1250032E+03  0.7818608E-02  0.1235064E+00
         -4   -1    0    0    0  501 -0.00000000000E+00  0.00000000000E+00  0.13544120483E+02  0.13603532617E+02  0.12700000000E+01 0.  1.
          4   -1    0    0  501    0  0.00000000000E+00 -0.00000000000E+00 -0.28773218633E+03  0.28773498909E+03  0.12700000000E+01 0.  1.
         25    2    1    2    0    0  0.00000000000E+00  0.00000000000E+00 -0.27418806585E+03  0.30133852171E+03  0.12500323682E+03 0.  0.
    9000005    1    3    3    0    0  0.91070719151E+00 -0.27593188320E+02 -0.27224591198E+03  0.27364402062E+03  0.10000000000E+01 0.  0.
    9000005    1    3    3    0    0 -0.91070719151E+00  0.27593188320E+02 -0.19421538655E+01  0.27694501095E+02  0.10000000000E+01 0.  0.
<mgrwt>
<rscale>  0 0.12500324E+03</rscale>
<asrwt>0</asrwt>
<pdfrwt beam="2">  1        4 0.44271271E-01 0.12500324E+03</pdfrwt>
<pdfrwt beam="1">  1       -4 0.20884968E-02 0.12500324E+03</pdfrwt>
<totfact> 0.75425826E+03</totfact>
</mgrwt>
</event>
<event>
 5    1  0.3266594E-002  0.1250022E+03  0.7818608E-02  0.1235066E+00
          4   -1    0    0  501    0  0.00000000000E+00  0.00000000000E+00  0.51142307587E+02  0.51158073902E+02  0.12700000000E+01 0.  1.
         -4   -1    0    0    0  501 -0.00000000000E+00 -0.00000000000E+00 -0.76349935529E+02  0.76360497349E+02  0.12700000000E+01 0.  1.
         25    2    1    2    0    0  0.00000000000E+00  0.00000000000E+00 -0.25207627943E+02  0.12751857125E+03  0.12500224601E+03 0.  0.
    9000005    1    3    3    0    0 -0.36500942367E+02 -0.50434862625E+02 -0.18134784317E+02  0.64852637294E+02  0.10000000000E+01 0.  0.
    9000005    1    3    3    0    0  0.36500942367E+02  0.50434862625E+02 -0.70728436258E+01  0.62665933957E+02  0.10000000000E+01 0.  0.
<mgrwt>
<rscale>  0 0.12500225E+03</rscale>
<asrwt>0</asrwt>
<pdfrwt beam="1">  1        4 0.78700726E-02 0.12500225E+03</pdfrwt>
<pdfrwt beam="2">  1       -4 0.11748169E-01 0.12500225E+03</pdfrwt>
<totfact> 0.10397371E+04</totfact>
</mgrwt>
</event>
<event>
 5    1  0.3266594E-002  0.1250039E+03  0.7818608E-02  0.1235063E+00
         -4   -1    0    0    0  501 -0.00000000000E+00  0.00000000000E+00  0.57970846445E+02  0.57984756079E+02  0.12700000000E+01 0. -1.
          4   -1    0    0  501    0  0.00000000000E+00 -0.00000000000E+00 -0.67359244785E+02  0.67371216095E+02  0.12700000000E+01 0. -1.
         25    2    1    2    0    0  0.00000000000E+00  0.00000000000E+00 -0.93883983401E+01  0.12535597217E+03  0.12500391088E+03 0.  0.
    9000005    1    3    3    0    0  0.45002639163E+02  0.35640609307E+02 -0.29462015823E+02  0.64532944608E+02  0.10000000000E+01 0.  0.
    9000005    1    3    3    0    0 -0.45002639163E+02 -0.35640609307E+02  0.20073617483E+02  0.60823027566E+02  0.10000000000E+01 0.  0.
<mgrwt>
<rscale>  0 0.12500391E+03</rscale>
<asrwt>0</asrwt>
<pdfrwt beam="2">  1        4 0.10364952E-01 0.12500391E+03</pdfrwt>
<pdfrwt beam="1">  1       -4 0.89205826E-02 0.12500391E+03</pdfrwt>
<totfact> 0.10444213E+04</totfact>
</mgrwt>
</event>
<event>
 5    1  0.3266594E-002  0.1250045E+03  0.7818608E-02  0.1235062E+00
          4   -1    0    0  501    0  0.00000000000E+00  0.00000000000E+00  0.93480256193E+02  0.93488882750E+02  0.12700000000E+01 0.  1.
         -4   -1    0    0    0  501 -0.00000000000E+00 -0.00000000000E+00 -0.41769722551E+02  0.41789025138E+02  0.12700000000E+01 0.  1.
         25    2    1    2    0    0  0.00000000000E+00  0.00000000000E+00  0.51710533643E+02  0.13527790789E+03  0.12500453221E+03 0.  0.
    9000005    1    3    3    0    0 -0.24182265466E+02  0.33813717852E+01  0.88109708908E+02  0.91435969083E+02  0.10000000000E+01 0.  0.
    9000005    1    3    3    0    0  0.24182265466E+02 -0.33813717852E+01 -0.36399175265E+02  0.43841938805E+02  0.10000000000E+01 0.  0.
<mgrwt>
<rscale>  0 0.12500453E+03</rscale>
<asrwt>0</asrwt>
<pdfrwt beam="1">  1        4 0.14383726E-01 0.12500453E+03</pdfrwt>
<pdfrwt beam="2">  1       -4 0.64282596E-02 0.12500453E+03</pdfrwt>
<totfact> 0.10231171E+04</totfact>
</mgrwt>
</event>
<event>
 5    1  0.3266594E-002  0.1249998E+03  0.7818608E-02  0.1235070E+00
         -4   -1    0    0    0  501 -0.00000000000E+00  0.00000000000E+00  0.14634764954E+03  0.14635315994E+03  0.12700000000E+01 0.  1.
          4   -1    0    0  501    0  0.00000000000E+00 -0.00000000000E+00 -0.26670375390E+02  0.26700595938E+02  0.12700000000E+01 0.  1.
         25    2    1    2    0    0  0.00000000000E+00  0.00000000000E+00  0.11967727415E+03  0.17305375588E+03  0.12499980991E+03 0.  0.
    9000005    1    3    3    0    0  0.56514171232E+01 -0.34792791232E+02 -0.11600762146E+02  0.37122156721E+02  0.10000000000E+01 0.  0.
    9000005    1    3    3    0    0 -0.56514171232E+01  0.34792791232E+02  0.13127803630E+03  0.13593159916E+03  0.10000000000E+01 0.  0.
<mgrwt>
<rscale>  0 0.12499981E+03</rscale>
<asrwt>0</asrwt>
<pdfrwt beam="2">  1        4 0.41058832E-02 0.12499981E+03</pdfrwt>
<pdfrwt beam="1">  1       -4 0.22517772E-01 0.12499981E+03</pdfrwt>
<totfact> 0.94882908E+03</totfact>
</mgrwt>
</event>
<event>
 5    1  0.3266594E-002  0.1249951E+03  0.7818608E-02  0.1235077E+00
         -4   -1    0    0    0  501 -0.00000000000E+00  0.00000000000E+00  0.87873741751E+03  0.87873833524E+03  0.12700000000E+01 0.  1.
          4   -1    0    0  501    0  0.00000000000E+00 -0.00000000000E+00 -0.43532945147E+01  0.45347627426E+01  0.12700000000E+01 0.  1.
         25    2    1    2    0    0  0.00000000000E+00  0.00000000000E+00  0.87438412299E+03  0.88327309799E+03  0.12499508424E+03 0.  0.
    9000005    1    3    3    0    0 -0.15987843964E+02 -0.35199315055E+02  0.90262578491E+02  0.98198452181E+02  0.10000000000E+01 0.  0.
    9000005    1    3    3    0    0  0.15987843964E+02  0.35199315055E+02  0.78412154450E+03  0.78507464581E+03  0.10000000000E+01 0.  0.
<mgrwt>
<rscale>  0 0.12499508E+03</rscale>
<asrwt>0</asrwt>
<pdfrwt beam="2">  1        4 0.68376877E-03 0.12499508E+03</pdfrwt>
<pdfrwt beam="1">  1       -4 0.13520411E+00 0.12499508E+03</pdfrwt>
<totfact> 0.34806869E+03</totfact>
</mgrwt>
</event>
<event>
 5    1  0.3266594E-002  0.1250081E+03  0.7818608E-02  0.1235057E+00
         -4   -1    0    0    0  501 -0.00000000000E+00  0.00000000000E+00  0.18905813934E+02  0.18948422111E+02  0.12700000000E+01 0. -1.
          4   -1    0    0  501    0  0.00000000000E+00 -0.00000000000E+00 -0.20636604729E+03  0.20636995511E+03  0.12700000000E+01 0. -1.
         25    2    1    2    0    0  0.00000000000E+00  0.00000000000E+00 -0.18746023335E+03  0.22531837722E+03  0.12500812784E+03 0.  0.
    9000005    1    3    3    0    0  0.52325551767E+02  0.12406404746E+02 -0.15112203398E+03  0.16040807773E+03  0.10000000000E+01 0.  0.
    9000005    1    3    3    0    0 -0.52325551767E+02 -0.12406404746E+02 -0.36338199369E+02  0.64910299490E+02  0.10000000000E+01 0.  0.
<mgrwt>
<rscale>  0 0.12500813E+03</rscale>
<asrwt>0</asrwt>
<pdfrwt beam="2">  1        4 0.31752199E-01 0.12500813E+03</pdfrwt>
<pdfrwt beam="1">  1       -4 0.29121651E-02 0.12500813E+03</pdfrwt>
<totfact> 0.86018082E+03</totfact>
</mgrwt>
</event>
<event>
 5    1  0.3266594E-002  0.1250002E+03  0.7818608E-02  0.1235069E+00
          4   -1    0    0  501    0  0.00000000000E+00  0.00000000000E+00  0.14537585988E+03  0.14538140712E+03  0.12700000000E+01 0.  1.
         -4   -1    0    0    0  501 -0.00000000000E+00 -0.00000000000E+00 -0.26849012724E+02  0.26879032427E+02  0.12700000000E+01 0.  1.
         25    2    1    2    0    0  0.00000000000E+00  0.00000000000E+00  0.11852684716E+03  0.17226043955E+03  0.12500018214E+03 0.  0.
    9000005    1    3    3    0    0 -0.45724826885E+02  0.18216178271E+02  0.11232712158E+03  0.12264163725E+03  0.10000000000E+01 0.  0.
    9000005    1    3    3    0    0  0.45724826885E+02 -0.18216178271E+02  0.61997255787E+01  0.49618802300E+02  0.10000000000E+01 0.  0.
<mgrwt>
<rscale>  0 0.12500018E+03</rscale>
<asrwt>0</asrwt>
<pdfrwt beam="1">  1        4 0.22368253E-01 0.12500018E+03</pdfrwt>
<pdfrwt beam="2">  1       -4 0.41333532E-02 0.12500018E+03</pdfrwt>
<totfact> 0.95028604E+03</totfact>
</mgrwt>
</event>
<event>
 5    1  0.3266594E-002  0.1250005E+03  0.7818608E-02  0.1235069E+00
         -4   -1    0    0    0  501 -0.00000000000E+00  0.00000000000E+00  0.11771006061E+02  0.11839319393E+02  0.12700000000E+01 0.  1.
          4   -1    0    0  501    0  0.00000000000E+00 -0.00000000000E+00 -0.33082636090E+03  0.33082879858E+03  0.12700000000E+01 0.  1.
         25    2    1    2    0    0  0.00000000000E+00  0.00000000000E+00 -0.31905535484E+03  0.34266811797E+03  0.12500047848E+03 0.  0.
    9000005    1    3    3    0    0 -0.27981438973E+02 -0.12213819382E+02 -0.30900311046E+03  0.31050935667E+03  0.10000000000E+01 0.  0.
    9000005    1    3    3    0    0  0.27981438973E+02  0.12213819382E+02 -0.10052244386E+02  0.32158761296E+02  0.10000000000E+01 0.  0.
<mgrwt>
<rscale>  0 0.12500048E+03</rscale>
<asrwt>0</asrwt>
<pdfrwt beam="2">  1        4 0.50901798E-01 0.12500048E+03</pdfrwt>
<pdfrwt beam="1">  1       -4 0.18163666E-02 0.12500048E+03</pdfrwt>
<totfact> 0.70538012E+03</totfact>
</mgrwt>
</event>
<event>
 5    1  0.3266594E-002  0.1249865E+03  0.7818608E-02  0.1235090E+00
         -4   -1    0    0    0  501 -0.00000000000E+00  0.00000000000E+00  0.55397876290E+02  0.55412431795E+02  0.12700000000E+01 0. -1.
          4   -1    0    0  501    0  0.00000000000E+00 -0.00000000000E+00 -0.70467831627E+02  0.70479274927E+02  0.12700000000E+01 0. -1.
         25    2    1    2    0    0  0.00000000000E+00  0.00000000000E+00 -0.15069955337E+02  0.12589170672E+03  0.12498647234E+03 0.  0.
    9000005    1    3    3    0    0  0.30384446292E+02  0.75732268798E+01  0.46929160027E+02  0.56426185435E+02  0.10000000000E+01 0.  0.
    9000005    1    3    3    0    0 -0.30384446292E+02 -0.75732268798E+01 -0.61999115364E+02  0.69465521288E+02  0.10000000000E+01 0.  0.
<mgrwt>
<rscale>  0 0.12498647E+03</rscale>
<asrwt>0</asrwt>
<pdfrwt beam="2">  1        4 0.10843205E-01 0.12498647E+03</pdfrwt>
<pdfrwt beam="1">  1       -4 0.85247501E-02 0.12498647E+03</pdfrwt>
<totfact> 0.10436517E+04</totfact>
</mgrwt>
</event>
<event>
 5    1  0.3266594E-002  0.1250019E+03  0.7818608E-02  0.1235066E+00
         -4   -1    0    0    0  501 -0.00000000000E+00  0.00000000000E+00  0.18601720481E+02  0.18645023595E+02  0.12700000000E+01 0. -1.
          4   -1    0    0  501    0  0.00000000000E+00 -0.00000000000E+00 -0.20971100379E+03  0.20971484929E+03  0.12700000000E+01 0. -1.
         25    2    1    2    0    0  0.00000000000E+00  0.00000000000E+00 -0.19110928331E+03  0.22835987288E+03  0.12500189349E+03 0.  0.
    9000005    1    3    3    0    0 -0.52504495813E+02 -0.26567998946E+02 -0.13399619894E+03  0.14635081817E+03  0.10000000000E+01 0.  0.
    9000005    1    3    3    0    0  0.52504495813E+02  0.26567998946E+02 -0.57113084377E+02  0.82009054718E+02  0.10000000000E+01 0.  0.
<mgrwt>
<rscale>  0 0.12500189E+03</rscale>
<asrwt>0</asrwt>
<pdfrwt beam="2">  1        4 0.32266857E-01 0.12500189E+03</pdfrwt>
<pdfrwt beam="1">  1       -4 0.28654301E-02 0.12500189E+03</pdfrwt>
<totfact> 0.85558463E+03</totfact>
</mgrwt>
</event>
<event>
 5    1  0.3266594E-002  0.1250001E+03  0.7818608E-02  0.1235069E+00
          4   -1    0    0  501    0  0.00000000000E+00  0.00000000000E+00  0.30114722693E+03  0.30114990485E+03  0.12700000000E+01 0.  1.
         -4   -1    0    0    0  501 -0.00000000000E+00 -0.00000000000E+00 -0.12937414777E+02  0.12999600036E+02  0.12700000000E+01 0.  1.
         25    2    1    2    0    0  0.00000000000E+00  0.00000000000E+00  0.28820981216E+03  0.31414950489E+03  0.12500006238E+03 0.  0.
    9000005    1    3    3    0    0 -0.46464157963E+02 -0.33380428026E+02  0.80920022860E+02  0.99107119069E+02  0.10000000000E+01 0.  0.
    9000005    1    3    3    0    0  0.46464157963E+02  0.33380428026E+02  0.20728978930E+03  0.21504238582E+03  0.10000000000E+01 0.  0.
<mgrwt>
<rscale>  0 0.12500006E+03</rscale>
<asrwt>0</asrwt>
<pdfrwt beam="1">  1        4 0.46335332E-01 0.12500006E+03</pdfrwt>
<pdfrwt beam="2">  1       -4 0.19953610E-02 0.12500006E+03</pdfrwt>
<totfact> 0.73857306E+03</totfact>
</mgrwt>
</event>
<event>
 5    1  0.3266594E-002  0.1250209E+03  0.7818608E-02  0.1235037E+00
          4   -1    0    0  501    0  0.00000000000E+00  0.00000000000E+00  0.15382803915E+02  0.15435140307E+02  0.12700000000E+01 0. -1.
         -4   -1    0    0    0  501 -0.00000000000E+00 -0.00000000000E+00 -0.25353587742E+03  0.25353905821E+03  0.12700000000E+01 0. -1.
         25    2    1    2    0    0  0.00000000000E+00  0.00000000000E+00 -0.23815307351E+03  0.26897419852E+03  0.12502093044E+03 0.  0.
    9000005    1    3    3    0    0  0.25206995992E+02  0.47721617527E+02 -0.18690003654E+03  0.19453886266E+03  0.10000000000E+01 0.  0.
    9000005    1    3    3    0    0 -0.25206995992E+02 -0.47721617527E+02 -0.51253036965E+02  0.74435335859E+02  0.10000000000E+01 0.  0.
<mgrwt>
<rscale>  0 0.12502093E+03</rscale>
<asrwt>0</asrwt>
<pdfrwt beam="1">  1        4 0.23708560E-02 0.12502093E+03</pdfrwt>
<pdfrwt beam="2">  1       -4 0.39009787E-01 0.12502093E+03</pdfrwt>
<totfact> 0.79625846E+03</totfact>
</mgrwt>
</event>
<event>
 5    1  0.3266594E-002  0.1249951E+03  0.7818608E-02  0.1235077E+00
          4   -1    0    0  501    0  0.00000000000E+00  0.00000000000E+00  0.89786703551E+03  0.89786793369E+03  0.12700000000E+01 0.  1.
         -4   -1    0    0    0  501 -0.00000000000E+00 -0.00000000000E+00 -0.42566397982E+01  0.44420583486E+01  0.12700000000E+01 0.  1.
         25    2    1    2    0    0  0.00000000000E+00  0.00000000000E+00  0.89361039571E+03  0.90230999204E+03  0.12499512957E+03 0.  0.
    9000005    1    3    3    0    0 -0.59605248841E+02 -0.58842883173E+01  0.31817038429E+03  0.32376041138E+03  0.10000000000E+01 0.  0.
    9000005    1    3    3    0    0  0.59605248841E+02  0.58842883173E+01  0.57544001142E+03  0.57854958066E+03  0.10000000000E+01 0.  0.
<mgrwt>
<rscale>  0 0.12499513E+03</rscale>
<asrwt>0</asrwt>
<pdfrwt beam="1">  1        4 0.13814757E+00 0.12499513E+03</pdfrwt>
<pdfrwt beam="2">  1       -4 0.66920045E-03 0.12499513E+03</pdfrwt>
<totfact> 0.34075277E+03</totfact>
</mgrwt>
</event>
<event>
 4    1  0.3266594E-002  0.1245600E+03  0.7818608E-02  0.1235759E+00
         -4   -1    0    0    0  501 -0.00000000000E+00  0.00000000000E+00  0.10245953984E+02  0.10324363082E+02  0.12700000000E+01 0.  1.
          4   -1    0    0  501    0  0.00000000000E+00 -0.00000000000E+00 -0.37704611379E+03  0.37704825265E+03  0.12700000000E+01 0.  1.
    9000005    1    1    2    0    0 -0.52304871921E+01 -0.45651043575E+02 -0.31410667510E+03  0.31745138071E+03  0.10000000000E+01 0.  0.
    9000005    1    1    2    0    0  0.52304871921E+01  0.45651043575E+02 -0.52693484715E+02  0.69921235023E+02  0.10000000000E+01 0.  0.
<mgrwt>
<rscale>  0 0.12455997E+03</rscale>
<asrwt>0</asrwt>
<pdfrwt beam="2">  1        4 0.58013280E-01 0.12455997E+03</pdfrwt>
<pdfrwt beam="1">  1       -4 0.15824969E-02 0.12455997E+03</pdfrwt>
<totfact> 0.66443434E+03</totfact>
</mgrwt>
</event>
<event>
 5    1  0.3266594E-002  0.1249959E+03  0.7818608E-02  0.1235076E+00
         -4   -1    0    0    0  501 -0.00000000000E+00  0.00000000000E+00  0.24141303444E+02  0.24174685768E+02  0.12700000000E+01 0. -1.
          4   -1    0    0  501    0  0.00000000000E+00 -0.00000000000E+00 -0.16164950980E+03  0.16165449860E+03  0.12700000000E+01 0. -1.
         25    2    1    2    0    0  0.00000000000E+00  0.00000000000E+00 -0.13750820636E+03  0.18582918437E+03  0.12499591573E+03 0.  0.
    9000005    1    3    3    0    0 -0.69385041261E+01 -0.30786557774E+02 -0.14893906497E+03  0.15224913810E+03  0.10000000000E+01 0.  0.
    9000005    1    3    3    0    0  0.69385041261E+01  0.30786557774E+02  0.11430858610E+02  0.33580046272E+02  0.10000000000E+01 0.  0.
<mgrwt>
<rscale>  0 0.12499592E+03</rscale>
<asrwt>0</asrwt>
<pdfrwt beam="2">  1        4 0.24872106E-01 0.12499592E+03</pdfrwt>
<pdfrwt beam="1">  1       -4 0.37169984E-02 0.12499592E+03</pdfrwt>
<totfact> 0.92586604E+03</totfact>
</mgrwt>
</event>
<event>
 5    1  0.3266594E-002  0.1249996E+03  0.7818608E-02  0.1235070E+00
          4   -1    0    0  501    0  0.00000000000E+00  0.00000000000E+00  0.50702011067E+02  0.50717914254E+02  0.12700000000E+01 0.  1.
         -4   -1    0    0    0  501 -0.00000000000E+00 -0.00000000000E+00 -0.77009627554E+02  0.77020098910E+02  0.12700000000E+01 0.  1.
         25    2    1    2    0    0  0.00000000000E+00  0.00000000000E+00 -0.26307616487E+02  0.12773801316E+03  0.12499963729E+03 0.  0.
    9000005    1    3    3    0    0 -0.41233659099E+02  0.46912698405E+02 -0.15250938849E+02  0.64300910181E+02  0.10000000000E+01 0.  0.
    9000005    1    3    3    0    0  0.41233659099E+02 -0.46912698405E+02 -0.11056677638E+02  0.63437102982E+02  0.10000000000E+01 0.  0.
<mgrwt>
<rscale>  0 0.12499964E+03</rscale>
<asrwt>0</asrwt>
<pdfrwt beam="1">  1        4 0.78023382E-02 0.12499964E+03</pdfrwt>
<pdfrwt beam="2">  1       -4 0.11849664E-01 0.12499964E+03</pdfrwt>
<totfact> 0.10393235E+04</totfact>
</mgrwt>
</event>
<event>
 5    1  0.3266594E-002  0.1250004E+03  0.7818608E-02  0.1235069E+00
         -4   -1    0    0    0  501 -0.00000000000E+00  0.00000000000E+00  0.17534781540E+02  0.17580712831E+02  0.12700000000E+01 0. -1.
          4   -1    0    0  501    0  0.00000000000E+00 -0.00000000000E+00 -0.22243392957E+03  0.22243755511E+03  0.12700000000E+01 0. -1.
         25    2    1    2    0    0  0.00000000000E+00  0.00000000000E+00 -0.20489914803E+03  0.24001826795E+03  0.12500043233E+03 0.  0.
    9000005    1    3    3    0    0  0.52690348680E+01 -0.22423193897E+02 -0.21399488327E+03  0.21523329765E+03  0.10000000000E+01 0.  0.
    9000005    1    3    3    0    0 -0.52690348680E+01  0.22423193897E+02  0.90957352354E+01  0.24784970294E+02  0.10000000000E+01 0.  0.
<mgrwt>
<rscale>  0 0.12500043E+03</rscale>
<asrwt>0</asrwt>
<pdfrwt beam="2">  1        4 0.34224415E-01 0.12500043E+03</pdfrwt>
<pdfrwt beam="1">  1       -4 0.27014709E-02 0.12500043E+03</pdfrwt>
<totfact> 0.83793840E+03</totfact>
</mgrwt>
</event>
<event>
 5    1  0.3266594E-002  0.1250007E+03  0.7818608E-02  0.1235068E+00
         -4   -1    0    0    0  501 -0.00000000000E+00  0.00000000000E+00  0.90847276024E+01  0.91730679497E+01  0.12700000000E+01 0.  1.
          4   -1    0    0  501    0  0.00000000000E+00 -0.00000000000E+00 -0.42781473951E+03  0.42781662456E+03  0.12700000000E+01 0.  1.
         25    2    1    2    0    0  0.00000000000E+00  0.00000000000E+00 -0.41873001191E+03  0.43698969251E+03  0.12500067392E+03 0.  0.
    9000005    1    3    3    0    0 -0.34062221401E+02  0.27885949447E+02 -0.54301858272E+02  0.69911035718E+02  0.10000000000E+01 0.  0.
    9000005    1    3    3    0    0  0.34062221401E+02 -0.27885949447E+02 -0.36442815364E+03  0.36707865679E+03  0.10000000000E+01 0.  0.
<mgrwt>
<rscale>  0 0.12500067E+03</rscale>
<asrwt>0</asrwt>
<pdfrwt beam="2">  1        4 0.65824577E-01 0.12500067E+03</pdfrwt>
<pdfrwt beam="1">  1       -4 0.14045911E-02 0.12500067E+03</pdfrwt>
<totfact> 0.61106588E+03</totfact>
</mgrwt>
</event>
<event>
 5    1  0.3266594E-002  0.1250006E+03  0.7818608E-02  0.1235068E+00
         -4   -1    0    0    0  501 -0.00000000000E+00  0.00000000000E+00  0.32097905405E+02  0.32123020272E+02  0.12700000000E+01 0. -1.
          4   -1    0    0  501    0  0.00000000000E+00 -0.00000000000E+00 -0.12162310589E+03  0.12162973644E+03  0.12700000000E+01 0. -1.
         25    2    1    2    0    0  0.00000000000E+00  0.00000000000E+00 -0.89525200487E+02  0.15375275671E+03  0.12500059470E+03 0.  0.
    9000005    1    3    3    0    0  0.14285383123E+02  0.41348807682E+02  0.10128257474E+02  0.44915227564E+02  0.10000000000E+01 0.  0.
    9000005    1    3    3    0    0 -0.14285383123E+02 -0.41348807682E+02 -0.99653457961E+02  0.10883752915E+03  0.10000000000E+01 0.  0.
<mgrwt>
<rscale>  0 0.12500059E+03</rscale>
<asrwt>0</asrwt>
<pdfrwt beam="2">  1        4 0.18713689E-01 0.12500059E+03</pdfrwt>
<pdfrwt beam="1">  1       -4 0.49405813E-02 0.12500059E+03</pdfrwt>
<totfact> 0.98559515E+03</totfact>
</mgrwt>
</event>
<event>
 5    1  0.3266594E-002  0.1250014E+03  0.7818608E-02  0.1235067E+00
         -4   -1    0    0    0  501 -0.00000000000E+00  0.00000000000E+00  0.10876632165E+03  0.10877373592E+03  0.12700000000E+01 0.  1.
          4   -1    0    0  501    0  0.00000000000E+00 -0.00000000000E+00 -0.35895074145E+02  0.35917533989E+02  0.12700000000E+01 0.  1.
         25    2    1    2    0    0  0.00000000000E+00  0.00000000000E+00  0.72871247504E+02  0.14469126990E+03  0.12500137949E+03 0.  0.
    9000005    1    3    3    0    0  0.36956703862E+02  0.41906131189E+02  0.40372430029E+01  0.56028752642E+02  0.10000000000E+01 0.  0.
    9000005    1    3    3    0    0 -0.36956703862E+02 -0.41906131189E+02  0.68834004501E+02  0.88662517262E+02  0.10000000000E+01 0.  0.
<mgrwt>
<rscale>  0 0.12500138E+03</rscale>
<asrwt>0</asrwt>
<pdfrwt beam="2">  1        4 0.55246171E-02 0.12500138E+03</pdfrwt>
<pdfrwt beam="1">  1       -4 0.16735578E-01 0.12500138E+03</pdfrwt>
<totfact> 0.10036953E+04</totfact>
</mgrwt>
</event>
<event>
 5    1  0.3266594E-002  0.1249951E+03  0.7818608E-02  0.1235077E+00
          4   -1    0    0  501    0  0.00000000000E+00  0.00000000000E+00  0.35504291229E+02  0.35526998123E+02  0.12700000000E+01 0. -1.
         -4   -1    0    0    0  501 -0.00000000000E+00 -0.00000000000E+00 -0.10995175172E+03  0.10995908606E+03  0.12700000000E+01 0. -1.
         25    2    1    2    0    0  0.00000000000E+00  0.00000000000E+00 -0.74447460493E+02  0.14548608418E+03  0.12499510517E+03 0.  0.
    9000005    1    3    3    0    0 -0.26960798379E+02 -0.19854160828E+02  0.24188243946E+02  0.41317593064E+02  0.10000000000E+01 0.  0.
    9000005    1    3    3    0    0  0.26960798379E+02  0.19854160828E+02 -0.98635704439E+02  0.10416849112E+03  0.10000000000E+01 0.  0.
<mgrwt>
<rscale>  0 0.12499511E+03</rscale>
<asrwt>0</asrwt>
<pdfrwt beam="1">  1        4 0.54645096E-02 0.12499511E+03</pdfrwt>
<pdfrwt beam="2">  1       -4 0.16917965E-01 0.12499511E+03</pdfrwt>
<totfact> 0.10022226E+04</totfact>
</mgrwt>
</event>
<event>
 5    1  0.3266594E-002  0.1250037E+03  0.7818608E-02  0.1235064E+00
          4   -1    0    0  501    0  0.00000000000E+00  0.00000000000E+00  0.29471954710E+02  0.29499305321E+02  0.12700000000E+01 0. -1.
         -4   -1    0    0    0  501 -0.00000000000E+00 -0.00000000000E+00 -0.13245721618E+03  0.13246330442E+03  0.12700000000E+01 0. -1.
         25    2    1    2    0    0  0.00000000000E+00  0.00000000000E+00 -0.10298526147E+03  0.16196260975E+03  0.12500369145E+03 0.  0.
    9000005    1    3    3    0    0  0.36811142989E+02  0.99557034297E+01  0.12656467205E+02  0.40191571766E+02  0.10000000000E+01 0.  0.
    9000005    1    3    3    0    0 -0.36811142989E+02 -0.99557034297E+01 -0.11564172868E+03  0.12177103798E+03  0.10000000000E+01 0.  0.
<mgrwt>
<rscale>  0 0.12500369E+03</rscale>
<asrwt>0</asrwt>
<pdfrwt beam="1">  1        4 0.45367192E-02 0.12500369E+03</pdfrwt>
<pdfrwt beam="2">  1       -4 0.20380605E-01 0.12500369E+03</pdfrwt>
<totfact> 0.96957695E+03</totfact>
</mgrwt>
</event>
<event>
 5    1  0.3266594E-002  0.1249985E+03  0.7818608E-02  0.1235072E+00
         -4   -1    0    0    0  501 -0.00000000000E+00  0.00000000000E+00  0.14712922107E+02  0.14767632746E+02  0.12700000000E+01 0.  1.
          4   -1    0    0  501    0  0.00000000000E+00 -0.00000000000E+00 -0.26494240832E+03  0.26494545217E+03  0.12700000000E+01 0.  1.
         25    2    1    2    0    0  0.00000000000E+00  0.00000000000E+00 -0.25022948621E+03  0.27971308492E+03  0.12499845640E+03 0.  0.
    9000005    1    3    3    0    0  0.57669384378E+02  0.14270218160E+02 -0.16849193033E+03  0.17866148888E+03  0.10000000000E+01 0.  0.
    9000005    1    3    3    0    0 -0.57669384378E+02 -0.14270218160E+02 -0.81737555885E+02  0.10105159604E+03  0.10000000000E+01 0.  0.
<mgrwt>
<rscale>  0 0.12499846E+03</rscale>
<asrwt>0</asrwt>
<pdfrwt beam="2">  1        4 0.40764810E-01 0.12499846E+03</pdfrwt>
<pdfrwt beam="1">  1       -4 0.22679693E-02 0.12499846E+03</pdfrwt>
<totfact> 0.78218849E+03</totfact>
</mgrwt>
</event>
<event>
 5    1  0.3266594E-002  0.1249991E+03  0.7818608E-02  0.1235071E+00
          4   -1    0    0  501    0  0.00000000000E+00  0.00000000000E+00  0.49219820343E+03  0.49219984190E+03  0.12700000000E+01 0.  1.
         -4   -1    0    0    0  501 -0.00000000000E+00 -0.00000000000E+00 -0.78837478159E+01  0.79853853774E+01  0.12700000000E+01 0.  1.
         25    2    1    2    0    0  0.00000000000E+00  0.00000000000E+00  0.48431445562E+03  0.50018522727E+03  0.12499907865E+03 0.  0.
    9000005    1    3    3    0    0  0.26001760277E+02  0.52535584009E+02  0.15548840098E+03  0.16617377039E+03  0.10000000000E+01 0.  0.
    9000005    1    3    3    0    0 -0.26001760277E+02 -0.52535584009E+02  0.32882605464E+03  0.33401145689E+03  0.10000000000E+01 0.  0.
<mgrwt>
<rscale>  0 0.12499908E+03</rscale>
<asrwt>0</asrwt>
<pdfrwt beam="1">  1        4 0.75730754E-01 0.12499908E+03</pdfrwt>
<pdfrwt beam="2">  1       -4 0.12208284E-02 0.12499908E+03</pdfrwt>
<totfact> 0.55851124E+03</totfact>
</mgrwt>
</event>
<event>
 5    1  0.3266594E-002  0.1249989E+03  0.7818608E-02  0.1235071E+00
         -4   -1    0    0    0  501 -0.00000000000E+00  0.00000000000E+00  0.10378853124E+02  0.10456265689E+02  0.12700000000E+01 0.  1.
          4   -1    0    0  501    0  0.00000000000E+00 -0.00000000000E+00 -0.37488291629E+03  0.37488506749E+03  0.12700000000E+01 0.  1.
         25    2    1    2    0    0  0.00000000000E+00  0.00000000000E+00 -0.36450406317E+03  0.38534133318E+03  0.12499892396E+03 0.  0.
    9000005    1    3    3    0    0  0.48192462221E+02  0.11996953486E+02 -0.65320712633E+02  0.82062389721E+02  0.10000000000E+01 0.  0.
    9000005    1    3    3    0    0 -0.48192462221E+02 -0.11996953486E+02 -0.29918335054E+03  0.30327894346E+03  0.10000000000E+01 0.  0.
<mgrwt>
<rscale>  0 0.12499892E+03</rscale>
<asrwt>0</asrwt>
<pdfrwt beam="2">  1        4 0.57680405E-01 0.12499892E+03</pdfrwt>
<pdfrwt beam="1">  1       -4 0.16028672E-02 0.12499892E+03</pdfrwt>
<totfact> 0.66005461E+03</totfact>
</mgrwt>
</event>
<event>
 5    1  0.3266594E-002  0.1250017E+03  0.7818608E-02  0.1235067E+00
          4   -1    0    0  501    0  0.00000000000E+00  0.00000000000E+00  0.27771356067E+03  0.27771646455E+03  0.12700000000E+01 0.  1.
         -4   -1    0    0    0  501 -0.00000000000E+00 -0.00000000000E+00 -0.14034486581E+02  0.14091831449E+02  0.12700000000E+01 0.  1.
         25    2    1    2    0    0  0.00000000000E+00  0.00000000000E+00  0.26367907409E+03  0.29180829600E+03  0.12500170999E+03 0.  0.
    9000005    1    3    3    0    0 -0.60599196232E+02 -0.21783099022E+01  0.16711571150E+03  0.17777983195E+03  0.10000000000E+01 0.  0.
    9000005    1    3    3    0    0  0.60599196232E+02  0.21783099022E+01  0.96563362587E+02  0.11402846404E+03  0.10000000000E+01 0.  0.
<mgrwt>
<rscale>  0 0.12500171E+03</rscale>
<asrwt>0</asrwt>
<pdfrwt beam="1">  1        4 0.42729797E-01 0.12500171E+03</pdfrwt>
<pdfrwt beam="2">  1       -4 0.21637863E-02 0.12500171E+03</pdfrwt>
<totfact> 0.76635104E+03</totfact>
</mgrwt>
</event>
<event>
 5    1  0.3266594E-002  0.1250000E+03  0.7818608E-02  0.1235069E+00
         -4   -1    0    0    0  501 -0.00000000000E+00  0.00000000000E+00  0.14009760846E+02  0.14067206509E+02  0.12700000000E+01 0. -1.
          4   -1    0    0  501    0  0.00000000000E+00 -0.00000000000E+00 -0.27819388411E+03  0.27819678298E+03  0.12700000000E+01 0. -1.
         25    2    1    2    0    0  0.00000000000E+00  0.00000000000E+00 -0.26418412327E+03  0.29226398949E+03  0.12499995425E+03 0.  0.
    9000005    1    3    3    0    0  0.49186891738E+02 -0.38375358733E+02 -0.14059606546E+03  0.15381895885E+03  0.10000000000E+01 0.  0.
    9000005    1    3    3    0    0 -0.49186891738E+02  0.38375358733E+02 -0.12358805780E+03  0.13844503064E+03  0.10000000000E+01 0.  0.
<mgrwt>
<rscale>  0 0.12499995E+03</rscale>
<asrwt>0</asrwt>
<pdfrwt beam="2">  1        4 0.42803697E-01 0.12499995E+03</pdfrwt>
<pdfrwt beam="1">  1       -4 0.21599899E-02 0.12499995E+03</pdfrwt>
<totfact> 0.76579670E+03</totfact>
</mgrwt>
</event>
<event>
 5    1  0.3266594E-002  0.1250006E+03  0.7818608E-02  0.1235068E+00
         -4   -1    0    0    0  501 -0.00000000000E+00  0.00000000000E+00  0.24660713229E+03  0.24661040244E+03  0.12700000000E+01 0.  1.
          4   -1    0    0  501    0  0.00000000000E+00 -0.00000000000E+00 -0.15811285815E+02  0.15862208520E+02  0.12700000000E+01 0.  1.
         25    2    1    2    0    0  0.00000000000E+00  0.00000000000E+00  0.23079584647E+03  0.26247261096E+03  0.12500059503E+03 0.  0.
    9000005    1    3    3    0    0 -0.60586769428E+02  0.10155573196E+02  0.91328751055E+02  0.11007194495E+03  0.10000000000E+01 0.  0.
    9000005    1    3    3    0    0  0.60586769428E+02 -0.10155573196E+02  0.13946709542E+03  0.15240066601E+03  0.10000000000E+01 0.  0.
<mgrwt>
<rscale>  0 0.12500060E+03</rscale>
<asrwt>0</asrwt>
<pdfrwt beam="2">  1        4 0.24366744E-02 0.12500060E+03</pdfrwt>
<pdfrwt beam="1">  1       -4 0.37943724E-01 0.12500060E+03</pdfrwt>
<totfact> 0.80559247E+03</totfact>
</mgrwt>
</event>
<event>
 5    1  0.3266594E-002  0.1250018E+03  0.7818608E-02  0.1235066E+00
         -4   -1    0    0    0  501 -0.00000000000E+00  0.00000000000E+00  0.37697521495E+03  0.37697735421E+03  0.12700000000E+01 0.  1.
          4   -1    0    0  501    0  0.00000000000E+00 -0.00000000000E+00 -0.10321294312E+02  0.10399135362E+02  0.12700000000E+01 0.  1.
         25    2    1    2    0    0  0.00000000000E+00  0.00000000000E+00  0.36665392064E+03  0.38737648957E+03  0.12500178860E+03 0.  0.
    9000005    1    3    3    0    0 -0.40184207229E+02  0.42370058064E+01  0.33106157552E+03  0.33351984876E+03  0.10000000000E+01 0.  0.
    9000005    1    3    3    0    0  0.40184207229E+02 -0.42370058064E+01  0.35592345118E+02  0.53856640815E+02  0.10000000000E+01 0.  0.
<mgrwt>
<rscale>  0 0.12500179E+03</rscale>
<asrwt>0</asrwt>
<pdfrwt beam="2">  1        4 0.15940437E-02 0.12500179E+03</pdfrwt>
<pdfrwt beam="1">  1       -4 0.58002341E-01 0.12500179E+03</pdfrwt>
<totfact> 0.65796734E+03</totfact>
</mgrwt>
</event>
<event>
 5    1  0.3266594E-002  0.1249949E+03  0.7818608E-02  0.1235077E+00
          4   -1    0    0  501    0  0.00000000000E+00  0.00000000000E+00  0.24660713458E+02  0.24693393616E+02  0.12700000000E+01 0.  1.
         -4   -1    0    0    0  501 -0.00000000000E+00 -0.00000000000E+00 -0.15824672834E+03  0.15825182441E+03  0.12700000000E+01 0.  1.
         25    2    1    2    0    0  0.00000000000E+00  0.00000000000E+00 -0.13358601488E+03  0.18294521803E+03  0.12499491761E+03 0.  0.
    9000005    1    3    3    0    0 -0.49470664691E+02  0.28171519807E+02 -0.10450650195E+03  0.11901088245E+03  0.10000000000E+01 0.  0.
    9000005    1    3    3    0    0  0.49470664691E+02 -0.28171519807E+02 -0.29079512935E+02  0.63934335577E+02  0.10000000000E+01 0.  0.
<mgrwt>
<rscale>  0 0.12499492E+03</rscale>
<asrwt>0</asrwt>
<pdfrwt beam="1">  1        4 0.37968619E-02 0.12499492E+03</pdfrwt>
<pdfrwt beam="2">  1       -4 0.24348556E-01 0.12499492E+03</pdfrwt>
<totfact> 0.93100131E+03</totfact>
</mgrwt>
</event>
<event>
 5    1  0.3266594E-002  0.1249962E+03  0.7818608E-02  0.1235075E+00
          4   -1    0    0  501    0  0.00000000000E+00  0.00000000000E+00  0.11538136572E+03  0.11538835494E+03  0.12700000000E+01 0. -1.
         -4   -1    0    0    0  501 -0.00000000000E+00 -0.00000000000E+00 -0.33833146682E+02  0.33856974383E+02  0.12700000000E+01 0. -1.
         25    2    1    2    0    0  0.00000000000E+00  0.00000000000E+00  0.81548219038E+02  0.14924532932E+03  0.12499622513E+03 0.  0.
    9000005    1    3    3    0    0  0.41287610372E+02 -0.45522562255E+02  0.54284964705E+02  0.82005047634E+02  0.10000000000E+01 0.  0.
    9000005    1    3    3    0    0 -0.41287610372E+02  0.45522562255E+02  0.27263254333E+02  0.67240281687E+02  0.10000000000E+01 0.  0.
<mgrwt>
<rscale>  0 0.12499623E+03</rscale>
<asrwt>0</asrwt>
<pdfrwt beam="1">  1        4 0.17753350E-01 0.12499623E+03</pdfrwt>
<pdfrwt beam="2">  1       -4 0.52074701E-02 0.12499623E+03</pdfrwt>
<totfact> 0.99462794E+03</totfact>
</mgrwt>
</event>
<event>
 5    1  0.3266594E-002  0.1250002E+03  0.7818608E-02  0.1235069E+00
          4   -1    0    0  501    0  0.00000000000E+00  0.00000000000E+00  0.51732605530E+03  0.51732761418E+03  0.12700000000E+01 0.  1.
         -4   -1    0    0    0  501 -0.00000000000E+00 -0.00000000000E+00 -0.74958892391E+01  0.76027136921E+01  0.12700000000E+01 0.  1.
         25    2    1    2    0    0  0.00000000000E+00  0.00000000000E+00  0.50983016606E+03  0.52493032787E+03  0.12500020357E+03 0.  0.
    9000005    1    3    3    0    0 -0.29571296802E+02  0.53723146428E+02  0.20441266992E+03  0.21341550478E+03  0.10000000000E+01 0.  0.
    9000005    1    3    3    0    0  0.29571296802E+02 -0.53723146428E+02  0.30541749614E+03  0.31151482309E+03  0.10000000000E+01 0.  0.
<mgrwt>
<rscale>  0 0.12500020E+03</rscale>
<asrwt>0</asrwt>
<pdfrwt beam="1">  1        4 0.79596951E-01 0.12500020E+03</pdfrwt>
<pdfrwt beam="2">  1       -4 0.11615511E-02 0.12500020E+03</pdfrwt>
<totfact> 0.53980427E+03</totfact>
</mgrwt>
</event>
<event>
 5    1  0.3266594E-002  0.1249943E+03  0.7818608E-02  0.1235078E+00
          4   -1    0    0  501    0  0.00000000000E+00  0.00000000000E+00  0.30081147007E+03  0.30081415097E+03  0.12700000000E+01 0.  1.
         -4   -1    0    0    0  501 -0.00000000000E+00 -0.00000000000E+00 -0.12950719288E+02  0.13012840969E+02  0.12700000000E+01 0.  1.
         25    2    1    2    0    0  0.00000000000E+00  0.00000000000E+00  0.28786075078E+03  0.31382699194E+03  0.12499427599E+03 0.  0.
    9000005    1    3    3    0    0 -0.23264649791E+02 -0.38894219516E+02  0.35913840680E+02  0.57834316751E+02  0.10000000000E+01 0.  0.
    9000005    1    3    3    0    0  0.23264649791E+02  0.38894219516E+02  0.25194691010E+03  0.25599267519E+03  0.10000000000E+01 0.  0.
<mgrwt>
<rscale>  0 0.12499428E+03</rscale>
<asrwt>0</asrwt>
<pdfrwt beam="1">  1        4 0.46283672E-01 0.12499428E+03</pdfrwt>
<pdfrwt beam="2">  1       -4 0.19974032E-02 0.12499428E+03</pdfrwt>
<totfact> 0.73905768E+03</totfact>
</mgrwt>
</event>
<event>
 5    1  0.3266594E-002  0.1250030E+03  0.7818608E-02  0.1235065E+00
         -4   -1    0    0    0  501 -0.00000000000E+00  0.00000000000E+00  0.49340876990E+02  0.49357218744E+02  0.12700000000E+01 0.  1.
          4   -1    0    0  501    0  0.00000000000E+00 -0.00000000000E+00 -0.79137874711E+02  0.79148064498E+02  0.12700000000E+01 0.  1.
         25    2    1    2    0    0  0.00000000000E+00  0.00000000000E+00 -0.29796997721E+02  0.12850528324E+03  0.12500298696E+03 0.  0.
    9000005    1    3    3    0    0  0.39364190966E+01  0.61365714083E+02 -0.34421916164E+01  0.61596225074E+02  0.10000000000E+01 0.  0.
    9000005    1    3    3    0    0 -0.39364190966E+01 -0.61365714083E+02 -0.26354806104E+02  0.66909058169E+02  0.10000000000E+01 0.  0.
<mgrwt>
<rscale>  0 0.12500299E+03</rscale>
<asrwt>0</asrwt>
<pdfrwt beam="2">  1        4 0.12177099E-01 0.12500299E+03</pdfrwt>
<pdfrwt beam="1">  1       -4 0.75929450E-02 0.12500299E+03</pdfrwt>
<totfact> 0.10375890E+04</totfact>
</mgrwt>
</event>
<event>
 4    1  0.3266594E-002  0.1249301E+03  0.7818608E-02  0.1235179E+00
          4   -1    0    0  501    0  0.00000000000E+00  0.00000000000E+00  0.23927849615E+03  0.23928186647E+03  0.12700000000E+01 0.  1.
         -4   -1    0    0    0  501 -0.00000000000E+00 -0.00000000000E+00 -0.16278640721E+02  0.16328105944E+02  0.12700000000E+01 0.  1.
    9000005    1    1    2    0    0  0.37026085083E+02 -0.22113431331E+02  0.19067035040E+02  0.47164463816E+02  0.10000000000E+01 0.  0.
    9000005    1    1    2    0    0 -0.37026085083E+02  0.22113431331E+02  0.20393282039E+03  0.20844550860E+03  0.10000000000E+01 0.  0.
<mgrwt>
<rscale>  0 0.12493007E+03</rscale>
<asrwt>0</asrwt>
<pdfrwt beam="1">  1        4 0.36816142E-01 0.12493007E+03</pdfrwt>
<pdfrwt beam="2">  1       -4 0.25084705E-02 0.12493007E+03</pdfrwt>
<totfact> 0.81653188E+03</totfact>
</mgrwt>
</event>
<event>
 5    1  0.3266594E-002  0.1250014E+03  0.7818608E-02  0.1235067E+00
          4   -1    0    0  501    0  0.00000000000E+00  0.00000000000E+00  0.61798578666E+02  0.61811626941E+02  0.12700000000E+01 0. -1.
         -4   -1    0    0    0  501 -0.00000000000E+00 -0.00000000000E+00 -0.63184745825E+02  0.63197507901E+02  0.12700000000E+01 0. -1.
         25    2    1    2    0    0  0.00000000000E+00  0.00000000000E+00 -0.13861671587E+01  0.12500913484E+03  0.12500144933E+03 0.  0.
    9000005    1    3    3    0    0 -0.13581495536E+02  0.59847580852E+02 -0.12490021331E+02  0.62635378083E+02  0.10000000000E+01 0.  0.
    9000005    1    3    3    0    0  0.13581495536E+02 -0.59847580852E+02  0.11103854173E+02  0.62373756759E+02  0.10000000000E+01 0.  0.
<mgrwt>
<rscale>  0 0.12500145E+03</rscale>
<asrwt>0</asrwt>
<pdfrwt beam="1">  1        4 0.95094590E-02 0.12500145E+03</pdfrwt>
<pdfrwt beam="2">  1       -4 0.97227156E-02 0.12500145E+03</pdfrwt>
<totfact> 0.10452322E+04</totfact>
</mgrwt>
</event>
<event>
 5    1  0.3266594E-002  0.1250015E+03  0.7818608E-02  0.1235067E+00
         -4   -1    0    0    0  501 -0.00000000000E+00  0.00000000000E+00  0.11102742263E+03  0.11103468592E+03  0.12700000000E+01 0. -1.
          4   -1    0    0  501    0  0.00000000000E+00 -0.00000000000E+00 -0.35163713627E+02  0.35186640306E+02  0.12700000000E+01 0. -1.
         25    2    1    2    0    0  0.00000000000E+00  0.00000000000E+00  0.75863709006E+02  0.14622132622E+03  0.12500149558E+03 0.  0.
    9000005    1    3    3    0    0 -0.13288271044E+02 -0.23121394874E+01  0.10931020121E+03  0.11014374347E+03  0.10000000000E+01 0.  0.
    9000005    1    3    3    0    0  0.13288271044E+02  0.23121394874E+01 -0.33446492207E+02  0.36077582753E+02  0.10000000000E+01 0.  0.
<mgrwt>
<rscale>  0 0.12500150E+03</rscale>
<asrwt>0</asrwt>
<pdfrwt beam="2">  1        4 0.54121244E-02 0.12500150E+03</pdfrwt>
<pdfrwt beam="1">  1       -4 0.17083464E-01 0.12500150E+03</pdfrwt>
<totfact> 0.10005896E+04</totfact>
</mgrwt>
</event>
<event>
 5    1  0.3266594E-002  0.1249984E+03  0.7818608E-02  0.1235072E+00
          4   -1    0    0  501    0  0.00000000000E+00  0.00000000000E+00  0.10123454997E+03  0.10124251581E+03  0.12700000000E+01 0.  1.
         -4   -1    0    0    0  501 -0.00000000000E+00 -0.00000000000E+00 -0.38565205840E+02  0.38586111510E+02  0.12700000000E+01 0.  1.
         25    2    1    2    0    0  0.00000000000E+00  0.00000000000E+00  0.62669344125E+02  0.13982862732E+03  0.12499839329E+03 0.  0.
    9000005    1    3    3    0    0 -0.28953164377E+02 -0.54269575477E+02  0.43674126702E+02  0.75444694267E+02  0.10000000000E+01 0.  0.
    9000005    1    3    3    0    0  0.28953164377E+02  0.54269575477E+02  0.18995217423E+02  0.64383933049E+02  0.10000000000E+01 0.  0.
<mgrwt>
<rscale>  0 0.12499839E+03</rscale>
<asrwt>0</asrwt>
<pdfrwt beam="1">  1        4 0.15576767E-01 0.12499839E+03</pdfrwt>
<pdfrwt beam="2">  1       -4 0.59353295E-02 0.12499839E+03</pdfrwt>
<totfact> 0.10137506E+04</totfact>
</mgrwt>
</event>
<event>
 5    1  0.3266594E-002  0.1249905E+03  0.7818608E-02  0.1235084E+00
         -4   -1    0    0    0  501 -0.00000000000E+00  0.00000000000E+00  0.42456597692E+03  0.42456787639E+03  0.12700000000E+01 0.  1.
          4   -1    0    0  501    0  0.00000000000E+00 -0.00000000000E+00 -0.91534053911E+01  0.92410892353E+01  0.12700000000E+01 0.  1.
         25    2    1    2    0    0  0.00000000000E+00  0.00000000000E+00  0.41541257153E+03  0.43380896562E+03  0.12499045591E+03 0.  0.
    9000005    1    3    3    0    0 -0.42761618621E+02  0.20491792647E+02  0.34895221940E+03  0.35216064661E+03  0.10000000000E+01 0.  0.
    9000005    1    3    3    0    0  0.42761618621E+02 -0.20491792647E+02  0.66460352129E+02  0.81648319016E+02  0.10000000000E+01 0.  0.
<mgrwt>
<rscale>  0 0.12499046E+03</rscale>
<asrwt>0</asrwt>
<pdfrwt beam="2">  1        4 0.14151074E-02 0.12499046E+03</pdfrwt>
<pdfrwt beam="1">  1       -4 0.65324725E-01 0.12499046E+03</pdfrwt>
<totfact> 0.61405165E+03</totfact>
</mgrwt>
</event>
<event>
 5    1  0.3266594E-002  0.1250015E+03  0.7818608E-02  0.1235067E+00
         -4   -1    0    0    0  501 -0.00000000000E+00  0.00000000000E+00  0.93142141852E+01  0.94003981771E+01  0.12700000000E+01 0. -1.
          4   -1    0    0  501    0  0.00000000000E+00 -0.00000000000E+00 -0.41737710606E+03  0.41737903824E+03  0.12700000000E+01 0. -1.
         25    2    1    2    0    0  0.00000000000E+00  0.00000000000E+00 -0.40806289188E+03  0.42677943642E+03  0.12500145449E+03 0.  0.
    9000005    1    3    3    0    0 -0.10347822493E+02 -0.50572898275E+02 -0.32428897061E+03  0.32837331184E+03  0.10000000000E+01 0.  0.
    9000005    1    3    3    0    0  0.10347822493E+02  0.50572898275E+02 -0.83773921268E+02  0.98406124580E+02  0.10000000000E+01 0.  0.
<mgrwt>
<rscale>  0 0.12500145E+03</rscale>
<asrwt>0</asrwt>
<pdfrwt beam="2">  1        4 0.64218626E-01 0.12500145E+03</pdfrwt>
<pdfrwt beam="1">  1       -4 0.14397345E-02 0.12500145E+03</pdfrwt>
<totfact> 0.62027021E+03</totfact>
</mgrwt>
</event>
<event>
 5    1  0.3266594E-002  0.1250021E+03  0.7818608E-02  0.1235066E+00
         -4   -1    0    0    0  501 -0.00000000000E+00  0.00000000000E+00  0.79390080715E+02  0.79400238135E+02  0.12700000000E+01 0. -1.
          4   -1    0    0  501    0  0.00000000000E+00 -0.00000000000E+00 -0.49183380916E+02  0.49199774983E+02  0.12700000000E+01 0. -1.
         25    2    1    2    0    0  0.00000000000E+00  0.00000000000E+00  0.30206699799E+02  0.12860001312E+03  0.12500207463E+03 0.  0.
    9000005    1    3    3    0    0 -0.99064172420E+01 -0.48683506276E+02  0.54104388105E+02  0.73460912723E+02  0.10000000000E+01 0.  0.
    9000005    1    3    3    0    0  0.99064172420E+01  0.48683506276E+02 -0.23897688306E+02  0.55139100395E+02  0.10000000000E+01 0.  0.
<mgrwt>
<rscale>  0 0.12500207E+03</rscale>
<asrwt>0</asrwt>
<pdfrwt beam="2">  1        4 0.75687164E-02 0.12500207E+03</pdfrwt>
<pdfrwt beam="1">  1       -4 0.12215901E-01 0.12500207E+03</pdfrwt>
<totfact> 0.10374064E+04</totfact>
</mgrwt>
</event>
<event>
 5    1  0.3266594E-002  0.1249969E+03  0.7818608E-02  0.1235074E+00
          4   -1    0    0  501    0  0.00000000000E+00  0.00000000000E+00  0.19658495292E+03  0.19658905517E+03  0.12700000000E+01 0.  1.
         -4   -1    0    0    0  501 -0.00000000000E+00 -0.00000000000E+00 -0.19844944305E+02  0.19885540337E+02  0.12700000000E+01 0.  1.
         25    2    1    2    0    0  0.00000000000E+00  0.00000000000E+00  0.17674000861E+03  0.21647459551E+03  0.12499687939E+03 0.  0.
    9000005    1    3    3    0    0 -0.46980223946E+02 -0.37520386039E+02  0.11786899751E+03  0.13232165879E+03  0.10000000000E+01 0.  0.
    9000005    1    3    3    0    0  0.46980223946E+02  0.37520386039E+02  0.58871011102E+02  0.84152936721E+02  0.10000000000E+01 0.  0.
<mgrwt>
<rscale>  0 0.12499688E+03</rscale>
<asrwt>0</asrwt>
<pdfrwt beam="1">  1        4 0.30247278E-01 0.12499688E+03</pdfrwt>
<pdfrwt beam="2">  1       -4 0.30565066E-02 0.12499688E+03</pdfrwt>
<totfact> 0.87435386E+03</totfact>
</mgrwt>
</event>
<event>
 5    1  0.3266594E-002  0.1249979E+03  0.7818608E-02  0.1235073E+00
          4   -1    0    0  501    0  0.00000000000E+00  0.00000000000E+00  0.22707598625E+02  0.22743085440E+02  0.12700000000E+01 0.  1.
         -4   -1    0    0    0  501 -0.00000000000E+00 -0.00000000000E+00 -0.17184608625E+03  0.17185077905E+03  0.12700000000E+01 0.  1.
         25    2    1    2    0    0  0.00000000000E+00  0.00000000000E+00 -0.14913848763E+03  0.19459386449E+03  0.12499793441E+03 0.  0.
    9000005    1    3    3    0    0 -0.31540525277E-02 -0.58350344532E+02 -0.39746193477E+02  0.70608233322E+02  0.10000000000E+01 0.  0.
    9000005    1    3    3    0    0  0.31540525277E-02  0.58350344532E+02 -0.10939229415E+03  0.12398563117E+03  0.10000000000E+01 0.  0.
<mgrwt>
<rscale>  0 0.12499793E+03</rscale>
<asrwt>0</asrwt>
<pdfrwt beam="1">  1        4 0.34965676E-02 0.12499793E+03</pdfrwt>
<pdfrwt beam="2">  1       -4 0.26440949E-01 0.12499793E+03</pdfrwt>
<totfact> 0.91058296E+03</totfact>
</mgrwt>
</event>
<event>
 5    1  0.3266594E-002  0.1249976E+03  0.7818608E-02  0.1235073E+00
          4   -1    0    0  501    0  0.00000000000E+00  0.00000000000E+00  0.50447650492E+02  0.50463633838E+02  0.12700000000E+01 0. -1.
         -4   -1    0    0    0  501 -0.00000000000E+00 -0.00000000000E+00 -0.77395302955E+02  0.77405722136E+02  0.12700000000E+01 0. -1.
         25    2    1    2    0    0  0.00000000000E+00  0.00000000000E+00 -0.26947652463E+02  0.12786935597E+03  0.12499758487E+03 0.  0.
    9000005    1    3    3    0    0  0.43927821044E+02  0.42746215200E+02 -0.10201163079E+01  0.61310137929E+02  0.10000000000E+01 0.  0.
    9000005    1    3    3    0    0 -0.43927821044E+02 -0.42746215200E+02 -0.25927536155E+02  0.66559218045E+02  0.10000000000E+01 0.  0.
<mgrwt>
<rscale>  0 0.12499758E+03</rscale>
<asrwt>0</asrwt>
<pdfrwt beam="1">  1        4 0.77632079E-02 0.12499758E+03</pdfrwt>
<pdfrwt beam="2">  1       -4 0.11909001E-01 0.12499758E+03</pdfrwt>
<totfact> 0.10390876E+04</totfact>
</mgrwt>
</event>
<event>
 5    1  0.3266594E-002  0.1250003E+03  0.7818608E-02  0.1235069E+00
          4   -1    0    0  501    0  0.00000000000E+00  0.00000000000E+00  0.12096378699E+03  0.12097045367E+03  0.12700000000E+01 0.  1.
         -4   -1    0    0    0  501 -0.00000000000E+00 -0.00000000000E+00 -0.32272840862E+02  0.32297819699E+02  0.12700000000E+01 0.  1.
         25    2    1    2    0    0  0.00000000000E+00  0.00000000000E+00  0.88690946124E+02  0.15326827337E+03  0.12500031879E+03 0.  0.
    9000005    1    3    3    0    0 -0.12446594591E+02  0.39902817625E+02  0.10130661309E+03  0.10959554018E+03  0.10000000000E+01 0.  0.
    9000005    1    3    3    0    0  0.12446594591E+02 -0.39902817625E+02 -0.12615666970E+02  0.43672733191E+02  0.10000000000E+01 0.  0.
<mgrwt>
<rscale>  0 0.12500032E+03</rscale>
<asrwt>0</asrwt>
<pdfrwt beam="1">  1        4 0.18612248E-01 0.12500032E+03</pdfrwt>
<pdfrwt beam="2">  1       -4 0.49674867E-02 0.12500032E+03</pdfrwt>
<totfact> 0.98655453E+03</totfact>
</mgrwt>
</event>
<event>
 5    1  0.3266594E-002  0.1250011E+03  0.7818608E-02  0.1235068E+00
         -4   -1    0    0    0  501 -0.00000000000E+00  0.00000000000E+00  0.65597436061E+02  0.65609728834E+02  0.12700000000E+01 0. -1.
          4   -1    0    0  501    0  0.00000000000E+00 -0.00000000000E+00 -0.59525260116E+02  0.59538806605E+02  0.12700000000E+01 0. -1.
         25    2    1    2    0    0  0.00000000000E+00  0.00000000000E+00  0.60721759443E+01  0.12514853544E+03  0.12500113840E+03 0.  0.
    9000005    1    3    3    0    0  0.19888228672E+02 -0.31821520965E+02 -0.46994532060E+02  0.60146794427E+02  0.10000000000E+01 0.  0.
    9000005    1    3    3    0    0 -0.19888228672E+02  0.31821520965E+02  0.53066708004E+02  0.65001741013E+02  0.10000000000E+01 0.  0.
<mgrwt>
<rscale>  0 0.12500114E+03</rscale>
<asrwt>0</asrwt>
<pdfrwt beam="2">  1        4 0.91597199E-02 0.12500114E+03</pdfrwt>
<pdfrwt beam="1">  1       -4 0.10093901E-01 0.12500114E+03</pdfrwt>
<totfact> 0.10449368E+04</totfact>
</mgrwt>
</event>
<event>
 5    1  0.3266594E-002  0.1249983E+03  0.7818608E-02  0.1235072E+00
         -4   -1    0    0    0  501 -0.00000000000E+00  0.00000000000E+00  0.20055448538E+03  0.20055850644E+03  0.12700000000E+01 0. -1.
          4   -1    0    0  501    0  0.00000000000E+00 -0.00000000000E+00 -0.19451787775E+02  0.19493202601E+02  0.12700000000E+01 0. -1.
         25    2    1    2    0    0  0.00000000000E+00  0.00000000000E+00  0.18110269761E+03  0.22005170904E+03  0.12499827028E+03 0.  0.
    9000005    1    3    3    0    0  0.27183943603E+02 -0.28131155494E+02  0.17634111202E+03  0.18063088464E+03  0.10000000000E+01 0.  0.
    9000005    1    3    3    0    0 -0.27183943603E+02  0.28131155494E+02  0.47615855903E+01  0.39420824402E+02  0.10000000000E+01 0.  0.
<mgrwt>
<rscale>  0 0.12499827E+03</rscale>
<asrwt>0</asrwt>
<pdfrwt beam="2">  1        4 0.29960780E-02 0.12499827E+03</pdfrwt>
<pdfrwt beam="1">  1       -4 0.30858029E-01 0.12499827E+03</pdfrwt>
<totfact> 0.86863525E+03</totfact>
</mgrwt>
</event>
<event>
 5    1  0.3266594E-002  0.1250002E+03  0.7818608E-02  0.1235069E+00
          4   -1    0    0  501    0  0.00000000000E+00  0.00000000000E+00  0.17656390671E+03  0.17656847412E+03  0.12700000000E+01 0. -1.
         -4   -1    0    0    0  501 -0.00000000000E+00 -0.00000000000E+00 -0.22100707556E+02  0.22137167264E+02  0.12700000000E+01 0. -1.
         25    2    1    2    0    0  0.00000000000E+00  0.00000000000E+00  0.15446319916E+03  0.19870564139E+03  0.12500020810E+03 0.  0.
    9000005    1    3    3    0    0 -0.14641250629E+02 -0.29252418089E+02  0.16187454381E+03  0.16514974453E+03  0.10000000000E+01 0.  0.
    9000005    1    3    3    0    0  0.14641250629E+02  0.29252418089E+02 -0.74113446574E+01  0.33555896854E+02  0.10000000000E+01 0.  0.
<mgrwt>
<rscale>  0 0.12500021E+03</rscale>
<asrwt>0</asrwt>
<pdfrwt beam="1">  1        4 0.27166833E-01 0.12500021E+03</pdfrwt>
<pdfrwt beam="2">  1       -4 0.34032649E-02 0.12500021E+03</pdfrwt>
<totfact> 0.90353817E+03</totfact>
</mgrwt>
</event>
<event>
 5    1  0.3266594E-002  0.1249958E+03  0.7818608E-02  0.1235076E+00
         -4   -1    0    0    0  501 -0.00000000000E+00  0.00000000000E+00  0.13947258835E+02  0.14004960872E+02  0.12700000000E+01 0. -1.
          4   -1    0    0  501    0  0.00000000000E+00 -0.00000000000E+00 -0.27941688562E+03  0.27941977179E+03  0.12700000000E+01 0. -1.
         25    2    1    2    0    0  0.00000000000E+00  0.00000000000E+00 -0.26546962678E+03  0.29342473266E+03  0.12499580391E+03 0.  0.
    9000005    1    3    3    0    0  0.32285670601E+02  0.45389241078E+02 -0.66236968176E+02  0.86549891305E+02  0.10000000000E+01 0.  0.
    9000005    1    3    3    0    0 -0.32285670601E+02 -0.45389241078E+02 -0.19923265861E+03  0.20687484136E+03  0.10000000000E+01 0.  0.
<mgrwt>
<rscale>  0 0.12499580E+03</rscale>
<asrwt>0</asrwt>
<pdfrwt beam="2">  1        4 0.42991870E-01 0.12499580E+03</pdfrwt>
<pdfrwt beam="1">  1       -4 0.21503930E-02 0.12499580E+03</pdfrwt>
<totfact> 0.76438225E+03</totfact>
</mgrwt>
</event>
<event>
 5    1  0.3266594E-002  0.1249976E+03  0.7818608E-02  0.1235073E+00
         -4   -1    0    0    0  501 -0.00000000000E+00  0.00000000000E+00  0.58191905488E+03  0.58192044072E+03  0.12700000000E+01 0. -1.
          4   -1    0    0  501    0  0.00000000000E+00 -0.00000000000E+00 -0.66509686023E+01  0.67711360457E+01  0.12700000000E+01 0. -1.
         25    2    1    2    0    0  0.00000000000E+00  0.00000000000E+00  0.57526808628E+03  0.58869157677E+03  0.12499760586E+03 0.  0.
    9000005    1    3    3    0    0 -0.53928876481E+02 -0.31314527876E+02  0.30657644409E+03  0.31285626004E+03  0.10000000000E+01 0.  0.
    9000005    1    3    3    0    0  0.53928876481E+02  0.31314527876E+02  0.26869164219E+03  0.27583531673E+03  0.10000000000E+01 0.  0.
<mgrwt>
<rscale>  0 0.12499761E+03</rscale>
<asrwt>0</asrwt>
<pdfrwt beam="2">  1        4 0.10325764E-02 0.12499761E+03</pdfrwt>
<pdfrwt beam="1">  1       -4 0.89535344E-01 0.12499761E+03</pdfrwt>
<totfact> 0.49591910E+03</totfact>
</mgrwt>
</event>
<event>
 4    1  0.3266594E-002  0.1260326E+03  0.7818608E-02  0.1233464E+00
         -4   -1    0    0    0  501 -0.00000000000E+00  0.00000000000E+00  0.26705369043E+02  0.26735550036E+02  0.12700000000E+01 0. -1.
          4   -1    0    0  501    0  0.00000000000E+00 -0.00000000000E+00 -0.14858185031E+03  0.14858727786E+03  0.12700000000E+01 0. -1.
    9000005    1    1    2    0    0  0.25524755868E+02  0.56545591068E+02 -0.45627560323E+02  0.77018123142E+02  0.10000000000E+01 0.  0.
    9000005    1    1    2    0    0 -0.25524755868E+02 -0.56545591068E+02 -0.76248920941E+02  0.98304704750E+02  0.10000000000E+01 0.  0.
<mgrwt>
<rscale>  0 0.12603260E+03</rscale>
<asrwt>0</asrwt>
<pdfrwt beam="2">  1        4 0.22861485E-01 0.12603260E+03</pdfrwt>
<pdfrwt beam="1">  1       -4 0.41112575E-02 0.12603260E+03</pdfrwt>
<totfact> 0.92310444E+03</totfact>
</mgrwt>
</event>
<event>
 5    1  0.3266594E-002  0.1250005E+03  0.7818608E-02  0.1235069E+00
          4   -1    0    0  501    0  0.00000000000E+00  0.00000000000E+00  0.71146879879E+03  0.71146993229E+03  0.12700000000E+01 0.  1.
         -4   -1    0    0    0  501 -0.00000000000E+00 -0.00000000000E+00 -0.54158491402E+01  0.55627620756E+01  0.12700000000E+01 0.  1.
         25    2    1    2    0    0  0.00000000000E+00  0.00000000000E+00  0.70605294965E+03  0.71703269436E+03  0.12500046831E+03 0.  0.
    9000005    1    3    3    0    0 -0.58662447740E+01  0.12261890840E+02  0.70291419535E+03  0.70304632338E+03  0.10000000000E+01 0.  0.
    9000005    1    3    3    0    0  0.58662447740E+01 -0.12261890840E+02  0.31387542988E+01  0.13986370983E+02  0.10000000000E+01 0.  0.
<mgrwt>
<rscale>  0 0.12500047E+03</rscale>
<asrwt>0</asrwt>
<pdfrwt beam="1">  1        4 0.10946809E+00 0.12500047E+03</pdfrwt>
<pdfrwt beam="2">  1       -4 0.84459607E-03 0.12500047E+03</pdfrwt>
<totfact> 0.42202260E+03</totfact>
</mgrwt>
</event>
<event>
 5    1  0.3266594E-002  0.1250133E+03  0.7818608E-02  0.1235049E+00
         -4   -1    0    0    0  501 -0.00000000000E+00  0.00000000000E+00  0.76122420509E+02  0.76133013891E+02  0.12700000000E+01 0.  1.
          4   -1    0    0  501    0  0.00000000000E+00 -0.00000000000E+00 -0.51304257475E+02  0.51319974036E+02  0.12700000000E+01 0.  1.
         25    2    1    2    0    0  0.00000000000E+00  0.00000000000E+00  0.24818163034E+02  0.12745298793E+03  0.12501329095E+03 0.  0.
    9000005    1    3    3    0    0 -0.41388890682E+02 -0.46805656658E+02  0.10872701174E+02  0.63427323749E+02  0.10000000000E+01 0.  0.
    9000005    1    3    3    0    0  0.41388890682E+02  0.46805656658E+02  0.13945461860E+02  0.64025664179E+02  0.10000000000E+01 0.  0.
<mgrwt>
<rscale>  0 0.12501329E+03</rscale>
<asrwt>0</asrwt>
<pdfrwt beam="2">  1        4 0.78949865E-02 0.12501329E+03</pdfrwt>
<pdfrwt beam="1">  1       -4 0.11713165E-01 0.12501329E+03</pdfrwt>
<totfact> 0.10396199E+04</totfact>
</mgrwt>
</event>
<event>
 5    1  0.3266594E-002  0.1249992E+03  0.7818608E-02  0.1235071E+00
          4   -1    0    0  501    0  0.00000000000E+00  0.00000000000E+00  0.76336746909E+02  0.76347310553E+02  0.12700000000E+01 0. -1.
         -4   -1    0    0    0  501 -0.00000000000E+00 -0.00000000000E+00 -0.51148666972E+02  0.51164431327E+02  0.12700000000E+01 0. -1.
         25    2    1    2    0    0  0.00000000000E+00  0.00000000000E+00  0.25188079937E+02  0.12751174188E+03  0.12499921978E+03 0.  0.
    9000005    1    3    3    0    0  0.60952913671E+02  0.12128249635E+02  0.59165415852E+01  0.62436828783E+02  0.10000000000E+01 0.  0.
    9000005    1    3    3    0    0 -0.60952913671E+02 -0.12128249635E+02  0.19271538352E+02  0.65074913097E+02  0.10000000000E+01 0.  0.
<mgrwt>
<rscale>  0 0.12499922E+03</rscale>
<asrwt>0</asrwt>
<pdfrwt beam="1">  1        4 0.11746140E-01 0.12499922E+03</pdfrwt>
<pdfrwt beam="2">  1       -4 0.78710510E-02 0.12499922E+03</pdfrwt>
<totfact> 0.10398229E+04</totfact>
</mgrwt>
</event>
<event>
 5    1  0.3266594E-002  0.1249999E+03  0.7818608E-02  0.1235070E+00
          4   -1    0    0  501    0  0.00000000000E+00  0.00000000000E+00  0.49863811359E+02  0.49879981789E+02  0.12700000000E+01 0. -1.
         -4   -1    0    0    0  501 -0.00000000000E+00 -0.00000000000E+00 -0.78304169984E+02  0.78314468248E+02  0.12700000000E+01 0. -1.
         25    2    1    2    0    0  0.00000000000E+00  0.00000000000E+00 -0.28440358626E+02  0.12819445004E+03  0.12499985209E+03 0.  0.
    9000005    1    3    3    0    0 -0.37491815598E+02  0.53542764809E+01  0.36758724665E+02  0.52787388196E+02  0.10000000000E+01 0.  0.
    9000005    1    3    3    0    0  0.37491815598E+02 -0.53542764809E+01 -0.65199083291E+02  0.75407061841E+02  0.10000000000E+01 0.  0.
<mgrwt>
<rscale>  0 0.12499985E+03</rscale>
<asrwt>0</asrwt>
<pdfrwt beam="1">  1        4 0.76733917E-02 0.12499985E+03</pdfrwt>
<pdfrwt beam="2">  1       -4 0.12048831E-01 0.12499985E+03</pdfrwt>
<totfact> 0.10383325E+04</totfact>
</mgrwt>
</event>
<event>
 5    1  0.3266594E-002  0.1249994E+03  0.7818608E-02  0.1235070E+00
         -4   -1    0    0    0  501 -0.00000000000E+00  0.00000000000E+00  0.69780427677E+02  0.69791983685E+02  0.12700000000E+01 0. -1.
          4   -1    0    0  501    0  0.00000000000E+00 -0.00000000000E+00 -0.55955201487E+02  0.55969612054E+02  0.12700000000E+01 0. -1.
         25    2    1    2    0    0  0.00000000000E+00  0.00000000000E+00  0.13825226190E+02  0.12576159574E+03  0.12499936833E+03 0.  0.
    9000005    1    3    3    0    0 -0.41333199482E+02  0.39825868955E+02 -0.17949962154E+02  0.60147604763E+02  0.10000000000E+01 0.  0.
    9000005    1    3    3    0    0  0.41333199482E+02 -0.39825868955E+02  0.31775188344E+02  0.65613990976E+02  0.10000000000E+01 0.  0.
<mgrwt>
<rscale>  0 0.12499937E+03</rscale>
<asrwt>0</asrwt>
<pdfrwt beam="2">  1        4 0.86104900E-02 0.12499937E+03</pdfrwt>
<pdfrwt beam="1">  1       -4 0.10737448E-01 0.12499937E+03</pdfrwt>
<totfact> 0.10436338E+04</totfact>
</mgrwt>
</event>
<event>
 5    1  0.3266594E-002  0.1249993E+03  0.7818608E-02  0.1235070E+00
          4   -1    0    0  501    0  0.00000000000E+00  0.00000000000E+00  0.29190514026E+02  0.29218128090E+02  0.12700000000E+01 0. -1.
         -4   -1    0    0    0  501 -0.00000000000E+00 -0.00000000000E+00 -0.13372376446E+03  0.13372979504E+03  0.12700000000E+01 0. -1.
         25    2    1    2    0    0  0.00000000000E+00  0.00000000000E+00 -0.10453325044E+03  0.16294792313E+03  0.12499930082E+03 0.  0.
    9000005    1    3    3    0    0  0.15577759628E+02  0.36612909797E+02 -0.11508339265E+03  0.12177174969E+03  0.10000000000E+01 0.  0.
    9000005    1    3    3    0    0 -0.15577759628E+02 -0.36612909797E+02  0.10550142211E+02  0.41176173444E+02  0.10000000000E+01 0.  0.
<mgrwt>
<rscale>  0 0.12499930E+03</rscale>
<asrwt>0</asrwt>
<pdfrwt beam="1">  1        4 0.44934364E-02 0.12499930E+03</pdfrwt>
<pdfrwt beam="2">  1       -4 0.20575475E-01 0.12499930E+03</pdfrwt>
<totfact> 0.96778961E+03</totfact>
</mgrwt>
</event>
<event>
 5    1  0.3266594E-002  0.1249916E+03  0.7818608E-02  0.1235082E+00
         -4   -1    0    0    0  501 -0.00000000000E+00  0.00000000000E+00  0.79536910673E+02  0.79547049344E+02  0.12700000000E+01 0.  1.
          4   -1    0    0  501    0  0.00000000000E+00 -0.00000000000E+00 -0.49084340864E+02  0.49100767999E+02  0.12700000000E+01 0.  1.
         25    2    1    2    0    0  0.00000000000E+00  0.00000000000E+00  0.30452569809E+02  0.12864781734E+03  0.12499160731E+03 0.  0.
    9000005    1    3    3    0    0 -0.12838331351E+02  0.46648606514E+02  0.55928082926E+02  0.73958540422E+02  0.10000000000E+01 0.  0.
    9000005    1    3    3    0    0  0.12838331351E+02 -0.46648606514E+02 -0.25475513117E+02  0.54689276921E+02  0.10000000000E+01 0.  0.
<mgrwt>
<rscale>  0 0.12499161E+03</rscale>
<asrwt>0</asrwt>
<pdfrwt beam="2">  1        4 0.75534806E-02 0.12499161E+03</pdfrwt>
<pdfrwt beam="1">  1       -4 0.12238491E-01 0.12499161E+03</pdfrwt>
<totfact> 0.10375486E+04</totfact>
</mgrwt>
</event>
<event>
 5    1  0.3266594E-002  0.1250028E+03  0.7818608E-02  0.1235065E+00
         -4   -1    0    0    0  501 -0.00000000000E+00  0.00000000000E+00  0.14325775130E+02  0.14381958597E+02  0.12700000000E+01 0. -1.
          4   -1    0    0  501    0  0.00000000000E+00 -0.00000000000E+00 -0.27209359301E+03  0.27209655686E+03  0.12700000000E+01 0. -1.
         25    2    1    2    0    0  0.00000000000E+00  0.00000000000E+00 -0.25776781788E+03  0.28647851546E+03  0.12500276751E+03 0.  0.
    9000005    1    3    3    0    0 -0.57149728874E+02  0.12839894401E+02 -0.78963727510E+02  0.98322045650E+02  0.10000000000E+01 0.  0.
    9000005    1    3    3    0    0  0.57149728874E+02 -0.12839894401E+02 -0.17880409037E+03  0.18815646981E+03  0.10000000000E+01 0.  0.
<mgrwt>
<rscale>  0 0.12500277E+03</rscale>
<asrwt>0</asrwt>
<pdfrwt beam="2">  1        4 0.41865099E-01 0.12500277E+03</pdfrwt>
<pdfrwt beam="1">  1       -4 0.22085154E-02 0.12500277E+03</pdfrwt>
<totfact> 0.77322116E+03</totfact>
</mgrwt>
</event>
<event>
 5    1  0.3266594E-002  0.1250004E+03  0.7818608E-02  0.1235069E+00
          4   -1    0    0  501    0  0.00000000000E+00  0.00000000000E+00  0.18460766616E+03  0.18461203456E+03  0.12700000000E+01 0. -1.
         -4   -1    0    0    0  501 -0.00000000000E+00 -0.00000000000E+00 -0.21136178681E+02  0.21174299262E+02  0.12700000000E+01 0. -1.
         25    2    1    2    0    0  0.00000000000E+00  0.00000000000E+00  0.16347148748E+03  0.20578633382E+03  0.12500035188E+03 0.  0.
    9000005    1    3    3    0    0 -0.18808318272E+02 -0.54015688976E+02  0.40289058205E+02  0.69968962425E+02  0.10000000000E+01 0.  0.
    9000005    1    3    3    0    0  0.18808318272E+02  0.54015688976E+02  0.12318242927E+03  0.13581737140E+03  0.10000000000E+01 0.  0.
<mgrwt>
<rscale>  0 0.12500035E+03</rscale>
<asrwt>0</asrwt>
<pdfrwt beam="1">  1        4 0.28404446E-01 0.12500035E+03</pdfrwt>
<pdfrwt beam="2">  1       -4 0.32549883E-02 0.12500035E+03</pdfrwt>
<totfact> 0.89167984E+03</totfact>
</mgrwt>
</event>
<event>
 5    1  0.3266594E-002  0.1249608E+03  0.7818608E-02  0.1235131E+00
          4   -1    0    0  501    0  0.00000000000E+00  0.00000000000E+00  0.21918871021E+03  0.21919238943E+03  0.12700000000E+01 0.  1.
         -4   -1    0    0    0  501 -0.00000000000E+00 -0.00000000000E+00 -0.17783737802E+02  0.17829027741E+02  0.12700000000E+01 0.  1.
         25    2    1    2    0    0  0.00000000000E+00  0.00000000000E+00  0.20140497241E+03  0.23702141717E+03  0.12496075098E+03 0.  0.
    9000005    1    3    3    0    0 -0.11732488085E+02 -0.52045860975E+02  0.39053931695E+02  0.66125883753E+02  0.10000000000E+01 0.  0.
    9000005    1    3    3    0    0  0.11732488085E+02  0.52045860975E+02  0.16235104072E+03  0.17089553342E+03  0.10000000000E+01 0.  0.
<mgrwt>
<rscale>  0 0.12496075E+03</rscale>
<asrwt>0</asrwt>
<pdfrwt beam="1">  1        4 0.33725102E-01 0.12496075E+03</pdfrwt>
<pdfrwt beam="2">  1       -4 0.27397269E-02 0.12496075E+03</pdfrwt>
<totfact> 0.84316760E+03</totfact>
</mgrwt>
</event>
<event>
 5    1  0.3266594E-002  0.1250121E+03  0.7818608E-02  0.1235050E+00
         -4   -1    0    0    0  501 -0.00000000000E+00  0.00000000000E+00  0.42434363053E+02  0.42453363444E+02  0.12700000000E+01 0.  1.
          4   -1    0    0  501    0  0.00000000000E+00 -0.00000000000E+00 -0.92027766323E+02  0.92036529022E+02  0.12700000000E+01 0.  1.
         25    2    1    2    0    0  0.00000000000E+00  0.00000000000E+00 -0.49593403270E+02  0.13448989247E+03  0.12501210152E+03 0.  0.
    9000005    1    3    3    0    0 -0.39570709337E+02 -0.24537626492E+02 -0.69647610793E+02  0.83783804166E+02  0.10000000000E+01 0.  0.
    9000005    1    3    3    0    0  0.39570709337E+02  0.24537626492E+02  0.20054207523E+02  0.50706088300E+02  0.10000000000E+01 0.  0.
<mgrwt>
<rscale>  0 0.12501210E+03</rscale>
<asrwt>0</asrwt>
<pdfrwt beam="2">  1        4 0.14160254E-01 0.12501210E+03</pdfrwt>
<pdfrwt beam="1">  1       -4 0.65304992E-02 0.12501210E+03</pdfrwt>
<totfact> 0.10246037E+04</totfact>
</mgrwt>
</event>
<event>
 5    1  0.3266594E-002  0.1249997E+03  0.7818608E-02  0.1235070E+00
         -4   -1    0    0    0  501 -0.00000000000E+00  0.00000000000E+00  0.61685711633E+03  0.61685842368E+03  0.12700000000E+01 0.  1.
          4   -1    0    0  501    0  0.00000000000E+00 -0.00000000000E+00 -0.62674656368E+01  0.63948436657E+01  0.12700000000E+01 0.  1.
         25    2    1    2    0    0  0.00000000000E+00  0.00000000000E+00  0.61058965069E+03  0.62325326735E+03  0.12499965490E+03 0.  0.
    9000005    1    3    3    0    0 -0.60005296125E+02  0.52354978804E+01  0.38830638985E+03  0.39295152169E+03  0.10000000000E+01 0.  0.
    9000005    1    3    3    0    0  0.60005296125E+02 -0.52354978804E+01  0.22228326084E+03  0.23030174565E+03  0.10000000000E+01 0.  0.
<mgrwt>
<rscale>  0 0.12499965E+03</rscale>
<asrwt>0</asrwt>
<pdfrwt beam="2">  1        4 0.97412438E-03 0.12499965E+03</pdfrwt>
<pdfrwt beam="1">  1       -4 0.94910992E-01 0.12499965E+03</pdfrwt>
<totfact> 0.47432301E+03</totfact>
</mgrwt>
</event>
<event>
 5    1  0.3266594E-002  0.1250019E+03  0.7818608E-02  0.1235066E+00
         -4   -1    0    0    0  501 -0.00000000000E+00  0.00000000000E+00  0.13167443346E+02  0.13228547323E+02  0.12700000000E+01 0. -1.
          4   -1    0    0  501    0  0.00000000000E+00 -0.00000000000E+00 -0.29591966996E+03  0.29592239518E+03  0.12700000000E+01 0. -1.
         25    2    1    2    0    0  0.00000000000E+00  0.00000000000E+00 -0.28275222661E+03  0.30915094250E+03  0.12500193437E+03 0.  0.
    9000005    1    3    3    0    0 -0.44684724105E+02 -0.34497162068E+01 -0.24908670347E+03  0.25308854371E+03  0.10000000000E+01 0.  0.
    9000005    1    3    3    0    0  0.44684724105E+02  0.34497162068E+01 -0.33665523143E+02  0.56062398796E+02  0.10000000000E+01 0.  0.
<mgrwt>
<rscale>  0 0.12500193E+03</rscale>
<asrwt>0</asrwt>
<pdfrwt beam="2">  1        4 0.45531008E-01 0.12500193E+03</pdfrwt>
<pdfrwt beam="1">  1       -4 0.20306707E-02 0.12500193E+03</pdfrwt>
<totfact> 0.74461920E+03</totfact>
</mgrwt>
</event>
<event>
 5    1  0.3266594E-002  0.1250025E+03  0.7818608E-02  0.1235065E+00
         -4   -1    0    0    0  501 -0.00000000000E+00  0.00000000000E+00  0.95266670790E+01  0.96109461363E+01  0.12700000000E+01 0.  1.
          4   -1    0    0  501    0  0.00000000000E+00 -0.00000000000E+00 -0.40815856109E+03  0.40816053691E+03  0.12700000000E+01 0.  1.
         25    2    1    2    0    0  0.00000000000E+00  0.00000000000E+00 -0.39863189401E+03  0.41777148304E+03  0.12500250047E+03 0.  0.
    9000005    1    3    3    0    0 -0.35378669476E+01 -0.58249346489E+02 -0.12459142564E+03  0.13758461473E+03  0.10000000000E+01 0.  0.
    9000005    1    3    3    0    0  0.35378669476E+01  0.58249346489E+02 -0.27404046837E+03  0.28018686831E+03  0.10000000000E+01 0.  0.
<mgrwt>
<rscale>  0 0.12500250E+03</rscale>
<asrwt>0</asrwt>
<pdfrwt beam="2">  1        4 0.62800246E-01 0.12500250E+03</pdfrwt>
<pdfrwt beam="1">  1       -4 0.14722764E-02 0.12500250E+03</pdfrwt>
<totfact> 0.62856832E+03</totfact>
</mgrwt>
</event>
<event>
 5    1  0.3266594E-002  0.1250233E+03  0.7818608E-02  0.1235033E+00
         -4   -1    0    0    0  501 -0.00000000000E+00  0.00000000000E+00  0.40892952247E+01  0.42819663047E+01  0.12700000000E+01 0.  1.
          4   -1    0    0  501    0  0.00000000000E+00 -0.00000000000E+00 -0.93340702091E+03  0.93340788489E+03  0.12700000000E+01 0.  1.
         25    2    1    2    0    0  0.00000000000E+00  0.00000000000E+00 -0.92931772568E+03  0.93768985120E+03  0.12502328491E+03 0.  0.
    9000005    1    3    3    0    0 -0.38249898523E+02 -0.46464221764E+02 -0.59121478848E+03  0.59427090183E+03  0.10000000000E+01 0.  0.
    9000005    1    3    3    0    0  0.38249898523E+02  0.46464221764E+02 -0.33810293720E+03  0.34341894937E+03  0.10000000000E+01 0.  0.
<mgrwt>
<rscale>  0 0.12502328E+03</rscale>
<asrwt>0</asrwt>
<pdfrwt beam="2">  1        4 0.14361580E+00 0.12502328E+03</pdfrwt>
<pdfrwt beam="1">  1       -4 0.64401040E-03 0.12502328E+03</pdfrwt>
<totfact> 0.32740505E+03</totfact>
</mgrwt>
</event>
<event>
 5    1  0.3266594E-002  0.1250024E+03  0.7818608E-02  0.1235066E+00
         -4   -1    0    0    0  501 -0.00000000000E+00  0.00000000000E+00  0.70415876200E+03  0.70415990727E+03  0.12700000000E+01 0.  1.
          4   -1    0    0  501    0  0.00000000000E+00 -0.00000000000E+00 -0.54737605211E+01  0.56191595673E+01  0.12700000000E+01 0.  1.
         25    2    1    2    0    0  0.00000000000E+00  0.00000000000E+00  0.69868500148E+03  0.70977906683E+03  0.12500236967E+03 0.  0.
    9000005    1    3    3    0    0  0.10360075669E+02  0.37442262977E+02  0.71395887194E+02  0.81287311020E+02  0.10000000000E+01 0.  0.
    9000005    1    3    3    0    0 -0.10360075669E+02 -0.37442262977E+02  0.62728911428E+03  0.62849175581E+03  0.10000000000E+01 0.  0.
<mgrwt>
<rscale>  0 0.12500237E+03</rscale>
<asrwt>0</asrwt>
<pdfrwt beam="2">  1        4 0.85338945E-03 0.12500237E+03</pdfrwt>
<pdfrwt beam="1">  1       -4 0.10834341E+00 0.12500237E+03</pdfrwt>
<totfact> 0.42573262E+03</totfact>
</mgrwt>
</event>
<event>
 5    1  0.3266594E-002  0.1250015E+03  0.7818608E-02  0.1235067E+00
          4   -1    0    0  501    0  0.00000000000E+00  0.00000000000E+00  0.41136653967E+03  0.41136850008E+03  0.12700000000E+01 0.  1.
         -4   -1    0    0    0  501 -0.00000000000E+00 -0.00000000000E+00 -0.94515617480E+01  0.95365045733E+01  0.12700000000E+01 0.  1.
         25    2    1    2    0    0  0.00000000000E+00  0.00000000000E+00  0.40191497792E+03  0.42090500465E+03  0.12500149386E+03 0.  0.
    9000005    1    3    3    0    0 -0.55758000489E+02 -0.11425422319E+02  0.28784484670E+03  0.29341975167E+03  0.10000000000E+01 0.  0.
    9000005    1    3    3    0    0  0.55758000489E+02  0.11425422319E+02  0.11407013121E+03  0.12748525299E+03  0.10000000000E+01 0.  0.
<mgrwt>
<rscale>  0 0.12500149E+03</rscale>
<asrwt>0</asrwt>
<pdfrwt beam="1">  1        4 0.63293843E-01 0.12500149E+03</pdfrwt>
<pdfrwt beam="2">  1       -4 0.14607713E-02 0.12500149E+03</pdfrwt>
<totfact> 0.62567076E+03</totfact>
</mgrwt>
</event>
<event>
 5    1  0.3266594E-002  0.1250144E+03  0.7818608E-02  0.1235047E+00
          4   -1    0    0  501    0  0.00000000000E+00  0.00000000000E+00  0.18856837345E+02  0.18899555938E+02  0.12700000000E+01 0. -1.
         -4   -1    0    0    0  501 -0.00000000000E+00 -0.00000000000E+00 -0.20692148343E+03  0.20692538077E+03  0.12700000000E+01 0. -1.
         25    2    1    2    0    0  0.00000000000E+00  0.00000000000E+00 -0.18806464609E+03  0.22582493670E+03  0.12501436290E+03 0.  0.
    9000005    1    3    3    0    0  0.42696365725E+02  0.45553001228E+02 -0.88893728321E+02  0.10863310040E+03  0.10000000000E+01 0.  0.
    9000005    1    3    3    0    0 -0.42696365725E+02 -0.45553001228E+02 -0.99170917764E+02  0.11719183631E+03  0.10000000000E+01 0.  0.
<mgrwt>
<rscale>  0 0.12501436E+03</rscale>
<asrwt>0</asrwt>
<pdfrwt beam="1">  1        4 0.29046379E-02 0.12501436E+03</pdfrwt>
<pdfrwt beam="2">  1       -4 0.31837659E-01 0.12501436E+03</pdfrwt>
<totfact> 0.85927284E+03</totfact>
</mgrwt>
</event>
<event>
 5    1  0.3266594E-002  0.1250037E+03  0.7818608E-02  0.1235063E+00
          4   -1    0    0  501    0  0.00000000000E+00  0.00000000000E+00  0.51819312540E+02  0.51834872934E+02  0.12700000000E+01 0. -1.
         -4   -1    0    0    0  501 -0.00000000000E+00 -0.00000000000E+00 -0.75354411570E+02  0.75365112904E+02  0.12700000000E+01 0. -1.
         25    2    1    2    0    0  0.00000000000E+00  0.00000000000E+00 -0.23535099031E+02  0.12719998584E+03  0.12500374199E+03 0.  0.
    9000005    1    3    3    0    0 -0.20828232586E+02  0.21309467199E+02  0.44130042686E+02  0.53257575352E+02  0.10000000000E+01 0.  0.
    9000005    1    3    3    0    0  0.20828232586E+02 -0.21309467199E+02 -0.67665141716E+02  0.73942410486E+02  0.10000000000E+01 0.  0.
<mgrwt>
<rscale>  0 0.12500374E+03</rscale>
<asrwt>0</asrwt>
<pdfrwt beam="1">  1        4 0.79742220E-02 0.12500374E+03</pdfrwt>
<pdfrwt beam="2">  1       -4 0.11595007E-01 0.12500374E+03</pdfrwt>
<totfact> 0.10403925E+04</totfact>
</mgrwt>
</event>
<event>
 5    1  0.3266594E-002  0.1250000E+03  0.7818608E-02  0.1235069E+00
          4   -1    0    0  501    0  0.00000000000E+00  0.00000000000E+00  0.29088869674E+03  0.29089146910E+03  0.12700000000E+01 0. -1.
         -4   -1    0    0    0  501 -0.00000000000E+00 -0.00000000000E+00 -0.13395797958E+02  0.13455865001E+02  0.12700000000E+01 0. -1.
         25    2    1    2    0    0  0.00000000000E+00  0.00000000000E+00  0.27749289879E+03  0.30434733410E+03  0.12499996358E+03 0.  0.
    9000005    1    3    3    0    0  0.27228444337E+02  0.51896631407E+02  0.85928053932E+02  0.10401576316E+03  0.10000000000E+01 0.  0.
    9000005    1    3    3    0    0 -0.27228444337E+02 -0.51896631407E+02  0.19156484485E+03  0.20033157094E+03  0.10000000000E+01 0.  0.
<mgrwt>
<rscale>  0 0.12499996E+03</rscale>
<asrwt>0</asrwt>
<pdfrwt beam="1">  1        4 0.44756941E-01 0.12499996E+03</pdfrwt>
<pdfrwt beam="2">  1       -4 0.20657258E-02 0.12499996E+03</pdfrwt>
<totfact> 0.75056792E+03</totfact>
</mgrwt>
</event>
<event>
 5    1  0.3266594E-002  0.1250031E+03  0.7818608E-02  0.1235064E+00
         -4   -1    0    0    0  501 -0.00000000000E+00  0.00000000000E+00  0.12576625067E+03  0.12577266279E+03  0.12700000000E+01 0. -1.
          4   -1    0    0  501    0  0.00000000000E+00 -0.00000000000E+00 -0.31040941072E+02  0.31066910413E+02  0.12700000000E+01 0. -1.
         25    2    1    2    0    0  0.00000000000E+00  0.00000000000E+00  0.94725309593E+02  0.15683957321E+03  0.12500306975E+03 0.  0.
    9000005    1    3    3    0    0 -0.16776553473E+02 -0.34979083785E+02  0.10883525169E+03  0.11554696473E+03  0.10000000000E+01 0.  0.
    9000005    1    3    3    0    0  0.16776553473E+02  0.34979083785E+02 -0.14109942094E+02  0.41292608476E+02  0.10000000000E+01 0.  0.
<mgrwt>
<rscale>  0 0.12500307E+03</rscale>
<asrwt>0</asrwt>
<pdfrwt beam="2">  1        4 0.47780203E-02 0.12500307E+03</pdfrwt>
<pdfrwt beam="1">  1       -4 0.19351145E-01 0.12500307E+03</pdfrwt>
<totfact> 0.97948812E+03</totfact>
</mgrwt>
</event>
<event>
 5    1  0.3266594E-002  0.1249901E+03  0.7818608E-02  0.1235085E+00
          4   -1    0    0  501    0  0.00000000000E+00  0.00000000000E+00  0.27180695187E+03  0.27180991885E+03  0.12700000000E+01 0.  1.
         -4   -1    0    0    0  501 -0.00000000000E+00 -0.00000000000E+00 -0.14338026799E+02  0.14394162445E+02  0.12700000000E+01 0.  1.
         25    2    1    2    0    0  0.00000000000E+00  0.00000000000E+00  0.25746892508E+03  0.28620408130E+03  0.12499011470E+03 0.  0.
    9000005    1    3    3    0    0 -0.13612937909E+02  0.50126170987E+02  0.20827664270E+03  0.21465811187E+03  0.10000000000E+01 0.  0.
    9000005    1    3    3    0    0  0.13612937909E+02 -0.50126170987E+02  0.49192282373E+02  0.71545969428E+02  0.10000000000E+01 0.  0.
<mgrwt>
<rscale>  0 0.12499011E+03</rscale>
<asrwt>0</asrwt>
<pdfrwt beam="1">  1        4 0.41821000E-01 0.12499011E+03</pdfrwt>
<pdfrwt beam="2">  1       -4 0.22103967E-02 0.12499011E+03</pdfrwt>
<totfact> 0.77379610E+03</totfact>
</mgrwt>
</event>
<event>
 5    1  0.3266594E-002  0.1250010E+03  0.7818608E-02  0.1235068E+00
          4   -1    0    0  501    0  0.00000000000E+00  0.00000000000E+00  0.31347407365E+02  0.31373123028E+02  0.12700000000E+01 0. -1.
         -4   -1    0    0    0  501 -0.00000000000E+00 -0.00000000000E+00 -0.12453346760E+03  0.12453994320E+03  0.12700000000E+01 0. -1.
         25    2    1    2    0    0  0.00000000000E+00  0.00000000000E+00 -0.93186060231E+02  0.15591306622E+03  0.12500096959E+03 0.  0.
    9000005    1    3    3    0    0  0.22870817053E+02 -0.56903313165E+02 -0.61573517891E+02  0.86910065167E+02  0.10000000000E+01 0.  0.
    9000005    1    3    3    0    0 -0.22870817053E+02  0.56903313165E+02 -0.31612542339E+02  0.69003001058E+02  0.10000000000E+01 0.  0.
<mgrwt>
<rscale>  0 0.12500097E+03</rscale>
<asrwt>0</asrwt>
<pdfrwt beam="1">  1        4 0.48251544E-02 0.12500097E+03</pdfrwt>
<pdfrwt beam="2">  1       -4 0.19161471E-01 0.12500097E+03</pdfrwt>
<totfact> 0.98134411E+03</totfact>
</mgrwt>
</event>
<event>
 5    1  0.3266594E-002  0.1250050E+03  0.7818608E-02  0.1235061E+00
         -4   -1    0    0    0  501 -0.00000000000E+00  0.00000000000E+00  0.22216220663E+02  0.22252491108E+02  0.12700000000E+01 0. -1.
          4   -1    0    0  501    0  0.00000000000E+00 -0.00000000000E+00 -0.17566088184E+03  0.17566547273E+03  0.12700000000E+01 0. -1.
         25    2    1    2    0    0  0.00000000000E+00  0.00000000000E+00 -0.15344466118E+03  0.19791796383E+03  0.12500502536E+03 0.  0.
    9000005    1    3    3    0    0  0.55575954797E+02  0.24187478238E+02 -0.10082998499E+03  0.11764950798E+03  0.10000000000E+01 0.  0.
    9000005    1    3    3    0    0 -0.55575954797E+02 -0.24187478238E+02 -0.52614676189E+02  0.80268455856E+02  0.10000000000E+01 0.  0.
<mgrwt>
<rscale>  0 0.12500503E+03</rscale>
<asrwt>0</asrwt>
<pdfrwt beam="2">  1        4 0.27027893E-01 0.12500503E+03</pdfrwt>
<pdfrwt beam="1">  1       -4 0.34210234E-02 0.12500503E+03</pdfrwt>
<totfact> 0.90477398E+03</totfact>
</mgrwt>
</event>
<event>
 5    1  0.3266594E-002  0.1249907E+03  0.7818608E-02  0.1235084E+00
         -4   -1    0    0    0  501 -0.00000000000E+00  0.00000000000E+00  0.10429398556E+03  0.10430171774E+03  0.12700000000E+01 0. -1.
          4   -1    0    0  501    0  0.00000000000E+00 -0.00000000000E+00 -0.37428772241E+02  0.37450312301E+02  0.12700000000E+01 0. -1.
         25    2    1    2    0    0  0.00000000000E+00  0.00000000000E+00  0.66865213321E+02  0.14175203005E+03  0.12499072473E+03 0.  0.
    9000005    1    3    3    0    0  0.58305811459E+02 -0.21927119673E+02  0.39023628471E+02  0.73513330805E+02  0.10000000000E+01 0.  0.
    9000005    1    3    3    0    0 -0.58305811459E+02  0.21927119673E+02  0.27841584851E+02  0.68238699240E+02  0.10000000000E+01 0.  0.
<mgrwt>
<rscale>  0 0.12499072E+03</rscale>
<asrwt>0</asrwt>
<pdfrwt beam="2">  1        4 0.57605245E-02 0.12499072E+03</pdfrwt>
<pdfrwt beam="1">  1       -4 0.16047480E-01 0.12499072E+03</pdfrwt>
<totfact> 0.10099512E+04</totfact>
</mgrwt>
</event>
<event>
 5    1  0.3266594E-002  0.1250030E+03  0.7818608E-02  0.1235065E+00
         -4   -1    0    0    0  501 -0.00000000000E+00  0.00000000000E+00  0.45382406312E+02  0.45400172936E+02  0.12700000000E+01 0. -1.
          4   -1    0    0  501    0  0.00000000000E+00 -0.00000000000E+00 -0.86038868603E+02  0.86048241182E+02  0.12700000000E+01 0. -1.
         25    2    1    2    0    0  0.00000000000E+00  0.00000000000E+00 -0.40656462291E+02  0.13144841412E+03  0.12500295056E+03 0.  0.
    9000005    1    3    3    0    0  0.14381567392E+01  0.42898229593E+02  0.27435260762E+02  0.50951152392E+02  0.10000000000E+01 0.  0.
    9000005    1    3    3    0    0 -0.14381567392E+01 -0.42898229593E+02 -0.68091723053E+02  0.80497261726E+02  0.10000000000E+01 0.  0.
<mgrwt>
<rscale>  0 0.12500295E+03</rscale>
<asrwt>0</asrwt>
<pdfrwt beam="2">  1        4 0.13238837E-01 0.12500295E+03</pdfrwt>
<pdfrwt beam="1">  1       -4 0.69839963E-02 0.12500295E+03</pdfrwt>
<totfact> 0.10312799E+04</totfact>
</mgrwt>
</event>
<event>
 5    1  0.3266594E-002  0.1249999E+03  0.7818608E-02  0.1235069E+00
          4   -1    0    0  501    0  0.00000000000E+00  0.00000000000E+00  0.79707188403E+03  0.79707289580E+03  0.12700000000E+01 0. -1.
         -4   -1    0    0    0  501 -0.00000000000E+00 -0.00000000000E+00 -0.48174354080E+01  0.49820260849E+01  0.12700000000E+01 0. -1.
         25    2    1    2    0    0  0.00000000000E+00  0.00000000000E+00  0.79225444862E+03  0.80205492188E+03  0.12499994540E+03 0.  0.
    9000005    1    3    3    0    0 -0.16869978275E+02  0.29176528183E+02  0.73379188420E+03  0.73456612723E+03  0.10000000000E+01 0.  0.
    9000005    1    3    3    0    0  0.16869978275E+02 -0.29176528183E+02  0.58462564426E+02  0.67488794648E+02  0.10000000000E+01 0.  0.
<mgrwt>
<rscale>  0 0.12499995E+03</rscale>
<asrwt>0</asrwt>
<pdfrwt beam="1">  1        4 0.12263909E+00 0.12499995E+03</pdfrwt>
<pdfrwt beam="2">  1       -4 0.75388314E-03 0.12499995E+03</pdfrwt>
<totfact> 0.38173224E+03</totfact>
</mgrwt>
</event>
<event>
 5    1  0.3266594E-002  0.1249929E+03  0.7818608E-02  0.1235080E+00
         -4   -1    0    0    0  501 -0.00000000000E+00  0.00000000000E+00  0.11138093520E+04  0.11138100760E+04  0.12700000000E+01 0. -1.
          4   -1    0    0  501    0  0.00000000000E+00 -0.00000000000E+00 -0.33909729675E+01  0.36209940164E+01  0.12700000000E+01 0. -1.
         25    2    1    2    0    0  0.00000000000E+00  0.00000000000E+00  0.11104183790E+04  0.11174310700E+04  0.12499287919E+03 0.  0.
    9000005    1    3    3    0    0 -0.58184015234E+02 -0.16940170349E+02  0.41890606379E+03  0.42326781035E+03  0.10000000000E+01 0.  0.
    9000005    1    3    3    0    0  0.58184015234E+02  0.16940170349E+02  0.69151231522E+03  0.69416325969E+03  0.10000000000E+01 0.  0.
<mgrwt>
<rscale>  0 0.12499288E+03</rscale>
<asrwt>0</asrwt>
<pdfrwt beam="2">  1        4 0.53943811E-03 0.12499288E+03</pdfrwt>
<pdfrwt beam="1">  1       -4 0.17137293E+00 0.12499288E+03</pdfrwt>
<totfact> 0.26982969E+03</totfact>
</mgrwt>
</event>
<event>
 5    1  0.3266594E-002  0.1250013E+03  0.7818608E-02  0.1235067E+00
          4   -1    0    0  501    0  0.00000000000E+00  0.00000000000E+00  0.22984098743E+02  0.23019159304E+02  0.12700000000E+01 0.  1.
         -4   -1    0    0    0  501 -0.00000000000E+00 -0.00000000000E+00 -0.16979106852E+03  0.16979581811E+03  0.12700000000E+01 0.  1.
         25    2    1    2    0    0  0.00000000000E+00  0.00000000000E+00 -0.14680696978E+03  0.19281497742E+03  0.12500131656E+03 0.  0.
    9000005    1    3    3    0    0 -0.16655711385E+02 -0.56762181897E+02 -0.10448308580E+03  0.12007111740E+03  0.10000000000E+01 0.  0.
    9000005    1    3    3    0    0  0.16655711385E+02  0.56762181897E+02 -0.42323883977E+02  0.72743860018E+02  0.10000000000E+01 0.  0.
<mgrwt>
<rscale>  0 0.12500132E+03</rscale>
<asrwt>0</asrwt>
<pdfrwt beam="1">  1        4 0.35390776E-02 0.12500132E+03</pdfrwt>
<pdfrwt beam="2">  1       -4 0.26124764E-01 0.12500132E+03</pdfrwt>
<totfact> 0.91357119E+03</totfact>
</mgrwt>
</event>
<event>
 5    1  0.3266594E-002  0.1250149E+03  0.7818608E-02  0.1235046E+00
         -4   -1    0    0    0  501 -0.00000000000E+00  0.00000000000E+00  0.49084401278E+02  0.49100828393E+02  0.12700000000E+01 0.  1.
          4   -1    0    0  501    0  0.00000000000E+00 -0.00000000000E+00 -0.79566435641E+02  0.79576570550E+02  0.12700000000E+01 0.  1.
         25    2    1    2    0    0  0.00000000000E+00  0.00000000000E+00 -0.30482034362E+02  0.12867739894E+03  0.12501487343E+03 0.  0.
    9000005    1    3    3    0    0  0.41219042220E+02  0.35535475265E+02 -0.46872432429E+02  0.71831778244E+02  0.10000000000E+01 0.  0.
    9000005    1    3    3    0    0 -0.41219042220E+02 -0.35535475265E+02  0.16390398067E+02  0.56845620699E+02  0.10000000000E+01 0.  0.
<mgrwt>
<rscale>  0 0.12501487E+03</rscale>
<asrwt>0</asrwt>
<pdfrwt beam="2">  1        4 0.12243033E-01 0.12501487E+03</pdfrwt>
<pdfrwt beam="1">  1       -4 0.75534896E-02 0.12501487E+03</pdfrwt>
<totfact> 0.10369402E+04</totfact>
</mgrwt>
</event>
<event>
 5    1  0.3266594E-002  0.1250251E+03  0.7818608E-02  0.1235030E+00
         -4   -1    0    0    0  501 -0.00000000000E+00  0.00000000000E+00  0.41830036385E+02  0.41849311153E+02  0.12700000000E+01 0.  1.
          4   -1    0    0  501    0  0.00000000000E+00 -0.00000000000E+00 -0.93376313757E+02  0.93384949916E+02  0.12700000000E+01 0.  1.
         25    2    1    2    0    0  0.00000000000E+00  0.00000000000E+00 -0.51546277372E+02  0.13523426107E+03  0.12502514409E+03 0.  0.
    9000005    1    3    3    0    0  0.39628091631E+02  0.18774591763E+02  0.22405531546E+02  0.49253210921E+02  0.10000000000E+01 0.  0.
    9000005    1    3    3    0    0 -0.39628091631E+02 -0.18774591763E+02 -0.73951808918E+02  0.85981050147E+02  0.10000000000E+01 0.  0.
<mgrwt>
<rscale>  0 0.12502514E+03</rscale>
<asrwt>0</asrwt>
<pdfrwt beam="2">  1        4 0.14367734E-01 0.12502514E+03</pdfrwt>
<pdfrwt beam="1">  1       -4 0.64375372E-02 0.12502514E+03</pdfrwt>
<totfact> 0.10227335E+04</totfact>
</mgrwt>
</event>
<event>
 5    1  0.3266594E-002  0.1249926E+03  0.7818608E-02  0.1235081E+00
         -4   -1    0    0    0  501 -0.00000000000E+00  0.00000000000E+00  0.20625959613E+04  0.20625963523E+04  0.12700000000E+01 0. -1.
          4   -1    0    0  501    0  0.00000000000E+00 -0.00000000000E+00 -0.16802538998E+01  0.21062177399E+01  0.12700000000E+01 0. -1.
         25    2    1    2    0    0  0.00000000000E+00  0.00000000000E+00  0.20609157074E+04  0.20647025700E+04  0.12499259846E+03 0.  0.
    9000005    1    3    3    0    0 -0.24034539656E+02 -0.67782625181E+01  0.19766698716E+04  0.19768278592E+04  0.10000000000E+01 0.  0.
    9000005    1    3    3    0    0  0.24034539656E+02  0.67782625181E+01  0.84245835821E+02  0.87874710767E+02  0.10000000000E+01 0.  0.
<mgrwt>
<rscale>  0 0.12499260E+03</rscale>
<asrwt>0</asrwt>
<pdfrwt beam="2">  1        4 0.29129687E-03 0.12499260E+03</pdfrwt>
<pdfrwt beam="1">  1       -4 0.31735553E+00 0.12499260E+03</pdfrwt>
<totfact> 0.90416806E+02</totfact>
</mgrwt>
</event>
<event>
 5    1  0.3266594E-002  0.1250070E+03  0.7818608E-02  0.1235058E+00
          4   -1    0    0  501    0  0.00000000000E+00  0.00000000000E+00  0.42806825376E+01  0.44651027970E+01  0.12700000000E+01 0. -1.
         -4   -1    0    0    0  501 -0.00000000000E+00 -0.00000000000E+00 -0.89320215129E+03  0.89320305416E+03  0.12700000000E+01 0. -1.
         25    2    1    2    0    0  0.00000000000E+00  0.00000000000E+00 -0.88892146875E+03  0.89766815696E+03  0.12500696946E+03 0.  0.
    9000005    1    3    3    0    0  0.12478708503E+02 -0.61117522662E+02 -0.47191398652E+03  0.47601983196E+03  0.10000000000E+01 0.  0.
    9000005    1    3    3    0    0 -0.12478708503E+02  0.61117522662E+02 -0.41700748223E+03  0.42164832500E+03  0.10000000000E+01 0.  0.
<mgrwt>
<rscale>  0 0.12500697E+03</rscale>
<asrwt>0</asrwt>
<pdfrwt beam="1">  1        4 0.67282288E-03 0.12500697E+03</pdfrwt>
<pdfrwt beam="2">  1       -4 0.13742983E+00 0.12500697E+03</pdfrwt>
<totfact> 0.34244188E+03</totfact>
</mgrwt>
</event>
<event>
 5    1  0.3266594E-002  0.1249862E+03  0.7818608E-02  0.1235091E+00
          4   -1    0    0  501    0  0.00000000000E+00  0.00000000000E+00  0.29752385417E+02  0.29779478471E+02  0.12700000000E+01 0.  1.
         -4   -1    0    0    0  501 -0.00000000000E+00 -0.00000000000E+00 -0.13117317750E+03  0.13117932534E+03  0.12700000000E+01 0.  1.
         25    2    1    2    0    0  0.00000000000E+00  0.00000000000E+00 -0.10142079209E+03  0.16095880381E+03  0.12498623707E+03 0.  0.
    9000005    1    3    3    0    0  0.33006947345E+02  0.51928543690E+02 -0.64720801169E+02  0.89307414736E+02  0.10000000000E+01 0.  0.
    9000005    1    3    3    0    0 -0.33006947345E+02 -0.51928543690E+02 -0.36699990917E+02  0.71651389073E+02  0.10000000000E+01 0.  0.
<mgrwt>
<rscale>  0 0.12498624E+03</rscale>
<asrwt>0</asrwt>
<pdfrwt beam="1">  1        4 0.45798471E-02 0.12498624E+03</pdfrwt>
<pdfrwt beam="2">  1       -4 0.20183046E-01 0.12498624E+03</pdfrwt>
<totfact> 0.97188312E+03</totfact>
</mgrwt>
</event>
<event>
 5    1  0.3266594E-002  0.1250010E+03  0.7818608E-02  0.1235068E+00
          4   -1    0    0  501    0  0.00000000000E+00  0.00000000000E+00  0.27889182063E+03  0.27889471224E+03  0.12700000000E+01 0. -1.
         -4   -1    0    0    0  501 -0.00000000000E+00 -0.00000000000E+00 -0.13974783144E+02  0.14032371999E+02  0.12700000000E+01 0. -1.
         25    2    1    2    0    0  0.00000000000E+00  0.00000000000E+00  0.26491703749E+03  0.29292708424E+03  0.12500095972E+03 0.  0.
    9000005    1    3    3    0    0  0.20972084810E+02 -0.50701081509E+02  0.62356736165E+02  0.83064977895E+02  0.10000000000E+01 0.  0.
    9000005    1    3    3    0    0 -0.20972084810E+02  0.50701081509E+02  0.20256030133E+03  0.20986210635E+03  0.10000000000E+01 0.  0.
<mgrwt>
<rscale>  0 0.12500096E+03</rscale>
<asrwt>0</asrwt>
<pdfrwt beam="1">  1        4 0.42911085E-01 0.12500096E+03</pdfrwt>
<pdfrwt beam="2">  1       -4 0.21546191E-02 0.12500096E+03</pdfrwt>
<totfact> 0.76493074E+03</totfact>
</mgrwt>
</event>
<event>
 5    1  0.3266594E-002  0.1250007E+03  0.7818608E-02  0.1235068E+00
          4   -1    0    0  501    0  0.00000000000E+00  0.00000000000E+00  0.20881969450E+03  0.20882355641E+03  0.12700000000E+01 0. -1.
         -4   -1    0    0    0  501 -0.00000000000E+00 -0.00000000000E+00 -0.18680954630E+02  0.18724074500E+02  0.12700000000E+01 0. -1.
         25    2    1    2    0    0  0.00000000000E+00  0.00000000000E+00  0.19013873987E+03  0.22754763091E+03  0.12500073573E+03 0.  0.
    9000005    1    3    3    0    0  0.58139020121E+02  0.22382626637E+02  0.86120190282E+02  0.10629588332E+03  0.10000000000E+01 0.  0.
    9000005    1    3    3    0    0 -0.58139020121E+02 -0.22382626637E+02  0.10401854959E+03  0.12125174760E+03  0.10000000000E+01 0.  0.
<mgrwt>
<rscale>  0 0.12500074E+03</rscale>
<asrwt>0</asrwt>
<pdfrwt beam="1">  1        4 0.32129722E-01 0.12500074E+03</pdfrwt>
<pdfrwt beam="2">  1       -4 0.28776069E-02 0.12500074E+03</pdfrwt>
<totfact> 0.85686180E+03</totfact>
</mgrwt>
</event>
<event>
 5    1  0.3266594E-002  0.1250019E+03  0.7818608E-02  0.1235066E+00
         -4   -1    0    0    0  501 -0.00000000000E+00  0.00000000000E+00  0.33596235508E+01  0.35916528790E+01  0.12700000000E+01 0. -1.
          4   -1    0    0  501    0  0.00000000000E+00 -0.00000000000E+00 -0.11236965778E+04  0.11236972955E+04  0.12700000000E+01 0. -1.
         25    2    1    2    0    0  0.00000000000E+00  0.00000000000E+00 -0.11203369543E+04  0.11272889484E+04  0.12500192809E+03 0.  0.
    9000005    1    3    3    0    0  0.53824562817E+02 -0.29569015396E+02 -0.66454589503E+03  0.66737819626E+03  0.10000000000E+01 0.  0.
    9000005    1    3    3    0    0 -0.53824562817E+02  0.29569015396E+02 -0.45579105923E+03  0.45991075211E+03  0.10000000000E+01 0.  0.
<mgrwt>
<rscale>  0 0.12500193E+03</rscale>
<asrwt>0</asrwt>
<pdfrwt beam="2">  1        4 0.17289401E+00 0.12500193E+03</pdfrwt>
<pdfrwt beam="1">  1       -4 0.53476967E-03 0.12500193E+03</pdfrwt>
<totfact> 0.26697058E+03</totfact>
</mgrwt>
</event>
<event>
 5    1  0.3266594E-002  0.1250012E+03  0.7818608E-02  0.1235067E+00
          4   -1    0    0  501    0  0.00000000000E+00  0.00000000000E+00  0.50888100392E+03  0.50888258867E+03  0.12700000000E+01 0.  1.
         -4   -1    0    0    0  501 -0.00000000000E+00 -0.00000000000E+00 -0.76221630317E+01  0.77272420230E+01  0.12700000000E+01 0.  1.
         25    2    1    2    0    0  0.00000000000E+00  0.00000000000E+00  0.50125884089E+03  0.51660983070E+03  0.12500116639E+03 0.  0.
    9000005    1    3    3    0    0 -0.32220575345E+02 -0.28482929624E+02  0.43801988888E+03  0.44012710188E+03  0.10000000000E+01 0.  0.
    9000005    1    3    3    0    0  0.32220575345E+02  0.28482929624E+02  0.63238952018E+02  0.76482728821E+02  0.10000000000E+01 0.  0.
<mgrwt>
<rscale>  0 0.12500117E+03</rscale>
<asrwt>0</asrwt>
<pdfrwt beam="1">  1        4 0.78297604E-01 0.12500117E+03</pdfrwt>
<pdfrwt beam="2">  1       -4 0.11808452E-02 0.12500117E+03</pdfrwt>
<totfact> 0.54596884E+03</totfact>
</mgrwt>
</event>
<event>
 5    1  0.3266594E-002  0.1250007E+03  0.7818608E-02  0.1235068E+00
          4   -1    0    0  501    0  0.00000000000E+00  0.00000000000E+00  0.22025516051E+02  0.22062100020E+02  0.12700000000E+01 0. -1.
         -4   -1    0    0    0  501 -0.00000000000E+00 -0.00000000000E+00 -0.17716708271E+03  0.17717163457E+03  0.12700000000E+01 0. -1.
         25    2    1    2    0    0  0.00000000000E+00  0.00000000000E+00 -0.15514156666E+03  0.19923373459E+03  0.12500070117E+03 0.  0.
    9000005    1    3    3    0    0  0.49915359208E+02 -0.97268465928E+01 -0.19681824477E+02  0.54539241324E+02  0.10000000000E+01 0.  0.
    9000005    1    3    3    0    0 -0.49915359208E+02  0.97268465928E+01 -0.13545974218E+03  0.14469449327E+03  0.10000000000E+01 0.  0.
<mgrwt>
<rscale>  0 0.12500070E+03</rscale>
<asrwt>0</asrwt>
<pdfrwt beam="1">  1        4 0.33917053E-02 0.12500070E+03</pdfrwt>
<pdfrwt beam="2">  1       -4 0.27259638E-01 0.12500070E+03</pdfrwt>
<totfact> 0.90263488E+03</totfact>
</mgrwt>
</event>
<event>
 5    1  0.3266594E-002  0.1249920E+03  0.7818608E-02  0.1235082E+00
         -4   -1    0    0    0  501 -0.00000000000E+00  0.00000000000E+00  0.12215103798E+03  0.12215763988E+03  0.12700000000E+01 0.  1.
          4   -1    0    0  501    0  0.00000000000E+00 -0.00000000000E+00 -0.31954684089E+02  0.31979911432E+02  0.12700000000E+01 0.  1.
         25    2    1    2    0    0  0.00000000000E+00  0.00000000000E+00  0.90196353895E+02  0.15413755131E+03  0.12499200962E+03 0.  0.
    9000005    1    3    3    0    0  0.49204403174E+02 -0.38467547873E+02  0.42655023231E+02  0.75639120420E+02  0.10000000000E+01 0.  0.
    9000005    1    3    3    0    0 -0.49204403174E+02  0.38467547873E+02  0.47541330664E+02  0.78498430891E+02  0.10000000000E+01 0.  0.
<mgrwt>
<rscale>  0 0.12499201E+03</rscale>
<asrwt>0</asrwt>
<pdfrwt beam="2">  1        4 0.49185537E-02 0.12499201E+03</pdfrwt>
<pdfrwt beam="1">  1       -4 0.18794915E-01 0.12499201E+03</pdfrwt>
<totfact> 0.98502777E+03</totfact>
</mgrwt>
</event>
<event>
 5    1  0.3266594E-002  0.1249972E+03  0.7818608E-02  0.1235074E+00
          4   -1    0    0  501    0  0.00000000000E+00  0.00000000000E+00  0.22931172371E+02  0.22966313730E+02  0.12700000000E+01 0. -1.
         -4   -1    0    0    0  501 -0.00000000000E+00 -0.00000000000E+00 -0.17017108591E+03  0.17017582490E+03  0.12700000000E+01 0. -1.
         25    2    1    2    0    0  0.00000000000E+00  0.00000000000E+00 -0.14723991354E+03  0.19314213863E+03  0.12499717427E+03 0.  0.
    9000005    1    3    3    0    0 -0.13768049255E+02 -0.20558524160E+02 -0.16228727219E+03  0.16416568098E+03  0.10000000000E+01 0.  0.
    9000005    1    3    3    0    0  0.13768049255E+02  0.20558524160E+02  0.15047358647E+02  0.28976457654E+02  0.10000000000E+01 0.  0.
<mgrwt>
<rscale>  0 0.12499717E+03</rscale>
<asrwt>0</asrwt>
<pdfrwt beam="1">  1        4 0.35309405E-02 0.12499717E+03</pdfrwt>
<pdfrwt beam="2">  1       -4 0.26183234E-01 0.12499717E+03</pdfrwt>
<totfact> 0.91309227E+03</totfact>
</mgrwt>
</event>
<event>
 5    1  0.3266594E-002  0.1250141E+03  0.7818608E-02  0.1235047E+00
          4   -1    0    0  501    0  0.00000000000E+00  0.00000000000E+00  0.87991784053E+02  0.88000948636E+02  0.12700000000E+01 0. -1.
         -4   -1    0    0    0  501 -0.00000000000E+00 -0.00000000000E+00 -0.44382815230E+02  0.44400981833E+02  0.12700000000E+01 0. -1.
         25    2    1    2    0    0  0.00000000000E+00  0.00000000000E+00  0.43608968823E+02  0.13240193047E+03  0.12501411532E+03 0.  0.
    9000005    1    3    3    0    0 -0.43940857977E+02 -0.44441292271E+02  0.21219772284E+02  0.66008379727E+02  0.10000000000E+01 0.  0.
    9000005    1    3    3    0    0  0.43940857977E+02  0.44441292271E+02  0.22389196539E+02  0.66393550742E+02  0.10000000000E+01 0.  0.
<mgrwt>
<rscale>  0 0.12501412E+03</rscale>
<asrwt>0</asrwt>
<pdfrwt beam="1">  1        4 0.13539300E-01 0.12501412E+03</pdfrwt>
<pdfrwt beam="2">  1       -4 0.68302280E-02 0.12501412E+03</pdfrwt>
<totfact> 0.10289850E+04</totfact>
</mgrwt>
</event>
<event>
 5    1  0.3266594E-002  0.1250014E+03  0.7818608E-02  0.1235067E+00
         -4   -1    0    0    0  501 -0.00000000000E+00  0.00000000000E+00  0.37976323816E+01  0.40043615853E+01  0.12700000000E+01 0.  1.
          4   -1    0    0  501    0  0.00000000000E+00 -0.00000000000E+00 -0.10011617287E+04  0.10011625342E+04  0.12700000000E+01 0.  1.
         25    2    1    2    0    0  0.00000000000E+00  0.00000000000E+00 -0.99736409627E+03  0.10051668958E+04  0.12500139113E+03 0.  0.
    9000005    1    3    3    0    0 -0.15923746817E+02  0.10134474742E+02 -0.97773136503E+03  0.97791405320E+03  0.10000000000E+01 0.  0.
    9000005    1    3    3    0    0  0.15923746817E+02 -0.10134474742E+02 -0.19632731245E+02  0.27252842552E+02  0.10000000000E+01 0.  0.
<mgrwt>
<rscale>  0 0.12500139E+03</rscale>
<asrwt>0</asrwt>
<pdfrwt beam="2">  1        4 0.15404064E+00 0.12500139E+03</pdfrwt>
<pdfrwt beam="1">  1       -4 0.60021614E-03 0.12500139E+03</pdfrwt>
<totfact> 0.30433607E+03</totfact>
</mgrwt>
</event>
<event>
 5    1  0.3266594E-002  0.1250001E+03  0.7818608E-02  0.1235069E+00
         -4   -1    0    0    0  501 -0.00000000000E+00  0.00000000000E+00  0.42657913979E+01  0.44508287150E+01  0.12700000000E+01 0. -1.
          4   -1    0    0  501    0  0.00000000000E+00 -0.00000000000E+00 -0.89609154890E+03  0.89609244887E+03  0.12700000000E+01 0. -1.
         25    2    1    2    0    0  0.00000000000E+00  0.00000000000E+00 -0.89182575751E+03  0.90054327758E+03  0.12500005219E+03 0.  0.
    9000005    1    3    3    0    0  0.59526041445E+02 -0.56782263313E+01 -0.31510664482E+03  0.32073164714E+03  0.10000000000E+01 0.  0.
    9000005    1    3    3    0    0 -0.59526041445E+02  0.56782263313E+01 -0.57671911268E+03  0.57981163044E+03  0.10000000000E+01 0.  0.
<mgrwt>
<rscale>  0 0.12500005E+03</rscale>
<asrwt>0</asrwt>
<pdfrwt beam="2">  1        4 0.13787439E+00 0.12500005E+03</pdfrwt>
<pdfrwt beam="1">  1       -4 0.67057918E-03 0.12500005E+03</pdfrwt>
<totfact> 0.34139118E+03</totfact>
</mgrwt>
</event>
<event>
 5    1  0.3266594E-002  0.1250043E+03  0.7818608E-02  0.1235063E+00
         -4   -1    0    0    0  501 -0.00000000000E+00  0.00000000000E+00  0.64903329895E+03  0.64903454149E+03  0.12700000000E+01 0.  1.
          4   -1    0    0  501    0  0.00000000000E+00 -0.00000000000E+00 -0.59507225632E+01  0.60847349181E+01  0.12700000000E+01 0.  1.
         25    2    1    2    0    0  0.00000000000E+00  0.00000000000E+00  0.64308257639E+03  0.65511927641E+03  0.12500426500E+03 0.  0.
    9000005    1    3    3    0    0  0.17675629169E+02  0.56213855357E+02  0.21247633675E+03  0.22049856934E+03  0.10000000000E+01 0.  0.
    9000005    1    3    3    0    0 -0.17675629169E+02 -0.56213855357E+02  0.43060623964E+03  0.43462070707E+03  0.10000000000E+01 0.  0.
<mgrwt>
<rscale>  0 0.12500426E+03</rscale>
<asrwt>0</asrwt>
<pdfrwt beam="2">  1        4 0.92590026E-03 0.12500426E+03</pdfrwt>
<pdfrwt beam="1">  1       -4 0.99861653E-01 0.12500426E+03</pdfrwt>
<totfact> 0.45558964E+03</totfact>
</mgrwt>
</event>
<event>
 5    1  0.3266594E-002  0.1249979E+03  0.7818608E-02  0.1235073E+00
         -4   -1    0    0    0  501 -0.00000000000E+00  0.00000000000E+00  0.99644554305E+01  0.10045062072E+02  0.12700000000E+01 0. -1.
          4   -1    0    0  501    0  0.00000000000E+00 -0.00000000000E+00 -0.39034450466E+03  0.39034657065E+03  0.12700000000E+01 0. -1.
         25    2    1    2    0    0  0.00000000000E+00  0.00000000000E+00 -0.38038004923E+03  0.40039163272E+03  0.12499791079E+03 0.  0.
    9000005    1    3    3    0    0 -0.30565894821E+02  0.10808895599E+02 -0.19066296486E+02  0.37624856305E+02  0.10000000000E+01 0.  0.
    9000005    1    3    3    0    0  0.30565894821E+02 -0.10808895599E+02 -0.36131375274E+03  0.36276677642E+03  0.10000000000E+01 0.  0.
<mgrwt>
<rscale>  0 0.12499791E+03</rscale>
<asrwt>0</asrwt>
<pdfrwt beam="2">  1        4 0.60059348E-01 0.12499791E+03</pdfrwt>
<pdfrwt beam="1">  1       -4 0.15393529E-02 0.12499791E+03</pdfrwt>
<totfact> 0.64517698E+03</totfact>
</mgrwt>
</event>
<event>
 5    1  0.3266594E-002  0.1250022E+03  0.7818608E-02  0.1235066E+00
         -4   -1    0    0    0  501 -0.00000000000E+00  0.00000000000E+00  0.13499904323E+02  0.13559510195E+02  0.12700000000E+01 0. -1.
          4   -1    0    0  501    0  0.00000000000E+00 -0.00000000000E+00 -0.28866566281E+03  0.28866845651E+03  0.12700000000E+01 0. -1.
         25    2    1    2    0    0  0.00000000000E+00  0.00000000000E+00 -0.27516575849E+03  0.30222796671E+03  0.12500219685E+03 0.  0.
    9000005    1    3    3    0    0  0.14320726376E+02 -0.56973597736E+02 -0.18911698101E+03  0.19803359955E+03  0.10000000000E+01 0.  0.
    9000005    1    3    3    0    0 -0.14320726376E+02  0.56973597736E+02 -0.86048777476E+02  0.10419436716E+03  0.10000000000E+01 0.  0.
<mgrwt>
<rscale>  0 0.12500220E+03</rscale>
<asrwt>0</asrwt>
<pdfrwt beam="2">  1        4 0.44414897E-01 0.12500220E+03</pdfrwt>
<pdfrwt beam="1">  1       -4 0.20817085E-02 0.12500220E+03</pdfrwt>
<totfact> 0.75316543E+03</totfact>
</mgrwt>
</event>
<event>
 5    1  0.3266594E-002  0.1249925E+03  0.7818608E-02  0.1235081E+00
          4   -1    0    0  501    0  0.00000000000E+00  0.00000000000E+00  0.63758861507E+02  0.63771508690E+02  0.12700000000E+01 0. -1.
         -4   -1    0    0    0  501 -0.00000000000E+00 -0.00000000000E+00 -0.61233291413E+02  0.61246460121E+02  0.12700000000E+01 0. -1.
         25    2    1    2    0    0  0.00000000000E+00  0.00000000000E+00  0.25255700932E+01  0.12501796881E+03  0.12499245586E+03 0.  0.
    9000005    1    3    3    0    0 -0.14879335472E+02  0.34630687463E+02 -0.48588128277E+02  0.61501913366E+02  0.10000000000E+01 0.  0.
    9000005    1    3    3    0    0  0.14879335472E+02 -0.34630687463E+02  0.51113698370E+02  0.63516055445E+02  0.10000000000E+01 0.  0.
<mgrwt>
<rscale>  0 0.12499246E+03</rscale>
<asrwt>0</asrwt>
<pdfrwt beam="1">  1        4 0.98110415E-02 0.12499246E+03</pdfrwt>
<pdfrwt beam="2">  1       -4 0.94224922E-02 0.12499246E+03</pdfrwt>
<totfact> 0.10454255E+04</totfact>
</mgrwt>
</event>
<event>
 5    1  0.3266594E-002  0.1249987E+03  0.7818608E-02  0.1235071E+00
          4   -1    0    0  501    0  0.00000000000E+00  0.00000000000E+00  0.18386488755E+02  0.18430297576E+02  0.12700000000E+01 0.  1.
         -4   -1    0    0    0  501 -0.00000000000E+00 -0.00000000000E+00 -0.21214927434E+03  0.21215307564E+03  0.12700000000E+01 0.  1.
         25    2    1    2    0    0  0.00000000000E+00  0.00000000000E+00 -0.19376278558E+03  0.23058337321E+03  0.12499869969E+03 0.  0.
    9000005    1    3    3    0    0 -0.48395140552E+02 -0.14375310707E+02 -0.16482069988E+03  0.17238214031E+03  0.10000000000E+01 0.  0.
    9000005    1    3    3    0    0  0.48395140552E+02  0.14375310707E+02 -0.28942085698E+02  0.58201232904E+02  0.10000000000E+01 0.  0.
<mgrwt>
<rscale>  0 0.12499870E+03</rscale>
<asrwt>0</asrwt>
<pdfrwt beam="1">  1        4 0.28323530E-02 0.12499870E+03</pdfrwt>
<pdfrwt beam="2">  1       -4 0.32642011E-01 0.12499870E+03</pdfrwt>
<totfact> 0.85222573E+03</totfact>
</mgrwt>
</event>
<event>
 5    1  0.3266594E-002  0.1249925E+03  0.7818608E-02  0.1235081E+00
          4   -1    0    0  501    0  0.00000000000E+00  0.00000000000E+00  0.59091110100E+03  0.59091246575E+03  0.12700000000E+01 0. -1.
         -4   -1    0    0    0  501 -0.00000000000E+00 -0.00000000000E+00 -0.65473701578E+01  0.66694044699E+01  0.12700000000E+01 0. -1.
         25    2    1    2    0    0  0.00000000000E+00  0.00000000000E+00  0.58436373084E+03  0.59758187022E+03  0.12499248657E+03 0.  0.
    9000005    1    3    3    0    0  0.25839421960E+02  0.49787154202E+02  0.42383967496E+03  0.42753655577E+03  0.10000000000E+01 0.  0.
    9000005    1    3    3    0    0 -0.25839421960E+02 -0.49787154202E+02  0.16052405588E+03  0.17004531445E+03  0.10000000000E+01 0.  0.
<mgrwt>
<rscale>  0 0.12499249E+03</rscale>
<asrwt>0</asrwt>
<pdfrwt beam="1">  1        4 0.90918911E-01 0.12499249E+03</pdfrwt>
<pdfrwt beam="2">  1       -4 0.10167797E-02 0.12499249E+03</pdfrwt>
<totfact> 0.49028676E+03</totfact>
</mgrwt>
</event>
<event>
 5    1  0.3266594E-002  0.1250316E+03  0.7818608E-02  0.1235020E+00
          4   -1    0    0  501    0  0.00000000000E+00  0.00000000000E+00  0.30225639181E+03  0.30225905989E+03  0.12700000000E+01 0. -1.
         -4   -1    0    0    0  501 -0.00000000000E+00 -0.00000000000E+00 -0.12896247901E+02  0.12958630712E+02  0.12700000000E+01 0. -1.
         25    2    1    2    0    0  0.00000000000E+00  0.00000000000E+00  0.28936014390E+03  0.31521769061E+03  0.12503159437E+03 0.  0.
    9000005    1    3    3    0    0 -0.59443385403E+02  0.10541024519E+02  0.18553406984E+03  0.19511155870E+03  0.10000000000E+01 0.  0.
    9000005    1    3    3    0    0  0.59443385403E+02 -0.10541024519E+02  0.10382607406E+03  0.12010613191E+03  0.10000000000E+01 0.  0.
<mgrwt>
<rscale>  0 0.12503159E+03</rscale>
<asrwt>0</asrwt>
<pdfrwt beam="1">  1        4 0.46505983E-01 0.12503159E+03</pdfrwt>
<pdfrwt beam="2">  1       -4 0.19890422E-02 0.12503159E+03</pdfrwt>
<totfact> 0.73676925E+03</totfact>
</mgrwt>
</event>
<event>
 5    1  0.3266594E-002  0.1250028E+03  0.7818608E-02  0.1235065E+00
         -4   -1    0    0    0  501 -0.00000000000E+00  0.00000000000E+00  0.10653859902E+02  0.10729288458E+02  0.12700000000E+01 0. -1.
          4   -1    0    0  501    0  0.00000000000E+00 -0.00000000000E+00 -0.36529756718E+03  0.36529977483E+03  0.12700000000E+01 0. -1.
         25    2    1    2    0    0  0.00000000000E+00  0.00000000000E+00 -0.35464370728E+03  0.37602906328E+03  0.12500278926E+03 0.  0.
    9000005    1    3    3    0    0 -0.55248402885E+02 -0.47505667649E+01 -0.26401081395E+03  0.26977335633E+03  0.10000000000E+01 0.  0.
    9000005    1    3    3    0    0  0.55248402885E+02  0.47505667649E+01 -0.90632893330E+02  0.10625570695E+03  0.10000000000E+01 0.  0.
<mgrwt>
<rscale>  0 0.12500279E+03</rscale>
<asrwt>0</asrwt>
<pdfrwt beam="2">  1        4 0.56205588E-01 0.12500279E+03</pdfrwt>
<pdfrwt beam="1">  1       -4 0.16450277E-02 0.12500279E+03</pdfrwt>
<totfact> 0.66948743E+03</totfact>
</mgrwt>
</event>
<event>
 5    1  0.3266594E-002  0.1250000E+03  0.7818608E-02  0.1235069E+00
         -4   -1    0    0    0  501 -0.00000000000E+00  0.00000000000E+00  0.15968316352E+03  0.15968821376E+03  0.12700000000E+01 0. -1.
          4   -1    0    0  501    0  0.00000000000E+00 -0.00000000000E+00 -0.24440561423E+02  0.24473535557E+02  0.12700000000E+01 0. -1.
         25    2    1    2    0    0  0.00000000000E+00  0.00000000000E+00  0.13524260210E+03  0.18416174931E+03  0.12499995395E+03 0.  0.
    9000005    1    3    3    0    0  0.23296958873E+02 -0.30519856754E+02 -0.50202951074E+01  0.38735168930E+02  0.10000000000E+01 0.  0.
    9000005    1    3    3    0    0 -0.23296958873E+02  0.30519856754E+02  0.14026289721E+03  0.14542658038E+03  0.10000000000E+01 0.  0.
<mgrwt>
<rscale>  0 0.12499995E+03</rscale>
<asrwt>0</asrwt>
<pdfrwt beam="2">  1        4 0.37630114E-02 0.12499995E+03</pdfrwt>
<pdfrwt beam="1">  1       -4 0.24569565E-01 0.12499995E+03</pdfrwt>
<totfact> 0.92873290E+03</totfact>
</mgrwt>
</event>
<event>
 4    1  0.3266594E-002  0.1250614E+03  0.7818608E-02  0.1234973E+00
         -4   -1    0    0    0  501 -0.00000000000E+00  0.00000000000E+00  0.38712719827E+02  0.38733545879E+02  0.12700000000E+01 0. -1.
          4   -1    0    0  501    0  0.00000000000E+00 -0.00000000000E+00 -0.10095065525E+03  0.10095864349E+03  0.12700000000E+01 0. -1.
    9000005    1    1    2    0    0  0.14845595953E+02  0.57069260447E+02 -0.79083058324E+01  0.59504903229E+02  0.10000000000E+01 0.  0.
    9000005    1    1    2    0    0 -0.14845595953E+02 -0.57069260447E+02 -0.54329629592E+02  0.80187286141E+02  0.10000000000E+01 0.  0.
<mgrwt>
<rscale>  0 0.12506137E+03</rscale>
<asrwt>0</asrwt>
<pdfrwt beam="2">  1        4 0.15533086E-01 0.12506137E+03</pdfrwt>
<pdfrwt beam="1">  1       -4 0.59580196E-02 0.12506137E+03</pdfrwt>
<totfact> 0.10125961E+04</totfact>
</mgrwt>
</event>
<event>
 5    1  0.3266594E-002  0.1249516E+03  0.7818608E-02  0.1235145E+00
          4   -1    0    0  501    0  0.00000000000E+00  0.00000000000E+00  0.11047106349E+02  0.11119867746E+02  0.12700000000E+01 0.  1.
         -4   -1    0    0    0  501 -0.00000000000E+00 -0.00000000000E+00 -0.35209200347E+03  0.35209429391E+03  0.12700000000E+01 0.  1.
         25    2    1    2    0    0  0.00000000000E+00  0.00000000000E+00 -0.34104489712E+03  0.36321416166E+03  0.12495161215E+03 0.  0.
    9000005    1    3    3    0    0 -0.21373208745E+02  0.29634142120E+02 -0.31780567576E+03  0.31990067830E+03  0.10000000000E+01 0.  0.
    9000005    1    3    3    0    0  0.21373208745E+02 -0.29634142120E+02 -0.23239221356E+02  0.43313483357E+02  0.10000000000E+01 0.  0.
<mgrwt>
<rscale>  0 0.12495161E+03</rscale>
<asrwt>0</asrwt>
<pdfrwt beam="1">  1        4 0.17053283E-02 0.12495161E+03</pdfrwt>
<pdfrwt beam="2">  1       -4 0.54173765E-01 0.12495161E+03</pdfrwt>
<totfact> 0.68368028E+03</totfact>
</mgrwt>
</event>
<event>
 5    1  0.3266594E-002  0.1250021E+03  0.7818608E-02  0.1235066E+00
          4   -1    0    0  501    0  0.00000000000E+00  0.00000000000E+00  0.12124851507E+03  0.12125516610E+03  0.12700000000E+01 0.  1.
         -4   -1    0    0    0  501 -0.00000000000E+00 -0.00000000000E+00 -0.32197916544E+02  0.32222953461E+02  0.12700000000E+01 0.  1.
         25    2    1    2    0    0  0.00000000000E+00  0.00000000000E+00  0.89050598521E+02  0.15347811956E+03  0.12500209633E+03 0.  0.
    9000005    1    3    3    0    0 -0.97465519688E+01  0.60095909664E+02  0.27210759263E+02  0.66692871083E+02  0.10000000000E+01 0.  0.
    9000005    1    3    3    0    0  0.97465519688E+01 -0.60095909664E+02  0.61839839258E+02  0.86785248476E+02  0.10000000000E+01 0.  0.
<mgrwt>
<rscale>  0 0.12500210E+03</rscale>
<asrwt>0</asrwt>
<pdfrwt beam="1">  1        4 0.18656055E-01 0.12500210E+03</pdfrwt>
<pdfrwt beam="2">  1       -4 0.49559632E-02 0.12500210E+03</pdfrwt>
<totfact> 0.98610200E+03</totfact>
</mgrwt>
</event>
<event>
 5    1  0.3266594E-002  0.1249968E+03  0.7818608E-02  0.1235074E+00
         -4   -1    0    0    0  501 -0.00000000000E+00  0.00000000000E+00  0.45122360549E+01  0.46875552493E+01  0.12700000000E+01 0. -1.
          4   -1    0    0  501    0  0.00000000000E+00 -0.00000000000E+00 -0.84898467563E+03  0.84898562553E+03  0.12700000000E+01 0. -1.
         25    2    1    2    0    0  0.00000000000E+00  0.00000000000E+00 -0.84447243958E+03  0.85367318078E+03  0.12499679347E+03 0.  0.
    9000005    1    3    3    0    0 -0.33294073143E+02  0.18729647231E+02 -0.75998921203E+03  0.76094933957E+03  0.10000000000E+01 0.  0.
    9000005    1    3    3    0    0  0.33294073143E+02 -0.18729647231E+02 -0.84483227551E+02  0.92723841213E+02  0.10000000000E+01 0.  0.
<mgrwt>
<rscale>  0 0.12499679E+03</rscale>
<asrwt>0</asrwt>
<pdfrwt beam="2">  1        4 0.13062646E+00 0.12499679E+03</pdfrwt>
<pdfrwt beam="1">  1       -4 0.70775000E-03 0.12499679E+03</pdfrwt>
<totfact> 0.35980033E+03</totfact>
</mgrwt>
</event>
<event>
 5    1  0.3266594E-002  0.1249928E+03  0.7818608E-02  0.1235080E+00
         -4   -1    0    0    0  501 -0.00000000000E+00  0.00000000000E+00  0.48813527301E+01  0.50438580944E+01  0.12700000000E+01 0.  1.
          4   -1    0    0  501    0  0.00000000000E+00 -0.00000000000E+00 -0.78688357838E+03  0.78688460324E+03  0.12700000000E+01 0.  1.
         25    2    1    2    0    0  0.00000000000E+00  0.00000000000E+00 -0.78200222565E+03  0.79192846134E+03  0.12499282763E+03 0.  0.
    9000005    1    3    3    0    0 -0.11279199093E+02  0.48812725620E+02 -0.15436976631E+03  0.16229888251E+03  0.10000000000E+01 0.  0.
    9000005    1    3    3    0    0  0.11279199093E+02 -0.48812725620E+02 -0.62763245934E+03  0.62962957882E+03  0.10000000000E+01 0.  0.
<mgrwt>
<rscale>  0 0.12499283E+03</rscale>
<asrwt>0</asrwt>
<pdfrwt beam="2">  1        4 0.12107149E+00 0.12499283E+03</pdfrwt>
<pdfrwt beam="1">  1       -4 0.76355722E-03 0.12499283E+03</pdfrwt>
<totfact> 0.38633693E+03</totfact>
</mgrwt>
</event>
<event>
 5    1  0.3266594E-002  0.1250022E+03  0.7818608E-02  0.1235066E+00
         -4   -1    0    0    0  501 -0.00000000000E+00  0.00000000000E+00  0.26610274067E+02  0.26640562793E+02  0.12700000000E+01 0. -1.
          4   -1    0    0  501    0  0.00000000000E+00 -0.00000000000E+00 -0.14668352094E+03  0.14668901873E+03  0.12700000000E+01 0. -1.
         25    2    1    2    0    0  0.00000000000E+00  0.00000000000E+00 -0.12007324687E+03  0.17332958152E+03  0.12500223684E+03 0.  0.
    9000005    1    3    3    0    0  0.37076899637E+02 -0.48653386380E+02 -0.77769069246E+02  0.98948858631E+02  0.10000000000E+01 0.  0.
    9000005    1    3    3    0    0 -0.37076899637E+02  0.48653386380E+02 -0.42304177629E+02  0.74380722891E+02  0.10000000000E+01 0.  0.
<mgrwt>
<rscale>  0 0.12500224E+03</rscale>
<asrwt>0</asrwt>
<pdfrwt beam="2">  1        4 0.22569448E-01 0.12500224E+03</pdfrwt>
<pdfrwt beam="1">  1       -4 0.40966412E-02 0.12500224E+03</pdfrwt>
<totfact> 0.94826908E+03</totfact>
</mgrwt>
</event>
<event>
 5    1  0.3266594E-002  0.1249993E+03  0.7818608E-02  0.1235070E+00
          4   -1    0    0  501    0  0.00000000000E+00  0.00000000000E+00  0.74449215435E+01  0.75524669339E+01  0.12700000000E+01 0. -1.
         -4   -1    0    0    0  501 -0.00000000000E+00 -0.00000000000E+00 -0.52081015140E+03  0.52081169986E+03  0.12700000000E+01 0. -1.
         25    2    1    2    0    0  0.00000000000E+00  0.00000000000E+00 -0.51336522986E+03  0.52836416679E+03  0.12499933406E+03 0.  0.
    9000005    1    3    3    0    0  0.53767093617E+02 -0.23233519440E+02 -0.34875917224E+03  0.35364481758E+03  0.10000000000E+01 0.  0.
    9000005    1    3    3    0    0 -0.53767093617E+02  0.23233519440E+02 -0.16460605762E+03  0.17471934921E+03  0.10000000000E+01 0.  0.
<mgrwt>
<rscale>  0 0.12499933E+03</rscale>
<asrwt>0</asrwt>
<pdfrwt beam="1">  1        4 0.11537648E-02 0.12499933E+03</pdfrwt>
<pdfrwt beam="2">  1       -4 0.80133002E-01 0.12499933E+03</pdfrwt>
<totfact> 0.53729710E+03</totfact>
</mgrwt>
</event>
<event>
 5    1  0.3266594E-002  0.1249887E+03  0.7818608E-02  0.1235087E+00
         -4   -1    0    0    0  501 -0.00000000000E+00  0.00000000000E+00  0.29238831911E+02  0.29266400385E+02  0.12700000000E+01 0. -1.
          4   -1    0    0  501    0  0.00000000000E+00 -0.00000000000E+00 -0.13348039543E+03  0.13348643701E+03  0.12700000000E+01 0. -1.
         25    2    1    2    0    0  0.00000000000E+00  0.00000000000E+00 -0.10424156352E+03  0.16275283739E+03  0.12498872955E+03 0.  0.
    9000005    1    3    3    0    0  0.56002724926E+02 -0.24923364696E+02 -0.67911952520E+02  0.91490505529E+02  0.10000000000E+01 0.  0.
    9000005    1    3    3    0    0 -0.56002724926E+02  0.24923364696E+02 -0.36329611000E+02  0.71262331861E+02  0.10000000000E+01 0.  0.
<mgrwt>
<rscale>  0 0.12498873E+03</rscale>
<asrwt>0</asrwt>
<pdfrwt beam="2">  1        4 0.20538031E-01 0.12498873E+03</pdfrwt>
<pdfrwt beam="1">  1       -4 0.45008673E-02 0.12498873E+03</pdfrwt>
<totfact> 0.96839192E+03</totfact>
</mgrwt>
</event>
<event>
 5    1  0.3266594E-002  0.1249979E+03  0.7818608E-02  0.1235073E+00
         -4   -1    0    0    0  501 -0.00000000000E+00  0.00000000000E+00  0.19975014482E+03  0.19975418208E+03  0.12700000000E+01 0.  1.
          4   -1    0    0  501    0  0.00000000000E+00 -0.00000000000E+00 -0.19530152949E+02  0.19571401948E+02  0.12700000000E+01 0.  1.
         25    2    1    2    0    0  0.00000000000E+00  0.00000000000E+00  0.18021999187E+03  0.21932558402E+03  0.12499786533E+03 0.  0.
    9000005    1    3    3    0    0 -0.10534991495E+02  0.52781267472E+02  0.14582533321E+03  0.15544412516E+03  0.10000000000E+01 0.  0.
    9000005    1    3    3    0    0  0.10534991495E+02 -0.52781267472E+02  0.34394658665E+02  0.63881458863E+02  0.10000000000E+01 0.  0.
<mgrwt>
<rscale>  0 0.12499787E+03</rscale>
<asrwt>0</asrwt>
<pdfrwt beam="2">  1        4 0.30081226E-02 0.12499787E+03</pdfrwt>
<pdfrwt beam="1">  1       -4 0.30734273E-01 0.12499787E+03</pdfrwt>
<totfact> 0.86979328E+03</totfact>
</mgrwt>
</event>
<event>
 5    1  0.3266594E-002  0.1249916E+03  0.7818608E-02  0.1235082E+00
          4   -1    0    0  501    0  0.00000000000E+00  0.00000000000E+00  0.79075428454E+02  0.79085626287E+02  0.12700000000E+01 0.  1.
         -4   -1    0    0    0  501 -0.00000000000E+00 -0.00000000000E+00 -0.49370820425E+02  0.49387152271E+02  0.12700000000E+01 0.  1.
         25    2    1    2    0    0  0.00000000000E+00  0.00000000000E+00  0.29704608029E+02  0.12847277856E+03  0.12499156408E+03 0.  0.
    9000005    1    3    3    0    0  0.10957375544E+02 -0.56202261910E+02  0.40568412496E+02  0.70182294171E+02  0.10000000000E+01 0.  0.
    9000005    1    3    3    0    0 -0.10957375544E+02  0.56202261910E+02 -0.10863804468E+02  0.58290484387E+02  0.10000000000E+01 0.  0.
<mgrwt>
<rscale>  0 0.12499156E+03</rscale>
<asrwt>0</asrwt>
<pdfrwt beam="1">  1        4 0.12167491E-01 0.12499156E+03</pdfrwt>
<pdfrwt beam="2">  1       -4 0.75975515E-02 0.12499156E+03</pdfrwt>
<totfact> 0.10379267E+04</totfact>
</mgrwt>
</event>
<event>
 5    1  0.3266594E-002  0.1249932E+03  0.7818608E-02  0.1235080E+00
          4   -1    0    0  501    0  0.00000000000E+00  0.00000000000E+00  0.83394437438E+02  0.83404107187E+02  0.12700000000E+01 0.  1.
         -4   -1    0    0    0  501 -0.00000000000E+00 -0.00000000000E+00 -0.46814581462E+02  0.46831804764E+02  0.12700000000E+01 0.  1.
         25    2    1    2    0    0  0.00000000000E+00  0.00000000000E+00  0.36579855976E+02  0.13023591195E+03  0.12499322741E+03 0.  0.
    9000005    1    3    3    0    0  0.10845195311E+02  0.44564677134E+02 -0.25930709929E+02  0.52697537199E+02  0.10000000000E+01 0.  0.
    9000005    1    3    3    0    0 -0.10845195311E+02 -0.44564677134E+02  0.62510565905E+02  0.77538374752E+02  0.10000000000E+01 0.  0.
<mgrwt>
<rscale>  0 0.12499323E+03</rscale>
<asrwt>0</asrwt>
<pdfrwt beam="1">  1        4 0.12831982E-01 0.12499323E+03</pdfrwt>
<pdfrwt beam="2">  1       -4 0.72043121E-02 0.12499323E+03</pdfrwt>
<totfact> 0.10341044E+04</totfact>
</mgrwt>
</event>
<event>
 5    1  0.3266594E-002  0.1249995E+03  0.7818608E-02  0.1235070E+00
          4   -1    0    0  501    0  0.00000000000E+00  0.00000000000E+00  0.25967730276E+03  0.25968040833E+03  0.12700000000E+01 0. -1.
         -4   -1    0    0    0  501 -0.00000000000E+00 -0.00000000000E+00 -0.15012575240E+02  0.15066197773E+02  0.12700000000E+01 0. -1.
         25    2    1    2    0    0  0.00000000000E+00  0.00000000000E+00  0.24466472752E+03  0.27474660610E+03  0.12499947468E+03 0.  0.
    9000005    1    3    3    0    0 -0.32783136406E+02 -0.33598268443E+02  0.31663551483E+02  0.56631777012E+02  0.10000000000E+01 0.  0.
    9000005    1    3    3    0    0  0.32783136406E+02  0.33598268443E+02  0.21300117604E+03  0.21811482909E+03  0.10000000000E+01 0.  0.
<mgrwt>
<rscale>  0 0.12499947E+03</rscale>
<asrwt>0</asrwt>
<pdfrwt beam="1">  1        4 0.39954719E-01 0.12499947E+03</pdfrwt>
<pdfrwt beam="2">  1       -4 0.23139906E-02 0.12499947E+03</pdfrwt>
<totfact> 0.78880782E+03</totfact>
</mgrwt>
</event>
<event>
 5    1  0.3266594E-002  0.1250014E+03  0.7818608E-02  0.1235067E+00
         -4   -1    0    0    0  501 -0.00000000000E+00  0.00000000000E+00  0.66807438699E+02  0.66819508869E+02  0.12700000000E+01 0. -1.
          4   -1    0    0  501    0  0.00000000000E+00 -0.00000000000E+00 -0.58447358387E+02  0.58461154645E+02  0.12700000000E+01 0. -1.
         25    2    1    2    0    0  0.00000000000E+00  0.00000000000E+00  0.83600803120E+01  0.12528066351E+03  0.12500141482E+03 0.  0.
    9000005    1    3    3    0    0  0.46204375681E+02 -0.40214532841E+02  0.16588548391E+02  0.63468361578E+02  0.10000000000E+01 0.  0.
    9000005    1    3    3    0    0 -0.46204375681E+02  0.40214532841E+02 -0.82284680786E+01  0.61812301936E+02  0.10000000000E+01 0.  0.
<mgrwt>
<rscale>  0 0.12500141E+03</rscale>
<asrwt>0</asrwt>
<pdfrwt beam="2">  1        4 0.89938910E-02 0.12500141E+03</pdfrwt>
<pdfrwt beam="1">  1       -4 0.10280057E-01 0.12500141E+03</pdfrwt>
<totfact> 0.10446436E+04</totfact>
</mgrwt>
</event>
<event>
 5    1  0.3266594E-002  0.1249990E+03  0.7818608E-02  0.1235071E+00
         -4   -1    0    0    0  501 -0.00000000000E+00  0.00000000000E+00  0.36582122595E+03  0.36582343043E+03  0.12700000000E+01 0. -1.
          4   -1    0    0  501    0  0.00000000000E+00 -0.00000000000E+00 -0.10637851295E+02  0.10713392561E+02  0.12700000000E+01 0. -1.
         25    2    1    2    0    0  0.00000000000E+00  0.00000000000E+00  0.35518337465E+03  0.37653682300E+03  0.12499899776E+03 0.  0.
    9000005    1    3    3    0    0 -0.27845626854E+02 -0.35037887269E+01  0.93992843419E+01  0.29614219835E+02  0.10000000000E+01 0.  0.
    9000005    1    3    3    0    0  0.27845626854E+02  0.35037887269E+01  0.34578409031E+03  0.34692260316E+03  0.10000000000E+01 0.  0.
<mgrwt>
<rscale>  0 0.12499900E+03</rscale>
<asrwt>0</asrwt>
<pdfrwt beam="2">  1        4 0.16425730E-02 0.12499900E+03</pdfrwt>
<pdfrwt beam="1">  1       -4 0.56286167E-01 0.12499900E+03</pdfrwt>
<totfact> 0.66902045E+03</totfact>
</mgrwt>
</event>
<event>
 5    1  0.3266594E-002  0.1250010E+03  0.7818608E-02  0.1235068E+00
         -4   -1    0    0    0  501 -0.00000000000E+00  0.00000000000E+00  0.16746213312E+03  0.16746694876E+03  0.12700000000E+01 0.  1.
          4   -1    0    0  501    0  0.00000000000E+00 -0.00000000000E+00 -0.23304109013E+02  0.23338688842E+02  0.12700000000E+01 0.  1.
         25    2    1    2    0    0  0.00000000000E+00  0.00000000000E+00  0.14415802410E+03  0.19080563761E+03  0.12500102171E+03 0.  0.
    9000005    1    3    3    0    0  0.48902120794E+02  0.17608470650E+02  0.12504068557E+03  0.13541657470E+03  0.10000000000E+01 0.  0.
    9000005    1    3    3    0    0 -0.48902120794E+02 -0.17608470650E+02  0.19117338539E+02  0.55389062906E+02  0.10000000000E+01 0.  0.
<mgrwt>
<rscale>  0 0.12500102E+03</rscale>
<asrwt>0</asrwt>
<pdfrwt beam="2">  1        4 0.35882780E-02 0.12500102E+03</pdfrwt>
<pdfrwt beam="1">  1       -4 0.25766435E-01 0.12500102E+03</pdfrwt>
<totfact> 0.91705226E+03</totfact>
</mgrwt>
</event>
<event>
 5    1  0.3266594E-002  0.1250013E+03  0.7818608E-02  0.1235067E+00
          4   -1    0    0  501    0  0.00000000000E+00  0.00000000000E+00  0.28975779820E+02  0.29003598332E+02  0.12700000000E+01 0.  1.
         -4   -1    0    0    0  501 -0.00000000000E+00 -0.00000000000E+00 -0.13471808758E+03  0.13472407365E+03  0.12700000000E+01 0.  1.
         25    2    1    2    0    0  0.00000000000E+00  0.00000000000E+00 -0.10574230776E+03  0.16372767198E+03  0.12500125968E+03 0.  0.
    9000005    1    3    3    0    0 -0.10840683341E+02  0.60093126998E+02 -0.35463788290E+02  0.70621417485E+02  0.10000000000E+01 0.  0.
    9000005    1    3    3    0    0  0.10840683341E+02 -0.60093126998E+02 -0.70278519469E+02  0.93106254497E+02  0.10000000000E+01 0.  0.
<mgrwt>
<rscale>  0 0.12500126E+03</rscale>
<asrwt>0</asrwt>
<pdfrwt beam="1">  1        4 0.44604127E-02 0.12500126E+03</pdfrwt>
<pdfrwt beam="2">  1       -4 0.20728460E-01 0.12500126E+03</pdfrwt>
<totfact> 0.96626160E+03</totfact>
</mgrwt>
</event>
<event>
 5    1  0.3266594E-002  0.1250031E+03  0.7818608E-02  0.1235065E+00
         -4   -1    0    0    0  501 -0.00000000000E+00  0.00000000000E+00  0.19979646242E+02  0.20019969130E+02  0.12700000000E+01 0. -1.
          4   -1    0    0  501    0  0.00000000000E+00 -0.00000000000E+00 -0.19528152503E+03  0.19528565467E+03  0.12700000000E+01 0. -1.
         25    2    1    2    0    0  0.00000000000E+00  0.00000000000E+00 -0.17530187879E+03  0.21530562380E+03  0.12500305169E+03 0.  0.
    9000005    1    3    3    0    0 -0.42902102300E+02  0.12823261016E+02 -0.12564950257E+02  0.46517785629E+02  0.10000000000E+01 0.  0.
    9000005    1    3    3    0    0  0.42902102300E+02 -0.12823261016E+02 -0.16273692854E+03  0.16878783817E+03  0.10000000000E+01 0.  0.
<mgrwt>
<rscale>  0 0.12500305E+03</rscale>
<asrwt>0</asrwt>
<pdfrwt beam="2">  1        4 0.30046730E-01 0.12500305E+03</pdfrwt>
<pdfrwt beam="1">  1       -4 0.30772113E-02 0.12500305E+03</pdfrwt>
<totfact> 0.87610693E+03</totfact>
</mgrwt>
</event>
<event>
 5    1  0.3266594E-002  0.1250013E+03  0.7818608E-02  0.1235067E+00
         -4   -1    0    0    0  501 -0.00000000000E+00  0.00000000000E+00  0.20101091580E+03  0.20101492773E+03  0.12700000000E+01 0. -1.
          4   -1    0    0  501    0  0.00000000000E+00 -0.00000000000E+00 -0.19408472487E+02  0.19449979545E+02  0.12700000000E+01 0. -1.
         25    2    1    2    0    0  0.00000000000E+00  0.00000000000E+00  0.18160244332E+03  0.22046490728E+03  0.12500131169E+03 0.  0.
    9000005    1    3    3    0    0  0.29716475035E+02 -0.47511822631E+02  0.42023182804E+02  0.70052766335E+02  0.10000000000E+01 0.  0.
    9000005    1    3    3    0    0 -0.29716475035E+02  0.47511822631E+02  0.13957926051E+03  0.15041214094E+03  0.10000000000E+01 0.  0.
<mgrwt>
<rscale>  0 0.12500131E+03</rscale>
<asrwt>0</asrwt>
<pdfrwt beam="2">  1        4 0.29894203E-02 0.12500131E+03</pdfrwt>
<pdfrwt beam="1">  1       -4 0.30928258E-01 0.12500131E+03</pdfrwt>
<totfact> 0.86792294E+03</totfact>
</mgrwt>
</event>
<event>
 5    1  0.3266594E-002  0.1250027E+03  0.7818608E-02  0.1235065E+00
         -4   -1    0    0    0  501 -0.00000000000E+00  0.00000000000E+00  0.59433197156E+03  0.59433332846E+03  0.12700000000E+01 0.  1.
          4   -1    0    0  501    0  0.00000000000E+00 -0.00000000000E+00 -0.65100594807E+01  0.66327802950E+01  0.12700000000E+01 0.  1.
         25    2    1    2    0    0  0.00000000000E+00  0.00000000000E+00  0.58782191208E+03  0.60096610875E+03  0.12500265418E+03 0.  0.
    9000005    1    3    3    0    0 -0.45828860906E+02  0.12155447818E+02  0.98188195469E+02  0.10904109837E+03  0.10000000000E+01 0.  0.
    9000005    1    3    3    0    0  0.45828860906E+02 -0.12155447818E+02  0.48963371661E+03  0.49192501039E+03  0.10000000000E+01 0.  0.
<mgrwt>
<rscale>  0 0.12500265E+03</rscale>
<asrwt>0</asrwt>
<pdfrwt beam="2">  1        4 0.10110920E-02 0.12500265E+03</pdfrwt>
<pdfrwt beam="1">  1       -4 0.91445235E-01 0.12500265E+03</pdfrwt>
<totfact> 0.48803842E+03</totfact>
</mgrwt>
</event>
<event>
 5    1  0.3266594E-002  0.1249986E+03  0.7818608E-02  0.1235071E+00
         -4   -1    0    0    0  501 -0.00000000000E+00  0.00000000000E+00  0.15383535170E+02  0.15435869083E+02  0.12700000000E+01 0.  1.
          4   -1    0    0  501    0  0.00000000000E+00 -0.00000000000E+00 -0.25343345728E+03  0.25343663936E+03  0.12700000000E+01 0.  1.
         25    2    1    2    0    0  0.00000000000E+00  0.00000000000E+00 -0.23804992211E+03  0.26887250844E+03  0.12499864151E+03 0.  0.
    9000005    1    3    3    0    0  0.53833913459E+02  0.10828422964E+02 -0.54860845133E+02  0.77627683921E+02  0.10000000000E+01 0.  0.
    9000005    1    3    3    0    0 -0.53833913459E+02 -0.10828422964E+02 -0.18318907698E+03  0.19124482452E+03  0.10000000000E+01 0.  0.
<mgrwt>
<rscale>  0 0.12499864E+03</rscale>
<asrwt>0</asrwt>
<pdfrwt beam="2">  1        4 0.38994030E-01 0.12499864E+03</pdfrwt>
<pdfrwt beam="1">  1       -4 0.23709684E-02 0.12499864E+03</pdfrwt>
<totfact> 0.79679241E+03</totfact>
</mgrwt>
</event>
<event>
 5    1  0.3266594E-002  0.1250081E+03  0.7818608E-02  0.1235057E+00
          4   -1    0    0  501    0  0.00000000000E+00  0.00000000000E+00  0.30743882392E+03  0.30744144703E+03  0.12700000000E+01 0. -1.
         -4   -1    0    0    0  501 -0.00000000000E+00 -0.00000000000E+00 -0.12673001724E+02  0.12736478034E+02  0.12700000000E+01 0. -1.
         25    2    1    2    0    0  0.00000000000E+00  0.00000000000E+00  0.29476582219E+03  0.32017792506E+03  0.12500805480E+03 0.  0.
    9000005    1    3    3    0    0 -0.31630687926E+02  0.44685219733E+02  0.22458198104E+03  0.23116084333E+03  0.10000000000E+01 0.  0.
    9000005    1    3    3    0    0  0.31630687926E+02 -0.44685219733E+02  0.70183841154E+02  0.89017081734E+02  0.10000000000E+01 0.  0.
<mgrwt>
<rscale>  0 0.12500805E+03</rscale>
<asrwt>0</asrwt>
<pdfrwt beam="1">  1        4 0.47303362E-01 0.12500805E+03</pdfrwt>
<pdfrwt beam="2">  1       -4 0.19547773E-02 0.12500805E+03</pdfrwt>
<totfact> 0.73121912E+03</totfact>
</mgrwt>
</event>
<event>
 4    1  0.3266594E-002  0.1249185E+03  0.7818608E-02  0.1235197E+00
         -4   -1    0    0    0  501 -0.00000000000E+00  0.00000000000E+00  0.90596340035E+01  0.91482166720E+01  0.12700000000E+01 0. -1.
          4   -1    0    0  501    0  0.00000000000E+00 -0.00000000000E+00 -0.42842424336E+03  0.42842612572E+03  0.12700000000E+01 0. -1.
    9000005    1    1    2    0    0 -0.48365681397E+02 -0.38481128978E+02 -0.24103668269E+03  0.24883673126E+03  0.10000000000E+01 0.  0.
    9000005    1    1    2    0    0  0.48365681397E+02  0.38481128978E+02 -0.17832792667E+03  0.18873761113E+03  0.10000000000E+01 0.  0.
<mgrwt>
<rscale>  0 0.12491849E+03</rscale>
<asrwt>0</asrwt>
<pdfrwt beam="2">  1        4 0.65918365E-01 0.12491849E+03</pdfrwt>
<pdfrwt beam="1">  1       -4 0.14007490E-02 0.12491849E+03</pdfrwt>
<totfact> 0.61165202E+03</totfact>
</mgrwt>
</event>
<event>
 5    1  0.3266594E-002  0.1250017E+03  0.7818608E-02  0.1235067E+00
          4   -1    0    0  501    0  0.00000000000E+00  0.00000000000E+00  0.66676796881E+02  0.66688890696E+02  0.12700000000E+01 0.  1.
         -4   -1    0    0    0  501 -0.00000000000E+00 -0.00000000000E+00 -0.58562188548E+02  0.58575957760E+02  0.12700000000E+01 0.  1.
         25    2    1    2    0    0  0.00000000000E+00  0.00000000000E+00  0.81146083328E+01  0.12526484846E+03  0.12500174155E+03 0.  0.
    9000005    1    3    3    0    0  0.43841479596E+02  0.39807197803E+02 -0.15951457610E+02  0.61336264395E+02  0.10000000000E+01 0.  0.
    9000005    1    3    3    0    0 -0.43841479596E+02 -0.39807197803E+02  0.24066065943E+02  0.63928584061E+02  0.10000000000E+01 0.  0.
<mgrwt>
<rscale>  0 0.12500174E+03</rscale>
<asrwt>0</asrwt>
<pdfrwt beam="1">  1        4 0.10259958E-01 0.12500174E+03</pdfrwt>
<pdfrwt beam="2">  1       -4 0.90115569E-02 0.12500174E+03</pdfrwt>
<totfact> 0.10446702E+04</totfact>
</mgrwt>
</event>
<event>
 5    1  0.3266594E-002  0.1250001E+03  0.7818608E-02  0.1235069E+00
          4   -1    0    0  501    0  0.00000000000E+00  0.00000000000E+00  0.12438045483E+02  0.12502714722E+02  0.12700000000E+01 0. -1.
         -4   -1    0    0    0  501 -0.00000000000E+00 -0.00000000000E+00 -0.31317687647E+03  0.31317945153E+03  0.12700000000E+01 0. -1.
         25    2    1    2    0    0  0.00000000000E+00  0.00000000000E+00 -0.30073883099E+03  0.32568216625E+03  0.12500011578E+03 0.  0.
    9000005    1    3    3    0    0  0.52936113862E+02 -0.56728731616E+01 -0.23562966213E+03  0.24157142074E+03  0.10000000000E+01 0.  0.
    9000005    1    3    3    0    0 -0.52936113862E+02  0.56728731616E+01 -0.65109168858E+02  0.84110745509E+02  0.10000000000E+01 0.  0.
<mgrwt>
<rscale>  0 0.12500012E+03</rscale>
<asrwt>0</asrwt>
<pdfrwt beam="1">  1        4 0.19187183E-02 0.12500012E+03</pdfrwt>
<pdfrwt beam="2">  1       -4 0.48186225E-01 0.12500012E+03</pdfrwt>
<totfact> 0.72485182E+03</totfact>
</mgrwt>
</event>
<event>
 5    1  0.3266594E-002  0.1250028E+03  0.7818608E-02  0.1235065E+00
         -4   -1    0    0    0  501 -0.00000000000E+00  0.00000000000E+00  0.59091964882E+03  0.59092101356E+03  0.12700000000E+01 0.  1.
          4   -1    0    0  501    0  0.00000000000E+00 -0.00000000000E+00 -0.65483785624E+01  0.66703944259E+01  0.12700000000E+01 0.  1.
         25    2    1    2    0    0  0.00000000000E+00  0.00000000000E+00  0.58437127026E+03  0.59759140798E+03  0.12500283753E+03 0.  0.
    9000005    1    3    3    0    0  0.16902269928E+02 -0.27465452212E+01  0.57950850358E+03  0.57976230988E+03  0.10000000000E+01 0.  0.
    9000005    1    3    3    0    0 -0.16902269928E+02  0.27465452212E+01  0.48627666824E+01  0.17829098103E+02  0.10000000000E+01 0.  0.
<mgrwt>
<rscale>  0 0.12500284E+03</rscale>
<asrwt>0</asrwt>
<pdfrwt beam="2">  1        4 0.10169339E-02 0.12500284E+03</pdfrwt>
<pdfrwt beam="1">  1       -4 0.90920182E-01 0.12500284E+03</pdfrwt>
<totfact> 0.49016961E+03</totfact>
</mgrwt>
</event>
<event>
 5    1  0.3266594E-002  0.1250000E+03  0.7818608E-02  0.1235069E+00
          4   -1    0    0  501    0  0.00000000000E+00  0.00000000000E+00  0.10467864152E+03  0.10468634529E+03  0.12700000000E+01 0. -1.
         -4   -1    0    0    0  501 -0.00000000000E+00 -0.00000000000E+00 -0.37296707590E+02  0.37318323878E+02  0.12700000000E+01 0. -1.
         25    2    1    2    0    0  0.00000000000E+00  0.00000000000E+00  0.67381933931E+02  0.14200466917E+03  0.12500000418E+03 0.  0.
    9000005    1    3    3    0    0 -0.43775324831E+02 -0.12370780047E+02  0.82367680348E+02  0.94099681343E+02  0.10000000000E+01 0.  0.
    9000005    1    3    3    0    0  0.43775324831E+02  0.12370780047E+02 -0.14985746417E+02  0.47904987827E+02  0.10000000000E+01 0.  0.
<mgrwt>
<rscale>  0 0.12500000E+03</rscale>
<asrwt>0</asrwt>
<pdfrwt beam="1">  1        4 0.16106662E-01 0.12500000E+03</pdfrwt>
<pdfrwt beam="2">  1       -4 0.57402104E-02 0.12500000E+03</pdfrwt>
<totfact> 0.10092205E+04</totfact>
</mgrwt>
</event>
<event>
 5    1  0.3266594E-002  0.1250207E+03  0.7818608E-02  0.1235037E+00
          4   -1    0    0  501    0  0.00000000000E+00  0.00000000000E+00  0.63776947348E+02  0.63789590945E+02  0.12700000000E+01 0. -1.
         -4   -1    0    0    0  501 -0.00000000000E+00 -0.00000000000E+00 -0.61243630292E+02  0.61256796777E+02  0.12700000000E+01 0. -1.
         25    2    1    2    0    0  0.00000000000E+00  0.00000000000E+00  0.25333170555E+01  0.12504638772E+03  0.12502072383E+03 0.  0.
    9000005    1    3    3    0    0  0.28817764895E+02  0.13426542797E+02 -0.52557116244E+02  0.61432777024E+02  0.10000000000E+01 0.  0.
    9000005    1    3    3    0    0 -0.28817764895E+02 -0.13426542797E+02  0.55090433299E+02  0.63613610698E+02  0.10000000000E+01 0.  0.
<mgrwt>
<rscale>  0 0.12502072E+03</rscale>
<asrwt>0</asrwt>
<pdfrwt beam="1">  1        4 0.98138235E-02 0.12502072E+03</pdfrwt>
<pdfrwt beam="2">  1       -4 0.94240823E-02 0.12502072E+03</pdfrwt>
<totfact> 0.10446961E+04</totfact>
</mgrwt>
</event>
<event>
 5    1  0.3266594E-002  0.1250039E+03  0.7818608E-02  0.1235063E+00
          4   -1    0    0  501    0  0.00000000000E+00  0.00000000000E+00  0.15595755789E+04  0.15595760960E+04  0.12700000000E+01 0. -1.
         -4   -1    0    0    0  501 -0.00000000000E+00 -0.00000000000E+00 -0.23433166045E+01  0.26653391358E+01  0.12700000000E+01 0. -1.
         25    2    1    2    0    0  0.00000000000E+00  0.00000000000E+00  0.15572322623E+04  0.15622414351E+04  0.12500393157E+03 0.  0.
    9000005    1    3    3    0    0 -0.58485206464E+02 -0.11628924280E+02  0.10123383008E+04  0.10140934802E+04  0.10000000000E+01 0.  0.
    9000005    1    3    3    0    0  0.58485206464E+02  0.11628924280E+02  0.54489396147E+03  0.54814795494E+03  0.10000000000E+01 0.  0.
<mgrwt>
<rscale>  0 0.12500393E+03</rscale>
<asrwt>0</asrwt>
<pdfrwt beam="1">  1        4 0.23996035E+00 0.12500393E+03</pdfrwt>
<pdfrwt beam="2">  1       -4 0.38531965E-03 0.12500393E+03</pdfrwt>
<totfact> 0.16737329E+03</totfact>
</mgrwt>
</event>
<event>
 5    1  0.3266594E-002  0.1249982E+03  0.7818608E-02  0.1235072E+00
          4   -1    0    0  501    0  0.00000000000E+00  0.00000000000E+00  0.40312450559E+02  0.40332450583E+02  0.12700000000E+01 0.  1.
         -4   -1    0    0    0  501 -0.00000000000E+00 -0.00000000000E+00 -0.96848314045E+02  0.96856640626E+02  0.12700000000E+01 0.  1.
         25    2    1    2    0    0  0.00000000000E+00  0.00000000000E+00 -0.56535863487E+02  0.13718909121E+03  0.12499817153E+03 0.  0.
    9000005    1    3    3    0    0 -0.16287917977E+02  0.57482626970E+02 -0.81622634462E+01  0.60308964673E+02  0.10000000000E+01 0.  0.
    9000005    1    3    3    0    0  0.16287917977E+02 -0.57482626970E+02 -0.48373600040E+02  0.76880126536E+02  0.10000000000E+01 0.  0.
<mgrwt>
<rscale>  0 0.12499817E+03</rscale>
<asrwt>0</asrwt>
<pdfrwt beam="1">  1        4 0.62040945E-02 0.12499817E+03</pdfrwt>
<pdfrwt beam="2">  1       -4 0.14901920E-01 0.12499817E+03</pdfrwt>
<totfact> 0.10192554E+04</totfact>
</mgrwt>
</event>
<event>
 5    1  0.3266594E-002  0.1249985E+03  0.7818608E-02  0.1235072E+00
         -4   -1    0    0    0  501 -0.00000000000E+00  0.00000000000E+00  0.94352529296E+02  0.94361076110E+02  0.12700000000E+01 0. -1.
          4   -1    0    0  501    0  0.00000000000E+00 -0.00000000000E+00 -0.41379431773E+02  0.41398916337E+02  0.12700000000E+01 0. -1.
         25    2    1    2    0    0  0.00000000000E+00  0.00000000000E+00  0.52973097523E+02  0.13575999245E+03  0.12499850594E+03 0.  0.
    9000005    1    3    3    0    0 -0.48123804982E+02  0.32186697668E+02  0.52033349992E+02  0.77848273096E+02  0.10000000000E+01 0.  0.
    9000005    1    3    3    0    0  0.48123804982E+02 -0.32186697668E+02  0.93974753081E+00  0.57911719350E+02  0.10000000000E+01 0.  0.
<mgrwt>
<rscale>  0 0.12499851E+03</rscale>
<asrwt>0</asrwt>
<pdfrwt beam="2">  1        4 0.63682228E-02 0.12499851E+03</pdfrwt>
<pdfrwt beam="1">  1       -4 0.14517930E-01 0.12499851E+03</pdfrwt>
<totfact> 0.10222421E+04</totfact>
</mgrwt>
</event>
<event>
 5    1  0.3266594E-002  0.1249946E+03  0.7818608E-02  0.1235078E+00
         -4   -1    0    0    0  501 -0.00000000000E+00  0.00000000000E+00  0.52590439822E+02  0.52605772123E+02  0.12700000000E+01 0.  1.
          4   -1    0    0  501    0  0.00000000000E+00 -0.00000000000E+00 -0.74238794666E+02  0.74249656791E+02  0.12700000000E+01 0.  1.
         25    2    1    2    0    0  0.00000000000E+00  0.00000000000E+00 -0.21648354845E+02  0.12685542891E+03  0.12499459419E+03 0.  0.
    9000005    1    3    3    0    0  0.25353391799E+02  0.22589266691E+02  0.42414790738E+02  0.54342284813E+02  0.10000000000E+01 0.  0.
    9000005    1    3    3    0    0 -0.25353391799E+02 -0.22589266691E+02 -0.64063145583E+02  0.72513144100E+02  0.10000000000E+01 0.  0.
<mgrwt>
<rscale>  0 0.12499459E+03</rscale>
<asrwt>0</asrwt>
<pdfrwt beam="2">  1        4 0.11423368E-01 0.12499459E+03</pdfrwt>
<pdfrwt beam="1">  1       -4 0.80928519E-02 0.12499459E+03</pdfrwt>
<totfact> 0.10413559E+04</totfact>
</mgrwt>
</event>
<event>
 5    1  0.3266594E-002  0.1250030E+03  0.7818608E-02  0.1235065E+00
          4   -1    0    0  501    0  0.00000000000E+00  0.00000000000E+00  0.12730804040E+02  0.12793993572E+02  0.12700000000E+01 0.  1.
         -4   -1    0    0    0  501 -0.00000000000E+00 -0.00000000000E+00 -0.30602486840E+03  0.30602750363E+03  0.12700000000E+01 0.  1.
         25    2    1    2    0    0  0.00000000000E+00  0.00000000000E+00 -0.29329406436E+03  0.31882149720E+03  0.12500295553E+03 0.  0.
    9000005    1    3    3    0    0  0.54268196394E+02 -0.30886124749E+02 -0.14017210689E+03  0.15345425831E+03  0.10000000000E+01 0.  0.
    9000005    1    3    3    0    0 -0.54268196394E+02  0.30886124749E+02 -0.15312195746E+03  0.16536723889E+03  0.10000000000E+01 0.  0.
<mgrwt>
<rscale>  0 0.12500296E+03</rscale>
<asrwt>0</asrwt>
<pdfrwt beam="1">  1        4 0.19636489E-02 0.12500296E+03</pdfrwt>
<pdfrwt beam="2">  1       -4 0.47085807E-01 0.12500296E+03</pdfrwt>
<totfact> 0.73291712E+03</totfact>
</mgrwt>
</event>
<event>
 5    1  0.3266594E-002  0.1249995E+03  0.7818608E-02  0.1235070E+00
          4   -1    0    0  501    0  0.00000000000E+00  0.00000000000E+00  0.33004854079E+02  0.33029279325E+02  0.12700000000E+01 0. -1.
         -4   -1    0    0    0  501 -0.00000000000E+00 -0.00000000000E+00 -0.11828120508E+03  0.11828802296E+03  0.12700000000E+01 0. -1.
         25    2    1    2    0    0  0.00000000000E+00  0.00000000000E+00 -0.85276351005E+02  0.15131730229E+03  0.12499947972E+03 0.  0.
    9000005    1    3    3    0    0 -0.41575328182E+02  0.31275794934E+02 -0.84547012006E+02  0.99276787324E+02  0.10000000000E+01 0.  0.
    9000005    1    3    3    0    0  0.41575328182E+02 -0.31275794934E+02 -0.72933899890E+00  0.52040514962E+02  0.10000000000E+01 0.  0.
<mgrwt>
<rscale>  0 0.12499948E+03</rscale>
<asrwt>0</asrwt>
<pdfrwt beam="1">  1        4 0.50800732E-02 0.12499948E+03</pdfrwt>
<pdfrwt beam="2">  1       -4 0.18199512E-01 0.12499948E+03</pdfrwt>
<totfact> 0.99042919E+03</totfact>
</mgrwt>
</event>
<event>
 5    1  0.3266594E-002  0.1249976E+03  0.7818608E-02  0.1235073E+00
         -4   -1    0    0    0  501 -0.00000000000E+00  0.00000000000E+00  0.54542145370E+03  0.54542293228E+03  0.12700000000E+01 0. -1.
          4   -1    0    0  501    0  0.00000000000E+00 -0.00000000000E+00 -0.71038170985E+01  0.72164476974E+01  0.12700000000E+01 0. -1.
         25    2    1    2    0    0  0.00000000000E+00  0.00000000000E+00  0.53831763660E+03  0.55263937997E+03  0.12499762568E+03 0.  0.
    9000005    1    3    3    0    0 -0.95030996913E+01  0.23708149607E+02  0.52131125011E+03  0.52193754871E+03  0.10000000000E+01 0.  0.
    9000005    1    3    3    0    0  0.95030996913E+01 -0.23708149607E+02  0.17006386486E+02  0.30701831262E+02  0.10000000000E+01 0.  0.
<mgrwt>
<rscale>  0 0.12499763E+03</rscale>
<asrwt>0</asrwt>
<pdfrwt beam="2">  1        4 0.11016728E-02 0.12499763E+03</pdfrwt>
<pdfrwt beam="1">  1       -4 0.83919755E-01 0.12499763E+03</pdfrwt>
<totfact> 0.52003174E+03</totfact>
</mgrwt>
</event>
<event>
 5    1  0.3266594E-002  0.1249989E+03  0.7818608E-02  0.1235071E+00
          4   -1    0    0  501    0  0.00000000000E+00  0.00000000000E+00  0.47892777840E+02  0.47909613537E+02  0.12700000000E+01 0.  1.
         -4   -1    0    0    0  501 -0.00000000000E+00 -0.00000000000E+00 -0.81524864067E+02  0.81534755541E+02  0.12700000000E+01 0.  1.
         25    2    1    2    0    0  0.00000000000E+00  0.00000000000E+00 -0.33632086227E+02  0.12944436908E+03  0.12499890984E+03 0.  0.
    9000005    1    3    3    0    0  0.14950510628E+02  0.77610184226E+01 -0.79134548163E+02  0.80913706428E+02  0.10000000000E+01 0.  0.
    9000005    1    3    3    0    0 -0.14950510628E+02 -0.77610184226E+01  0.45502461936E+02  0.48530662650E+02  0.10000000000E+01 0.  0.
<mgrwt>
<rscale>  0 0.12499891E+03</rscale>
<asrwt>0</asrwt>
<pdfrwt beam="1">  1        4 0.73701756E-02 0.12499891E+03</pdfrwt>
<pdfrwt beam="2">  1       -4 0.12544343E-01 0.12499891E+03</pdfrwt>
<totfact> 0.10356663E+04</totfact>
</mgrwt>
</event>
<event>
 5    1  0.3266594E-002  0.1249986E+03  0.7818608E-02  0.1235072E+00
         -4   -1    0    0    0  501 -0.00000000000E+00  0.00000000000E+00  0.29712510716E+02  0.29739640096E+02  0.12700000000E+01 0.  1.
          4   -1    0    0  501    0  0.00000000000E+00 -0.00000000000E+00 -0.13137498913E+03  0.13138112752E+03  0.12700000000E+01 0.  1.
         25    2    1    2    0    0  0.00000000000E+00  0.00000000000E+00 -0.10166247841E+03  0.16112076762E+03  0.12499856895E+03 0.  0.
    9000005    1    3    3    0    0  0.39660570338E+02  0.48264043157E+02 -0.52981118221E+02  0.81916894407E+02  0.10000000000E+01 0.  0.
    9000005    1    3    3    0    0 -0.39660570338E+02 -0.48264043157E+02 -0.48681360192E+02  0.79203873210E+02  0.10000000000E+01 0.  0.
<mgrwt>
<rscale>  0 0.12499857E+03</rscale>
<asrwt>0</asrwt>
<pdfrwt beam="2">  1        4 0.20214096E-01 0.12499857E+03</pdfrwt>
<pdfrwt beam="1">  1       -4 0.45737146E-02 0.12499857E+03</pdfrwt>
<totfact> 0.97130268E+03</totfact>
</mgrwt>
</event>
<event>
 5    1  0.3266594E-002  0.1249984E+03  0.7818608E-02  0.1235072E+00
         -4   -1    0    0    0  501 -0.00000000000E+00  0.00000000000E+00  0.43554934478E+02  0.43573446242E+02  0.12700000000E+01 0. -1.
          4   -1    0    0  501    0  0.00000000000E+00 -0.00000000000E+00 -0.89641249459E+02  0.89650245424E+02  0.12700000000E+01 0. -1.
         25    2    1    2    0    0  0.00000000000E+00  0.00000000000E+00 -0.46086314981E+02  0.13322369167E+03  0.12499841436E+03 0.  0.
    9000005    1    3    3    0    0  0.14377326801E+02  0.60668222854E+02 -0.18545252930E+02  0.65055877493E+02  0.10000000000E+01 0.  0.
    9000005    1    3    3    0    0 -0.14377326801E+02 -0.60668222854E+02 -0.27541062051E+02  0.68167814173E+02  0.10000000000E+01 0.  0.
<mgrwt>
<rscale>  0 0.12499841E+03</rscale>
<asrwt>0</asrwt>
<pdfrwt beam="2">  1        4 0.13793077E-01 0.12499841E+03</pdfrwt>
<pdfrwt beam="1">  1       -4 0.67028752E-02 0.12499841E+03</pdfrwt>
<totfact> 0.10276016E+04</totfact>
</mgrwt>
</event>
<event>
 5    1  0.3266594E-002  0.1249938E+03  0.7818608E-02  0.1235079E+00
         -4   -1    0    0    0  501 -0.00000000000E+00  0.00000000000E+00  0.34459207928E+02  0.34482603020E+02  0.12700000000E+01 0. -1.
          4   -1    0    0  501    0  0.00000000000E+00 -0.00000000000E+00 -0.11328205249E+03  0.11328917123E+03  0.12700000000E+01 0. -1.
         25    2    1    2    0    0  0.00000000000E+00  0.00000000000E+00 -0.78822844566E+02  0.14777177425E+03  0.12499382560E+03 0.  0.
    9000005    1    3    3    0    0  0.17147354380E+02 -0.39535316184E+02  0.14087588921E+02  0.45349014869E+02  0.10000000000E+01 0.  0.
    9000005    1    3    3    0    0 -0.17147354380E+02  0.39535316184E+02 -0.92910433487E+02  0.10242275938E+03  0.10000000000E+01 0.  0.
<mgrwt>
<rscale>  0 0.12499383E+03</rscale>
<asrwt>0</asrwt>
<pdfrwt beam="2">  1        4 0.17430355E-01 0.12499383E+03</pdfrwt>
<pdfrwt beam="1">  1       -4 0.53037639E-02 0.12499383E+03</pdfrwt>
<totfact> 0.99763596E+03</totfact>
</mgrwt>
</event>
<event>
 5    1  0.3266594E-002  0.1250006E+03  0.7818608E-02  0.1235068E+00
         -4   -1    0    0    0  501 -0.00000000000E+00  0.00000000000E+00  0.34307549515E+03  0.34307784579E+03  0.12700000000E+01 0.  1.
          4   -1    0    0  501    0  0.00000000000E+00 -0.00000000000E+00 -0.11348277747E+02  0.11419120274E+02  0.12700000000E+01 0.  1.
         25    2    1    2    0    0  0.00000000000E+00  0.00000000000E+00  0.33172721740E+03  0.35449696606E+03  0.12500060873E+03 0.  0.
    9000005    1    3    3    0    0  0.44474687072E+02  0.73434914953E+01  0.43116461060E+02  0.62385526141E+02  0.10000000000E+01 0.  0.
    9000005    1    3    3    0    0 -0.44474687072E+02 -0.73434914953E+01  0.28861075634E+03  0.29211143992E+03  0.10000000000E+01 0.  0.
<mgrwt>
<rscale>  0 0.12500061E+03</rscale>
<asrwt>0</asrwt>
<pdfrwt beam="2">  1        4 0.17515192E-02 0.12500061E+03</pdfrwt>
<pdfrwt beam="1">  1       -4 0.52786473E-01 0.12500061E+03</pdfrwt>
<totfact> 0.69231719E+03</totfact>
</mgrwt>
</event>
<event>
 5    1  0.3266594E-002  0.1250004E+03  0.7818608E-02  0.1235069E+00
          4   -1    0    0  501    0  0.00000000000E+00  0.00000000000E+00  0.32566173196E+03  0.32566420830E+03  0.12700000000E+01 0. -1.
         -4   -1    0    0    0  501 -0.00000000000E+00 -0.00000000000E+00 -0.11958741563E+02  0.12025988515E+02  0.12700000000E+01 0. -1.
         25    2    1    2    0    0  0.00000000000E+00  0.00000000000E+00  0.31370299040E+03  0.33769019681E+03  0.12500041134E+03 0.  0.
    9000005    1    3    3    0    0  0.77302007889E+01 -0.15184491941E+02 -0.55755010575E+01  0.17955807189E+02  0.10000000000E+01 0.  0.
    9000005    1    3    3    0    0 -0.77302007889E+01  0.15184491941E+02  0.31927849146E+03  0.31973438962E+03  0.10000000000E+01 0.  0.
<mgrwt>
<rscale>  0 0.12500041E+03</rscale>
<asrwt>0</asrwt>
<pdfrwt beam="1">  1        4 0.50107172E-01 0.12500041E+03</pdfrwt>
<pdfrwt beam="2">  1       -4 0.18451696E-02 0.12500041E+03</pdfrwt>
<totfact> 0.71099706E+03</totfact>
</mgrwt>
</event>
<event>
 5    1  0.3266594E-002  0.1250046E+03  0.7818608E-02  0.1235062E+00
          4   -1    0    0  501    0  0.00000000000E+00  0.00000000000E+00  0.57945542034E+02  0.57959457741E+02  0.12700000000E+01 0. -1.
         -4   -1    0    0    0  501 -0.00000000000E+00 -0.00000000000E+00 -0.67389397235E+02  0.67401363189E+02  0.12700000000E+01 0. -1.
         25    2    1    2    0    0  0.00000000000E+00  0.00000000000E+00 -0.94438552015E+01  0.12536082093E+03  0.12500459601E+03 0.  0.
    9000005    1    3    3    0    0 -0.31360220603E+02 -0.51744090898E+02  0.10963067274E+02  0.61498806680E+02  0.10000000000E+01 0.  0.
    9000005    1    3    3    0    0  0.31360220603E+02  0.51744090898E+02 -0.20406922476E+02  0.63862014249E+02  0.10000000000E+01 0.  0.
<mgrwt>
<rscale>  0 0.12500460E+03</rscale>
<asrwt>0</asrwt>
<pdfrwt beam="1">  1        4 0.89166897E-02 0.12500460E+03</pdfrwt>
<pdfrwt beam="2">  1       -4 0.10369590E-01 0.12500460E+03</pdfrwt>
<totfact> 0.10443946E+04</totfact>
</mgrwt>
</event>
<event>
 5    1  0.3266594E-002  0.1249927E+03  0.7818608E-02  0.1235081E+00
         -4   -1    0    0    0  501 -0.00000000000E+00  0.00000000000E+00  0.72347229695E+01  0.73453465844E+01  0.12700000000E+01 0.  1.
          4   -1    0    0  501    0  0.00000000000E+00 -0.00000000000E+00 -0.53566018519E+03  0.53566169071E+03  0.12700000000E+01 0.  1.
         25    2    1    2    0    0  0.00000000000E+00  0.00000000000E+00 -0.52842546222E+03  0.54300703730E+03  0.12499269351E+03 0.  0.
    9000005    1    3    3    0    0 -0.26015886420E+02 -0.39007592055E+02 -0.44366875543E+03  0.44614054190E+03  0.10000000000E+01 0.  0.
    9000005    1    3    3    0    0  0.26015886420E+02  0.39007592055E+02 -0.84756706789E+02  0.96866495393E+02  0.10000000000E+01 0.  0.
<mgrwt>
<rscale>  0 0.12499269E+03</rscale>
<asrwt>0</asrwt>
<pdfrwt beam="2">  1        4 0.82417854E-01 0.12499269E+03</pdfrwt>
<pdfrwt beam="1">  1       -4 0.11216600E-02 0.12499269E+03</pdfrwt>
<totfact> 0.52683882E+03</totfact>
</mgrwt>
</event>
<event>
 5    1  0.3266594E-002  0.1250016E+03  0.7818608E-02  0.1235067E+00
          4   -1    0    0  501    0  0.00000000000E+00  0.00000000000E+00  0.11045425143E+02  0.11118197542E+02  0.12700000000E+01 0.  1.
         -4   -1    0    0    0  501 -0.00000000000E+00 -0.00000000000E+00 -0.35242701861E+03  0.35242930688E+03  0.12700000000E+01 0.  1.
         25    2    1    2    0    0  0.00000000000E+00  0.00000000000E+00 -0.34138159347E+03  0.36354750442E+03  0.12500158244E+03 0.  0.
    9000005    1    3    3    0    0  0.18227943509E+02  0.53861650479E+02 -0.24608443186E+03  0.25257055038E+03  0.10000000000E+01 0.  0.
    9000005    1    3    3    0    0 -0.18227943509E+02 -0.53861650479E+02 -0.95297161609E+02  0.11097695404E+03  0.10000000000E+01 0.  0.
<mgrwt>
<rscale>  0 0.12500158E+03</rscale>
<asrwt>0</asrwt>
<pdfrwt beam="1">  1        4 0.17050703E-02 0.12500158E+03</pdfrwt>
<pdfrwt beam="2">  1       -4 0.54225307E-01 0.12500158E+03</pdfrwt>
<totfact> 0.68257050E+03</totfact>
</mgrwt>
</event>
<event>
 5    1  0.3266594E-002  0.1249971E+03  0.7818608E-02  0.1235074E+00
         -4   -1    0    0    0  501 -0.00000000000E+00  0.00000000000E+00  0.56046814836E+03  0.56046958725E+03  0.12700000000E+01 0. -1.
          4   -1    0    0  501    0  0.00000000000E+00 -0.00000000000E+00 -0.69099751737E+01  0.70257139781E+01  0.12700000000E+01 0. -1.
         25    2    1    2    0    0  0.00000000000E+00  0.00000000000E+00  0.55355817319E+03  0.56749530123E+03  0.12499706320E+03 0.  0.
    9000005    1    3    3    0    0 -0.30039883605E+02 -0.17237968746E+02  0.51292921081E+03  0.51409815938E+03  0.10000000000E+01 0.  0.
    9000005    1    3    3    0    0  0.30039883605E+02  0.17237968746E+02  0.40628962379E+02  0.53397141848E+02  0.10000000000E+01 0.  0.
<mgrwt>
<rscale>  0 0.12499706E+03</rscale>
<asrwt>0</asrwt>
<pdfrwt beam="2">  1        4 0.10720864E-02 0.12499706E+03</pdfrwt>
<pdfrwt beam="1">  1       -4 0.86234916E-01 0.12499706E+03</pdfrwt>
<totfact> 0.50989129E+03</totfact>
</mgrwt>
</event>
<event>
 5    1  0.3266594E-002  0.1250019E+03  0.7818608E-02  0.1235066E+00
          4   -1    0    0  501    0  0.00000000000E+00  0.00000000000E+00  0.58408743273E+03  0.58408881343E+03  0.12700000000E+01 0.  1.
         -4   -1    0    0    0  501 -0.00000000000E+00 -0.00000000000E+00 -0.66262910428E+01  0.67468980268E+01  0.12700000000E+01 0.  1.
         25    2    1    2    0    0  0.00000000000E+00  0.00000000000E+00  0.57746114169E+03  0.59083571146E+03  0.12500187108E+03 0.  0.
    9000005    1    3    3    0    0 -0.21102244795E+02 -0.45436929030E+02  0.46530286685E+03  0.46799313793E+03  0.10000000000E+01 0.  0.
    9000005    1    3    3    0    0  0.21102244795E+02  0.45436929030E+02  0.11215827485E+03  0.12284257353E+03  0.10000000000E+01 0.  0.
<mgrwt>
<rscale>  0 0.12500187E+03</rscale>
<asrwt>0</asrwt>
<pdfrwt beam="1">  1        4 0.89868979E-01 0.12500187E+03</pdfrwt>
<pdfrwt beam="2">  1       -4 0.10288132E-02 0.12500187E+03</pdfrwt>
<totfact> 0.49449218E+03</totfact>
</mgrwt>
</event>
<event>
 5    1  0.3266594E-002  0.1249963E+03  0.7818608E-02  0.1235075E+00
          4   -1    0    0  501    0  0.00000000000E+00  0.00000000000E+00  0.86113846048E+01  0.87045301316E+01  0.12700000000E+01 0.  1.
         -4   -1    0    0    0  501 -0.00000000000E+00 -0.00000000000E+00 -0.45105401212E+03  0.45105580004E+03  0.12700000000E+01 0.  1.
         25    2    1    2    0    0  0.00000000000E+00  0.00000000000E+00 -0.44244262752E+03  0.45976033017E+03  0.12499633017E+03 0.  0.
    9000005    1    3    3    0    0  0.23937061884E+02 -0.40487661523E+02 -0.69887705385E+02  0.84246810214E+02  0.10000000000E+01 0.  0.
    9000005    1    3    3    0    0 -0.23937061884E+02  0.40487661523E+02 -0.37255492213E+03  0.37551351996E+03  0.10000000000E+01 0.  0.
<mgrwt>
<rscale>  0 0.12499633E+03</rscale>
<asrwt>0</asrwt>
<pdfrwt beam="1">  1        4 0.13321313E-02 0.12499633E+03</pdfrwt>
<pdfrwt beam="2">  1       -4 0.69400209E-01 0.12499633E+03</pdfrwt>
<totfact> 0.59132273E+03</totfact>
</mgrwt>
</event>
<event>
 5    1  0.3266594E-002  0.1250057E+03  0.7818608E-02  0.1235060E+00
          4   -1    0    0  501    0  0.00000000000E+00  0.00000000000E+00  0.51015930218E+02  0.51031735577E+02  0.12700000000E+01 0.  1.
         -4   -1    0    0    0  501 -0.00000000000E+00 -0.00000000000E+00 -0.76543273908E+02  0.76553809054E+02  0.12700000000E+01 0.  1.
         25    2    1    2    0    0  0.00000000000E+00  0.00000000000E+00 -0.25527343691E+02  0.12758554463E+03  0.12500570356E+03 0.  0.
    9000005    1    3    3    0    0 -0.10712981252E+02 -0.25598969714E+02  0.44387772536E+02  0.52357898816E+02  0.10000000000E+01 0.  0.
    9000005    1    3    3    0    0  0.10712981252E+02  0.25598969714E+02 -0.69915116227E+02  0.75227645814E+02  0.10000000000E+01 0.  0.
<mgrwt>
<rscale>  0 0.12500570E+03</rscale>
<asrwt>0</asrwt>
<pdfrwt beam="1">  1        4 0.78506309E-02 0.12500570E+03</pdfrwt>
<pdfrwt beam="2">  1       -4 0.11777914E-01 0.12500570E+03</pdfrwt>
<totfact> 0.10395110E+04</totfact>
</mgrwt>
</event>
<event>
 5    1  0.3266594E-002  0.1249999E+03  0.7818608E-02  0.1235069E+00
          4   -1    0    0  501    0  0.00000000000E+00  0.00000000000E+00  0.42458942840E+02  0.42477932236E+02  0.12700000000E+01 0.  1.
         -4   -1    0    0    0  501 -0.00000000000E+00 -0.00000000000E+00 -0.91956525398E+02  0.91965294885E+02  0.12700000000E+01 0.  1.
         25    2    1    2    0    0  0.00000000000E+00  0.00000000000E+00 -0.49497582558E+02  0.13444322712E+03  0.12499988256E+03 0.  0.
    9000005    1    3    3    0    0  0.30651905737E+02 -0.54433709751E+02 -0.26507755112E+02  0.67869206299E+02  0.10000000000E+01 0.  0.
    9000005    1    3    3    0    0 -0.30651905737E+02  0.54433709751E+02 -0.22989827446E+02  0.66574020823E+02  0.10000000000E+01 0.  0.
<mgrwt>
<rscale>  0 0.12499988E+03</rscale>
<asrwt>0</asrwt>
<pdfrwt beam="1">  1        4 0.65342804E-02 0.12499988E+03</pdfrwt>
<pdfrwt beam="2">  1       -4 0.14149293E-01 0.12499988E+03</pdfrwt>
<totfact> 0.10249847E+04</totfact>
</mgrwt>
</event>
<event>
 5    1  0.3266594E-002  0.1250043E+03  0.7818608E-02  0.1235063E+00
         -4   -1    0    0    0  501 -0.00000000000E+00  0.00000000000E+00  0.25476089334E+03  0.25476405883E+03  0.12700000000E+01 0.  1.
          4   -1    0    0  501    0  0.00000000000E+00 -0.00000000000E+00 -0.15304488479E+02  0.15357091769E+02  0.12700000000E+01 0.  1.
         25    2    1    2    0    0  0.00000000000E+00  0.00000000000E+00  0.23945640486E+03  0.27012115060E+03  0.12500426463E+03 0.  0.
    9000005    1    3    3    0    0  0.62523814292E+01  0.57533067138E+02  0.17069833833E+03  0.18024446953E+03  0.10000000000E+01 0.  0.
    9000005    1    3    3    0    0 -0.62523814292E+01 -0.57533067138E+02  0.68758066525E+02  0.89876681069E+02  0.10000000000E+01 0.  0.
<mgrwt>
<rscale>  0 0.12500426E+03</rscale>
<asrwt>0</asrwt>
<pdfrwt beam="2">  1        4 0.23588267E-02 0.12500426E+03</pdfrwt>
<pdfrwt beam="1">  1       -4 0.39198272E-01 0.12500426E+03</pdfrwt>
<totfact> 0.79498811E+03</totfact>
</mgrwt>
</event>
<event>
 5    1  0.3266594E-002  0.1250009E+03  0.7818608E-02  0.1235068E+00
         -4   -1    0    0    0  501 -0.00000000000E+00  0.00000000000E+00  0.39482162030E+02  0.39502582429E+02  0.12700000000E+01 0.  1.
          4   -1    0    0  501    0  0.00000000000E+00 -0.00000000000E+00 -0.98888497520E+02  0.98896652329E+02  0.12700000000E+01 0.  1.
         25    2    1    2    0    0  0.00000000000E+00  0.00000000000E+00 -0.59406335491E+02  0.13839923476E+03  0.12500094194E+03 0.  0.
    9000005    1    3    3    0    0 -0.10080098839E+02 -0.59770034315E+02 -0.46539796981E+02  0.76426553616E+02  0.10000000000E+01 0.  0.
    9000005    1    3    3    0    0  0.10080098839E+02  0.59770034315E+02 -0.12866538509E+02  0.61972681141E+02  0.10000000000E+01 0.  0.
<mgrwt>
<rscale>  0 0.12500094E+03</rscale>
<asrwt>0</asrwt>
<pdfrwt beam="2">  1        4 0.15215813E-01 0.12500094E+03</pdfrwt>
<pdfrwt beam="1">  1       -4 0.60763769E-02 0.12500094E+03</pdfrwt>
<totfact> 0.10166655E+04</totfact>
</mgrwt>
</event>
<event>
 5    1  0.3266594E-002  0.1250018E+03  0.7818608E-02  0.1235066E+00
         -4   -1    0    0    0  501 -0.00000000000E+00  0.00000000000E+00  0.23141094009E+02  0.23175917068E+02  0.12700000000E+01 0. -1.
          4   -1    0    0  501    0  0.00000000000E+00 -0.00000000000E+00 -0.16864221550E+03  0.16864699745E+03  0.12700000000E+01 0. -1.
         25    2    1    2    0    0  0.00000000000E+00  0.00000000000E+00 -0.14550112149E+03  0.19182291452E+03  0.12500181670E+03 0.  0.
    9000005    1    3    3    0    0 -0.27023653164E+02 -0.39029046943E+01  0.13511057959E+02  0.30480472152E+02  0.10000000000E+01 0.  0.
    9000005    1    3    3    0    0  0.27023653164E+02  0.39029046943E+01 -0.15901217945E+03  0.16134244237E+03  0.10000000000E+01 0.  0.
<mgrwt>
<rscale>  0 0.12500182E+03</rscale>
<asrwt>0</asrwt>
<pdfrwt beam="2">  1        4 0.25948002E-01 0.12500182E+03</pdfrwt>
<pdfrwt beam="1">  1       -4 0.35632150E-02 0.12500182E+03</pdfrwt>
<totfact> 0.91527374E+03</totfact>
</mgrwt>
</event>
<event>
 5    1  0.3266594E-002  0.1249989E+03  0.7818608E-02  0.1235071E+00
         -4   -1    0    0    0  501 -0.00000000000E+00  0.00000000000E+00  0.50524943508E+02  0.50540902411E+02  0.12700000000E+01 0.  1.
          4   -1    0    0  501    0  0.00000000000E+00 -0.00000000000E+00 -0.77278561921E+02  0.77288996841E+02  0.12700000000E+01 0.  1.
         25    2    1    2    0    0  0.00000000000E+00  0.00000000000E+00 -0.26753618413E+02  0.12782989925E+03  0.12499890817E+03 0.  0.
    9000005    1    3    3    0    0 -0.40917595470E+02  0.41299589852E+02 -0.36814780310E+02  0.68820300713E+02  0.10000000000E+01 0.  0.
    9000005    1    3    3    0    0  0.40917595470E+02 -0.41299589852E+02  0.10061161897E+02  0.59009598539E+02  0.10000000000E+01 0.  0.
<mgrwt>
<rscale>  0 0.12499891E+03</rscale>
<asrwt>0</asrwt>
<pdfrwt beam="2">  1        4 0.11891040E-01 0.12499891E+03</pdfrwt>
<pdfrwt beam="1">  1       -4 0.77750985E-02 0.12499891E+03</pdfrwt>
<totfact> 0.10391419E+04</totfact>
</mgrwt>
</event>
<event>
 5    1  0.3266594E-002  0.1249999E+03  0.7818608E-02  0.1235070E+00
         -4   -1    0    0    0  501 -0.00000000000E+00  0.00000000000E+00  0.15453019622E+02  0.15505119008E+02  0.12700000000E+01 0.  1.
          4   -1    0    0  501    0  0.00000000000E+00 -0.00000000000E+00 -0.25230260349E+03  0.25230579983E+03  0.12700000000E+01 0.  1.
         25    2    1    2    0    0  0.00000000000E+00  0.00000000000E+00 -0.23684958387E+03  0.26781091884E+03  0.12499985148E+03 0.  0.
    9000005    1    3    3    0    0 -0.26929679164E+02  0.52071781762E+02 -0.16480178771E+03  0.17492086013E+03  0.10000000000E+01 0.  0.
    9000005    1    3    3    0    0  0.26929679164E+02 -0.52071781762E+02 -0.72047796158E+02  0.92890058709E+02  0.10000000000E+01 0.  0.
<mgrwt>
<rscale>  0 0.12499985E+03</rscale>
<asrwt>0</asrwt>
<pdfrwt beam="2">  1        4 0.38820036E-01 0.12499985E+03</pdfrwt>
<pdfrwt beam="1">  1       -4 0.23816413E-02 0.12499985E+03</pdfrwt>
<totfact> 0.79822519E+03</totfact>
</mgrwt>
</event>
<event>
 5    1  0.3266594E-002  0.1249941E+03  0.7818608E-02  0.1235079E+00
         -4   -1    0    0    0  501 -0.00000000000E+00  0.00000000000E+00  0.14988391564E+03  0.14988929604E+03  0.12700000000E+01 0. -1.
          4   -1    0    0  501    0  0.00000000000E+00 -0.00000000000E+00 -0.26038044129E+02  0.26068997719E+02  0.12700000000E+01 0. -1.
         25    2    1    2    0    0  0.00000000000E+00  0.00000000000E+00  0.12384587151E+03  0.17595829376E+03  0.12499408487E+03 0.  0.
    9000005    1    3    3    0    0 -0.46762805740E+02 -0.19507185417E+02  0.11340806321E+03  0.12421625934E+03  0.10000000000E+01 0.  0.
    9000005    1    3    3    0    0  0.46762805740E+02  0.19507185417E+02  0.10437808299E+02  0.51742034417E+02  0.10000000000E+01 0.  0.
<mgrwt>
<rscale>  0 0.12499408E+03</rscale>
<asrwt>0</asrwt>
<pdfrwt beam="2">  1        4 0.40086479E-02 0.12499408E+03</pdfrwt>
<pdfrwt beam="1">  1       -4 0.23061859E-01 0.12499408E+03</pdfrwt>
<totfact> 0.94362143E+03</totfact>
</mgrwt>
</event>
<event>
 5    1  0.3266594E-002  0.1250247E+03  0.7818608E-02  0.1235031E+00
         -4   -1    0    0    0  501 -0.00000000000E+00  0.00000000000E+00  0.30021063045E+03  0.30021331672E+03  0.12700000000E+01 0.  1.
          4   -1    0    0  501    0  0.00000000000E+00 -0.00000000000E+00 -0.12983104341E+02  0.13045071802E+02  0.12700000000E+01 0.  1.
         25    2    1    2    0    0  0.00000000000E+00  0.00000000000E+00  0.28722752611E+03  0.31325838852E+03  0.12502466246E+03 0.  0.
    9000005    1    3    3    0    0  0.60653895837E+02 -0.13253886757E+02  0.12550574040E+03  0.14002589570E+03  0.10000000000E+01 0.  0.
    9000005    1    3    3    0    0 -0.60653895837E+02  0.13253886757E+02  0.16172178572E+03  0.17323249282E+03  0.10000000000E+01 0.  0.
<mgrwt>
<rscale>  0 0.12502466E+03</rscale>
<asrwt>0</asrwt>
<pdfrwt beam="2">  1        4 0.20023740E-02 0.12502466E+03</pdfrwt>
<pdfrwt beam="1">  1       -4 0.46191225E-01 0.12502466E+03</pdfrwt>
<totfact> 0.73924750E+03</totfact>
</mgrwt>
</event>
<event>
 5    1  0.3266594E-002  0.1249866E+03  0.7818608E-02  0.1235090E+00
         -4   -1    0    0    0  501 -0.00000000000E+00  0.00000000000E+00  0.23534415544E+02  0.23568657472E+02  0.12700000000E+01 0.  1.
          4   -1    0    0  501    0  0.00000000000E+00 -0.00000000000E+00 -0.16578733658E+03  0.16579220088E+03  0.12700000000E+01 0.  1.
         25    2    1    2    0    0  0.00000000000E+00  0.00000000000E+00 -0.14225292104E+03  0.18936085835E+03  0.12498656380E+03 0.  0.
    9000005    1    3    3    0    0 -0.61844699542E+02  0.17897731926E+00 -0.84644524071E+02  0.10483555861E+03  0.10000000000E+01 0.  0.
    9000005    1    3    3    0    0  0.61844699542E+02 -0.17897731926E+00 -0.57608396968E+02  0.84525299736E+02  0.10000000000E+01 0.  0.
<mgrwt>
<rscale>  0 0.12498656E+03</rscale>
<asrwt>0</asrwt>
<pdfrwt beam="2">  1        4 0.25508752E-01 0.12498656E+03</pdfrwt>
<pdfrwt beam="1">  1       -4 0.36236876E-02 0.12498656E+03</pdfrwt>
<totfact> 0.91986326E+03</totfact>
</mgrwt>
</event>
<event>
 5    1  0.3266594E-002  0.1250022E+03  0.7818608E-02  0.1235066E+00
          4   -1    0    0  501    0  0.00000000000E+00  0.00000000000E+00  0.11326699904E+03  0.11327411872E+03  0.12700000000E+01 0.  1.
         -4   -1    0    0    0  501 -0.00000000000E+00 -0.00000000000E+00 -0.34468435416E+02  0.34491824249E+02  0.12700000000E+01 0.  1.
         25    2    1    2    0    0  0.00000000000E+00  0.00000000000E+00  0.78798563622E+02  0.14776594297E+03  0.12500224107E+03 0.  0.
    9000005    1    3    3    0    0 -0.12877428713E+02  0.53404785626E+02  0.74615155934E+02  0.92662402263E+02  0.10000000000E+01 0.  0.
    9000005    1    3    3    0    0  0.12877428713E+02 -0.53404785626E+02  0.41834076877E+01  0.55103540702E+02  0.10000000000E+01 0.  0.
<mgrwt>
<rscale>  0 0.12500224E+03</rscale>
<asrwt>0</asrwt>
<pdfrwt beam="1">  1        4 0.17428039E-01 0.12500224E+03</pdfrwt>
<pdfrwt beam="2">  1       -4 0.53051831E-02 0.12500224E+03</pdfrwt>
<totfact> 0.99745870E+03</totfact>
</mgrwt>
</event>
<event>
 5    1  0.3266594E-002  0.1250026E+03  0.7818608E-02  0.1235065E+00
          4   -1    0    0  501    0  0.00000000000E+00  0.00000000000E+00  0.12796501700E+03  0.12797131896E+03  0.12700000000E+01 0.  1.
         -4   -1    0    0    0  501 -0.00000000000E+00 -0.00000000000E+00 -0.30506935922E+02  0.30533359450E+02  0.12700000000E+01 0.  1.
         25    2    1    2    0    0  0.00000000000E+00  0.00000000000E+00  0.97458081076E+02  0.15850467841E+03  0.12500262201E+03 0.  0.
    9000005    1    3    3    0    0 -0.26872130576E+02 -0.41116849811E+02 -0.26127845469E+00  0.49130184271E+02  0.10000000000E+01 0.  0.
    9000005    1    3    3    0    0  0.26872130576E+02  0.41116849811E+02  0.97719359531E+02  0.10937449413E+03  0.10000000000E+01 0.  0.
<mgrwt>
<rscale>  0 0.12500262E+03</rscale>
<asrwt>0</asrwt>
<pdfrwt beam="1">  1        4 0.19689444E-01 0.12500262E+03</pdfrwt>
<pdfrwt beam="2">  1       -4 0.46958919E-02 0.12500262E+03</pdfrwt>
<totfact> 0.97626092E+03</totfact>
</mgrwt>
</event>
<event>
 5    1  0.3266594E-002  0.1249987E+03  0.7818608E-02  0.1235071E+00
         -4   -1    0    0    0  501 -0.00000000000E+00  0.00000000000E+00  0.52987524412E+02  0.53002741847E+02  0.12700000000E+01 0.  1.
          4   -1    0    0  501    0  0.00000000000E+00 -0.00000000000E+00 -0.73687335424E+02  0.73698278826E+02  0.12700000000E+01 0.  1.
         25    2    1    2    0    0  0.00000000000E+00  0.00000000000E+00 -0.20699811012E+02  0.12670102067E+03  0.12499866585E+03 0.  0.
    9000005    1    3    3    0    0 -0.44829881826E+02  0.11878486998E+02  0.32105484897E+02  0.56414350287E+02  0.10000000000E+01 0.  0.
    9000005    1    3    3    0    0  0.44829881826E+02 -0.11878486998E+02 -0.52805295909E+02  0.70286670386E+02  0.10000000000E+01 0.  0.
<mgrwt>
<rscale>  0 0.12499867E+03</rscale>
<asrwt>0</asrwt>
<pdfrwt beam="2">  1        4 0.11338526E-01 0.12499867E+03</pdfrwt>
<pdfrwt beam="1">  1       -4 0.81539391E-02 0.12499867E+03</pdfrwt>
<totfact> 0.10415962E+04</totfact>
</mgrwt>
</event>
<event>
 5    1  0.3266594E-002  0.1250028E+03  0.7818608E-02  0.1235065E+00
         -4   -1    0    0    0  501 -0.00000000000E+00  0.00000000000E+00  0.38530311829E+02  0.38551236421E+02  0.12700000000E+01 0. -1.
          4   -1    0    0  501    0  0.00000000000E+00 -0.00000000000E+00 -0.10133339165E+03  0.10134134972E+03  0.12700000000E+01 0. -1.
         25    2    1    2    0    0  0.00000000000E+00  0.00000000000E+00 -0.62803079825E+02  0.13989258615E+03  0.12500283526E+03 0.  0.
    9000005    1    3    3    0    0  0.88537629570E+00 -0.36198069568E+02  0.25600255948E+02  0.44356028183E+02  0.10000000000E+01 0.  0.
    9000005    1    3    3    0    0 -0.88537629570E+00  0.36198069568E+02 -0.88403335772E+02  0.95536557962E+02  0.10000000000E+01 0.  0.
<mgrwt>
<rscale>  0 0.12500284E+03</rscale>
<asrwt>0</asrwt>
<pdfrwt beam="2">  1        4 0.15591974E-01 0.12500284E+03</pdfrwt>
<pdfrwt beam="1">  1       -4 0.59299621E-02 0.12500284E+03</pdfrwt>
<totfact> 0.10135165E+04</totfact>
</mgrwt>
</event>
<event>
 5    1  0.3266594E-002  0.1249992E+03  0.7818608E-02  0.1235071E+00
          4   -1    0    0  501    0  0.00000000000E+00  0.00000000000E+00  0.40086718539E+02  0.40106831129E+02  0.12700000000E+01 0. -1.
         -4   -1    0    0    0  501 -0.00000000000E+00 -0.00000000000E+00 -0.97395062460E+02  0.97403342301E+02  0.12700000000E+01 0. -1.
         25    2    1    2    0    0  0.00000000000E+00  0.00000000000E+00 -0.57308343921E+02  0.13751017343E+03  0.12499920605E+03 0.  0.
    9000005    1    3    3    0    0  0.12980757706E+02 -0.54894287441E+02  0.93222404157E+00  0.56424745511E+02  0.10000000000E+01 0.  0.
    9000005    1    3    3    0    0 -0.12980757706E+02  0.54894287441E+02 -0.58240567963E+02  0.81085427919E+02  0.10000000000E+01 0.  0.
<mgrwt>
<rscale>  0 0.12499921E+03</rscale>
<asrwt>0</asrwt>
<pdfrwt beam="1">  1        4 0.61693715E-02 0.12499921E+03</pdfrwt>
<pdfrwt beam="2">  1       -4 0.14986040E-01 0.12499921E+03</pdfrwt>
<totfact> 0.10185612E+04</totfact>
</mgrwt>
</event>
<event>
 5    1  0.3266594E-002  0.1249913E+03  0.7818608E-02  0.1235083E+00
         -4   -1    0    0    0  501 -0.00000000000E+00  0.00000000000E+00  0.19838683561E+03  0.19839090061E+03  0.12700000000E+01 0. -1.
          4   -1    0    0  501    0  0.00000000000E+00 -0.00000000000E+00 -0.19662562789E+02  0.19703534593E+02  0.12700000000E+01 0. -1.
         25    2    1    2    0    0  0.00000000000E+00  0.00000000000E+00  0.17872427282E+03  0.21809443520E+03  0.12499126757E+03 0.  0.
    9000005    1    3    3    0    0  0.12380673543E+02 -0.57731462225E+02  0.53666643162E+02  0.79795434683E+02  0.10000000000E+01 0.  0.
    9000005    1    3    3    0    0 -0.12380673543E+02  0.57731462225E+02  0.12505762966E+03  0.13829900052E+03  0.10000000000E+01 0.  0.
<mgrwt>
<rscale>  0 0.12499127E+03</rscale>
<asrwt>0</asrwt>
<pdfrwt beam="2">  1        4 0.30284741E-02 0.12499127E+03</pdfrwt>
<pdfrwt beam="1">  1       -4 0.30524515E-01 0.12499127E+03</pdfrwt>
<totfact> 0.87187789E+03</totfact>
</mgrwt>
</event>
<event>
 5    1  0.3266594E-002  0.1250242E+03  0.7818608E-02  0.1235032E+00
          4   -1    0    0  501    0  0.00000000000E+00  0.00000000000E+00  0.57890406275E+03  0.57890545581E+03  0.12700000000E+01 0.  1.
         -4   -1    0    0    0  501 -0.00000000000E+00 -0.00000000000E+00 -0.66891259385E+01  0.68086199645E+01  0.12700000000E+01 0.  1.
         25    2    1    2    0    0  0.00000000000E+00  0.00000000000E+00  0.57221493681E+03  0.58571407578E+03  0.12502417627E+03 0.  0.
    9000005    1    3    3    0    0  0.38203333173E+02  0.14058809078E+00  0.54351707846E+02  0.66442626200E+02  0.10000000000E+01 0.  0.
    9000005    1    3    3    0    0 -0.38203333173E+02 -0.14058809078E+00  0.51786322897E+03  0.51927144958E+03  0.10000000000E+01 0.  0.
<mgrwt>
<rscale>  0 0.12502418E+03</rscale>
<asrwt>0</asrwt>
<pdfrwt beam="1">  1        4 0.89071461E-01 0.12502418E+03</pdfrwt>
<pdfrwt beam="2">  1       -4 0.10383953E-02 0.12502418E+03</pdfrwt>
<totfact> 0.49755587E+03</totfact>
</mgrwt>
</event>
<event>
 5    1  0.3266594E-002  0.1250044E+03  0.7818608E-02  0.1235062E+00
          4   -1    0    0  501    0  0.00000000000E+00  0.00000000000E+00  0.43908402242E+02  0.43926765046E+02  0.12700000000E+01 0.  1.
         -4   -1    0    0    0  501 -0.00000000000E+00 -0.00000000000E+00 -0.88928336162E+02  0.88937404237E+02  0.12700000000E+01 0.  1.
         25    2    1    2    0    0  0.00000000000E+00  0.00000000000E+00 -0.45019933920E+02  0.13286416928E+03  0.12500437204E+03 0.  0.
    9000005    1    3    3    0    0  0.61957034102E+02 -0.31066526340E+01 -0.30548423822E+02  0.69155849813E+02  0.10000000000E+01 0.  0.
    9000005    1    3    3    0    0 -0.61957034102E+02  0.31066526340E+01 -0.14471510098E+02  0.63708319471E+02  0.10000000000E+01 0.  0.
<mgrwt>
<rscale>  0 0.12500437E+03</rscale>
<asrwt>0</asrwt>
<pdfrwt beam="1">  1        4 0.67572489E-02 0.12500437E+03</pdfrwt>
<pdfrwt beam="2">  1       -4 0.13683393E-01 0.12500437E+03</pdfrwt>
<totfact> 0.10282274E+04</totfact>
</mgrwt>
</event>
<event>
 5    1  0.3266594E-002  0.1249980E+03  0.7818608E-02  0.1235072E+00
         -4   -1    0    0    0  501 -0.00000000000E+00  0.00000000000E+00  0.12088645602E+04  0.12088652273E+04  0.12700000000E+01 0. -1.
          4   -1    0    0  501    0  0.00000000000E+00 -0.00000000000E+00 -0.31057484844E+01  0.33553798069E+01  0.12700000000E+01 0. -1.
         25    2    1    2    0    0  0.00000000000E+00  0.00000000000E+00  0.12057588117E+04  0.12122206072E+04  0.12499795317E+03 0.  0.
    9000005    1    3    3    0    0  0.87807922671E+01  0.59302488699E+02  0.43179016719E+03  0.43593306362E+03  0.10000000000E+01 0.  0.
    9000005    1    3    3    0    0 -0.87807922671E+01 -0.59302488699E+02  0.77396864456E+03  0.77628754353E+03  0.10000000000E+01 0.  0.
<mgrwt>
<rscale>  0 0.12499795E+03</rscale>
<asrwt>0</asrwt>
<pdfrwt beam="2">  1        4 0.49706132E-03 0.12499795E+03</pdfrwt>
<pdfrwt beam="1">  1       -4 0.18599837E+00 0.12499795E+03</pdfrwt>
<totfact> 0.24396198E+03</totfact>
</mgrwt>
</event>
<event>
 5    1  0.3266594E-002  0.1249933E+03  0.7818608E-02  0.1235080E+00
          4   -1    0    0  501    0  0.00000000000E+00  0.00000000000E+00  0.56148130824E+01  0.57566505844E+01  0.12700000000E+01 0. -1.
         -4   -1    0    0    0  501 -0.00000000000E+00 -0.00000000000E+00 -0.68681018617E+03  0.68681136037E+03  0.12700000000E+01 0. -1.
         25    2    1    2    0    0  0.00000000000E+00  0.00000000000E+00 -0.68119537309E+03  0.69256801095E+03  0.12499325372E+03 0.  0.
    9000005    1    3    3    0    0  0.10574723485E+01  0.29978974390E+02 -0.64433350715E+03  0.64503218958E+03  0.10000000000E+01 0.  0.
    9000005    1    3    3    0    0 -0.10574723485E+01 -0.29978974390E+02 -0.36861865937E+02  0.47535821373E+02  0.10000000000E+01 0.  0.
<mgrwt>
<rscale>  0 0.12499325E+03</rscale>
<asrwt>0</asrwt>
<pdfrwt beam="1">  1        4 0.87481884E-03 0.12499325E+03</pdfrwt>
<pdfrwt beam="2">  1       -4 0.10567404E+00 0.12499325E+03</pdfrwt>
<totfact> 0.43488369E+03</totfact>
</mgrwt>
</event>
<event>
 4    1  0.3266594E-002  0.1248945E+03  0.7818608E-02  0.1235234E+00
          4   -1    0    0  501    0  0.00000000000E+00  0.00000000000E+00  0.60902215509E+03  0.60902347926E+03  0.12700000000E+01 0. -1.
         -4   -1    0    0    0  501 -0.00000000000E+00 -0.00000000000E+00 -0.63388311721E+01  0.64648032166E+01  0.12700000000E+01 0. -1.
    9000005    1    1    2    0    0  0.69635628070E+01  0.21005769445E+02  0.13611605611E+02  0.26000180081E+02  0.10000000000E+01 0.  0.
    9000005    1    1    2    0    0 -0.69635628070E+01 -0.21005769445E+02  0.58907171831E+03  0.58948810240E+03  0.10000000000E+01 0.  0.
<mgrwt>
<rscale>  0 0.12489450E+03</rscale>
<asrwt>0</asrwt>
<pdfrwt beam="1">  1        4 0.93705549E-01 0.12489450E+03</pdfrwt>
<pdfrwt beam="2">  1       -4 0.98499638E-03 0.12489450E+03</pdfrwt>
<totfact> 0.48015243E+03</totfact>
</mgrwt>
</event>
<event>
 5    1  0.3266594E-002  0.1250000E+03  0.7818608E-02  0.1235069E+00
          4   -1    0    0  501    0  0.00000000000E+00  0.00000000000E+00  0.29687577518E+02  0.29714729662E+02  0.12700000000E+01 0.  1.
         -4   -1    0    0    0  501 -0.00000000000E+00 -0.00000000000E+00 -0.13148834273E+03  0.13149447583E+03  0.12700000000E+01 0.  1.
         25    2    1    2    0    0  0.00000000000E+00  0.00000000000E+00 -0.10180076521E+03  0.16120920549E+03  0.12500004855E+03 0.  0.
    9000005    1    3    3    0    0 -0.46755342506E+02 -0.29343900870E+02 -0.88679804107E+02  0.10446163998E+03  0.10000000000E+01 0.  0.
    9000005    1    3    3    0    0  0.46755342506E+02  0.29343900870E+02 -0.13120961105E+02  0.56747565511E+02  0.10000000000E+01 0.  0.
<mgrwt>
<rscale>  0 0.12500005E+03</rscale>
<asrwt>0</asrwt>
<pdfrwt beam="1">  1        4 0.45698801E-02 0.12500005E+03</pdfrwt>
<pdfrwt beam="2">  1       -4 0.20231536E-01 0.12500005E+03</pdfrwt>
<totfact> 0.97110059E+03</totfact>
</mgrwt>
</event>
<event>
 5    1  0.3266594E-002  0.1250047E+03  0.7818608E-02  0.1235062E+00
         -4   -1    0    0    0  501 -0.00000000000E+00  0.00000000000E+00  0.11871332546E+02  0.11939071841E+02  0.12700000000E+01 0.  1.
          4   -1    0    0  501    0  0.00000000000E+00 -0.00000000000E+00 -0.32806848497E+03  0.32807094314E+03  0.12700000000E+01 0.  1.
         25    2    1    2    0    0  0.00000000000E+00  0.00000000000E+00 -0.31619715243E+03  0.34001001498E+03  0.12500468425E+03 0.  0.
    9000005    1    3    3    0    0 -0.14119687380E+02  0.27655164157E+02 -0.10582217284E+02  0.32820070063E+02  0.10000000000E+01 0.  0.
    9000005    1    3    3    0    0  0.14119687380E+02 -0.27655164157E+02 -0.30561493514E+03  0.30718994492E+03  0.10000000000E+01 0.  0.
<mgrwt>
<rscale>  0 0.12500468E+03</rscale>
<asrwt>0</asrwt>
<pdfrwt beam="2">  1        4 0.50477467E-01 0.12500468E+03</pdfrwt>
<pdfrwt beam="1">  1       -4 0.18317589E-02 0.12500468E+03</pdfrwt>
<totfact> 0.70830398E+03</totfact>
</mgrwt>
</event>
<event>
 5    1  0.3266594E-002  0.1249987E+03  0.7818608E-02  0.1235071E+00
         -4   -1    0    0    0  501 -0.00000000000E+00  0.00000000000E+00  0.11559834566E+03  0.11560532176E+03  0.12700000000E+01 0.  1.
          4   -1    0    0  501    0  0.00000000000E+00 -0.00000000000E+00 -0.33770956738E+02  0.33794828288E+02  0.12700000000E+01 0.  1.
         25    2    1    2    0    0  0.00000000000E+00  0.00000000000E+00  0.81827388920E+02  0.14940015005E+03  0.12499873302E+03 0.  0.
    9000005    1    3    3    0    0 -0.61229852022E+02 -0.12408448874E+02  0.39179015369E+02  0.73749980524E+02  0.10000000000E+01 0.  0.
    9000005    1    3    3    0    0  0.61229852022E+02  0.12408448874E+02  0.42648373552E+02  0.75650169522E+02  0.10000000000E+01 0.  0.
<mgrwt>
<rscale>  0 0.12499873E+03</rscale>
<asrwt>0</asrwt>
<pdfrwt beam="2">  1        4 0.51979047E-02 0.12499873E+03</pdfrwt>
<pdfrwt beam="1">  1       -4 0.17786734E-01 0.12499873E+03</pdfrwt>
<totfact> 0.99426239E+03</totfact>
</mgrwt>
</event>
<event>
 5    1  0.3266594E-002  0.1249851E+03  0.7818608E-02  0.1235093E+00
          4   -1    0    0  501    0  0.00000000000E+00  0.00000000000E+00  0.40934685732E+03  0.40934882741E+03  0.12700000000E+01 0. -1.
         -4   -1    0    0    0  501 -0.00000000000E+00 -0.00000000000E+00 -0.94960956469E+01  0.95806436389E+01  0.12700000000E+01 0. -1.
         25    2    1    2    0    0  0.00000000000E+00  0.00000000000E+00  0.39985076168E+03  0.41892947105E+03  0.12498507950E+03 0.  0.
    9000005    1    3    3    0    0  0.44188872974E+02 -0.32725577472E+02  0.29939630462E+03  0.30440559643E+03  0.10000000000E+01 0.  0.
    9000005    1    3    3    0    0 -0.44188872974E+02  0.32725577472E+02  0.10045445706E+03  0.11452387462E+03  0.10000000000E+01 0.  0.
<mgrwt>
<rscale>  0 0.12498508E+03</rscale>
<asrwt>0</asrwt>
<pdfrwt beam="1">  1        4 0.62983111E-01 0.12498508E+03</pdfrwt>
<pdfrwt beam="2">  1       -4 0.14675926E-02 0.12498508E+03</pdfrwt>
<totfact> 0.62773095E+03</totfact>
</mgrwt>
</event>
<event>
 5    1  0.3266594E-002  0.1250006E+03  0.7818608E-02  0.1235068E+00
          4   -1    0    0  501    0  0.00000000000E+00  0.00000000000E+00  0.27415679675E+03  0.27415973830E+03  0.12700000000E+01 0. -1.
         -4   -1    0    0    0  501 -0.00000000000E+00 -0.00000000000E+00 -0.14217038067E+02  0.14273649548E+02  0.12700000000E+01 0. -1.
         25    2    1    2    0    0  0.00000000000E+00  0.00000000000E+00  0.25993975868E+03  0.28843338785E+03  0.12500056432E+03 0.  0.
    9000005    1    3    3    0    0 -0.14855832321E+02 -0.46633056532E+02  0.21963313190E+03  0.22502233299E+03  0.10000000000E+01 0.  0.
    9000005    1    3    3    0    0  0.14855832321E+02  0.46633056532E+02  0.40306626780E+02  0.63411054856E+02  0.10000000000E+01 0.  0.
<mgrwt>
<rscale>  0 0.12500056E+03</rscale>
<asrwt>0</asrwt>
<pdfrwt beam="1">  1        4 0.42182545E-01 0.12500056E+03</pdfrwt>
<pdfrwt beam="2">  1       -4 0.21918179E-02 0.12500056E+03</pdfrwt>
<totfact> 0.77072060E+03</totfact>
</mgrwt>
</event>
<event>
 5    1  0.3266594E-002  0.1250083E+03  0.7818608E-02  0.1235056E+00
          4   -1    0    0  501    0  0.00000000000E+00  0.00000000000E+00  0.26645893352E+01  0.29517683387E+01  0.12700000000E+01 0.  1.
         -4   -1    0    0    0  501 -0.00000000000E+00 -0.00000000000E+00 -0.13909242841E+04  0.13909248639E+04  0.12700000000E+01 0.  1.
         25    2    1    2    0    0  0.00000000000E+00  0.00000000000E+00 -0.13882596948E+04  0.13938766322E+04  0.12500834283E+03 0.  0.
    9000005    1    3    3    0    0 -0.10215463751E+02  0.60466930619E+02 -0.55978597472E+03  0.56313581212E+03  0.10000000000E+01 0.  0.
    9000005    1    3    3    0    0  0.10215463751E+02 -0.60466930619E+02 -0.82847372003E+03  0.83074082010E+03  0.10000000000E+01 0.  0.
<mgrwt>
<rscale>  0 0.12500834E+03</rscale>
<asrwt>0</asrwt>
<pdfrwt beam="1">  1        4 0.43207322E-03 0.12500834E+03</pdfrwt>
<pdfrwt beam="2">  1       -4 0.21400994E+00 0.12500834E+03</pdfrwt>
<totfact> 0.20109124E+03</totfact>
</mgrwt>
</event>
<event>
 5    1  0.3266594E-002  0.1249989E+03  0.7818608E-02  0.1235071E+00
          4   -1    0    0  501    0  0.00000000000E+00  0.00000000000E+00  0.65122699689E+01  0.66349498979E+01  0.12700000000E+01 0. -1.
         -4   -1    0    0    0  501 -0.00000000000E+00 -0.00000000000E+00 -0.59409837840E+03  0.59409973583E+03  0.12700000000E+01 0. -1.
         25    2    1    2    0    0  0.00000000000E+00  0.00000000000E+00 -0.58758610843E+03  0.60073468573E+03  0.12499891127E+03 0.  0.
    9000005    1    3    3    0    0 -0.11364849290E+02  0.53918957937E+02 -0.15213919253E+03  0.16181392934E+03  0.10000000000E+01 0.  0.
    9000005    1    3    3    0    0  0.11364849290E+02 -0.53918957937E+02 -0.43544691590E+03  0.43892075639E+03  0.10000000000E+01 0.  0.
<mgrwt>
<rscale>  0 0.12499891E+03</rscale>
<asrwt>0</asrwt>
<pdfrwt beam="1">  1        4 0.10114295E-02 0.12499891E+03</pdfrwt>
<pdfrwt beam="2">  1       -4 0.91409250E-01 0.12499891E+03</pdfrwt>
<totfact> 0.48822450E+03</totfact>
</mgrwt>
</event>
<event>
 5    1  0.3266594E-002  0.1249967E+03  0.7818608E-02  0.1235074E+00
          4   -1    0    0  501    0  0.00000000000E+00  0.00000000000E+00  0.34228802133E+03  0.34229037738E+03  0.12700000000E+01 0. -1.
         -4   -1    0    0    0  501 -0.00000000000E+00 -0.00000000000E+00 -0.11373831698E+02  0.11444516045E+02  0.12700000000E+01 0. -1.
         25    2    1    2    0    0  0.00000000000E+00  0.00000000000E+00  0.33091418963E+03  0.35373489342E+03  0.12499669566E+03 0.  0.
    9000005    1    3    3    0    0 -0.38575415782E+02  0.47177706058E+02  0.20459289527E+03  0.21347845664E+03  0.10000000000E+01 0.  0.
    9000005    1    3    3    0    0  0.38575415782E+02 -0.47177706058E+02  0.12632129436E+03  0.14025643679E+03  0.10000000000E+01 0.  0.
<mgrwt>
<rscale>  0 0.12499670E+03</rscale>
<asrwt>0</asrwt>
<pdfrwt beam="1">  1        4 0.52665309E-01 0.12499670E+03</pdfrwt>
<pdfrwt beam="2">  1       -4 0.17554389E-02 0.12499670E+03</pdfrwt>
<totfact> 0.69320687E+03</totfact>
</mgrwt>
</event>
<event>
 5    1  0.3266594E-002  0.1250010E+03  0.7818608E-02  0.1235068E+00
          4   -1    0    0  501    0  0.00000000000E+00  0.00000000000E+00  0.73748302854E+03  0.73748412205E+03  0.12700000000E+01 0. -1.
         -4   -1    0    0    0  501 -0.00000000000E+00 -0.00000000000E+00 -0.52195762195E+01  0.53718596325E+01  0.12700000000E+01 0. -1.
         25    2    1    2    0    0  0.00000000000E+00  0.00000000000E+00  0.73226345232E+03  0.74285598169E+03  0.12500098370E+03 0.  0.
    9000005    1    3    3    0    0  0.11908071219E+02 -0.86987529016E+01  0.72702375468E+03  0.72717398903E+03  0.10000000000E+01 0.  0.
    9000005    1    3    3    0    0 -0.11908071219E+02  0.86987529016E+01  0.52396976416E+01  0.15681992653E+02  0.10000000000E+01 0.  0.
<mgrwt>
<rscale>  0 0.12500098E+03</rscale>
<asrwt>0</asrwt>
<pdfrwt beam="1">  1        4 0.11347073E+00 0.12500098E+03</pdfrwt>
<pdfrwt beam="2">  1       -4 0.81480994E-03 0.12500098E+03</pdfrwt>
<totfact> 0.40917306E+03</totfact>
</mgrwt>
</event>
<event>
 5    1  0.3266594E-002  0.1249976E+03  0.7818608E-02  0.1235073E+00
         -4   -1    0    0    0  501 -0.00000000000E+00  0.00000000000E+00  0.34472321286E+02  0.34495707485E+02  0.12700000000E+01 0.  1.
          4   -1    0    0  501    0  0.00000000000E+00 -0.00000000000E+00 -0.11324578828E+03  0.11325290929E+03  0.12700000000E+01 0.  1.
         25    2    1    2    0    0  0.00000000000E+00  0.00000000000E+00 -0.78773466993E+02  0.14774861678E+03  0.12499757861E+03 0.  0.
    9000005    1    3    3    0    0  0.78797437807E+01  0.30116434232E+02  0.24660517218E+02  0.39726956621E+02  0.10000000000E+01 0.  0.
    9000005    1    3    3    0    0 -0.78797437807E+01 -0.30116434232E+02 -0.10343398421E+03  0.10802166015E+03  0.10000000000E+01 0.  0.
<mgrwt>
<rscale>  0 0.12499758E+03</rscale>
<asrwt>0</asrwt>
<pdfrwt beam="2">  1        4 0.17424775E-01 0.12499758E+03</pdfrwt>
<pdfrwt beam="1">  1       -4 0.53057808E-02 0.12499758E+03</pdfrwt>
<totfact> 0.99759823E+03</totfact>
</mgrwt>
</event>
<event>
 5    1  0.3266594E-002  0.1249944E+03  0.7818608E-02  0.1235078E+00
          4   -1    0    0  501    0  0.00000000000E+00  0.00000000000E+00  0.54241212306E+03  0.54241360984E+03  0.12700000000E+01 0.  1.
         -4   -1    0    0    0  501 -0.00000000000E+00 -0.00000000000E+00 -0.71434738035E+01  0.72554888176E+01  0.12700000000E+01 0.  1.
         25    2    1    2    0    0  0.00000000000E+00  0.00000000000E+00  0.53526864926E+03  0.54966909866E+03  0.12499436445E+03 0.  0.
    9000005    1    3    3    0    0 -0.25858117357E+02  0.18717184057E+02  0.31394436974E+02  0.44783768099E+02  0.10000000000E+01 0.  0.
    9000005    1    3    3    0    0  0.25858117357E+02 -0.18717184057E+02  0.50387421229E+03  0.50488533056E+03  0.10000000000E+01 0.  0.
<mgrwt>
<rscale>  0 0.12499436E+03</rscale>
<asrwt>0</asrwt>
<pdfrwt beam="1">  1        4 0.83456784E-01 0.12499436E+03</pdfrwt>
<pdfrwt beam="2">  1       -4 0.11077264E-02 0.12499436E+03</pdfrwt>
<totfact> 0.52213445E+03</totfact>
</mgrwt>
</event>
<event>
 5    1  0.3266594E-002  0.1250006E+03  0.7818608E-02  0.1235068E+00
         -4   -1    0    0    0  501 -0.00000000000E+00  0.00000000000E+00  0.16917236154E+02  0.16964839495E+02  0.12700000000E+01 0.  1.
          4   -1    0    0  501    0  0.00000000000E+00 -0.00000000000E+00 -0.23053201080E+03  0.23053550899E+03  0.12700000000E+01 0.  1.
         25    2    1    2    0    0  0.00000000000E+00  0.00000000000E+00 -0.21361477464E+03  0.24750034848E+03  0.12500060220E+03 0.  0.
    9000005    1    3    3    0    0 -0.54066879633E+02  0.24489439909E+02 -0.68092190045E+02  0.90335521726E+02  0.10000000000E+01 0.  0.
    9000005    1    3    3    0    0  0.54066879633E+02 -0.24489439909E+02 -0.14552258460E+03  0.15716482676E+03  0.10000000000E+01 0.  0.
<mgrwt>
<rscale>  0 0.12500060E+03</rscale>
<asrwt>0</asrwt>
<pdfrwt beam="2">  1        4 0.35470392E-01 0.12500060E+03</pdfrwt>
<pdfrwt beam="1">  1       -4 0.26065828E-02 0.12500060E+03</pdfrwt>
<totfact> 0.82691744E+03</totfact>
</mgrwt>
</event>
<event>
 5    1  0.3266594E-002  0.1249985E+03  0.7818608E-02  0.1235072E+00
         -4   -1    0    0    0  501 -0.00000000000E+00  0.00000000000E+00  0.70311710673E+02  0.70323179378E+02  0.12700000000E+01 0.  1.
          4   -1    0    0  501    0  0.00000000000E+00 -0.00000000000E+00 -0.55531565778E+02  0.55546086251E+02  0.12700000000E+01 0.  1.
         25    2    1    2    0    0  0.00000000000E+00  0.00000000000E+00  0.14780144895E+02  0.12586926563E+03  0.12499847738E+03 0.  0.
    9000005    1    3    3    0    0 -0.25444234835E+02 -0.45389111780E+02 -0.27456992597E+02  0.58842731046E+02  0.10000000000E+01 0.  0.
    9000005    1    3    3    0    0  0.25444234835E+02  0.45389111780E+02  0.42237137493E+02  0.67026534582E+02  0.10000000000E+01 0.  0.
<mgrwt>
<rscale>  0 0.12499848E+03</rscale>
<asrwt>0</asrwt>
<pdfrwt beam="2">  1        4 0.85453170E-02 0.12499848E+03</pdfrwt>
<pdfrwt beam="1">  1       -4 0.10819185E-01 0.12499848E+03</pdfrwt>
<totfact> 0.10434183E+04</totfact>
</mgrwt>
</event>
<event>
 5    1  0.3266594E-002  0.1250000E+03  0.7818608E-02  0.1235069E+00
         -4   -1    0    0    0  501 -0.00000000000E+00  0.00000000000E+00  0.17005908655E+02  0.17053264473E+02  0.12700000000E+01 0. -1.
          4   -1    0    0  501    0  0.00000000000E+00 -0.00000000000E+00 -0.22933108028E+03  0.22933459679E+03  0.12700000000E+01 0. -1.
         25    2    1    2    0    0  0.00000000000E+00  0.00000000000E+00 -0.21232517163E+03  0.24638786126E+03  0.12499999868E+03 0.  0.
    9000005    1    3    3    0    0 -0.33078496268E+02 -0.28349945585E+02 -0.19447467457E+03  0.19929702802E+03  0.10000000000E+01 0.  0.
    9000005    1    3    3    0    0  0.33078496268E+02  0.28349945585E+02 -0.17850497062E+02  0.47090833241E+02  0.10000000000E+01 0.  0.
<mgrwt>
<rscale>  0 0.12500000E+03</rscale>
<asrwt>0</asrwt>
<pdfrwt beam="2">  1        4 0.35285616E-01 0.12500000E+03</pdfrwt>
<pdfrwt beam="1">  1       -4 0.26202071E-02 0.12500000E+03</pdfrwt>
<totfact> 0.82855116E+03</totfact>
</mgrwt>
</event>
<event>
 5    1  0.3266594E-002  0.1250118E+03  0.7818608E-02  0.1235051E+00
         -4   -1    0    0    0  501 -0.00000000000E+00  0.00000000000E+00  0.17349965289E+03  0.17350430097E+03  0.12700000000E+01 0.  1.
          4   -1    0    0  501    0  0.00000000000E+00 -0.00000000000E+00 -0.22495833691E+02  0.22531654033E+02  0.12700000000E+01 0.  1.
         25    2    1    2    0    0  0.00000000000E+00  0.00000000000E+00  0.15100381920E+03  0.19603595500E+03  0.12501176840E+03 0.  0.
    9000005    1    3    3    0    0 -0.10298453287E+02 -0.59826167106E+02  0.98801174676E+02  0.11596508323E+03  0.10000000000E+01 0.  0.
    9000005    1    3    3    0    0  0.10298453287E+02  0.59826167106E+02  0.52202644527E+02  0.80070871773E+02  0.10000000000E+01 0.  0.
<mgrwt>
<rscale>  0 0.12501177E+03</rscale>
<asrwt>0</asrwt>
<pdfrwt beam="2">  1        4 0.34640104E-02 0.12501177E+03</pdfrwt>
<pdfrwt beam="1">  1       -4 0.26695367E-01 0.12501177E+03</pdfrwt>
<totfact> 0.90783635E+03</totfact>
</mgrwt>
</event>
<event>
 5    1  0.3266594E-002  0.1250056E+03  0.7818608E-02  0.1235061E+00
         -4   -1    0    0    0  501 -0.00000000000E+00  0.00000000000E+00  0.12142163133E+02  0.12208399795E+02  0.12700000000E+01 0.  1.
          4   -1    0    0  501    0  0.00000000000E+00 -0.00000000000E+00 -0.32079577352E+03  0.32079828741E+03  0.12700000000E+01 0.  1.
         25    2    1    2    0    0  0.00000000000E+00  0.00000000000E+00 -0.30865361039E+03  0.33300668721E+03  0.12500560996E+03 0.  0.
    9000005    1    3    3    0    0  0.55028754914E+02 -0.20545933006E+02 -0.97484334826E+02  0.11381781393E+03  0.10000000000E+01 0.  0.
    9000005    1    3    3    0    0 -0.55028754914E+02  0.20545933006E+02 -0.21116927556E+03  0.21918887328E+03  0.10000000000E+01 0.  0.
<mgrwt>
<rscale>  0 0.12500561E+03</rscale>
<asrwt>0</asrwt>
<pdfrwt beam="2">  1        4 0.49358478E-01 0.12500561E+03</pdfrwt>
<pdfrwt beam="1">  1       -4 0.18733138E-02 0.12500561E+03</pdfrwt>
<totfact> 0.71626499E+03</totfact>
</mgrwt>
</event>
<event>
 5    1  0.3266594E-002  0.1249958E+03  0.7818608E-02  0.1235076E+00
         -4   -1    0    0    0  501 -0.00000000000E+00  0.00000000000E+00  0.13186469684E+04  0.13186475800E+04  0.12700000000E+01 0.  1.
          4   -1    0    0  501    0  0.00000000000E+00 -0.00000000000E+00 -0.28253513585E+01  0.30976620698E+01  0.12700000000E+01 0.  1.
         25    2    1    2    0    0  0.00000000000E+00  0.00000000000E+00  0.13158216171E+04  0.13217452421E+04  0.12499582790E+03 0.  0.
    9000005    1    3    3    0    0 -0.45496128908E+02 -0.42382318923E+02  0.59201785397E+03  0.59527497690E+03  0.10000000000E+01 0.  0.
    9000005    1    3    3    0    0  0.45496128908E+02  0.42382318923E+02  0.72380376312E+03  0.72647026519E+03  0.10000000000E+01 0.  0.
<mgrwt>
<rscale>  0 0.12499583E+03</rscale>
<asrwt>0</asrwt>
<pdfrwt beam="2">  1        4 0.45566226E-03 0.12499583E+03</pdfrwt>
<pdfrwt beam="1">  1       -4 0.20289029E+00 0.12499583E+03</pdfrwt>
<totfact> 0.21722940E+03</totfact>
</mgrwt>
</event>
<event>
 5    1  0.3266594E-002  0.1249973E+03  0.7818608E-02  0.1235074E+00
          4   -1    0    0  501    0  0.00000000000E+00  0.00000000000E+00  0.13472782814E+02  0.13532508147E+02  0.12700000000E+01 0.  1.
         -4   -1    0    0    0  501 -0.00000000000E+00 -0.00000000000E+00 -0.28922134317E+03  0.28922413151E+03  0.12700000000E+01 0.  1.
         25    2    1    2    0    0  0.00000000000E+00  0.00000000000E+00 -0.27574856036E+03  0.30275663966E+03  0.12499725723E+03 0.  0.
    9000005    1    3    3    0    0 -0.43315193942E+02  0.81048660737E+01 -0.30556010370E+02  0.53633614926E+02  0.10000000000E+01 0.  0.
    9000005    1    3    3    0    0  0.43315193942E+02 -0.81048660737E+01 -0.24519254999E+03  0.24912302473E+03  0.10000000000E+01 0.  0.
<mgrwt>
<rscale>  0 0.12499726E+03</rscale>
<asrwt>0</asrwt>
<pdfrwt beam="1">  1        4 0.20775448E-02 0.12499726E+03</pdfrwt>
<pdfrwt beam="2">  1       -4 0.44500395E-01 0.12499726E+03</pdfrwt>
<totfact> 0.75258930E+03</totfact>
</mgrwt>
</event>
<event>
 5    1  0.3266594E-002  0.1250017E+03  0.7818608E-02  0.1235067E+00
          4   -1    0    0  501    0  0.00000000000E+00  0.00000000000E+00  0.32172687487E+03  0.32172938149E+03  0.12700000000E+01 0. -1.
         -4   -1    0    0    0  501 -0.00000000000E+00 -0.00000000000E+00 -0.12106073168E+02  0.12172506215E+02  0.12700000000E+01 0. -1.
         25    2    1    2    0    0  0.00000000000E+00  0.00000000000E+00  0.30962080170E+03  0.33390188771E+03  0.12500171905E+03 0.  0.
    9000005    1    3    3    0    0  0.51179706012E+02 -0.13835436655E+01  0.25052960714E+03  0.25570952379E+03  0.10000000000E+01 0.  0.
    9000005    1    3    3    0    0 -0.51179706012E+02  0.13835436655E+01  0.59091194561E+02  0.78192363919E+02  0.10000000000E+01 0.  0.
<mgrwt>
<rscale>  0 0.12500172E+03</rscale>
<asrwt>0</asrwt>
<pdfrwt beam="1">  1        4 0.49501743E-01 0.12500172E+03</pdfrwt>
<pdfrwt beam="2">  1       -4 0.18677759E-02 0.12500172E+03</pdfrwt>
<totfact> 0.71529902E+03</totfact>
</mgrwt>
</event>
<event>
 5    1  0.3266594E-002  0.1250070E+03  0.7818608E-02  0.1235058E+00
          4   -1    0    0  501    0  0.00000000000E+00  0.00000000000E+00  0.72755264111E+01  0.73855388807E+01  0.12700000000E+01 0. -1.
         -4   -1    0    0    0  501 -0.00000000000E+00 -0.00000000000E+00 -0.53282283623E+03  0.53282434977E+03  0.12700000000E+01 0. -1.
         25    2    1    2    0    0  0.00000000000E+00  0.00000000000E+00 -0.52554730982E+03  0.54020988865E+03  0.12500699556E+03 0.  0.
    9000005    1    3    3    0    0  0.34351108753E+02 -0.36294467313E+02 -0.10059591191E+03  0.11232909028E+03  0.10000000000E+01 0.  0.
    9000005    1    3    3    0    0 -0.34351108753E+02  0.36294467313E+02 -0.42495139791E+03  0.42788079837E+03  0.10000000000E+01 0.  0.
<mgrwt>
<rscale>  0 0.12500700E+03</rscale>
<asrwt>0</asrwt>
<pdfrwt beam="1">  1        4 0.11278911E-02 0.12500700E+03</pdfrwt>
<pdfrwt beam="2">  1       -4 0.81981292E-01 0.12500700E+03</pdfrwt>
<totfact> 0.52866078E+03</totfact>
</mgrwt>
</event>
<event>
 5    1  0.3266594E-002  0.1250047E+03  0.7818608E-02  0.1235062E+00
          4   -1    0    0  501    0  0.00000000000E+00  0.00000000000E+00  0.78923396545E+02  0.78933614020E+02  0.12700000000E+01 0. -1.
         -4   -1    0    0    0  501 -0.00000000000E+00 -0.00000000000E+00 -0.49476375261E+02  0.49492672275E+02  0.12700000000E+01 0. -1.
         25    2    1    2    0    0  0.00000000000E+00  0.00000000000E+00  0.29447021284E+02  0.12842628630E+03  0.12500473571E+03 0.  0.
    9000005    1    3    3    0    0  0.49727543081E+02 -0.36171757171E+02  0.26178652079E+02  0.66839706630E+02  0.10000000000E+01 0.  0.
    9000005    1    3    3    0    0 -0.49727543081E+02  0.36171757171E+02  0.32683692056E+01  0.61586579666E+02  0.10000000000E+01 0.  0.
<mgrwt>
<rscale>  0 0.12500474E+03</rscale>
<asrwt>0</asrwt>
<pdfrwt beam="1">  1        4 0.12144101E-01 0.12500474E+03</pdfrwt>
<pdfrwt beam="2">  1       -4 0.76137897E-02 0.12500474E+03</pdfrwt>
<totfact> 0.10377182E+04</totfact>
</mgrwt>
</event>
<event>
 5    1  0.3266594E-002  0.1250071E+03  0.7818608E-02  0.1235058E+00
          4   -1    0    0  501    0  0.00000000000E+00  0.00000000000E+00  0.39384142919E+02  0.39404614114E+02  0.12700000000E+01 0.  1.
         -4   -1    0    0    0  501 -0.00000000000E+00 -0.00000000000E+00 -0.99144195947E+02  0.99152329725E+02  0.12700000000E+01 0.  1.
         25    2    1    2    0    0  0.00000000000E+00  0.00000000000E+00 -0.59760053028E+02  0.13855694384E+03  0.12500705079E+03 0.  0.
    9000005    1    3    3    0    0 -0.19304462476E+02  0.32651268672E+02 -0.84931834874E+02  0.93022492939E+02  0.10000000000E+01 0.  0.
    9000005    1    3    3    0    0  0.19304462476E+02 -0.32651268672E+02  0.25171781847E+02  0.45534450900E+02  0.10000000000E+01 0.  0.
<mgrwt>
<rscale>  0 0.12500705E+03</rscale>
<asrwt>0</asrwt>
<pdfrwt beam="1">  1        4 0.60612993E-02 0.12500705E+03</pdfrwt>
<pdfrwt beam="2">  1       -4 0.15255154E-01 0.12500705E+03</pdfrwt>
<totfact> 0.10161967E+04</totfact>
</mgrwt>
</event>
<event>
 5    1  0.3266594E-002  0.1250012E+03  0.7818608E-02  0.1235067E+00
         -4   -1    0    0    0  501 -0.00000000000E+00  0.00000000000E+00  0.15840985222E+03  0.15841494305E+03  0.12700000000E+01 0.  1.
          4   -1    0    0  501    0  0.00000000000E+00 -0.00000000000E+00 -0.24637757694E+02  0.24670468261E+02  0.12700000000E+01 0.  1.
         25    2    1    2    0    0  0.00000000000E+00  0.00000000000E+00  0.13377209453E+03  0.18308541131E+03  0.12500117823E+03 0.  0.
    9000005    1    3    3    0    0 -0.30466582962E+00 -0.56762756107E+01  0.15803758143E+03  0.15814294189E+03  0.10000000000E+01 0.  0.
    9000005    1    3    3    0    0  0.30466582962E+00  0.56762756107E+01 -0.24265486902E+02  0.24942469418E+02  0.10000000000E+01 0.  0.
<mgrwt>
<rscale>  0 0.12500118E+03</rscale>
<asrwt>0</asrwt>
<pdfrwt beam="2">  1        4 0.37933320E-02 0.12500118E+03</pdfrwt>
<pdfrwt beam="1">  1       -4 0.24373655E-01 0.12500118E+03</pdfrwt>
<totfact> 0.93062091E+03</totfact>
</mgrwt>
</event>
<event>
 5    1  0.3266594E-002  0.1249985E+03  0.7818608E-02  0.1235072E+00
         -4   -1    0    0    0  501 -0.00000000000E+00  0.00000000000E+00  0.63975949666E+01  0.65224321657E+01  0.12700000000E+01 0.  1.
          4   -1    0    0  501    0  0.00000000000E+00 -0.00000000000E+00 -0.60454145908E+03  0.60454279307E+03  0.12700000000E+01 0.  1.
         25    2    1    2    0    0  0.00000000000E+00  0.00000000000E+00 -0.59814386412E+03  0.61106522523E+03  0.12499850923E+03 0.  0.
    9000005    1    3    3    0    0 -0.30527738839E+02  0.35184462021E+01 -0.56507693453E+03  0.56591277087E+03  0.10000000000E+01 0.  0.
    9000005    1    3    3    0    0  0.30527738839E+02 -0.35184462021E+01 -0.33066929588E+02  0.45152454359E+02  0.10000000000E+01 0.  0.
<mgrwt>
<rscale>  0 0.12499851E+03</rscale>
<asrwt>0</asrwt>
<pdfrwt beam="2">  1        4 0.93016039E-01 0.12499851E+03</pdfrwt>
<pdfrwt beam="1">  1       -4 0.99395133E-03 0.12499851E+03</pdfrwt>
<totfact> 0.48178100E+03</totfact>
</mgrwt>
</event>
<event>
 5    1  0.3266594E-002  0.1249991E+03  0.7818608E-02  0.1235071E+00
          4   -1    0    0  501    0  0.00000000000E+00  0.00000000000E+00  0.50345067621E+02  0.50361083525E+02  0.12700000000E+01 0. -1.
         -4   -1    0    0    0  501 -0.00000000000E+00 -0.00000000000E+00 -0.77554854036E+02  0.77565251786E+02  0.12700000000E+01 0. -1.
         25    2    1    2    0    0  0.00000000000E+00  0.00000000000E+00 -0.27209786415E+02  0.12792633531E+03  0.12499909915E+03 0.  0.
    9000005    1    3    3    0    0  0.55156897810E+02  0.21512876584E+02  0.68661916595E+01  0.59608991124E+02  0.10000000000E+01 0.  0.
    9000005    1    3    3    0    0 -0.55156897810E+02 -0.21512876584E+02 -0.34075978074E+02  0.68317344186E+02  0.10000000000E+01 0.  0.
<mgrwt>
<rscale>  0 0.12499910E+03</rscale>
<asrwt>0</asrwt>
<pdfrwt beam="1">  1        4 0.77474269E-02 0.12499910E+03</pdfrwt>
<pdfrwt beam="2">  1       -4 0.11933548E-01 0.12499910E+03</pdfrwt>
<totfact> 0.10389290E+04</totfact>
</mgrwt>
</event>
<event>
 5    1  0.3266594E-002  0.1250049E+03  0.7818608E-02  0.1235062E+00
         -4   -1    0    0    0  501 -0.00000000000E+00  0.00000000000E+00  0.10122849920E+03  0.10123646551E+03  0.12700000000E+01 0. -1.
          4   -1    0    0  501    0  0.00000000000E+00 -0.00000000000E+00 -0.38571521767E+02  0.38592424016E+02  0.12700000000E+01 0. -1.
         25    2    1    2    0    0  0.00000000000E+00  0.00000000000E+00  0.62656977431E+02  0.13982888953E+03  0.12500488601E+03 0.  0.
    9000005    1    3    3    0    0 -0.50003154159E+02  0.37338025629E+02  0.35057228587E+02  0.71585283822E+02  0.10000000000E+01 0.  0.
    9000005    1    3    3    0    0  0.50003154159E+02 -0.37338025629E+02  0.27599748844E+02  0.68243605708E+02  0.10000000000E+01 0.  0.
<mgrwt>
<rscale>  0 0.12500489E+03</rscale>
<asrwt>0</asrwt>
<pdfrwt beam="2">  1        4 0.59363010E-02 0.12500489E+03</pdfrwt>
<pdfrwt beam="1">  1       -4 0.15575836E-01 0.12500489E+03</pdfrwt>
<totfact> 0.10136018E+04</totfact>
</mgrwt>
</event>
<event>
 5    1  0.3266594E-002  0.1249999E+03  0.7818608E-02  0.1235069E+00
          4   -1    0    0  501    0  0.00000000000E+00  0.00000000000E+00  0.23735767259E+02  0.23769719127E+02  0.12700000000E+01 0. -1.
         -4   -1    0    0    0  501 -0.00000000000E+00 -0.00000000000E+00 -0.16441801651E+03  0.16442292132E+03  0.12700000000E+01 0. -1.
         25    2    1    2    0    0  0.00000000000E+00  0.00000000000E+00 -0.14068224926E+03  0.18819264044E+03  0.12499989865E+03 0.  0.
    9000005    1    3    3    0    0 -0.29643904643E+02 -0.45677193231E+02 -0.11650205957E+03  0.12860364283E+03  0.10000000000E+01 0.  0.
    9000005    1    3    3    0    0  0.29643904643E+02  0.45677193231E+02 -0.24180189686E+02  0.59588997619E+02  0.10000000000E+01 0.  0.
<mgrwt>
<rscale>  0 0.12499990E+03</rscale>
<asrwt>0</asrwt>
<pdfrwt beam="1">  1        4 0.36546456E-02 0.12499990E+03</pdfrwt>
<pdfrwt beam="2">  1       -4 0.25298068E-01 0.12499990E+03</pdfrwt>
<totfact> 0.92162953E+03</totfact>
</mgrwt>
</event>
<event>
 5    1  0.3266594E-002  0.1250016E+03  0.7818608E-02  0.1235067E+00
         -4   -1    0    0    0  501 -0.00000000000E+00  0.00000000000E+00  0.25351482415E+03  0.25351800521E+03  0.12700000000E+01 0.  1.
          4   -1    0    0  501    0  0.00000000000E+00 -0.00000000000E+00 -0.15379323335E+02  0.15431671531E+02  0.12700000000E+01 0.  1.
         25    2    1    2    0    0  0.00000000000E+00  0.00000000000E+00  0.23813550081E+03  0.26894967674E+03  0.12500164746E+03 0.  0.
    9000005    1    3    3    0    0 -0.39993892261E+02  0.33959118311E+02  0.19211406911E+03  0.19915207426E+03  0.10000000000E+01 0.  0.
    9000005    1    3    3    0    0  0.39993892261E+02 -0.33959118311E+02  0.46021431709E+02  0.69797602475E+02  0.10000000000E+01 0.  0.
<mgrwt>
<rscale>  0 0.12500165E+03</rscale>
<asrwt>0</asrwt>
<pdfrwt beam="2">  1        4 0.23703212E-02 0.12500165E+03</pdfrwt>
<pdfrwt beam="1">  1       -4 0.39006552E-01 0.12500165E+03</pdfrwt>
<totfact> 0.79663358E+03</totfact>
</mgrwt>
</event>
<event>
 5    1  0.3266594E-002  0.1249839E+03  0.7818608E-02  0.1235095E+00
          4   -1    0    0  501    0  0.00000000000E+00  0.00000000000E+00  0.28748651026E+02  0.28776689105E+02  0.12700000000E+01 0.  1.
         -4   -1    0    0    0  501 -0.00000000000E+00 -0.00000000000E+00 -0.13574363015E+03  0.13574957100E+03  0.12700000000E+01 0.  1.
         25    2    1    2    0    0  0.00000000000E+00  0.00000000000E+00 -0.10699497912E+03  0.16452626010E+03  0.12498385778E+03 0.  0.
    9000005    1    3    3    0    0 -0.12719053938E+02 -0.42358143108E+02 -0.11160123794E+03  0.12004925210E+03  0.10000000000E+01 0.  0.
    9000005    1    3    3    0    0  0.12719053938E+02  0.42358143108E+02  0.46062588143E+01  0.44477008002E+02  0.10000000000E+01 0.  0.
<mgrwt>
<rscale>  0 0.12498386E+03</rscale>
<asrwt>0</asrwt>
<pdfrwt beam="1">  1        4 0.44254832E-02 0.12498386E+03</pdfrwt>
<pdfrwt beam="2">  1       -4 0.20886249E-01 0.12498386E+03</pdfrwt>
<totfact> 0.96512182E+03</totfact>
</mgrwt>
</event>
<event>
 5    1  0.3266594E-002  0.1250004E+03  0.7818608E-02  0.1235069E+00
         -4   -1    0    0    0  501 -0.00000000000E+00  0.00000000000E+00  0.44579607984E+01  0.46353332653E+01  0.12700000000E+01 0. -1.
          4   -1    0    0  501    0  0.00000000000E+00 -0.00000000000E+00 -0.85897713335E+03  0.85897807220E+03  0.12700000000E+01 0. -1.
         25    2    1    2    0    0  0.00000000000E+00  0.00000000000E+00 -0.85451917255E+03  0.86361340546E+03  0.12500039135E+03 0.  0.
    9000005    1    3    3    0    0  0.38884057616E+02  0.60154412631E+01 -0.91832016502E+02  0.99911334317E+02  0.10000000000E+01 0.  0.
    9000005    1    3    3    0    0 -0.38884057616E+02 -0.60154412631E+01 -0.76268715605E+03  0.76370207115E+03  0.10000000000E+01 0.  0.
<mgrwt>
<rscale>  0 0.12500039E+03</rscale>
<asrwt>0</asrwt>
<pdfrwt beam="2">  1        4 0.13216392E+00 0.12500039E+03</pdfrwt>
<pdfrwt beam="1">  1       -4 0.69955706E-03 0.12500039E+03</pdfrwt>
<totfact> 0.35576365E+03</totfact>
</mgrwt>
</event>
<event>
 5    1  0.3266594E-002  0.1249993E+03  0.7818608E-02  0.1235070E+00
         -4   -1    0    0    0  501 -0.00000000000E+00  0.00000000000E+00  0.13674163361E+03  0.13674753110E+03  0.12700000000E+01 0. -1.
          4   -1    0    0  501    0  0.00000000000E+00 -0.00000000000E+00 -0.28545680605E+02  0.28573917848E+02  0.12700000000E+01 0. -1.
         25    2    1    2    0    0  0.00000000000E+00  0.00000000000E+00  0.10819595300E+03  0.16532144895E+03  0.12499926894E+03 0.  0.
    9000005    1    3    3    0    0 -0.25313216023E+02  0.29549509847E+02  0.11877294227E+03  0.12498777642E+03  0.10000000000E+01 0.  0.
    9000005    1    3    3    0    0  0.25313216023E+02 -0.29549509847E+02 -0.10576989271E+02  0.40333672529E+02  0.10000000000E+01 0.  0.
<mgrwt>
<rscale>  0 0.12499927E+03</rscale>
<asrwt>0</asrwt>
<pdfrwt beam="2">  1        4 0.43942689E-02 0.12499927E+03</pdfrwt>
<pdfrwt beam="1">  1       -4 0.21039800E-01 0.12499927E+03</pdfrwt>
<totfact> 0.96328131E+03</totfact>
</mgrwt>
</event>
<event>
 5    1  0.3266594E-002  0.1250008E+03  0.7818608E-02  0.1235068E+00
          4   -1    0    0  501    0  0.00000000000E+00  0.00000000000E+00  0.40473100874E+02  0.40493021551E+02  0.12700000000E+01 0.  1.
         -4   -1    0    0    0  501 -0.00000000000E+00 -0.00000000000E+00 -0.96468058989E+02  0.96476418388E+02  0.12700000000E+01 0.  1.
         25    2    1    2    0    0  0.00000000000E+00  0.00000000000E+00 -0.55994958115E+02  0.13696943994E+03  0.12500076857E+03 0.  0.
    9000005    1    3    3    0    0 -0.80050580579E+01 -0.57615526946E+02 -0.53024442076E+02  0.78716080677E+02  0.10000000000E+01 0.  0.
    9000005    1    3    3    0    0  0.80050580579E+01  0.57615526946E+02 -0.29705160394E+01  0.58253359262E+02  0.10000000000E+01 0.  0.
<mgrwt>
<rscale>  0 0.12500077E+03</rscale>
<asrwt>0</asrwt>
<pdfrwt beam="1">  1        4 0.62288063E-02 0.12500077E+03</pdfrwt>
<pdfrwt beam="2">  1       -4 0.14843415E-01 0.12500077E+03</pdfrwt>
<totfact> 0.10196548E+04</totfact>
</mgrwt>
</event>
<event>
 5    1  0.3266594E-002  0.1249998E+03  0.7818608E-02  0.1235070E+00
          4   -1    0    0  501    0  0.00000000000E+00  0.00000000000E+00  0.17622683618E+02  0.17668386397E+02  0.12700000000E+01 0. -1.
         -4   -1    0    0    0  501 -0.00000000000E+00 -0.00000000000E+00 -0.22132503963E+03  0.22132868333E+03  0.12700000000E+01 0. -1.
         25    2    1    2    0    0  0.00000000000E+00  0.00000000000E+00 -0.20370235601E+03  0.23899706973E+03  0.12499979798E+03 0.  0.
    9000005    1    3    3    0    0 -0.43495192375E+02 -0.35551186774E+02 -0.15419609446E+03  0.16411323587E+03  0.10000000000E+01 0.  0.
    9000005    1    3    3    0    0  0.43495192375E+02  0.35551186774E+02 -0.49506261543E+02  0.74883833855E+02  0.10000000000E+01 0.  0.
<mgrwt>
<rscale>  0 0.12499980E+03</rscale>
<asrwt>0</asrwt>
<pdfrwt beam="1">  1        4 0.27149781E-02 0.12499980E+03</pdfrwt>
<pdfrwt beam="2">  1       -4 0.34053800E-01 0.12499980E+03</pdfrwt>
<totfact> 0.83947342E+03</totfact>
</mgrwt>
</event>
<event>
 5    1  0.3266594E-002  0.1249988E+03  0.7818608E-02  0.1235071E+00
          4   -1    0    0  501    0  0.00000000000E+00  0.00000000000E+00  0.20801815371E+03  0.20802203050E+03  0.12700000000E+01 0. -1.
         -4   -1    0    0    0  501 -0.00000000000E+00 -0.00000000000E+00 -0.18752513683E+02  0.18795469386E+02  0.12700000000E+01 0. -1.
         25    2    1    2    0    0  0.00000000000E+00  0.00000000000E+00  0.18926564003E+03  0.22681749989E+03  0.12499878303E+03 0.  0.
    9000005    1    3    3    0    0 -0.39684539794E+02 -0.45296576054E+02  0.64349193198E+02  0.88138874319E+02  0.10000000000E+01 0.  0.
    9000005    1    3    3    0    0  0.39684539794E+02  0.45296576054E+02  0.12491644683E+03  0.13867862557E+03  0.10000000000E+01 0.  0.
<mgrwt>
<rscale>  0 0.12499878E+03</rscale>
<asrwt>0</asrwt>
<pdfrwt beam="1">  1        4 0.32006394E-01 0.12499878E+03</pdfrwt>
<pdfrwt beam="2">  1       -4 0.28886047E-02 0.12499878E+03</pdfrwt>
<totfact> 0.85803011E+03</totfact>
</mgrwt>
</event>
<event>
 5    1  0.3266594E-002  0.1250001E+03  0.7818608E-02  0.1235069E+00
          4   -1    0    0  501    0  0.00000000000E+00  0.00000000000E+00  0.86395760545E+02  0.86405094410E+02  0.12700000000E+01 0.  1.
         -4   -1    0    0    0  501 -0.00000000000E+00 -0.00000000000E+00 -0.45192840823E+02  0.45210681942E+02  0.12700000000E+01 0.  1.
         25    2    1    2    0    0  0.00000000000E+00  0.00000000000E+00  0.41202919722E+02  0.13161577635E+03  0.12500012796E+03 0.  0.
    9000005    1    3    3    0    0 -0.30085184853E+01 -0.32534223460E+02 -0.35488239676E+02  0.48248751640E+02  0.10000000000E+01 0.  0.
    9000005    1    3    3    0    0  0.30085184853E+01  0.32534223460E+02  0.76691159397E+02  0.83367024712E+02  0.10000000000E+01 0.  0.
<mgrwt>
<rscale>  0 0.12500013E+03</rscale>
<asrwt>0</asrwt>
<pdfrwt beam="1">  1        4 0.13293746E-01 0.12500013E+03</pdfrwt>
<pdfrwt beam="2">  1       -4 0.69548352E-02 0.12500013E+03</pdfrwt>
<totfact> 0.10309876E+04</totfact>
</mgrwt>
</event>
<event>
 5    1  0.3266594E-002  0.1250032E+03  0.7818608E-02  0.1235064E+00
         -4   -1    0    0    0  501 -0.00000000000E+00  0.00000000000E+00  0.20857545698E+03  0.20857932341E+03  0.12700000000E+01 0. -1.
          4   -1    0    0  501    0  0.00000000000E+00 -0.00000000000E+00 -0.18703610397E+02  0.18746678156E+02  0.12700000000E+01 0. -1.
         25    2    1    2    0    0  0.00000000000E+00  0.00000000000E+00  0.18987184658E+03  0.22732600156E+03  0.12500317141E+03 0.  0.
    9000005    1    3    3    0    0 -0.17402911816E+02  0.50858995900E+02  0.36971152433E+02  0.65248485928E+02  0.10000000000E+01 0.  0.
    9000005    1    3    3    0    0  0.17402911816E+02 -0.50858995900E+02  0.15290069415E+03  0.16207751564E+03  0.10000000000E+01 0.  0.
<mgrwt>
<rscale>  0 0.12500317E+03</rscale>
<asrwt>0</asrwt>
<pdfrwt beam="2">  1        4 0.28810887E-02 0.12500317E+03</pdfrwt>
<pdfrwt beam="1">  1       -4 0.32092144E-01 0.12500317E+03</pdfrwt>
<totfact> 0.85715821E+03</totfact>
</mgrwt>
</event>
<event>
 5    1  0.3266594E-002  0.1250011E+03  0.7818608E-02  0.1235068E+00
          4   -1    0    0  501    0  0.00000000000E+00  0.00000000000E+00  0.11054788041E+04  0.11054795336E+04  0.12700000000E+01 0. -1.
         -4   -1    0    0    0  501 -0.00000000000E+00 -0.00000000000E+00 -0.34187318422E+01  0.36470025239E+01  0.12700000000E+01 0. -1.
         25    2    1    2    0    0  0.00000000000E+00  0.00000000000E+00  0.11020600722E+04  0.11091265361E+04  0.12500108109E+03 0.  0.
    9000005    1    3    3    0    0 -0.32149159390E+02 -0.38803880915E+02  0.22309037798E+03  0.22871297815E+03  0.10000000000E+01 0.  0.
    9000005    1    3    3    0    0  0.32149159390E+02  0.38803880915E+02  0.87896969425E+03  0.88041355796E+03  0.10000000000E+01 0.  0.
<mgrwt>
<rscale>  0 0.12500108E+03</rscale>
<asrwt>0</asrwt>
<pdfrwt beam="1">  1        4 0.17009124E+00 0.12500108E+03</pdfrwt>
<pdfrwt beam="2">  1       -4 0.54357427E-03 0.12500108E+03</pdfrwt>
<totfact> 0.27217176E+03</totfact>
</mgrwt>
</event>
<event>
 5    1  0.3266594E-002  0.1249989E+03  0.7818608E-02  0.1235071E+00
         -4   -1    0    0    0  501 -0.00000000000E+00  0.00000000000E+00  0.15040727857E+02  0.15094250378E+02  0.12700000000E+01 0. -1.
          4   -1    0    0  501    0  0.00000000000E+00 -0.00000000000E+00 -0.25919075779E+03  0.25919386919E+03  0.12700000000E+01 0. -1.
         25    2    1    2    0    0  0.00000000000E+00  0.00000000000E+00 -0.24415002993E+03  0.27428811957E+03  0.12499894167E+03 0.  0.
    9000005    1    3    3    0    0 -0.27957156667E+02 -0.31289027823E+02 -0.20456795104E+02  0.46691394678E+02  0.10000000000E+01 0.  0.
    9000005    1    3    3    0    0  0.27957156667E+02  0.31289027823E+02 -0.22369323483E+03  0.22759672489E+03  0.10000000000E+01 0.  0.
<mgrwt>
<rscale>  0 0.12499894E+03</rscale>
<asrwt>0</asrwt>
<pdfrwt beam="2">  1        4 0.39879854E-01 0.12499894E+03</pdfrwt>
<pdfrwt beam="1">  1       -4 0.23183148E-02 0.12499894E+03</pdfrwt>
<totfact> 0.78943465E+03</totfact>
</mgrwt>
</event>
<event>
 5    1  0.3266594E-002  0.1249989E+03  0.7818608E-02  0.1235071E+00
         -4   -1    0    0    0  501 -0.00000000000E+00  0.00000000000E+00  0.64805395861E+02  0.64817838847E+02  0.12700000000E+01 0.  1.
          4   -1    0    0  501    0  0.00000000000E+00 -0.00000000000E+00 -0.60250670389E+02  0.60264053816E+02  0.12700000000E+01 0.  1.
         25    2    1    2    0    0  0.00000000000E+00  0.00000000000E+00  0.45547254724E+01  0.12508189266E+03  0.12499893739E+03 0.  0.
    9000005    1    3    3    0    0  0.17394390647E+02  0.47651123510E+01 -0.57594714598E+02  0.60360767651E+02  0.10000000000E+01 0.  0.
    9000005    1    3    3    0    0 -0.17394390647E+02 -0.47651123510E+01  0.62149440071E+02  0.64721125012E+02  0.10000000000E+01 0.  0.
<mgrwt>
<rscale>  0 0.12499894E+03</rscale>
<asrwt>0</asrwt>
<pdfrwt beam="2">  1        4 0.92713206E-02 0.12499894E+03</pdfrwt>
<pdfrwt beam="1">  1       -4 0.99720475E-02 0.12499894E+03</pdfrwt>
<totfact> 0.10451335E+04</totfact>
</mgrwt>
</event>
<event>
 5    1  0.3266594E-002  0.1249998E+03  0.7818608E-02  0.1235070E+00
         -4   -1    0    0    0  501 -0.00000000000E+00  0.00000000000E+00  0.13784531543E+03  0.13785116570E+03  0.12700000000E+01 0. -1.
          4   -1    0    0  501    0  0.00000000000E+00 -0.00000000000E+00 -0.28317156090E+02  0.28345620985E+02  0.12700000000E+01 0. -1.
         25    2    1    2    0    0  0.00000000000E+00  0.00000000000E+00  0.10952815934E+03  0.16619678669E+03  0.12499981687E+03 0.  0.
    9000005    1    3    3    0    0  0.22453334212E+02 -0.42882119560E+02  0.22128388560E+01  0.48465710054E+02  0.10000000000E+01 0.  0.
    9000005    1    3    3    0    0 -0.22453334212E+02  0.42882119560E+02  0.10731532048E+03  0.11773107664E+03  0.10000000000E+01 0.  0.
<mgrwt>
<rscale>  0 0.12499982E+03</rscale>
<asrwt>0</asrwt>
<pdfrwt beam="2">  1        4 0.43591252E-02 0.12499982E+03</pdfrwt>
<pdfrwt beam="1">  1       -4 0.21209611E-01 0.12499982E+03</pdfrwt>
<totfact> 0.96161614E+03</totfact>
</mgrwt>
</event>
<event>
 5    1  0.3266594E-002  0.1249998E+03  0.7818608E-02  0.1235070E+00
         -4   -1    0    0    0  501 -0.00000000000E+00  0.00000000000E+00  0.68854379550E+02  0.68866090953E+02  0.12700000000E+01 0.  1.
          4   -1    0    0  501    0  0.00000000000E+00 -0.00000000000E+00 -0.56708239894E+02  0.56722459149E+02  0.12700000000E+01 0.  1.
         25    2    1    2    0    0  0.00000000000E+00  0.00000000000E+00  0.12146139656E+02  0.12558855010E+03  0.12499982083E+03 0.  0.
    9000005    1    3    3    0    0 -0.48048440450E+02  0.38776131683E+02  0.15762025220E+02  0.63731330262E+02  0.10000000000E+01 0.  0.
    9000005    1    3    3    0    0  0.48048440450E+02 -0.38776131683E+02 -0.36158855639E+01  0.61857219840E+02  0.10000000000E+01 0.  0.
<mgrwt>
<rscale>  0 0.12499982E+03</rscale>
<asrwt>0</asrwt>
<pdfrwt beam="2">  1        4 0.87263392E-02 0.12499982E+03</pdfrwt>
<pdfrwt beam="1">  1       -4 0.10594976E-01 0.12499982E+03</pdfrwt>
<totfact> 0.10440042E+04</totfact>
</mgrwt>
</event>
<event>
 5    1  0.3266594E-002  0.1250033E+03  0.7818608E-02  0.1235064E+00
          4   -1    0    0  501    0  0.00000000000E+00  0.00000000000E+00  0.44411087718E+02  0.44429242761E+02  0.12700000000E+01 0.  1.
         -4   -1    0    0    0  501 -0.00000000000E+00 -0.00000000000E+00 -0.87920619646E+02  0.87929791646E+02  0.12700000000E+01 0.  1.
         25    2    1    2    0    0  0.00000000000E+00  0.00000000000E+00 -0.43509531928E+02  0.13235903441E+03  0.12500333844E+03 0.  0.
    9000005    1    3    3    0    0 -0.16464943878E+02  0.48858287912E+02 -0.59149082291E+02  0.78471909691E+02  0.10000000000E+01 0.  0.
    9000005    1    3    3    0    0  0.16464943878E+02 -0.48858287912E+02  0.15639550362E+02  0.53887124716E+02  0.10000000000E+01 0.  0.
<mgrwt>
<rscale>  0 0.12500334E+03</rscale>
<asrwt>0</asrwt>
<pdfrwt beam="1">  1        4 0.68345771E-02 0.12500334E+03</pdfrwt>
<pdfrwt beam="2">  1       -4 0.13528351E-01 0.12500334E+03</pdfrwt>
<totfact> 0.10293266E+04</totfact>
</mgrwt>
</event>
<event>
 5    1  0.3266594E-002  0.1249998E+03  0.7818608E-02  0.1235070E+00
          4   -1    0    0  501    0  0.00000000000E+00  0.00000000000E+00  0.32716688188E+03  0.32716934682E+03  0.12700000000E+01 0. -1.
         -4   -1    0    0    0  501 -0.00000000000E+00 -0.00000000000E+00 -0.11903306636E+02  0.11970865001E+02  0.12700000000E+01 0. -1.
         25    2    1    2    0    0  0.00000000000E+00  0.00000000000E+00  0.31526357525E+03  0.33914021182E+03  0.12499984560E+03 0.  0.
    9000005    1    3    3    0    0  0.34950495818E+02 -0.41227968983E+02  0.24273736831E+03  0.24868396120E+03  0.10000000000E+01 0.  0.
    9000005    1    3    3    0    0 -0.34950495818E+02  0.41227968983E+02  0.72526206939E+02  0.90456250626E+02  0.10000000000E+01 0.  0.
<mgrwt>
<rscale>  0 0.12499985E+03</rscale>
<asrwt>0</asrwt>
<pdfrwt beam="1">  1        4 0.50338765E-01 0.12499985E+03</pdfrwt>
<pdfrwt beam="2">  1       -4 0.18366639E-02 0.12499985E+03</pdfrwt>
<totfact> 0.70936256E+03</totfact>
</mgrwt>
</event>
<event>
 5    1  0.3266594E-002  0.1250047E+03  0.7818608E-02  0.1235062E+00
          4   -1    0    0  501    0  0.00000000000E+00  0.00000000000E+00  0.35767642446E+02  0.35790182259E+02  0.12700000000E+01 0.  1.
         -4   -1    0    0    0  501 -0.00000000000E+00 -0.00000000000E+00 -0.10915948510E+03  0.10916687266E+03  0.12700000000E+01 0.  1.
         25    2    1    2    0    0  0.00000000000E+00  0.00000000000E+00 -0.73391842649E+02  0.14495705492E+03  0.12500474072E+03 0.  0.
    9000005    1    3    3    0    0  0.57973225936E+02  0.10177717325E+02 -0.12342252792E+02  0.60148250675E+02  0.10000000000E+01 0.  0.
    9000005    1    3    3    0    0 -0.57973225936E+02 -0.10177717325E+02 -0.61049589858E+02  0.84808804243E+02  0.10000000000E+01 0.  0.
<mgrwt>
<rscale>  0 0.12500474E+03</rscale>
<asrwt>0</asrwt>
<pdfrwt beam="1">  1        4 0.55050164E-02 0.12500474E+03</pdfrwt>
<pdfrwt beam="2">  1       -4 0.16796069E-01 0.12500474E+03</pdfrwt>
<totfact> 0.10030790E+04</totfact>
</mgrwt>
</event>
<event>
 5    1  0.3266594E-002  0.1249969E+03  0.7818608E-02  0.1235074E+00
          4   -1    0    0  501    0  0.00000000000E+00  0.00000000000E+00  0.45560211090E+02  0.45577908405E+02  0.12700000000E+01 0.  1.
         -4   -1    0    0    0  501 -0.00000000000E+00 -0.00000000000E+00 -0.85694831942E+02  0.85704242144E+02  0.12700000000E+01 0.  1.
         25    2    1    2    0    0  0.00000000000E+00  0.00000000000E+00 -0.40134620851E+02  0.13128215055E+03  0.12499686101E+03 0.  0.
    9000005    1    3    3    0    0  0.30679585635E+02 -0.46137639424E+02  0.10284523411E+02  0.56362134169E+02  0.10000000000E+01 0.  0.
    9000005    1    3    3    0    0 -0.30679585635E+02  0.46137639424E+02 -0.50419144263E+02  0.74920016381E+02  0.10000000000E+01 0.  0.
<mgrwt>
<rscale>  0 0.12499686E+03</rscale>
<asrwt>0</asrwt>
<pdfrwt beam="1">  1        4 0.70113485E-02 0.12499686E+03</pdfrwt>
<pdfrwt beam="2">  1       -4 0.13185905E-01 0.12499686E+03</pdfrwt>
<totfact> 0.10317775E+04</totfact>
</mgrwt>
</event>
<event>
 4    1  0.3266594E-002  0.1252928E+03  0.7818608E-02  0.1234612E+00
         -4   -1    0    0    0  501 -0.00000000000E+00  0.00000000000E+00  0.10318960474E+03  0.10319741967E+03  0.12700000000E+01 0.  1.
          4   -1    0    0  501    0  0.00000000000E+00 -0.00000000000E+00 -0.38012792945E+02  0.38034002254E+02  0.12700000000E+01 0.  1.
    9000005    1    1    2    0    0  0.48883775342E+02 -0.26802873678E+02  0.64779236721E+02  0.85471439904E+02  0.10000000000E+01 0.  0.
    9000005    1    1    2    0    0 -0.48883775342E+02  0.26802873678E+02  0.39757507469E+00  0.55759982021E+02  0.10000000000E+01 0.  0.
<mgrwt>
<rscale>  0 0.12529285E+03</rscale>
<asrwt>0</asrwt>
<pdfrwt beam="2">  1        4 0.58503546E-02 0.12529285E+03</pdfrwt>
<pdfrwt beam="1">  1       -4 0.15877557E-01 0.12529285E+03</pdfrwt>
<totfact> 0.10041733E+04</totfact>
</mgrwt>
</event>
<event>
 5    1  0.3266594E-002  0.1249965E+03  0.7818608E-02  0.1235075E+00
         -4   -1    0    0    0  501 -0.00000000000E+00  0.00000000000E+00  0.14096793253E+03  0.14097365322E+03  0.12700000000E+01 0. -1.
          4   -1    0    0  501    0  0.00000000000E+00 -0.00000000000E+00 -0.27687807749E+02  0.27716918984E+02  0.12700000000E+01 0. -1.
         25    2    1    2    0    0  0.00000000000E+00  0.00000000000E+00  0.11328012478E+03  0.16869057220E+03  0.12499648987E+03 0.  0.
    9000005    1    3    3    0    0 -0.26901448689E+02 -0.19187492754E+02 -0.14939983207E+02  0.36277416088E+02  0.10000000000E+01 0.  0.
    9000005    1    3    3    0    0  0.26901448689E+02  0.19187492754E+02  0.12822010799E+03  0.13241315611E+03  0.10000000000E+01 0.  0.
<mgrwt>
<rscale>  0 0.12499649E+03</rscale>
<asrwt>0</asrwt>
<pdfrwt beam="2">  1        4 0.42623421E-02 0.12499649E+03</pdfrwt>
<pdfrwt beam="1">  1       -4 0.21690054E-01 0.12499649E+03</pdfrwt>
<totfact> 0.95700529E+03</totfact>
</mgrwt>
</event>
<event>
 5    1  0.3266594E-002  0.1250048E+03  0.7818608E-02  0.1235062E+00
         -4   -1    0    0    0  501 -0.00000000000E+00  0.00000000000E+00  0.13848181088E+02  0.13906294239E+02  0.12700000000E+01 0. -1.
          4   -1    0    0  501    0  0.00000000000E+00 -0.00000000000E+00 -0.28144832286E+03  0.28145118820E+03  0.12700000000E+01 0. -1.
         25    2    1    2    0    0  0.00000000000E+00  0.00000000000E+00 -0.26760014177E+03  0.29535748244E+03  0.12500482614E+03 0.  0.
    9000005    1    3    3    0    0  0.36016680274E+02 -0.27124817841E+02 -0.31554834121E+02  0.55042388731E+02  0.10000000000E+01 0.  0.
    9000005    1    3    3    0    0 -0.36016680274E+02  0.27124817841E+02 -0.23604530765E+03  0.24031509371E+03  0.10000000000E+01 0.  0.
<mgrwt>
<rscale>  0 0.12500483E+03</rscale>
<asrwt>0</asrwt>
<pdfrwt beam="2">  1        4 0.43304428E-01 0.12500483E+03</pdfrwt>
<pdfrwt beam="1">  1       -4 0.21351803E-02 0.12500483E+03</pdfrwt>
<totfact> 0.76176740E+03</totfact>
</mgrwt>
</event>
<event>
 5    1  0.3266594E-002  0.1249989E+03  0.7818608E-02  0.1235071E+00
         -4   -1    0    0    0  501 -0.00000000000E+00  0.00000000000E+00  0.60743610188E+02  0.60756885031E+02  0.12700000000E+01 0. -1.
          4   -1    0    0  501    0  0.00000000000E+00 -0.00000000000E+00 -0.64279492141E+02  0.64292036908E+02  0.12700000000E+01 0. -1.
         25    2    1    2    0    0  0.00000000000E+00  0.00000000000E+00 -0.35358819527E+01  0.12504892194E+03  0.12499892166E+03 0.  0.
    9000005    1    3    3    0    0  0.14979662864E+02 -0.26260046531E+02  0.52945820868E+02  0.60977375237E+02  0.10000000000E+01 0.  0.
    9000005    1    3    3    0    0 -0.14979662864E+02  0.26260046531E+02 -0.56481702821E+02  0.64071546703E+02  0.10000000000E+01 0.  0.
<mgrwt>
<rscale>  0 0.12499892E+03</rscale>
<asrwt>0</asrwt>
<pdfrwt beam="2">  1        4 0.98911387E-02 0.12499892E+03</pdfrwt>
<pdfrwt beam="1">  1       -4 0.93471570E-02 0.12499892E+03</pdfrwt>
<totfact> 0.10452055E+04</totfact>
</mgrwt>
</event>
<event>
 5    1  0.3266594E-002  0.1250076E+03  0.7818608E-02  0.1235057E+00
          4   -1    0    0  501    0  0.00000000000E+00  0.00000000000E+00  0.16112746682E+02  0.16162719624E+02  0.12700000000E+01 0. -1.
         -4   -1    0    0    0  501 -0.00000000000E+00 -0.00000000000E+00 -0.24203461179E+03  0.24203794373E+03  0.12700000000E+01 0. -1.
         25    2    1    2    0    0  0.00000000000E+00  0.00000000000E+00 -0.22592186511E+03  0.25820066335E+03  0.12500757346E+03 0.  0.
    9000005    1    3    3    0    0  0.51479252123E+02  0.10968075401E+02 -0.43365857952E+02  0.68205642824E+02  0.10000000000E+01 0.  0.
    9000005    1    3    3    0    0 -0.51479252123E+02 -0.10968075401E+02 -0.18255600715E+03  0.18999502053E+03  0.10000000000E+01 0.  0.
<mgrwt>
<rscale>  0 0.12500757E+03</rscale>
<asrwt>0</asrwt>
<pdfrwt beam="1">  1        4 0.24829847E-02 0.12500757E+03</pdfrwt>
<pdfrwt beam="2">  1       -4 0.37240192E-01 0.12500757E+03</pdfrwt>
<totfact> 0.81145556E+03</totfact>
</mgrwt>
</event>
<event>
 5    1  0.3266594E-002  0.1249975E+03  0.7818608E-02  0.1235073E+00
          4   -1    0    0  501    0  0.00000000000E+00  0.00000000000E+00  0.30940583237E+02  0.30966636741E+02  0.12700000000E+01 0.  1.
         -4   -1    0    0    0  501 -0.00000000000E+00 -0.00000000000E+00 -0.12616257146E+03  0.12616896345E+03  0.12700000000E+01 0.  1.
         25    2    1    2    0    0  0.00000000000E+00  0.00000000000E+00 -0.95221988227E+02  0.15713560019E+03  0.12499747920E+03 0.  0.
    9000005    1    3    3    0    0  0.42223876761E+02  0.25105228644E+02  0.94608246864E+00  0.49142887034E+02  0.10000000000E+01 0.  0.
    9000005    1    3    3    0    0 -0.42223876761E+02 -0.25105228644E+02 -0.96168070695E+02  0.10799271316E+03  0.10000000000E+01 0.  0.
<mgrwt>
<rscale>  0 0.12499748E+03</rscale>
<asrwt>0</asrwt>
<pdfrwt beam="1">  1        4 0.47625856E-02 0.12499748E+03</pdfrwt>
<pdfrwt beam="2">  1       -4 0.19412122E-01 0.12499748E+03</pdfrwt>
<totfact> 0.97903427E+03</totfact>
</mgrwt>
</event>
<event>
 5    1  0.3266594E-002  0.1250005E+03  0.7818608E-02  0.1235069E+00
          4   -1    0    0  501    0  0.00000000000E+00  0.00000000000E+00  0.13772566623E+03  0.13773152159E+03  0.12700000000E+01 0.  1.
         -4   -1    0    0    0  501 -0.00000000000E+00 -0.00000000000E+00 -0.28342074116E+02  0.28370514010E+02  0.12700000000E+01 0.  1.
         25    2    1    2    0    0  0.00000000000E+00  0.00000000000E+00  0.10938359212E+03  0.16610203560E+03  0.12500046402E+03 0.  0.
    9000005    1    3    3    0    0  0.33893991803E+02  0.49065096951E+02  0.29864258930E+02  0.66701277204E+02  0.10000000000E+01 0.  0.
    9000005    1    3    3    0    0 -0.33893991803E+02 -0.49065096951E+02  0.79519333189E+02  0.99400758397E+02  0.10000000000E+01 0.  0.
<mgrwt>
<rscale>  0 0.12500046E+03</rscale>
<asrwt>0</asrwt>
<pdfrwt beam="1">  1        4 0.21191202E-01 0.12500046E+03</pdfrwt>
<pdfrwt beam="2">  1       -4 0.43629572E-02 0.12500046E+03</pdfrwt>
<totfact> 0.96178088E+03</totfact>
</mgrwt>
</event>
<event>
 5    1  0.3266594E-002  0.1250039E+03  0.7818608E-02  0.1235063E+00
          4   -1    0    0  501    0  0.00000000000E+00  0.00000000000E+00  0.41592948397E+02  0.41612332983E+02  0.12700000000E+01 0.  1.
         -4   -1    0    0    0  501 -0.00000000000E+00 -0.00000000000E+00 -0.93876456566E+02  0.93885046719E+02  0.12700000000E+01 0.  1.
         25    2    1    2    0    0  0.00000000000E+00  0.00000000000E+00 -0.52283508169E+02  0.13549737970E+03  0.12500389866E+03 0.  0.
    9000005    1    3    3    0    0  0.81893423043E+01 -0.29812668990E+02 -0.85011388451E+02  0.90464339527E+02  0.10000000000E+01 0.  0.
    9000005    1    3    3    0    0 -0.81893423043E+01  0.29812668990E+02  0.32727880282E+02  0.45033040175E+02  0.10000000000E+01 0.  0.
<mgrwt>
<rscale>  0 0.12500390E+03</rscale>
<asrwt>0</asrwt>
<pdfrwt beam="1">  1        4 0.64010671E-02 0.12500390E+03</pdfrwt>
<pdfrwt beam="2">  1       -4 0.14444684E-01 0.12500390E+03</pdfrwt>
<totfact> 0.10226699E+04</totfact>
</mgrwt>
</event>
<event>
 5    1  0.3266594E-002  0.1249921E+03  0.7818608E-02  0.1235082E+00
         -4   -1    0    0    0  501 -0.00000000000E+00  0.00000000000E+00  0.14349146378E+03  0.14349708386E+03  0.12700000000E+01 0.  1.
          4   -1    0    0  501    0  0.00000000000E+00 -0.00000000000E+00 -0.27198466559E+02  0.27228100984E+02  0.12700000000E+01 0.  1.
         25    2    1    2    0    0  0.00000000000E+00  0.00000000000E+00  0.11629299722E+03  0.17072518484E+03  0.12499210990E+03 0.  0.
    9000005    1    3    3    0    0 -0.59175324788E+02  0.11644316756E+02  0.35809005436E+02  0.70146946097E+02  0.10000000000E+01 0.  0.
    9000005    1    3    3    0    0  0.59175324788E+02 -0.11644316756E+02  0.80483991780E+02  0.10057823875E+03  0.10000000000E+01 0.  0.
<mgrwt>
<rscale>  0 0.12499211E+03</rscale>
<asrwt>0</asrwt>
<pdfrwt beam="2">  1        4 0.41870915E-02 0.12499211E+03</pdfrwt>
<pdfrwt beam="1">  1       -4 0.22078321E-01 0.12499211E+03</pdfrwt>
<totfact> 0.95330525E+03</totfact>
</mgrwt>
</event>
<event>
 5    1  0.3266594E-002  0.1249817E+03  0.7818608E-02  0.1235098E+00
         -4   -1    0    0    0  501 -0.00000000000E+00  0.00000000000E+00  0.51579760807E+02  0.51595393447E+02  0.12700000000E+01 0.  1.
          4   -1    0    0  501    0  0.00000000000E+00 -0.00000000000E+00 -0.75677560089E+02  0.75688215734E+02  0.12700000000E+01 0.  1.
         25    2    1    2    0    0  0.00000000000E+00  0.00000000000E+00 -0.24097799281E+02  0.12728360918E+03  0.12498165160E+03 0.  0.
    9000005    1    3    3    0    0 -0.49132931166E+02  0.83863231831E+01 -0.50422167995E+02  0.70906772362E+02  0.10000000000E+01 0.  0.
    9000005    1    3    3    0    0  0.49132931166E+02 -0.83863231831E+01  0.26324368714E+02  0.56376836819E+02  0.10000000000E+01 0.  0.
<mgrwt>
<rscale>  0 0.12498165E+03</rscale>
<asrwt>0</asrwt>
<pdfrwt beam="2">  1        4 0.11644724E-01 0.12498165E+03</pdfrwt>
<pdfrwt beam="1">  1       -4 0.79373700E-02 0.12498165E+03</pdfrwt>
<totfact> 0.10407300E+04</totfact>
</mgrwt>
</event>
<event>
 5    1  0.3266594E-002  0.1250032E+03  0.7818608E-02  0.1235064E+00
          4   -1    0    0  501    0  0.00000000000E+00  0.00000000000E+00  0.11794596655E+02  0.11862774139E+02  0.12700000000E+01 0.  1.
         -4   -1    0    0    0  501 -0.00000000000E+00 -0.00000000000E+00 -0.33018290190E+03  0.33018534433E+03  0.12700000000E+01 0.  1.
         25    2    1    2    0    0  0.00000000000E+00  0.00000000000E+00 -0.31838830524E+03  0.34204811846E+03  0.12500320967E+03 0.  0.
    9000005    1    3    3    0    0  0.18714313223E+02 -0.11901690525E+02 -0.31906554466E+03  0.31983698590E+03  0.10000000000E+01 0.  0.
    9000005    1    3    3    0    0 -0.18714313223E+02  0.11901690525E+02  0.67723941642E+00  0.22211132569E+02  0.10000000000E+01 0.  0.
<mgrwt>
<rscale>  0 0.12500321E+03</rscale>
<asrwt>0</asrwt>
<pdfrwt beam="1">  1        4 0.18199859E-02 0.12500321E+03</pdfrwt>
<pdfrwt beam="2">  1       -4 0.50802795E-01 0.12500321E+03</pdfrwt>
<totfact> 0.70603297E+03</totfact>
</mgrwt>
</event>
<event>
 5    1  0.3266594E-002  0.1249989E+03  0.7818608E-02  0.1235071E+00
         -4   -1    0    0    0  501 -0.00000000000E+00  0.00000000000E+00  0.68309207505E+03  0.68309325563E+03  0.12700000000E+01 0.  1.
          4   -1    0    0  501    0  0.00000000000E+00 -0.00000000000E+00 -0.56466634784E+01  0.57877204872E+01  0.12700000000E+01 0.  1.
         25    2    1    2    0    0  0.00000000000E+00  0.00000000000E+00  0.67744541157E+03  0.68888097612E+03  0.12499885442E+03 0.  0.
    9000005    1    3    3    0    0 -0.49700654338E+02  0.19027424488E+02  0.51924634036E+03  0.52196739352E+03  0.10000000000E+01 0.  0.
    9000005    1    3    3    0    0  0.49700654338E+02 -0.19027424488E+02  0.15819907121E+03  0.16691358260E+03  0.10000000000E+01 0.  0.
<mgrwt>
<rscale>  0 0.12499885E+03</rscale>
<asrwt>0</asrwt>
<pdfrwt beam="2">  1        4 0.87965933E-03 0.12499885E+03</pdfrwt>
<pdfrwt beam="1">  1       -4 0.10510197E+00 0.12499885E+03</pdfrwt>
<totfact> 0.43681300E+03</totfact>
</mgrwt>
</event>
<event>
 5    1  0.3266594E-002  0.1250020E+03  0.7818608E-02  0.1235066E+00
         -4   -1    0    0    0  501 -0.00000000000E+00  0.00000000000E+00  0.25439471915E+02  0.25471152925E+02  0.12700000000E+01 0.  1.
          4   -1    0    0  501    0  0.00000000000E+00 -0.00000000000E+00 -0.15342582923E+03  0.15343108543E+03  0.12700000000E+01 0.  1.
         25    2    1    2    0    0  0.00000000000E+00  0.00000000000E+00 -0.12798635732E+03  0.17890223835E+03  0.12500201290E+03 0.  0.
    9000005    1    3    3    0    0 -0.27212602834E+02 -0.56196907522E+02 -0.60272721880E+02  0.86789510719E+02  0.10000000000E+01 0.  0.
    9000005    1    3    3    0    0  0.27212602834E+02  0.56196907522E+02 -0.67713635437E+02  0.92112727634E+02  0.10000000000E+01 0.  0.
<mgrwt>
<rscale>  0 0.12500201E+03</rscale>
<asrwt>0</asrwt>
<pdfrwt beam="2">  1        4 0.23606814E-01 0.12500201E+03</pdfrwt>
<pdfrwt beam="1">  1       -4 0.39166063E-02 0.12500201E+03</pdfrwt>
<totfact> 0.93810744E+03</totfact>
</mgrwt>
</event>
<event>
 5    1  0.3266594E-002  0.1249853E+03  0.7818608E-02  0.1235092E+00
          4   -1    0    0  501    0  0.00000000000E+00  0.00000000000E+00  0.88014588196E+02  0.88023750405E+02  0.12700000000E+01 0. -1.
         -4   -1    0    0    0  501 -0.00000000000E+00 -0.00000000000E+00 -0.44350831378E+02  0.44369011077E+02  0.12700000000E+01 0. -1.
         25    2    1    2    0    0  0.00000000000E+00  0.00000000000E+00  0.43663756818E+02  0.13239276148E+03  0.12498527767E+03 0.  0.
    9000005    1    3    3    0    0  0.18943731980E+02 -0.95165246189E+01 -0.40430135680E+02  0.45662074999E+02  0.10000000000E+01 0.  0.
    9000005    1    3    3    0    0 -0.18943731980E+02  0.95165246189E+01  0.84093892498E+02  0.86730686482E+02  0.10000000000E+01 0.  0.
<mgrwt>
<rscale>  0 0.12498528E+03</rscale>
<asrwt>0</asrwt>
<pdfrwt beam="1">  1        4 0.13542809E-01 0.12498528E+03</pdfrwt>
<pdfrwt beam="2">  1       -4 0.68253081E-02 0.12498528E+03</pdfrwt>
<totfact> 0.10296742E+04</totfact>
</mgrwt>
</event>
<event>
 5    1  0.3266594E-002  0.1249896E+03  0.7818608E-02  0.1235086E+00
          4   -1    0    0  501    0  0.00000000000E+00  0.00000000000E+00  0.38669569037E+02  0.38690418317E+02  0.12700000000E+01 0. -1.
         -4   -1    0    0    0  501 -0.00000000000E+00 -0.00000000000E+00 -0.10094719900E+03  0.10095518751E+03  0.12700000000E+01 0. -1.
         25    2    1    2    0    0  0.00000000000E+00  0.00000000000E+00 -0.62277629962E+02  0.13964560583E+03  0.12498956770E+03 0.  0.
    9000005    1    3    3    0    0  0.34599136352E+02  0.47098747511E+02 -0.64273047859E+01  0.58802232102E+02  0.10000000000E+01 0.  0.
    9000005    1    3    3    0    0 -0.34599136352E+02 -0.47098747511E+02 -0.55850325176E+02  0.80843373727E+02  0.10000000000E+01 0.  0.
<mgrwt>
<rscale>  0 0.12498957E+03</rscale>
<asrwt>0</asrwt>
<pdfrwt beam="1">  1        4 0.59513828E-02 0.12498957E+03</pdfrwt>
<pdfrwt beam="2">  1       -4 0.15532557E-01 0.12498957E+03</pdfrwt>
<totfact> 0.10143320E+04</totfact>
</mgrwt>
</event>
<event>
 5    1  0.3266594E-002  0.1249977E+03  0.7818608E-02  0.1235073E+00
          4   -1    0    0  501    0  0.00000000000E+00  0.00000000000E+00  0.84490694779E+02  0.84500239078E+02  0.12700000000E+01 0. -1.
         -4   -1    0    0    0  501 -0.00000000000E+00 -0.00000000000E+00 -0.46210321483E+02  0.46227769917E+02  0.12700000000E+01 0. -1.
         25    2    1    2    0    0  0.00000000000E+00  0.00000000000E+00  0.38280373296E+02  0.13072800900E+03  0.12499770140E+03 0.  0.
    9000005    1    3    3    0    0 -0.32503097985E+02  0.43174563553E+02  0.51957210087E+02  0.74973635344E+02  0.10000000000E+01 0.  0.
    9000005    1    3    3    0    0  0.32503097985E+02 -0.43174563553E+02 -0.13676836791E+02  0.55754373651E+02  0.10000000000E+01 0.  0.
<mgrwt>
<rscale>  0 0.12499770E+03</rscale>
<asrwt>0</asrwt>
<pdfrwt beam="1">  1        4 0.13000645E-01 0.12499770E+03</pdfrwt>
<pdfrwt beam="2">  1       -4 0.71113567E-02 0.12499770E+03</pdfrwt>
<totfact> 0.10329459E+04</totfact>
</mgrwt>
</event>
<event>
 5    1  0.3266594E-002  0.1249999E+03  0.7818608E-02  0.1235069E+00
          4   -1    0    0  501    0  0.00000000000E+00  0.00000000000E+00  0.19409196252E+03  0.19409611746E+03  0.12700000000E+01 0. -1.
         -4   -1    0    0    0  501 -0.00000000000E+00 -0.00000000000E+00 -0.20101326884E+02  0.20141406170E+02  0.12700000000E+01 0. -1.
         25    2    1    2    0    0  0.00000000000E+00  0.00000000000E+00  0.17399063564E+03  0.21423752363E+03  0.12499990098E+03 0.  0.
    9000005    1    3    3    0    0 -0.50458617494E+02 -0.85628571438E+01  0.25536968469E+02  0.57206043042E+02  0.10000000000E+01 0.  0.
    9000005    1    3    3    0    0  0.50458617494E+02  0.85628571438E+01  0.14845366717E+03  0.15703148059E+03  0.10000000000E+01 0.  0.
<mgrwt>
<rscale>  0 0.12499990E+03</rscale>
<asrwt>0</asrwt>
<pdfrwt beam="1">  1        4 0.29863705E-01 0.12499990E+03</pdfrwt>
<pdfrwt beam="2">  1       -4 0.30959145E-02 0.12499990E+03</pdfrwt>
<totfact> 0.87788674E+03</totfact>
</mgrwt>
</event>
<event>
 5    1  0.3266594E-002  0.1250059E+03  0.7818608E-02  0.1235060E+00
         -4   -1    0    0    0  501 -0.00000000000E+00  0.00000000000E+00  0.40623842922E+02  0.40643689716E+02  0.12700000000E+01 0.  1.
          4   -1    0    0  501    0  0.00000000000E+00 -0.00000000000E+00 -0.96118183872E+02  0.96126573697E+02  0.12700000000E+01 0.  1.
         25    2    1    2    0    0  0.00000000000E+00  0.00000000000E+00 -0.55494340950E+02  0.13677026341E+03  0.12500593217E+03 0.  0.
    9000005    1    3    3    0    0  0.82720650687E+01  0.13081881012E+02 -0.93993333949E+02  0.95264418846E+02  0.10000000000E+01 0.  0.
    9000005    1    3    3    0    0 -0.82720650687E+01 -0.13081881012E+02  0.38498992999E+02  0.41505844567E+02  0.10000000000E+01 0.  0.
<mgrwt>
<rscale>  0 0.12500593E+03</rscale>
<asrwt>0</asrwt>
<pdfrwt beam="2">  1        4 0.14789585E-01 0.12500593E+03</pdfrwt>
<pdfrwt beam="1">  1       -4 0.62519941E-02 0.12500593E+03</pdfrwt>
<totfact> 0.10199527E+04</totfact>
</mgrwt>
</event>
<event>
 5    1  0.3266594E-002  0.1249993E+03  0.7818608E-02  0.1235070E+00
          4   -1    0    0  501    0  0.00000000000E+00  0.00000000000E+00  0.21497991792E+02  0.21535471927E+02  0.12700000000E+01 0.  1.
         -4   -1    0    0    0  501 -0.00000000000E+00 -0.00000000000E+00 -0.18150297806E+03  0.18150742119E+03  0.12700000000E+01 0.  1.
         25    2    1    2    0    0  0.00000000000E+00  0.00000000000E+00 -0.16000498627E+03  0.20304289311E+03  0.12499928325E+03 0.  0.
    9000005    1    3    3    0    0 -0.61310311070E+02  0.88822329511E+01 -0.66671229798E+02  0.91015939200E+02  0.10000000000E+01 0.  0.
    9000005    1    3    3    0    0  0.61310311070E+02 -0.88822329511E+01 -0.93333756473E+02  0.11202695391E+03  0.10000000000E+01 0.  0.
<mgrwt>
<rscale>  0 0.12499928E+03</rscale>
<asrwt>0</asrwt>
<pdfrwt beam="1">  1        4 0.33106083E-02 0.12499928E+03</pdfrwt>
<pdfrwt beam="2">  1       -4 0.27926759E-01 0.12499928E+03</pdfrwt>
<totfact> 0.89626261E+03</totfact>
</mgrwt>
</event>
<event>
 5    1  0.3266594E-002  0.1250000E+03  0.7818608E-02  0.1235069E+00
          4   -1    0    0  501    0  0.00000000000E+00  0.00000000000E+00  0.15693694575E+03  0.15694208435E+03  0.12700000000E+01 0. -1.
         -4   -1    0    0    0  501 -0.00000000000E+00 -0.00000000000E+00 -0.24868817858E+02  0.24901224903E+02  0.12700000000E+01 0. -1.
         25    2    1    2    0    0  0.00000000000E+00  0.00000000000E+00  0.13206812789E+03  0.18184330925E+03  0.12499999486E+03 0.  0.
    9000005    1    3    3    0    0 -0.44826161204E+02  0.43231237603E+02  0.58485478782E+02  0.85439310983E+02  0.10000000000E+01 0.  0.
    9000005    1    3    3    0    0  0.44826161204E+02 -0.43231237603E+02  0.73582649105E+02  0.96403998269E+02  0.10000000000E+01 0.  0.
<mgrwt>
<rscale>  0 0.12499999E+03</rscale>
<asrwt>0</asrwt>
<pdfrwt beam="1">  1        4 0.24147033E-01 0.12499999E+03</pdfrwt>
<pdfrwt beam="2">  1       -4 0.38288602E-02 0.12499999E+03</pdfrwt>
<totfact> 0.93286261E+03</totfact>
</mgrwt>
</event>
<event>
 5    1  0.3266594E-002  0.1250036E+03  0.7818608E-02  0.1235064E+00
          4   -1    0    0  501    0  0.00000000000E+00  0.00000000000E+00  0.11394694552E+03  0.11395402272E+03  0.12700000000E+01 0.  1.
         -4   -1    0    0    0  501 -0.00000000000E+00 -0.00000000000E+00 -0.34263366784E+02  0.34286895505E+02  0.12700000000E+01 0.  1.
         25    2    1    2    0    0  0.00000000000E+00  0.00000000000E+00  0.79683578740E+02  0.14824091823E+03  0.12500358841E+03 0.  0.
    9000005    1    3    3    0    0 -0.48545283477E+02 -0.39206168825E+02  0.35784360304E+02  0.71939479176E+02  0.10000000000E+01 0.  0.
    9000005    1    3    3    0    0  0.48545283477E+02  0.39206168825E+02  0.43899218436E+02  0.76301439050E+02  0.10000000000E+01 0.  0.
<mgrwt>
<rscale>  0 0.12500359E+03</rscale>
<asrwt>0</asrwt>
<pdfrwt beam="1">  1        4 0.17532654E-01 0.12500359E+03</pdfrwt>
<pdfrwt beam="2">  1       -4 0.52736415E-02 0.12500359E+03</pdfrwt>
<totfact> 0.99647457E+03</totfact>
</mgrwt>
</event>
<event>
 5    1  0.3266594E-002  0.1250024E+03  0.7818608E-02  0.1235066E+00
          4   -1    0    0  501    0  0.00000000000E+00  0.00000000000E+00  0.17431321407E+02  0.17477524595E+02  0.12700000000E+01 0. -1.
         -4   -1    0    0    0  501 -0.00000000000E+00 -0.00000000000E+00 -0.22375761331E+03  0.22376121740E+03  0.12700000000E+01 0. -1.
         25    2    1    2    0    0  0.00000000000E+00  0.00000000000E+00 -0.20632629190E+03  0.24123874200E+03  0.12500236762E+03 0.  0.
    9000005    1    3    3    0    0 -0.24713344305E+02 -0.49726707919E+02 -0.15849040152E+03  0.16793957914E+03  0.10000000000E+01 0.  0.
    9000005    1    3    3    0    0  0.24713344305E+02  0.49726707919E+02 -0.47835890379E+02  0.73299162857E+02  0.10000000000E+01 0.  0.
<mgrwt>
<rscale>  0 0.12500237E+03</rscale>
<asrwt>0</asrwt>
<pdfrwt beam="1">  1        4 0.26855732E-02 0.12500237E+03</pdfrwt>
<pdfrwt beam="2">  1       -4 0.34428077E-01 0.12500237E+03</pdfrwt>
<totfact> 0.83608812E+03</totfact>
</mgrwt>
</event>
<event>
 5    1  0.3266594E-002  0.1250022E+03  0.7818608E-02  0.1235066E+00
          4   -1    0    0  501    0  0.00000000000E+00  0.00000000000E+00  0.11795594092E+03  0.11796277759E+03  0.12700000000E+01 0. -1.
         -4   -1    0    0    0  501 -0.00000000000E+00 -0.00000000000E+00 -0.33097357703E+02  0.33121714734E+02  0.12700000000E+01 0. -1.
         25    2    1    2    0    0  0.00000000000E+00  0.00000000000E+00  0.84858583215E+02  0.15108449233E+03  0.12500217869E+03 0.  0.
    9000005    1    3    3    0    0  0.81664378581E+01  0.12842872485E+02  0.11568769790E+03  0.11668878921E+03  0.10000000000E+01 0.  0.
    9000005    1    3    3    0    0 -0.81664378581E+01 -0.12842872485E+02 -0.30829114685E+02  0.34395703122E+02  0.10000000000E+01 0.  0.
<mgrwt>
<rscale>  0 0.12500218E+03</rscale>
<asrwt>0</asrwt>
<pdfrwt beam="1">  1        4 0.18149467E-01 0.12500218E+03</pdfrwt>
<pdfrwt beam="2">  1       -4 0.50943007E-02 0.12500218E+03</pdfrwt>
<totfact> 0.99083101E+03</totfact>
</mgrwt>
</event>
<event>
 5    1  0.3266594E-002  0.1249993E+03  0.7818608E-02  0.1235070E+00
         -4   -1    0    0    0  501 -0.00000000000E+00  0.00000000000E+00  0.15303358357E+03  0.15303885324E+03  0.12700000000E+01 0.  1.
          4   -1    0    0  501    0  0.00000000000E+00 -0.00000000000E+00 -0.25503666208E+02  0.25535267573E+02  0.12700000000E+01 0.  1.
         25    2    1    2    0    0  0.00000000000E+00  0.00000000000E+00  0.12752991736E+03  0.17857412081E+03  0.12499934720E+03 0.  0.
    9000005    1    3    3    0    0  0.46689966076E+02  0.40186504730E+02  0.78768739407E+02  0.10000211199E+03  0.10000000000E+01 0.  0.
    9000005    1    3    3    0    0 -0.46689966076E+02 -0.40186504730E+02  0.48761177955E+02  0.78572008821E+02  0.10000000000E+01 0.  0.
<mgrwt>
<rscale>  0 0.12499935E+03</rscale>
<asrwt>0</asrwt>
<pdfrwt beam="2">  1        4 0.39264773E-02 0.12499935E+03</pdfrwt>
<pdfrwt beam="1">  1       -4 0.23546464E-01 0.12499935E+03</pdfrwt>
<totfact> 0.93875672E+03</totfact>
</mgrwt>
</event>
<event>
 5    1  0.3266594E-002  0.1249969E+03  0.7818608E-02  0.1235074E+00
         -4   -1    0    0    0  501 -0.00000000000E+00  0.00000000000E+00  0.19415546282E+03  0.19415961641E+03  0.12700000000E+01 0.  1.
          4   -1    0    0  501    0  0.00000000000E+00 -0.00000000000E+00 -0.20093771780E+02  0.20133866105E+02  0.12700000000E+01 0.  1.
         25    2    1    2    0    0  0.00000000000E+00  0.00000000000E+00  0.17406169104E+03  0.21429348251E+03  0.12499689740E+03 0.  0.
    9000005    1    3    3    0    0 -0.31098816437E+02 -0.30884991027E+02  0.16339413300E+03  0.16917346645E+03  0.10000000000E+01 0.  0.
    9000005    1    3    3    0    0  0.31098816437E+02  0.30884991027E+02  0.10667558047E+02  0.45120016059E+02  0.10000000000E+01 0.  0.
<mgrwt>
<rscale>  0 0.12499690E+03</rscale>
<asrwt>0</asrwt>
<pdfrwt beam="2">  1        4 0.30947533E-02 0.12499690E+03</pdfrwt>
<pdfrwt beam="1">  1       -4 0.29873474E-01 0.12499690E+03</pdfrwt>
<totfact> 0.87785551E+03</totfact>
</mgrwt>
</event>
<event>
 5    1  0.3266594E-002  0.1249931E+03  0.7818608E-02  0.1235080E+00
         -4   -1    0    0    0  501 -0.00000000000E+00  0.00000000000E+00  0.53370975964E+03  0.53371127066E+03  0.12700000000E+01 0.  1.
          4   -1    0    0  501    0  0.00000000000E+00 -0.00000000000E+00 -0.72616165677E+01  0.73718366217E+01  0.12700000000E+01 0.  1.
         25    2    1    2    0    0  0.00000000000E+00  0.00000000000E+00  0.52644814307E+03  0.54108310729E+03  0.12499312640E+03 0.  0.
    9000005    1    3    3    0    0 -0.43696107656E+02 -0.44299675885E+02  0.23835291232E+03  0.24634309797E+03  0.10000000000E+01 0.  0.
    9000005    1    3    3    0    0  0.43696107656E+02  0.44299675885E+02  0.28809523075E+03  0.29474000932E+03  0.10000000000E+01 0.  0.
<mgrwt>
<rscale>  0 0.12499313E+03</rscale>
<asrwt>0</asrwt>
<pdfrwt beam="2">  1        4 0.11257663E-02 0.12499313E+03</pdfrwt>
<pdfrwt beam="1">  1       -4 0.82117804E-01 0.12499313E+03</pdfrwt>
<totfact> 0.52819976E+03</totfact>
</mgrwt>
</event>
<event>
 5    1  0.3266594E-002  0.1249986E+03  0.7818608E-02  0.1235071E+00
          4   -1    0    0  501    0  0.00000000000E+00  0.00000000000E+00  0.75750251946E+01  0.76807490975E+01  0.12700000000E+01 0.  1.
         -4   -1    0    0    0  501 -0.00000000000E+00 -0.00000000000E+00 -0.51198359994E+03  0.51198517508E+03  0.12700000000E+01 0.  1.
         25    2    1    2    0    0  0.00000000000E+00  0.00000000000E+00 -0.50440857474E+03  0.51966592418E+03  0.12499864991E+03 0.  0.
    9000005    1    3    3    0    0 -0.25176018662E+02  0.30994404185E+02 -0.52361316186E+02  0.65857364350E+02  0.10000000000E+01 0.  0.
    9000005    1    3    3    0    0  0.25176018662E+02 -0.30994404185E+02 -0.45204725856E+03  0.45380855983E+03  0.10000000000E+01 0.  0.
<mgrwt>
<rscale>  0 0.12499865E+03</rscale>
<asrwt>0</asrwt>
<pdfrwt beam="1">  1        4 0.11736427E-02 0.12499865E+03</pdfrwt>
<pdfrwt beam="2">  1       -4 0.78774934E-01 0.12499865E+03</pdfrwt>
<totfact> 0.54371802E+03</totfact>
</mgrwt>
</event>
<event>
 5    1  0.3266594E-002  0.1250033E+03  0.7818608E-02  0.1235064E+00
          4   -1    0    0  501    0  0.00000000000E+00  0.00000000000E+00  0.86221971578E+03  0.86222065110E+03  0.12700000000E+01 0. -1.
         -4   -1    0    0    0  501 -0.00000000000E+00 -0.00000000000E+00 -0.44407448414E+01  0.46187784907E+01  0.12700000000E+01 0. -1.
         25    2    1    2    0    0  0.00000000000E+00  0.00000000000E+00  0.85777897094E+03  0.86683942959E+03  0.12500333478E+03 0.  0.
    9000005    1    3    3    0    0 -0.37890653953E+02  0.78078485575E+01  0.88546414414E+02  0.96634008826E+02  0.10000000000E+01 0.  0.
    9000005    1    3    3    0    0  0.37890653953E+02 -0.78078485575E+01  0.76923255653E+03  0.77020542077E+03  0.10000000000E+01 0.  0.
<mgrwt>
<rscale>  0 0.12500333E+03</rscale>
<asrwt>0</asrwt>
<pdfrwt beam="1">  1        4 0.13266283E+00 0.12500333E+03</pdfrwt>
<pdfrwt beam="2">  1       -4 0.69695903E-03 0.12500333E+03</pdfrwt>
<totfact> 0.35445428E+03</totfact>
</mgrwt>
</event>
<event>
 5    1  0.3266594E-002  0.1249985E+03  0.7818608E-02  0.1235072E+00
         -4   -1    0    0    0  501 -0.00000000000E+00  0.00000000000E+00  0.78582152342E+01  0.79601788088E+01  0.12700000000E+01 0. -1.
          4   -1    0    0  501    0  0.00000000000E+00 -0.00000000000E+00 -0.49377244024E+03  0.49377407348E+03  0.12700000000E+01 0. -1.
         25    2    1    2    0    0  0.00000000000E+00  0.00000000000E+00 -0.48591422501E+03  0.50173425229E+03  0.12499850342E+03 0.  0.
    9000005    1    3    3    0    0  0.34364859544E+02 -0.28783931169E+01 -0.45214091005E+03  0.45345521417E+03  0.10000000000E+01 0.  0.
    9000005    1    3    3    0    0 -0.34364859544E+02  0.28783931169E+01 -0.33773314958E+02  0.48279038119E+02  0.10000000000E+01 0.  0.
<mgrwt>
<rscale>  0 0.12499850E+03</rscale>
<asrwt>0</asrwt>
<pdfrwt beam="2">  1        4 0.75972936E-01 0.12499850E+03</pdfrwt>
<pdfrwt beam="1">  1       -4 0.12169256E-02 0.12499850E+03</pdfrwt>
<totfact> 0.55731905E+03</totfact>
</mgrwt>
</event>
<event>
 5    1  0.3266594E-002  0.1250107E+03  0.7818608E-02  0.1235053E+00
          4   -1    0    0  501    0  0.00000000000E+00  0.00000000000E+00  0.62873871849E+01  0.64143696193E+01  0.12700000000E+01 0. -1.
         -4   -1    0    0    0  501 -0.00000000000E+00 -0.00000000000E+00 -0.61504996251E+03  0.61505127370E+03  0.12700000000E+01 0. -1.
         25    2    1    2    0    0  0.00000000000E+00  0.00000000000E+00 -0.60876257532E+03  0.62146564332E+03  0.12501069040E+03 0.  0.
    9000005    1    3    3    0    0  0.43834806404E+02  0.31418678727E+02 -0.14738777952E+03  0.15694833920E+03  0.10000000000E+01 0.  0.
    9000005    1    3    3    0    0 -0.43834806404E+02 -0.31418678727E+02 -0.46137479581E+03  0.46451730412E+03  0.10000000000E+01 0.  0.
<mgrwt>
<rscale>  0 0.12501069E+03</rscale>
<asrwt>0</asrwt>
<pdfrwt beam="1">  1        4 0.97715956E-03 0.12501069E+03</pdfrwt>
<pdfrwt beam="2">  1       -4 0.94632893E-01 0.12501069E+03</pdfrwt>
<totfact> 0.47528959E+03</totfact>
</mgrwt>
</event>
<event>
 5    1  0.3266594E-002  0.1250009E+03  0.7818608E-02  0.1235068E+00
         -4   -1    0    0    0  501 -0.00000000000E+00  0.00000000000E+00  0.29322361577E+02  0.29349851592E+02  0.12700000000E+01 0.  1.
          4   -1    0    0  501    0  0.00000000000E+00 -0.00000000000E+00 -0.13312645796E+03  0.13313251560E+03  0.12700000000E+01 0.  1.
         25    2    1    2    0    0  0.00000000000E+00  0.00000000000E+00 -0.10380409638E+03  0.16248236719E+03  0.12500091688E+03 0.  0.
    9000005    1    3    3    0    0  0.49630009837E+02  0.35105947614E+02 -0.33077021185E+02  0.69214556018E+02  0.10000000000E+01 0.  0.
    9000005    1    3    3    0    0 -0.49630009837E+02 -0.35105947614E+02 -0.70727075197E+02  0.93267811169E+02  0.10000000000E+01 0.  0.
<mgrwt>
<rscale>  0 0.12500092E+03</rscale>
<asrwt>0</asrwt>
<pdfrwt beam="2">  1        4 0.20483574E-01 0.12500092E+03</pdfrwt>
<pdfrwt beam="1">  1       -4 0.45137132E-02 0.12500092E+03</pdfrwt>
<totfact> 0.96864332E+03</totfact>
</mgrwt>
</event>
<event>
 5    1  0.3266594E-002  0.1250011E+03  0.7818608E-02  0.1235068E+00
          4   -1    0    0  501    0  0.00000000000E+00  0.00000000000E+00  0.95739131917E+03  0.95739216151E+03  0.12700000000E+01 0. -1.
         -4   -1    0    0    0  501 -0.00000000000E+00 -0.00000000000E+00 -0.39804760257E+01  0.41781681861E+01  0.12700000000E+01 0. -1.
         25    2    1    2    0    0  0.00000000000E+00  0.00000000000E+00  0.95341084314E+03  0.96157032969E+03  0.12500105251E+03 0.  0.
    9000005    1    3    3    0    0 -0.89843084509E+01  0.21778788945E+01  0.12707899537E+01  0.93848741029E+01  0.10000000000E+01 0.  0.
    9000005    1    3    3    0    0  0.89843084509E+01 -0.21778788945E+01  0.95214005319E+03  0.95218545559E+03  0.10000000000E+01 0.  0.
<mgrwt>
<rscale>  0 0.12500105E+03</rscale>
<asrwt>0</asrwt>
<pdfrwt beam="1">  1        4 0.14730639E+00 0.12500105E+03</pdfrwt>
<pdfrwt beam="2">  1       -4 0.62765221E-03 0.12500105E+03</pdfrwt>
<totfact> 0.31907941E+03</totfact>
</mgrwt>
</event>
<event>
 5    1  0.3266594E-002  0.1250030E+03  0.7818608E-02  0.1235065E+00
         -4   -1    0    0    0  501 -0.00000000000E+00  0.00000000000E+00  0.14023084354E+01  0.18919220249E+01  0.12700000000E+01 0.  1.
          4   -1    0    0  501    0  0.00000000000E+00 -0.00000000000E+00 -0.23711935638E+04  0.23711939039E+04  0.12700000000E+01 0.  1.
         25    2    1    2    0    0  0.00000000000E+00  0.00000000000E+00 -0.23697912553E+04  0.23730858259E+04  0.12500297283E+03 0.  0.
    9000005    1    3    3    0    0 -0.55882975669E+02 -0.25301260084E+02 -0.95837378631E+03  0.96033555335E+03  0.10000000000E+01 0.  0.
    9000005    1    3    3    0    0  0.55882975669E+02  0.25301260084E+02 -0.14114174690E+04  0.14127502726E+04  0.10000000000E+01 0.  0.
<mgrwt>
<rscale>  0 0.12500297E+03</rscale>
<asrwt>0</asrwt>
<pdfrwt beam="2">  1        4 0.36483397E+00 0.12500297E+03</pdfrwt>
<pdfrwt beam="1">  1       -4 0.25343040E-03 0.12500297E+03</pdfrwt>
<totfact> 0.57442895E+02</totfact>
</mgrwt>
</event>
<event>
 5    1  0.3266594E-002  0.1249997E+03  0.7818608E-02  0.1235070E+00
         -4   -1    0    0    0  501 -0.00000000000E+00  0.00000000000E+00  0.23420776812E+02  0.23455184640E+02  0.12700000000E+01 0.  1.
          4   -1    0    0  501    0  0.00000000000E+00 -0.00000000000E+00 -0.16662552708E+03  0.16663036691E+03  0.12700000000E+01 0.  1.
         25    2    1    2    0    0  0.00000000000E+00  0.00000000000E+00 -0.14320475027E+03  0.19008555155E+03  0.12499966563E+03 0.  0.
    9000005    1    3    3    0    0 -0.18600702227E+02  0.40435041142E+02 -0.48954301141E+01  0.44787765199E+02  0.10000000000E+01 0.  0.
    9000005    1    3    3    0    0  0.18600702227E+02 -0.40435041142E+02 -0.13830932016E+03  0.14529778635E+03  0.10000000000E+01 0.  0.
<mgrwt>
<rscale>  0 0.12499967E+03</rscale>
<asrwt>0</asrwt>
<pdfrwt beam="2">  1        4 0.25637715E-01 0.12499967E+03</pdfrwt>
<pdfrwt beam="1">  1       -4 0.36062156E-02 0.12499967E+03</pdfrwt>
<totfact> 0.91833119E+03</totfact>
</mgrwt>
</event>
<event>
 5    1  0.3266594E-002  0.1250045E+03  0.7818608E-02  0.1235062E+00
         -4   -1    0    0    0  501 -0.00000000000E+00  0.00000000000E+00  0.35589552604E+02  0.35612205135E+02  0.12700000000E+01 0. -1.
          4   -1    0    0  501    0  0.00000000000E+00 -0.00000000000E+00 -0.10970504097E+03  0.10971239180E+03  0.12700000000E+01 0. -1.
         25    2    1    2    0    0  0.00000000000E+00  0.00000000000E+00 -0.74115488364E+02  0.14532459693E+03  0.12500453135E+03 0.  0.
    9000005    1    3    3    0    0  0.17903746458E+02  0.55644685998E+02 -0.11358764780E+02  0.59555828886E+02  0.10000000000E+01 0.  0.
    9000005    1    3    3    0    0 -0.17903746458E+02 -0.55644685998E+02 -0.62756723584E+02  0.85768768045E+02  0.10000000000E+01 0.  0.
<mgrwt>
<rscale>  0 0.12500453E+03</rscale>
<asrwt>0</asrwt>
<pdfrwt beam="2">  1        4 0.16880006E-01 0.12500453E+03</pdfrwt>
<pdfrwt beam="1">  1       -4 0.54776238E-02 0.12500453E+03</pdfrwt>
<totfact> 0.10023375E+04</totfact>
</mgrwt>
</event>
<event>
 5    1  0.3266594E-002  0.1249999E+03  0.7818608E-02  0.1235069E+00
         -4   -1    0    0    0  501 -0.00000000000E+00  0.00000000000E+00  0.15550606651E+03  0.15551125240E+03  0.12700000000E+01 0.  1.
          4   -1    0    0  501    0  0.00000000000E+00 -0.00000000000E+00 -0.25097884785E+02  0.25129996432E+02  0.12700000000E+01 0.  1.
         25    2    1    2    0    0  0.00000000000E+00  0.00000000000E+00  0.13040818173E+03  0.18064124883E+03  0.12499986767E+03 0.  0.
    9000005    1    3    3    0    0 -0.61304926049E+02  0.10600364201E+02  0.56706023224E+02  0.84185715825E+02  0.10000000000E+01 0.  0.
    9000005    1    3    3    0    0  0.61304926049E+02 -0.10600364201E+02  0.73702158505E+02  0.96455533006E+02  0.10000000000E+01 0.  0.
<mgrwt>
<rscale>  0 0.12499987E+03</rscale>
<asrwt>0</asrwt>
<pdfrwt beam="2">  1        4 0.38640821E-02 0.12499987E+03</pdfrwt>
<pdfrwt beam="1">  1       -4 0.23926879E-01 0.12499987E+03</pdfrwt>
<totfact> 0.93501981E+03</totfact>
</mgrwt>
</event>
<event>
 5    1  0.3266594E-002  0.1250013E+03  0.7818608E-02  0.1235067E+00
         -4   -1    0    0    0  501 -0.00000000000E+00  0.00000000000E+00  0.14419495056E+02  0.14475314770E+02  0.12700000000E+01 0.  1.
          4   -1    0    0  501    0  0.00000000000E+00 -0.00000000000E+00 -0.27032569468E+03  0.27032867791E+03  0.12700000000E+01 0.  1.
         25    2    1    2    0    0  0.00000000000E+00  0.00000000000E+00 -0.25590619962E+03  0.28480399268E+03  0.12500132497E+03 0.  0.
    9000005    1    3    3    0    0 -0.56706525885E+02 -0.20592590184E+02 -0.16508820870E+03  0.17576917107E+03  0.10000000000E+01 0.  0.
    9000005    1    3    3    0    0  0.56706525885E+02  0.20592590184E+02 -0.90817990921E+02  0.10903482161E+03  0.10000000000E+01 0.  0.
<mgrwt>
<rscale>  0 0.12500132E+03</rscale>
<asrwt>0</asrwt>
<pdfrwt beam="2">  1        4 0.41593088E-01 0.12500132E+03</pdfrwt>
<pdfrwt beam="1">  1       -4 0.22229074E-02 0.12500132E+03</pdfrwt>
<totfact> 0.77543131E+03</totfact>
</mgrwt>
</event>
<event>
 5    1  0.3266594E-002  0.1250118E+03  0.7818608E-02  0.1235051E+00
          4   -1    0    0  501    0  0.00000000000E+00  0.00000000000E+00  0.18647390714E+03  0.18647823182E+03  0.12700000000E+01 0. -1.
         -4   -1    0    0    0  501 -0.00000000000E+00 -0.00000000000E+00 -0.20928111154E+02  0.20966610037E+02  0.12700000000E+01 0. -1.
         25    2    1    2    0    0  0.00000000000E+00  0.00000000000E+00  0.16554579599E+03  0.20744484186E+03  0.12501180683E+03 0.  0.
    9000005    1    3    3    0    0  0.61228908589E+02  0.11071505643E+02  0.92509852247E+02  0.11149273630E+03  0.10000000000E+01 0.  0.
    9000005    1    3    3    0    0 -0.61228908589E+02 -0.11071505643E+02  0.73035943738E+02  0.95952105563E+02  0.10000000000E+01 0.  0.
<mgrwt>
<rscale>  0 0.12501181E+03</rscale>
<asrwt>0</asrwt>
<pdfrwt beam="1">  1        4 0.28691587E-01 0.12501181E+03</pdfrwt>
<pdfrwt beam="2">  1       -4 0.32230036E-02 0.12501181E+03</pdfrwt>
<totfact> 0.88871413E+03</totfact>
</mgrwt>
</event>
<event>
 5    1  0.3266594E-002  0.1250007E+03  0.7818608E-02  0.1235068E+00
         -4   -1    0    0    0  501 -0.00000000000E+00  0.00000000000E+00  0.38546355467E+03  0.38546564682E+03  0.12700000000E+01 0.  1.
          4   -1    0    0  501    0  0.00000000000E+00 -0.00000000000E+00 -0.10092102822E+02  0.10171697959E+02  0.12700000000E+01 0.  1.
         25    2    1    2    0    0  0.00000000000E+00  0.00000000000E+00  0.37537145184E+03  0.39563734478E+03  0.12500072688E+03 0.  0.
    9000005    1    3    3    0    0  0.40297199706E+02 -0.25251771506E+02  0.59362143482E+02  0.76068261102E+02  0.10000000000E+01 0.  0.
    9000005    1    3    3    0    0 -0.40297199706E+02  0.25251771506E+02  0.31600930836E+03  0.31956908367E+03  0.10000000000E+01 0.  0.
<mgrwt>
<rscale>  0 0.12500073E+03</rscale>
<asrwt>0</asrwt>
<pdfrwt beam="2">  1        4 0.15589151E-02 0.12500073E+03</pdfrwt>
<pdfrwt beam="1">  1       -4 0.59308361E-01 0.12500073E+03</pdfrwt>
<totfact> 0.64978279E+03</totfact>
</mgrwt>
</event>
<event>
 5    1  0.3266594E-002  0.1249968E+03  0.7818608E-02  0.1235074E+00
          4   -1    0    0  501    0  0.00000000000E+00  0.00000000000E+00  0.34083899307E+01  0.36373097090E+01  0.12700000000E+01 0. -1.
         -4   -1    0    0    0  501 -0.00000000000E+00 -0.00000000000E+00 -0.11085458284E+04  0.11085465559E+04  0.12700000000E+01 0. -1.
         25    2    1    2    0    0  0.00000000000E+00  0.00000000000E+00 -0.11051374385E+04  0.11121838656E+04  0.12499677188E+03 0.  0.
    9000005    1    3    3    0    0  0.31385890367E+02 -0.18283931126E+02 -0.10012505707E+03  0.10651480322E+03  0.10000000000E+01 0.  0.
    9000005    1    3    3    0    0 -0.31385890367E+02  0.18283931126E+02 -0.10050123814E+04  0.10056690624E+04  0.10000000000E+01 0.  0.
<mgrwt>
<rscale>  0 0.12499677E+03</rscale>
<asrwt>0</asrwt>
<pdfrwt beam="1">  1        4 0.54203374E-03 0.12499677E+03</pdfrwt>
<pdfrwt beam="2">  1       -4 0.17056290E+00 0.12499677E+03</pdfrwt>
<totfact> 0.27131480E+03</totfact>
</mgrwt>
</event>
<event>
 5    1  0.3266594E-002  0.1250014E+03  0.7818608E-02  0.1235067E+00
         -4   -1    0    0    0  501 -0.00000000000E+00  0.00000000000E+00  0.48361152155E+02  0.48377824855E+02  0.12700000000E+01 0.  1.
          4   -1    0    0  501    0  0.00000000000E+00 -0.00000000000E+00 -0.80738710609E+02  0.80748698384E+02  0.12700000000E+01 0.  1.
         25    2    1    2    0    0  0.00000000000E+00  0.00000000000E+00 -0.32377558454E+02  0.12912652324E+03  0.12500141084E+03 0.  0.
    9000005    1    3    3    0    0  0.24690876013E+02  0.35951329207E+02 -0.62422918809E+02  0.76156143696E+02  0.10000000000E+01 0.  0.
    9000005    1    3    3    0    0 -0.24690876013E+02 -0.35951329207E+02  0.30045360355E+02  0.52970379543E+02  0.10000000000E+01 0.  0.
<mgrwt>
<rscale>  0 0.12500141E+03</rscale>
<asrwt>0</asrwt>
<pdfrwt beam="2">  1        4 0.12423391E-01 0.12500141E+03</pdfrwt>
<pdfrwt beam="1">  1       -4 0.74422280E-02 0.12500141E+03</pdfrwt>
<totfact> 0.10362899E+04</totfact>
</mgrwt>
</event>
<event>
 5    1  0.3266594E-002  0.1250009E+03  0.7818608E-02  0.1235068E+00
          4   -1    0    0  501    0  0.00000000000E+00  0.00000000000E+00  0.51417720102E+02  0.51433401992E+02  0.12700000000E+01 0.  1.
         -4   -1    0    0    0  501 -0.00000000000E+00 -0.00000000000E+00 -0.75939384606E+02  0.75950003517E+02  0.12700000000E+01 0.  1.
         25    2    1    2    0    0  0.00000000000E+00  0.00000000000E+00 -0.24521664503E+02  0.12738340551E+03  0.12500087987E+03 0.  0.
    9000005    1    3    3    0    0  0.49092017968E+02  0.15302317893E+02  0.23928254068E+02  0.56725201664E+02  0.10000000000E+01 0.  0.
    9000005    1    3    3    0    0 -0.49092017968E+02 -0.15302317893E+02 -0.48449918572E+02  0.70658203846E+02  0.10000000000E+01 0.  0.
<mgrwt>
<rscale>  0 0.12500088E+03</rscale>
<asrwt>0</asrwt>
<pdfrwt beam="1">  1        4 0.79124416E-02 0.12500088E+03</pdfrwt>
<pdfrwt beam="2">  1       -4 0.11685005E-01 0.12500088E+03</pdfrwt>
<totfact> 0.10400620E+04</totfact>
</mgrwt>
</event>
<event>
 5    1  0.3266594E-002  0.1249972E+03  0.7818608E-02  0.1235074E+00
          4   -1    0    0  501    0  0.00000000000E+00  0.00000000000E+00  0.20079889292E+02  0.20120011282E+02  0.12700000000E+01 0.  1.
         -4   -1    0    0    0  501 -0.00000000000E+00 -0.00000000000E+00 -0.19429029080E+03  0.19429444150E+03  0.12700000000E+01 0.  1.
         25    2    1    2    0    0  0.00000000000E+00  0.00000000000E+00 -0.17421040150E+03  0.21441445278E+03  0.12499717425E+03 0.  0.
    9000005    1    3    3    0    0  0.26031918416E+02  0.34729831902E+02 -0.16422466907E+03  0.16986631194E+03  0.10000000000E+01 0.  0.
    9000005    1    3    3    0    0 -0.26031918416E+02 -0.34729831902E+02 -0.99857324339E+01  0.44548140844E+02  0.10000000000E+01 0.  0.
<mgrwt>
<rscale>  0 0.12499717E+03</rscale>
<asrwt>0</asrwt>
<pdfrwt beam="1">  1        4 0.30926195E-02 0.12499717E+03</pdfrwt>
<pdfrwt beam="2">  1       -4 0.29894218E-01 0.12499717E+03</pdfrwt>
<totfact> 0.87765523E+03</totfact>
</mgrwt>
</event>
<event>
 5    1  0.3266594E-002  0.1250007E+03  0.7818608E-02  0.1235068E+00
          4   -1    0    0  501    0  0.00000000000E+00  0.00000000000E+00  0.58493717041E+02  0.58507502368E+02  0.12700000000E+01 0. -1.
         -4   -1    0    0    0  501 -0.00000000000E+00 -0.00000000000E+00 -0.66753737248E+02  0.66765817126E+02  0.12700000000E+01 0. -1.
         25    2    1    2    0    0  0.00000000000E+00  0.00000000000E+00 -0.82600202066E+01  0.12527331949E+03  0.12500070657E+03 0.  0.
    9000005    1    3    3    0    0  0.32293547286E+01 -0.47585849362E+02 -0.44596932425E+02  0.65304886289E+02  0.10000000000E+01 0.  0.
    9000005    1    3    3    0    0 -0.32293547286E+01  0.47585849362E+02  0.36336912218E+02  0.59968433205E+02  0.10000000000E+01 0.  0.
<mgrwt>
<rscale>  0 0.12500071E+03</rscale>
<asrwt>0</asrwt>
<pdfrwt beam="1">  1        4 0.90010230E-02 0.12500071E+03</pdfrwt>
<pdfrwt beam="2">  1       -4 0.10271795E-01 0.12500071E+03</pdfrwt>
<totfact> 0.10446762E+04</totfact>
</mgrwt>
</event>
<event>
 5    1  0.3266594E-002  0.1249960E+03  0.7818608E-02  0.1235076E+00
         -4   -1    0    0    0  501 -0.00000000000E+00  0.00000000000E+00  0.34466496922E+02  0.34489887070E+02  0.12700000000E+01 0.  1.
          4   -1    0    0  501    0  0.00000000000E+00 -0.00000000000E+00 -0.11326201031E+03  0.11326913030E+03  0.12700000000E+01 0.  1.
         25    2    1    2    0    0  0.00000000000E+00  0.00000000000E+00 -0.78795513387E+02  0.14775901737E+03  0.12499597707E+03 0.  0.
    9000005    1    3    3    0    0  0.50346258190E+02  0.25867282942E+02 -0.70698831917E+02  0.90571446245E+02  0.10000000000E+01 0.  0.
    9000005    1    3    3    0    0 -0.50346258190E+02 -0.25867282942E+02 -0.80966814707E+01  0.57187571127E+02  0.10000000000E+01 0.  0.
<mgrwt>
<rscale>  0 0.12499598E+03</rscale>
<asrwt>0</asrwt>
<pdfrwt beam="2">  1        4 0.17427271E-01 0.12499598E+03</pdfrwt>
<pdfrwt beam="1">  1       -4 0.53048850E-02 0.12499598E+03</pdfrwt>
<totfact> 0.99761328E+03</totfact>
</mgrwt>
</event>
<event>
 5    1  0.3266594E-002  0.1250006E+03  0.7818608E-02  0.1235068E+00
         -4   -1    0    0    0  501 -0.00000000000E+00  0.00000000000E+00  0.17190633744E+03  0.17191102860E+03  0.12700000000E+01 0. -1.
          4   -1    0    0  501    0  0.00000000000E+00 -0.00000000000E+00 -0.22700598728E+02  0.22736096469E+02  0.12700000000E+01 0. -1.
         25    2    1    2    0    0  0.00000000000E+00  0.00000000000E+00  0.14920573871E+03  0.19464712506E+03  0.12500060332E+03 0.  0.
    9000005    1    3    3    0    0  0.49600344934E+02  0.28876333099E+02  0.36104207724E+02  0.67812614212E+02  0.10000000000E+01 0.  0.
    9000005    1    3    3    0    0 -0.49600344934E+02 -0.28876333099E+02  0.11310153099E+03  0.12683451085E+03  0.10000000000E+01 0.  0.
<mgrwt>
<rscale>  0 0.12500060E+03</rscale>
<asrwt>0</asrwt>
<pdfrwt beam="2">  1        4 0.34954911E-02 0.12500060E+03</pdfrwt>
<pdfrwt beam="1">  1       -4 0.26450221E-01 0.12500060E+03</pdfrwt>
<totfact> 0.91043727E+03</totfact>
</mgrwt>
</event>
<event>
 5    1  0.3266594E-002  0.1249970E+03  0.7818608E-02  0.1235074E+00
         -4   -1    0    0    0  501 -0.00000000000E+00  0.00000000000E+00  0.60456541382E+02  0.60469879245E+02  0.12700000000E+01 0. -1.
          4   -1    0    0  501    0  0.00000000000E+00 -0.00000000000E+00 -0.64582717924E+02  0.64595203804E+02  0.12700000000E+01 0. -1.
         25    2    1    2    0    0  0.00000000000E+00  0.00000000000E+00 -0.41261765419E+01  0.12506508305E+03  0.12499699862E+03 0.  0.
    9000005    1    3    3    0    0  0.35300428578E+02 -0.42643864105E+02  0.26943097642E+02  0.61575562638E+02  0.10000000000E+01 0.  0.
    9000005    1    3    3    0    0 -0.35300428578E+02  0.42643864105E+02 -0.31069274184E+02  0.63489520410E+02  0.10000000000E+01 0.  0.
<mgrwt>
<rscale>  0 0.12499700E+03</rscale>
<asrwt>0</asrwt>
<pdfrwt beam="2">  1        4 0.99377891E-02 0.12499700E+03</pdfrwt>
<pdfrwt beam="1">  1       -4 0.93029929E-02 0.12499700E+03</pdfrwt>
<totfact> 0.10452158E+04</totfact>
</mgrwt>
</event>
<event>
 5    1  0.3266594E-002  0.1250012E+03  0.7818608E-02  0.1235067E+00
          4   -1    0    0  501    0  0.00000000000E+00  0.00000000000E+00  0.21657429097E+02  0.21694633785E+02  0.12700000000E+01 0. -1.
         -4   -1    0    0    0  501 -0.00000000000E+00 -0.00000000000E+00 -0.18017455331E+03  0.18017902919E+03  0.12700000000E+01 0. -1.
         25    2    1    2    0    0  0.00000000000E+00  0.00000000000E+00 -0.15851712422E+03  0.20187366298E+03  0.12500118854E+03 0.  0.
    9000005    1    3    3    0    0 -0.62055274161E+02 -0.23589089331E+01 -0.90552159487E+02  0.10980489557E+03  0.10000000000E+01 0.  0.
    9000005    1    3    3    0    0  0.62055274161E+02  0.23589089331E+01 -0.67964964729E+02  0.92068767414E+02  0.10000000000E+01 0.  0.
<mgrwt>
<rscale>  0 0.12500119E+03</rscale>
<asrwt>0</asrwt>
<pdfrwt beam="1">  1        4 0.33351185E-02 0.12500119E+03</pdfrwt>
<pdfrwt beam="2">  1       -4 0.27722367E-01 0.12500119E+03</pdfrwt>
<totfact> 0.89818069E+03</totfact>
</mgrwt>
</event>
<event>
 5    1  0.3266594E-002  0.1250001E+03  0.7818608E-02  0.1235069E+00
         -4   -1    0    0    0  501 -0.00000000000E+00  0.00000000000E+00  0.32753055167E+03  0.32753301388E+03  0.12700000000E+01 0.  1.
          4   -1    0    0  501    0  0.00000000000E+00 -0.00000000000E+00 -0.11890054909E+02  0.11957688144E+02  0.12700000000E+01 0.  1.
         25    2    1    2    0    0  0.00000000000E+00  0.00000000000E+00  0.31564049677E+03  0.33949070202E+03  0.12500005425E+03 0.  0.
    9000005    1    3    3    0    0  0.19619223031E+02  0.48661304937E+02  0.65622038628E+02  0.84024332572E+02  0.10000000000E+01 0.  0.
    9000005    1    3    3    0    0 -0.19619223031E+02 -0.48661304937E+02  0.25001845814E+03  0.25546636945E+03  0.10000000000E+01 0.  0.
<mgrwt>
<rscale>  0 0.12500005E+03</rscale>
<asrwt>0</asrwt>
<pdfrwt beam="2">  1        4 0.18346314E-02 0.12500005E+03</pdfrwt>
<pdfrwt beam="1">  1       -4 0.50394701E-01 0.12500005E+03</pdfrwt>
<totfact> 0.70896311E+03</totfact>
</mgrwt>
</event>
<event>
 5    1  0.3266594E-002  0.1249995E+03  0.7818608E-02  0.1235070E+00
          4   -1    0    0  501    0  0.00000000000E+00  0.00000000000E+00  0.45389563849E+02  0.45407327673E+02  0.12700000000E+01 0. -1.
         -4   -1    0    0    0  501 -0.00000000000E+00 -0.00000000000E+00 -0.86020520712E+02  0.86029895290E+02  0.12700000000E+01 0. -1.
         25    2    1    2    0    0  0.00000000000E+00  0.00000000000E+00 -0.40630956863E+02  0.13143722296E+03  0.12499947570E+03 0.  0.
    9000005    1    3    3    0    0 -0.26970481569E+02 -0.51649520295E+02 -0.44064940051E+02  0.73060240655E+02  0.10000000000E+01 0.  0.
    9000005    1    3    3    0    0  0.26970481569E+02  0.51649520295E+02  0.34339831881E+01  0.58376982308E+02  0.10000000000E+01 0.  0.
<mgrwt>
<rscale>  0 0.12499948E+03</rscale>
<asrwt>0</asrwt>
<pdfrwt beam="1">  1        4 0.69850974E-02 0.12499948E+03</pdfrwt>
<pdfrwt beam="2">  1       -4 0.13236014E-01 0.12499948E+03</pdfrwt>
<totfact> 0.10313847E+04</totfact>
</mgrwt>
</event>
<event>
 5    1  0.3266594E-002  0.1249998E+03  0.7818608E-02  0.1235070E+00
         -4   -1    0    0    0  501 -0.00000000000E+00  0.00000000000E+00  0.36724707377E+03  0.36724926970E+03  0.12700000000E+01 0. -1.
          4   -1    0    0  501    0  0.00000000000E+00 -0.00000000000E+00 -0.10596388035E+02  0.10672222795E+02  0.12700000000E+01 0. -1.
         25    2    1    2    0    0  0.00000000000E+00  0.00000000000E+00  0.35665068574E+03  0.37792149250E+03  0.12499977141E+03 0.  0.
    9000005    1    3    3    0    0 -0.26015536807E+02  0.38496422093E+02  0.30467405774E+03  0.30819809235E+03  0.10000000000E+01 0.  0.
    9000005    1    3    3    0    0  0.26015536807E+02 -0.38496422093E+02  0.51976627996E+02  0.69723400141E+02  0.10000000000E+01 0.  0.
<mgrwt>
<rscale>  0 0.12499977E+03</rscale>
<asrwt>0</asrwt>
<pdfrwt beam="2">  1        4 0.16362161E-02 0.12499977E+03</pdfrwt>
<pdfrwt beam="1">  1       -4 0.56505546E-01 0.12499977E+03</pdfrwt>
<totfact> 0.66758603E+03</totfact>
</mgrwt>
</event>
<event>
 5    1  0.3266594E-002  0.1250029E+03  0.7818608E-02  0.1235065E+00
         -4   -1    0    0    0  501 -0.00000000000E+00  0.00000000000E+00  0.12817477480E+04  0.12817483772E+04  0.12700000000E+01 0. -1.
          4   -1    0    0  501    0  0.00000000000E+00 -0.00000000000E+00 -0.29147758324E+01  0.31794367667E+01  0.12700000000E+01 0. -1.
         25    2    1    2    0    0  0.00000000000E+00  0.00000000000E+00  0.12788329722E+04  0.12849278139E+04  0.12500286537E+03 0.  0.
    9000005    1    3    3    0    0 -0.44923018785E+02 -0.33620005482E+02  0.35658998691E+03  0.36097894834E+03  0.10000000000E+01 0.  0.
    9000005    1    3    3    0    0  0.44923018785E+02  0.33620005482E+02  0.92224298525E+03  0.92394886559E+03  0.10000000000E+01 0.  0.
<mgrwt>
<rscale>  0 0.12500287E+03</rscale>
<asrwt>0</asrwt>
<pdfrwt beam="2">  1        4 0.46883360E-03 0.12500287E+03</pdfrwt>
<pdfrwt beam="1">  1       -4 0.19721253E+00 0.12500287E+03</pdfrwt>
<totfact> 0.22585627E+03</totfact>
</mgrwt>
</event>
<event>
 5    1  0.3266594E-002  0.1249994E+03  0.7818608E-02  0.1235070E+00
          4   -1    0    0  501    0  0.00000000000E+00  0.00000000000E+00  0.12511157130E+03  0.12511801698E+03  0.12700000000E+01 0. -1.
         -4   -1    0    0    0  501 -0.00000000000E+00 -0.00000000000E+00 -0.31201668452E+02  0.31227504130E+02  0.12700000000E+01 0. -1.
         25    2    1    2    0    0  0.00000000000E+00  0.00000000000E+00  0.93909902849E+02  0.15634552111E+03  0.12499940847E+03 0.  0.
    9000005    1    3    3    0    0 -0.13088381573E+02 -0.47328395371E+02 -0.13890565434E+01  0.49134633597E+02  0.10000000000E+01 0.  0.
    9000005    1    3    3    0    0  0.13088381573E+02  0.47328395371E+02  0.95298959393E+02  0.10721088752E+03  0.10000000000E+01 0.  0.
<mgrwt>
<rscale>  0 0.12499941E+03</rscale>
<asrwt>0</asrwt>
<pdfrwt beam="1">  1        4 0.19250417E-01 0.12499941E+03</pdfrwt>
<pdfrwt beam="2">  1       -4 0.48027399E-02 0.12499941E+03</pdfrwt>
<totfact> 0.98053306E+03</totfact>
</mgrwt>
</event>
<event>
 5    1  0.3266594E-002  0.1249991E+03  0.7818608E-02  0.1235071E+00
          4   -1    0    0  501    0  0.00000000000E+00  0.00000000000E+00  0.88392889448E+01  0.89300576174E+01  0.12700000000E+01 0. -1.
         -4   -1    0    0    0  501 -0.00000000000E+00 -0.00000000000E+00 -0.43956345466E+03  0.43956528932E+03  0.12700000000E+01 0. -1.
         25    2    1    2    0    0  0.00000000000E+00  0.00000000000E+00 -0.43072416572E+03  0.44849534694E+03  0.12499907716E+03 0.  0.
    9000005    1    3    3    0    0  0.57544431059E+02 -0.52011886750E+01 -0.12994243328E+03  0.14221269239E+03  0.10000000000E+01 0.  0.
    9000005    1    3    3    0    0 -0.57544431059E+02  0.52011886750E+01 -0.30078173244E+03  0.30628265455E+03  0.10000000000E+01 0.  0.
<mgrwt>
<rscale>  0 0.12499908E+03</rscale>
<asrwt>0</asrwt>
<pdfrwt beam="1">  1        4 0.13670143E-02 0.12499908E+03</pdfrwt>
<pdfrwt beam="2">  1       -4 0.67632253E-01 0.12499908E+03</pdfrwt>
<totfact> 0.60095594E+03</totfact>
</mgrwt>
</event>
<event>
 5    1  0.3266594E-002  0.1250031E+03  0.7818608E-02  0.1235064E+00
          4   -1    0    0  501    0  0.00000000000E+00  0.00000000000E+00  0.90867625686E+01  0.91750833227E+01  0.12700000000E+01 0.  1.
         -4   -1    0    0    0  501 -0.00000000000E+00 -0.00000000000E+00 -0.42773622547E+03  0.42773811086E+03  0.12700000000E+01 0.  1.
         25    2    1    2    0    0  0.00000000000E+00  0.00000000000E+00 -0.41864946290E+03  0.43691319418E+03  0.12500306580E+03 0.  0.
    9000005    1    3    3    0    0  0.19639566147E+02  0.44764383169E+02 -0.73240823737E+02  0.88061233358E+02  0.10000000000E+01 0.  0.
    9000005    1    3    3    0    0 -0.19639566147E+02 -0.44764383169E+02 -0.34540863916E+03  0.34885196082E+03  0.10000000000E+01 0.  0.
<mgrwt>
<rscale>  0 0.12500307E+03</rscale>
<asrwt>0</asrwt>
<pdfrwt beam="1">  1        4 0.14049027E-02 0.12500307E+03</pdfrwt>
<pdfrwt beam="2">  1       -4 0.65812496E-01 0.12500307E+03</pdfrwt>
<totfact> 0.61110190E+03</totfact>
</mgrwt>
</event>
<event>
 5    1  0.3266594E-002  0.1250007E+03  0.7818608E-02  0.1235068E+00
          4   -1    0    0  501    0  0.00000000000E+00  0.00000000000E+00  0.15806489822E+02  0.15857427928E+02  0.12700000000E+01 0. -1.
         -4   -1    0    0    0  501 -0.00000000000E+00 -0.00000000000E+00 -0.24668232688E+03  0.24668559604E+03  0.12700000000E+01 0. -1.
         25    2    1    2    0    0  0.00000000000E+00  0.00000000000E+00 -0.23087583706E+03  0.26254302397E+03  0.12500074919E+03 0.  0.
    9000005    1    3    3    0    0 -0.14837890245E+01 -0.46816586296E+02 -0.28551628769E+02  0.54865197417E+02  0.10000000000E+01 0.  0.
    9000005    1    3    3    0    0  0.14837890245E+01  0.46816586296E+02 -0.20232420829E+03  0.20767782655E+03  0.10000000000E+01 0.  0.
<mgrwt>
<rscale>  0 0.12500075E+03</rscale>
<asrwt>0</asrwt>
<pdfrwt beam="1">  1        4 0.24359376E-02 0.12500075E+03</pdfrwt>
<pdfrwt beam="2">  1       -4 0.37955294E-01 0.12500075E+03</pdfrwt>
<totfact> 0.80549161E+03</totfact>
</mgrwt>
</event>
<event>
 5    1  0.3266594E-002  0.1250000E+03  0.7818608E-02  0.1235069E+00
         -4   -1    0    0    0  501 -0.00000000000E+00  0.00000000000E+00  0.16085856775E+03  0.16086358108E+03  0.12700000000E+01 0.  1.
          4   -1    0    0  501    0  0.00000000000E+00 -0.00000000000E+00 -0.24261766375E+02  0.24294983178E+02  0.12700000000E+01 0.  1.
         25    2    1    2    0    0  0.00000000000E+00  0.00000000000E+00  0.13659680137E+03  0.18515856426E+03  0.12500003109E+03 0.  0.
    9000005    1    3    3    0    0  0.15961408705E+02  0.45301182258E+02  0.12751742373E+03  0.13626685964E+03  0.10000000000E+01 0.  0.
    9000005    1    3    3    0    0 -0.15961408705E+02 -0.45301182258E+02  0.90793776419E+01  0.48891704615E+02  0.10000000000E+01 0.  0.
<mgrwt>
<rscale>  0 0.12500003E+03</rscale>
<asrwt>0</asrwt>
<pdfrwt beam="2">  1        4 0.37355201E-02 0.12500003E+03</pdfrwt>
<pdfrwt beam="1">  1       -4 0.24750413E-01 0.12500003E+03</pdfrwt>
<totfact> 0.92696534E+03</totfact>
</mgrwt>
</event>
<event>
 5    1  0.3266594E-002  0.1249971E+03  0.7818608E-02  0.1235074E+00
          4   -1    0    0  501    0  0.00000000000E+00  0.00000000000E+00  0.27579034323E+03  0.27579326735E+03  0.12700000000E+01 0. -1.
         -4   -1    0    0    0  501 -0.00000000000E+00 -0.00000000000E+00 -0.14131706227E+02  0.14188658178E+02  0.12700000000E+01 0. -1.
         25    2    1    2    0    0  0.00000000000E+00  0.00000000000E+00  0.26165863700E+03  0.28998192553E+03  0.12499709924E+03 0.  0.
    9000005    1    3    3    0    0  0.19263063342E+02 -0.49710624951E+02  0.55196830848E+02  0.76745696804E+02  0.10000000000E+01 0.  0.
    9000005    1    3    3    0    0 -0.19263063342E+02  0.49710624951E+02  0.20646180615E+03  0.21323622872E+03  0.10000000000E+01 0.  0.
<mgrwt>
<rscale>  0 0.12499710E+03</rscale>
<asrwt>0</asrwt>
<pdfrwt beam="1">  1        4 0.42433882E-01 0.12499710E+03</pdfrwt>
<pdfrwt beam="2">  1       -4 0.21787149E-02 0.12499710E+03</pdfrwt>
<totfact> 0.76877878E+03</totfact>
</mgrwt>
</event>
<event>
 5    1  0.3266594E-002  0.1250122E+03  0.7818608E-02  0.1235050E+00
         -4   -1    0    0    0  501 -0.00000000000E+00  0.00000000000E+00  0.11295079898E+02  0.11366253996E+02  0.12700000000E+01 0.  1.
          4   -1    0    0  501    0  0.00000000000E+00 -0.00000000000E+00 -0.34474530927E+03  0.34474764853E+03  0.12700000000E+01 0.  1.
         25    2    1    2    0    0  0.00000000000E+00  0.00000000000E+00 -0.33345022937E+03  0.35611390252E+03  0.12501222381E+03 0.  0.
    9000005    1    3    3    0    0 -0.40123082674E+02 -0.34167175520E+02 -0.71019689563E+02  0.88442376449E+02  0.10000000000E+01 0.  0.
    9000005    1    3    3    0    0  0.40123082674E+02  0.34167175520E+02 -0.26243053981E+03  0.26767152608E+03  0.10000000000E+01 0.  0.
<mgrwt>
<rscale>  0 0.12501222E+03</rscale>
<asrwt>0</asrwt>
<pdfrwt beam="2">  1        4 0.53043387E-01 0.12501222E+03</pdfrwt>
<pdfrwt beam="1">  1       -4 0.17433597E-02 0.12501222E+03</pdfrwt>
<totfact> 0.69038480E+03</totfact>
</mgrwt>
</event>
<event>
 5    1  0.3266594E-002  0.1249582E+03  0.7818608E-02  0.1235135E+00
          4   -1    0    0  501    0  0.00000000000E+00  0.00000000000E+00  0.13950218040E+03  0.13950796119E+03  0.12700000000E+01 0.  1.
         -4   -1    0    0    0  501 -0.00000000000E+00 -0.00000000000E+00 -0.27961837782E+02  0.27990664018E+02  0.12700000000E+01 0.  1.
         25    2    1    2    0    0  0.00000000000E+00  0.00000000000E+00  0.11154034262E+03  0.16749862521E+03  0.12495815866E+03 0.  0.
    9000005    1    3    3    0    0 -0.23821030257E+02 -0.54749716617E+02  0.31138834516E+02  0.67346863083E+02  0.10000000000E+01 0.  0.
    9000005    1    3    3    0    0  0.23821030257E+02  0.54749716617E+02  0.80401508101E+02  0.10015176213E+03  0.10000000000E+01 0.  0.
<mgrwt>
<rscale>  0 0.12495816E+03</rscale>
<asrwt>0</asrwt>
<pdfrwt beam="1">  1        4 0.21464536E-01 0.12495816E+03</pdfrwt>
<pdfrwt beam="2">  1       -4 0.43044832E-02 0.12495816E+03</pdfrwt>
<totfact> 0.96006461E+03</totfact>
</mgrwt>
</event>
<event>
 5    1  0.3266594E-002  0.1250030E+03  0.7818608E-02  0.1235065E+00
         -4   -1    0    0    0  501 -0.00000000000E+00  0.00000000000E+00  0.58931846229E+02  0.58945529092E+02  0.12700000000E+01 0. -1.
          4   -1    0    0  501    0  0.00000000000E+00 -0.00000000000E+00 -0.66259887153E+02  0.66272057050E+02  0.12700000000E+01 0. -1.
         25    2    1    2    0    0  0.00000000000E+00  0.00000000000E+00 -0.73280409244E+01  0.12521758614E+03  0.12500297475E+03 0.  0.
    9000005    1    3    3    0    0 -0.31536270069E+01  0.44213325982E+02  0.40464675127E+02  0.60026273337E+02  0.10000000000E+01 0.  0.
    9000005    1    3    3    0    0  0.31536270069E+01 -0.44213325982E+02 -0.47792716051E+02  0.65191312805E+02  0.10000000000E+01 0.  0.
<mgrwt>
<rscale>  0 0.12500297E+03</rscale>
<asrwt>0</asrwt>
<pdfrwt beam="2">  1        4 0.10195817E-01 0.12500297E+03</pdfrwt>
<pdfrwt beam="1">  1       -4 0.90684266E-02 0.12500297E+03</pdfrwt>
<totfact> 0.10447436E+04</totfact>
</mgrwt>
</event>
<event>
 4    1  0.3266594E-002  0.1244262E+03  0.7818608E-02  0.1235969E+00
         -4   -1    0    0    0  501 -0.00000000000E+00  0.00000000000E+00  0.40608221637E+02  0.40628076062E+02  0.12700000000E+01 0. -1.
          4   -1    0    0  501    0  0.00000000000E+00 -0.00000000000E+00 -0.95265117084E+02  0.95273582031E+02  0.12700000000E+01 0. -1.
    9000005    1    1    2    0    0  0.60691613755E+02 -0.30288009839E+01 -0.41852415909E+02  0.73792075001E+02  0.10000000000E+01 0.  0.
    9000005    1    1    2    0    0 -0.60691613755E+02  0.30288009839E+01 -0.12804479537E+02  0.62109583092E+02  0.10000000000E+01 0.  0.
<mgrwt>
<rscale>  0 0.12442622E+03</rscale>
<asrwt>0</asrwt>
<pdfrwt beam="2">  1        4 0.14658350E-01 0.12442622E+03</pdfrwt>
<pdfrwt beam="1">  1       -4 0.62495971E-02 0.12442622E+03</pdfrwt>
<totfact> 0.10352455E+04</totfact>
</mgrwt>
</event>
<event>
 5    1  0.3266594E-002  0.1249879E+03  0.7818608E-02  0.1235088E+00
          4   -1    0    0  501    0  0.00000000000E+00  0.00000000000E+00  0.30088093816E+03  0.30088361844E+03  0.12700000000E+01 0.  1.
         -4   -1    0    0    0  501 -0.00000000000E+00 -0.00000000000E+00 -0.12946394047E+02  0.13008536382E+02  0.12700000000E+01 0.  1.
         25    2    1    2    0    0  0.00000000000E+00  0.00000000000E+00  0.28793454411E+03  0.31389215482E+03  0.12498793209E+03 0.  0.
    9000005    1    3    3    0    0 -0.56577421830E+01  0.32974834287E+02  0.11430507174E+02  0.35369566538E+02  0.10000000000E+01 0.  0.
    9000005    1    3    3    0    0  0.56577421830E+01 -0.32974834287E+02  0.27650403694E+03  0.27852258828E+03  0.10000000000E+01 0.  0.
<mgrwt>
<rscale>  0 0.12498793E+03</rscale>
<asrwt>0</asrwt>
<pdfrwt beam="1">  1        4 0.46294354E-01 0.12498793E+03</pdfrwt>
<pdfrwt beam="2">  1       -4 0.19967396E-02 0.12498793E+03</pdfrwt>
<totfact> 0.73908290E+03</totfact>
</mgrwt>
</event>
<event>
 5    1  0.3266594E-002  0.1250032E+03  0.7818608E-02  0.1235064E+00
         -4   -1    0    0    0  501 -0.00000000000E+00  0.00000000000E+00  0.98763486313E+02  0.98771651443E+02  0.12700000000E+01 0.  1.
          4   -1    0    0  501    0  0.00000000000E+00 -0.00000000000E+00 -0.39533580250E+02  0.39553974103E+02  0.12700000000E+01 0.  1.
         25    2    1    2    0    0  0.00000000000E+00  0.00000000000E+00  0.59229906063E+02  0.13832562555E+03  0.12500318760E+03 0.  0.
    9000005    1    3    3    0    0 -0.33278337291E+02 -0.52180028449E+02  0.39213900778E+02  0.73273004006E+02  0.10000000000E+01 0.  0.
    9000005    1    3    3    0    0  0.33278337291E+02  0.52180028449E+02  0.20016005285E+02  0.65052621541E+02  0.10000000000E+01 0.  0.
<mgrwt>
<rscale>  0 0.12500319E+03</rscale>
<asrwt>0</asrwt>
<pdfrwt beam="2">  1        4 0.60842862E-02 0.12500319E+03</pdfrwt>
<pdfrwt beam="1">  1       -4 0.15196579E-01 0.12500319E+03</pdfrwt>
<totfact> 0.10167676E+04</totfact>
</mgrwt>
</event>
<event>
 5    1  0.3266594E-002  0.1250002E+03  0.7818608E-02  0.1235069E+00
         -4   -1    0    0    0  501 -0.00000000000E+00  0.00000000000E+00  0.69925737648E+02  0.69937269647E+02  0.12700000000E+01 0.  1.
          4   -1    0    0  501    0  0.00000000000E+00 -0.00000000000E+00 -0.55839677143E+02  0.55854117515E+02  0.12700000000E+01 0.  1.
         25    2    1    2    0    0  0.00000000000E+00  0.00000000000E+00  0.14086060505E+02  0.12579138716E+03  0.12500022393E+03 0.  0.
    9000005    1    3    3    0    0  0.48007265736E+02  0.37750126516E+02 -0.62882458279E+01  0.61402863541E+02  0.10000000000E+01 0.  0.
    9000005    1    3    3    0    0 -0.48007265736E+02 -0.37750126516E+02  0.20374306333E+02  0.64388523621E+02  0.10000000000E+01 0.  0.
<mgrwt>
<rscale>  0 0.12500022E+03</rscale>
<asrwt>0</asrwt>
<pdfrwt beam="2">  1        4 0.85927175E-02 0.12500022E+03</pdfrwt>
<pdfrwt beam="1">  1       -4 0.10759804E-01 0.12500022E+03</pdfrwt>
<totfact> 0.10435482E+04</totfact>
</mgrwt>
</event>
<event>
 5    1  0.3266594E-002  0.1249982E+03  0.7818608E-02  0.1235072E+00
          4   -1    0    0  501    0  0.00000000000E+00  0.00000000000E+00  0.64227509510E+03  0.64227635071E+03  0.12700000000E+01 0. -1.
         -4   -1    0    0    0  501 -0.00000000000E+00 -0.00000000000E+00 -0.60141419909E+01  0.61467718265E+01  0.12700000000E+01 0. -1.
         25    2    1    2    0    0  0.00000000000E+00  0.00000000000E+00  0.63626095311E+03  0.64842312254E+03  0.12499818156E+03 0.  0.
    9000005    1    3    3    0    0  0.11067286066E+02  0.34499321767E+02  0.58225568475E+03  0.58338269639E+03  0.10000000000E+01 0.  0.
    9000005    1    3    3    0    0 -0.11067286066E+02 -0.34499321767E+02  0.54005268359E+02  0.65040426150E+02  0.10000000000E+01 0.  0.
<mgrwt>
<rscale>  0 0.12499818E+03</rscale>
<asrwt>0</asrwt>
<pdfrwt beam="1">  1        4 0.98821745E-01 0.12499818E+03</pdfrwt>
<pdfrwt beam="2">  1       -4 0.93555251E-03 0.12499818E+03</pdfrwt>
<totfact> 0.45948740E+03</totfact>
</mgrwt>
</event>
<event>
 5    1  0.3266594E-002  0.1250063E+03  0.7818608E-02  0.1235059E+00
         -4   -1    0    0    0  501 -0.00000000000E+00  0.00000000000E+00  0.78756189069E+02  0.78766428233E+02  0.12700000000E+01 0. -1.
          4   -1    0    0  501    0  0.00000000000E+00 -0.00000000000E+00 -0.49582715558E+02  0.49598977632E+02  0.12700000000E+01 0. -1.
         25    2    1    2    0    0  0.00000000000E+00  0.00000000000E+00  0.29173473511E+02  0.12836540586E+03  0.12500634330E+03 0.  0.
    9000005    1    3    3    0    0 -0.17295617728E+02 -0.58882109944E+02  0.24624712632E+01  0.61427233608E+02  0.10000000000E+01 0.  0.
    9000005    1    3    3    0    0  0.17295617728E+02  0.58882109944E+02  0.26711002248E+02  0.66938172257E+02  0.10000000000E+01 0.  0.
<mgrwt>
<rscale>  0 0.12500634E+03</rscale>
<asrwt>0</asrwt>
<pdfrwt beam="2">  1        4 0.76301487E-02 0.12500634E+03</pdfrwt>
<pdfrwt beam="1">  1       -4 0.12118375E-01 0.12500634E+03</pdfrwt>
<totfact> 0.10378118E+04</totfact>
</mgrwt>
</event>
<event>
 5    1  0.3266594E-002  0.1250008E+03  0.7818608E-02  0.1235068E+00
         -4   -1    0    0    0  501 -0.00000000000E+00  0.00000000000E+00  0.49183943550E+03  0.49184107516E+03  0.12700000000E+01 0. -1.
          4   -1    0    0  501    0  0.00000000000E+00 -0.00000000000E+00 -0.78897929384E+01  0.79913536157E+01  0.12700000000E+01 0. -1.
         25    2    1    2    0    0  0.00000000000E+00  0.00000000000E+00  0.48394964256E+03  0.49983242877E+03  0.12500080127E+03 0.  0.
    9000005    1    3    3    0    0 -0.90551583862E+01 -0.61791006206E+02  0.23287782983E+03  0.24110829096E+03  0.10000000000E+01 0.  0.
    9000005    1    3    3    0    0  0.90551583862E+01  0.61791006206E+02  0.25107181273E+03  0.25872413782E+03  0.10000000000E+01 0.  0.
<mgrwt>
<rscale>  0 0.12500080E+03</rscale>
<asrwt>0</asrwt>
<pdfrwt beam="2">  1        4 0.12217526E-02 0.12500080E+03</pdfrwt>
<pdfrwt beam="1">  1       -4 0.75675554E-01 0.12500080E+03</pdfrwt>
<totfact> 0.55876379E+03</totfact>
</mgrwt>
</event>
<event>
 5    1  0.3266594E-002  0.1250009E+03  0.7818608E-02  0.1235068E+00
          4   -1    0    0  501    0  0.00000000000E+00  0.00000000000E+00  0.19999705348E+03  0.20000108575E+03  0.12700000000E+01 0. -1.
         -4   -1    0    0    0  501 -0.00000000000E+00 -0.00000000000E+00 -0.19506940426E+02  0.19548238406E+02  0.12700000000E+01 0. -1.
         25    2    1    2    0    0  0.00000000000E+00  0.00000000000E+00  0.18049011305E+03  0.21954932415E+03  0.12500089930E+03 0.  0.
    9000005    1    3    3    0    0  0.35852824150E+02  0.49700956642E+02  0.68755659336E+02  0.92108364340E+02  0.10000000000E+01 0.  0.
    9000005    1    3    3    0    0 -0.35852824150E+02 -0.49700956642E+02  0.11173445372E+03  0.12744095981E+03  0.10000000000E+01 0.  0.
<mgrwt>
<rscale>  0 0.12500090E+03</rscale>
<asrwt>0</asrwt>
<pdfrwt beam="1">  1        4 0.30772264E-01 0.12500090E+03</pdfrwt>
<pdfrwt beam="2">  1       -4 0.30045547E-02 0.12500090E+03</pdfrwt>
<totfact> 0.86937966E+03</totfact>
</mgrwt>
</event>
<event>
 5    1  0.3266594E-002  0.1249999E+03  0.7818608E-02  0.1235069E+00
         -4   -1    0    0    0  501 -0.00000000000E+00  0.00000000000E+00  0.69241228860E+03  0.69241345329E+03  0.12700000000E+01 0. -1.
          4   -1    0    0  501    0  0.00000000000E+00 -0.00000000000E+00 -0.55688442519E+01  0.57118233781E+01  0.12700000000E+01 0. -1.
         25    2    1    2    0    0  0.00000000000E+00  0.00000000000E+00  0.68684344435E+03  0.69812527667E+03  0.12499993955E+03 0.  0.
    9000005    1    3    3    0    0 -0.37970954315E+02 -0.39108852593E+02  0.17274060029E+03  0.18113975464E+03  0.10000000000E+01 0.  0.
    9000005    1    3    3    0    0  0.37970954315E+02  0.39108852593E+02  0.51410284406E+03  0.51698552204E+03  0.10000000000E+01 0.  0.
<mgrwt>
<rscale>  0 0.12499994E+03</rscale>
<asrwt>0</asrwt>
<pdfrwt beam="2">  1        4 0.86783307E-03 0.12499994E+03</pdfrwt>
<pdfrwt beam="1">  1       -4 0.10653608E+00 0.12499994E+03</pdfrwt>
<totfact> 0.43185886E+03</totfact>
</mgrwt>
</event>
<event>
 5    1  0.3266594E-002  0.1249990E+03  0.7818608E-02  0.1235071E+00
          4   -1    0    0  501    0  0.00000000000E+00  0.00000000000E+00  0.11559002455E+03  0.11559700116E+03  0.12700000000E+01 0.  1.
         -4   -1    0    0    0  501 -0.00000000000E+00 -0.00000000000E+00 -0.33773510037E+02  0.33797379783E+02  0.12700000000E+01 0.  1.
         25    2    1    2    0    0  0.00000000000E+00  0.00000000000E+00  0.81816514517E+02  0.14939438094E+03  0.12499895603E+03 0.  0.
    9000005    1    3    3    0    0 -0.53362651231E+02  0.32305581808E+02  0.36442497930E+02  0.72251496993E+02  0.10000000000E+01 0.  0.
    9000005    1    3    3    0    0  0.53362651231E+02 -0.32305581808E+02  0.45374016587E+02  0.77142883947E+02  0.10000000000E+01 0.  0.
<mgrwt>
<rscale>  0 0.12499896E+03</rscale>
<asrwt>0</asrwt>
<pdfrwt beam="1">  1        4 0.17785454E-01 0.12499896E+03</pdfrwt>
<pdfrwt beam="2">  1       -4 0.51982973E-02 0.12499896E+03</pdfrwt>
<totfact> 0.99426892E+03</totfact>
</mgrwt>
</event>
<event>
 5    1  0.3266594E-002  0.1250017E+03  0.7818608E-02  0.1235067E+00
         -4   -1    0    0    0  501 -0.00000000000E+00  0.00000000000E+00  0.27756866900E+03  0.27757157439E+03  0.12700000000E+01 0.  1.
          4   -1    0    0  501    0  0.00000000000E+00 -0.00000000000E+00 -0.14041837255E+02  0.14099152226E+02  0.12700000000E+01 0.  1.
         25    2    1    2    0    0  0.00000000000E+00  0.00000000000E+00  0.26352683175E+03  0.29167072662E+03  0.12500168685E+03 0.  0.
    9000005    1    3    3    0    0  0.40885388248E+02 -0.32365727087E+02  0.51400449285E+02  0.73226780954E+02  0.10000000000E+01 0.  0.
    9000005    1    3    3    0    0 -0.40885388248E+02  0.32365727087E+02  0.21212638246E+03  0.21844394567E+03  0.10000000000E+01 0.  0.
<mgrwt>
<rscale>  0 0.12500169E+03</rscale>
<asrwt>0</asrwt>
<pdfrwt beam="2">  1        4 0.21649152E-02 0.12500169E+03</pdfrwt>
<pdfrwt beam="1">  1       -4 0.42707500E-01 0.12500169E+03</pdfrwt>
<totfact> 0.76652799E+03</totfact>
</mgrwt>
</event>
<event>
 5    1  0.3266594E-002  0.1249927E+03  0.7818608E-02  0.1235081E+00
          4   -1    0    0  501    0  0.00000000000E+00  0.00000000000E+00  0.16531511683E+02  0.16580222511E+02  0.12700000000E+01 0.  1.
         -4   -1    0    0    0  501 -0.00000000000E+00 -0.00000000000E+00 -0.23586540617E+03  0.23586882526E+03  0.12700000000E+01 0.  1.
         25    2    1    2    0    0  0.00000000000E+00  0.00000000000E+00 -0.21933389449E+03  0.25244904777E+03  0.12499265758E+03 0.  0.
    9000005    1    3    3    0    0  0.16212889824E+02  0.56930422179E+02 -0.69229308944E+02  0.91091316726E+02  0.10000000000E+01 0.  0.
    9000005    1    3    3    0    0 -0.16212889824E+02 -0.56930422179E+02 -0.15010458555E+03  0.16135773105E+03  0.10000000000E+01 0.  0.
<mgrwt>
<rscale>  0 0.12499266E+03</rscale>
<asrwt>0</asrwt>
<pdfrwt beam="1">  1        4 0.25473197E-02 0.12499266E+03</pdfrwt>
<pdfrwt beam="2">  1       -4 0.36290993E-01 0.12499266E+03</pdfrwt>
<totfact> 0.81990956E+03</totfact>
</mgrwt>
</event>
<event>
 5    1  0.3266594E-002  0.1250007E+03  0.7818608E-02  0.1235068E+00
          4   -1    0    0  501    0  0.00000000000E+00  0.00000000000E+00  0.32230697121E+03  0.32230947332E+03  0.12700000000E+01 0. -1.
         -4   -1    0    0    0  501 -0.00000000000E+00 -0.00000000000E+00 -0.12083972243E+02  0.12150526128E+02  0.12700000000E+01 0. -1.
         25    2    1    2    0    0  0.00000000000E+00  0.00000000000E+00  0.31022299897E+03  0.33445999945E+03  0.12500072856E+03 0.  0.
    9000005    1    3    3    0    0 -0.59676447430E+02  0.36739595560E+01  0.20375557712E+03  0.21234903241E+03  0.10000000000E+01 0.  0.
    9000005    1    3    3    0    0  0.59676447430E+02 -0.36739595560E+01  0.10646742185E+03  0.12211096704E+03  0.10000000000E+01 0.  0.
<mgrwt>
<rscale>  0 0.12500073E+03</rscale>
<asrwt>0</asrwt>
<pdfrwt beam="1">  1        4 0.49591004E-01 0.12500073E+03</pdfrwt>
<pdfrwt beam="2">  1       -4 0.18643845E-02 0.12500073E+03</pdfrwt>
<totfact> 0.71467517E+03</totfact>
</mgrwt>
</event>
<event>
 5    1  0.3266594E-002  0.1250002E+03  0.7818608E-02  0.1235069E+00
          4   -1    0    0  501    0  0.00000000000E+00  0.00000000000E+00  0.30889769628E+03  0.30890030701E+03  0.12700000000E+01 0. -1.
         -4   -1    0    0    0  501 -0.00000000000E+00 -0.00000000000E+00 -0.12611259342E+02  0.12675044860E+02  0.12700000000E+01 0. -1.
         25    2    1    2    0    0  0.00000000000E+00  0.00000000000E+00  0.29628643694E+03  0.32157535187E+03  0.12500021685E+03 0.  0.
    9000005    1    3    3    0    0  0.54060424564E+02  0.30654318098E+02  0.16502205784E+03  0.17633915134E+03  0.10000000000E+01 0.  0.
    9000005    1    3    3    0    0 -0.54060424564E+02 -0.30654318098E+02  0.13126437910E+03  0.14523620052E+03  0.10000000000E+01 0.  0.
<mgrwt>
<rscale>  0 0.12500022E+03</rscale>
<asrwt>0</asrwt>
<pdfrwt beam="1">  1        4 0.47527829E-01 0.12500022E+03</pdfrwt>
<pdfrwt beam="2">  1       -4 0.19453012E-02 0.12500022E+03</pdfrwt>
<totfact> 0.72968797E+03</totfact>
</mgrwt>
</event>
<event>
 5    1  0.3266594E-002  0.1249972E+03  0.7818608E-02  0.1235074E+00
         -4   -1    0    0    0  501 -0.00000000000E+00  0.00000000000E+00  0.38627017116E+02  0.38647889351E+02  0.12700000000E+01 0.  1.
          4   -1    0    0  501    0  0.00000000000E+00 -0.00000000000E+00 -0.10107065895E+03  0.10107863770E+03  0.12700000000E+01 0.  1.
         25    2    1    2    0    0  0.00000000000E+00  0.00000000000E+00 -0.62443641830E+02  0.13972652705E+03  0.12499717580E+03 0.  0.
    9000005    1    3    3    0    0  0.87110591412E+01  0.50570574966E+02  0.86429635875E+01  0.52047732163E+02  0.10000000000E+01 0.  0.
    9000005    1    3    3    0    0 -0.87110591412E+01 -0.50570574966E+02 -0.71086605418E+02  0.87678794891E+02  0.10000000000E+01 0.  0.
<mgrwt>
<rscale>  0 0.12499718E+03</rscale>
<asrwt>0</asrwt>
<pdfrwt beam="2">  1        4 0.15551551E-01 0.12499718E+03</pdfrwt>
<pdfrwt beam="1">  1       -4 0.59448374E-02 0.12499718E+03</pdfrwt>
<totfact> 0.10139902E+04</totfact>
</mgrwt>
</event>
<event>
 5    1  0.3266594E-002  0.1250008E+03  0.7818608E-02  0.1235068E+00
          4   -1    0    0  501    0  0.00000000000E+00  0.00000000000E+00  0.29381451313E+03  0.29381725788E+03  0.12700000000E+01 0. -1.
         -4   -1    0    0    0  501 -0.00000000000E+00 -0.00000000000E+00 -0.13261990255E+02  0.13322660602E+02  0.12700000000E+01 0. -1.
         25    2    1    2    0    0  0.00000000000E+00  0.00000000000E+00  0.28055252288E+03  0.30713991848E+03  0.12500084572E+03 0.  0.
    9000005    1    3    3    0    0  0.36845137075E+02 -0.46198402329E+01  0.26377826676E+03  0.26638108241E+03  0.10000000000E+01 0.  0.
    9000005    1    3    3    0    0 -0.36845137075E+02  0.46198402329E+01  0.16774256119E+02  0.40758836075E+02  0.10000000000E+01 0.  0.
<mgrwt>
<rscale>  0 0.12500085E+03</rscale>
<asrwt>0</asrwt>
<pdfrwt beam="1">  1        4 0.45207112E-01 0.12500085E+03</pdfrwt>
<pdfrwt beam="2">  1       -4 0.20451842E-02 0.12500085E+03</pdfrwt>
<totfact> 0.74710457E+03</totfact>
</mgrwt>
</event>
<event>
 5    1  0.3266594E-002  0.1250089E+03  0.7818608E-02  0.1235055E+00
          4   -1    0    0  501    0  0.00000000000E+00  0.00000000000E+00  0.24593625767E+02  0.24626394953E+02  0.12700000000E+01 0. -1.
         -4   -1    0    0    0  501 -0.00000000000E+00 -0.00000000000E+00 -0.15871332784E+03  0.15871840894E+03  0.12700000000E+01 0. -1.
         25    2    1    2    0    0  0.00000000000E+00  0.00000000000E+00 -0.13411970208E+03  0.18334480389E+03  0.12500889020E+03 0.  0.
    9000005    1    3    3    0    0  0.40487886208E+02 -0.14920102148E+02 -0.13336701098E+03  0.14017716646E+03  0.10000000000E+01 0.  0.
    9000005    1    3    3    0    0 -0.40487886208E+02  0.14920102148E+02 -0.75269109541E+00  0.43167637433E+02  0.10000000000E+01 0.  0.
<mgrwt>
<rscale>  0 0.12500889E+03</rscale>
<asrwt>0</asrwt>
<pdfrwt beam="1">  1        4 0.37865464E-02 0.12500889E+03</pdfrwt>
<pdfrwt beam="2">  1       -4 0.24420346E-01 0.12500889E+03</pdfrwt>
<totfact> 0.92999836E+03</totfact>
</mgrwt>
</event>
<event>
 5    1  0.3266594E-002  0.1250009E+03  0.7818608E-02  0.1235068E+00
          4   -1    0    0  501    0  0.00000000000E+00  0.00000000000E+00  0.19030478995E+03  0.19030902758E+03  0.12700000000E+01 0. -1.
         -4   -1    0    0    0  501 -0.00000000000E+00 -0.00000000000E+00 -0.20502470938E+02  0.20541767562E+02  0.12700000000E+01 0. -1.
         25    2    1    2    0    0  0.00000000000E+00  0.00000000000E+00  0.16980231901E+03  0.21085079514E+03  0.12500092107E+03 0.  0.
    9000005    1    3    3    0    0 -0.40409852925E+02 -0.46879805772E+02  0.99473649902E+02  0.11716091254E+03  0.10000000000E+01 0.  0.
    9000005    1    3    3    0    0  0.40409852925E+02  0.46879805772E+02  0.70328669108E+02  0.93689882598E+02  0.10000000000E+01 0.  0.
<mgrwt>
<rscale>  0 0.12500092E+03</rscale>
<asrwt>0</asrwt>
<pdfrwt beam="1">  1        4 0.29281009E-01 0.12500092E+03</pdfrwt>
<pdfrwt beam="2">  1       -4 0.31575751E-02 0.12500092E+03</pdfrwt>
<totfact> 0.88335304E+03</totfact>
</mgrwt>
</event>
<event>
 5    1  0.3266594E-002  0.1250194E+03  0.7818608E-02  0.1235039E+00
         -4   -1    0    0    0  501 -0.00000000000E+00  0.00000000000E+00  0.61632569090E+03  0.61632699937E+03  0.12700000000E+01 0. -1.
          4   -1    0    0  501    0  0.00000000000E+00 -0.00000000000E+00 -0.62749995933E+01  0.64022277291E+01  0.12700000000E+01 0. -1.
         25    2    1    2    0    0  0.00000000000E+00  0.00000000000E+00  0.61005069130E+03  0.62272922710E+03  0.12501937582E+03 0.  0.
    9000005    1    3    3    0    0 -0.27020768881E+02  0.52474658831E+02  0.20261039079E+03  0.21103478914E+03  0.10000000000E+01 0.  0.
    9000005    1    3    3    0    0  0.27020768881E+02 -0.52474658831E+02  0.40744030051E+03  0.41169443796E+03  0.10000000000E+01 0.  0.
<mgrwt>
<rscale>  0 0.12501938E+03</rscale>
<asrwt>0</asrwt>
<pdfrwt beam="2">  1        4 0.97527177E-03 0.12501938E+03</pdfrwt>
<pdfrwt beam="1">  1       -4 0.94829246E-01 0.12501938E+03</pdfrwt>
<totfact> 0.47443446E+03</totfact>
</mgrwt>
</event>
<event>
 5    1  0.3266594E-002  0.1250004E+03  0.7818608E-02  0.1235069E+00
         -4   -1    0    0    0  501 -0.00000000000E+00  0.00000000000E+00  0.18872287449E+03  0.18872714764E+03  0.12700000000E+01 0.  1.
          4   -1    0    0  501    0  0.00000000000E+00 -0.00000000000E+00 -0.20674464913E+02  0.20713435240E+02  0.12700000000E+01 0.  1.
         25    2    1    2    0    0  0.00000000000E+00  0.00000000000E+00  0.16804840958E+03  0.20944058288E+03  0.12500035918E+03 0.  0.
    9000005    1    3    3    0    0 -0.26993107119E+02  0.13813186588E+02  0.17557937591E+03  0.17818122573E+03  0.10000000000E+01 0.  0.
    9000005    1    3    3    0    0  0.26993107119E+02 -0.13813186588E+02 -0.75309663358E+01  0.31259357152E+02  0.10000000000E+01 0.  0.
<mgrwt>
<rscale>  0 0.12500036E+03</rscale>
<asrwt>0</asrwt>
<pdfrwt beam="2">  1        4 0.31840134E-02 0.12500036E+03</pdfrwt>
<pdfrwt beam="1">  1       -4 0.29037614E-01 0.12500036E+03</pdfrwt>
<totfact> 0.88566612E+03</totfact>
</mgrwt>
</event>
<event>
 5    1  0.3266594E-002  0.1250009E+03  0.7818608E-02  0.1235068E+00
         -4   -1    0    0    0  501 -0.00000000000E+00  0.00000000000E+00  0.24243811637E+03  0.24244144277E+03  0.12700000000E+01 0.  1.
          4   -1    0    0  501    0  0.00000000000E+00 -0.00000000000E+00 -0.16084127298E+02  0.16134188884E+02  0.12700000000E+01 0.  1.
         25    2    1    2    0    0  0.00000000000E+00  0.00000000000E+00  0.22635398908E+03  0.25857563165E+03  0.12500091565E+03 0.  0.
    9000005    1    3    3    0    0 -0.60817465802E+02  0.14353050003E+02  0.11166672952E+03  0.12796574804E+03  0.10000000000E+01 0.  0.
    9000005    1    3    3    0    0  0.60817465802E+02 -0.14353050003E+02  0.11468725956E+03  0.13060988361E+03  0.10000000000E+01 0.  0.
<mgrwt>
<rscale>  0 0.12500092E+03</rscale>
<asrwt>0</asrwt>
<pdfrwt beam="2">  1        4 0.24785881E-02 0.12500092E+03</pdfrwt>
<pdfrwt beam="1">  1       -4 0.37302276E-01 0.12500092E+03</pdfrwt>
<totfact> 0.81104715E+03</totfact>
</mgrwt>
</event>
<event>
 5    1  0.3266594E-002  0.1249985E+03  0.7818608E-02  0.1235072E+00
          4   -1    0    0  501    0  0.00000000000E+00  0.00000000000E+00  0.38279359419E+02  0.38300421114E+02  0.12700000000E+01 0. -1.
         -4   -1    0    0    0  501 -0.00000000000E+00 -0.00000000000E+00 -0.10199034082E+03  0.10199824763E+03  0.12700000000E+01 0. -1.
         25    2    1    2    0    0  0.00000000000E+00  0.00000000000E+00 -0.63710981401E+02  0.14029866875E+03  0.12499850920E+03 0.  0.
    9000005    1    3    3    0    0 -0.57753059740E+02  0.23702456691E+02 -0.35017094780E+02  0.71585049342E+02  0.10000000000E+01 0.  0.
    9000005    1    3    3    0    0  0.57753059740E+02 -0.23702456691E+02 -0.28693886621E+02  0.68713619406E+02  0.10000000000E+01 0.  0.
<mgrwt>
<rscale>  0 0.12499851E+03</rscale>
<asrwt>0</asrwt>
<pdfrwt beam="1">  1        4 0.58913606E-02 0.12499851E+03</pdfrwt>
<pdfrwt beam="2">  1       -4 0.15693050E-01 0.12499851E+03</pdfrwt>
<totfact> 0.10127740E+04</totfact>
</mgrwt>
</event>
<event>
 5    1  0.3266594E-002  0.1250020E+03  0.7818608E-02  0.1235066E+00
         -4   -1    0    0    0  501 -0.00000000000E+00  0.00000000000E+00  0.12869420389E+02  0.12931932614E+02  0.12700000000E+01 0. -1.
          4   -1    0    0  501    0  0.00000000000E+00 -0.00000000000E+00 -0.30273991963E+03  0.30274258346E+03  0.12700000000E+01 0. -1.
         25    2    1    2    0    0  0.00000000000E+00  0.00000000000E+00 -0.28987049925E+03  0.31567451608E+03  0.12500197505E+03 0.  0.
    9000005    1    3    3    0    0 -0.25101740476E+02 -0.13669852818E+02 -0.45924269557E+01  0.28966405306E+02  0.10000000000E+01 0.  0.
    9000005    1    3    3    0    0  0.25101740476E+02  0.13669852818E+02 -0.28527807229E+03  0.28670811077E+03  0.10000000000E+01 0.  0.
<mgrwt>
<rscale>  0 0.12500198E+03</rscale>
<asrwt>0</asrwt>
<pdfrwt beam="2">  1        4 0.46580381E-01 0.12500198E+03</pdfrwt>
<pdfrwt beam="1">  1       -4 0.19849246E-02 0.12500198E+03</pdfrwt>
<totfact> 0.73670330E+03</totfact>
</mgrwt>
</event>
<event>
 5    1  0.3266594E-002  0.1249823E+03  0.7818608E-02  0.1235097E+00
          4   -1    0    0  501    0  0.00000000000E+00  0.00000000000E+00  0.83048808785E+01  0.84014252604E+01  0.12700000000E+01 0. -1.
         -4   -1    0    0    0  501 -0.00000000000E+00 -0.00000000000E+00 -0.46740803008E+03  0.46740975545E+03  0.12700000000E+01 0. -1.
         25    2    1    2    0    0  0.00000000000E+00  0.00000000000E+00 -0.45910314921E+03  0.47581118071E+03  0.12498231105E+03 0.  0.
    9000005    1    3    3    0    0 -0.58509516991E+02 -0.63193051757E+01 -0.14961782315E+03  0.16077869947E+03  0.10000000000E+01 0.  0.
    9000005    1    3    3    0    0  0.58509516991E+02  0.63193051757E+01 -0.30948532605E+03  0.31503248124E+03  0.10000000000E+01 0.  0.
<mgrwt>
<rscale>  0 0.12498231E+03</rscale>
<asrwt>0</asrwt>
<pdfrwt beam="1">  1        4 0.12852336E-02 0.12498231E+03</pdfrwt>
<pdfrwt beam="2">  1       -4 0.71916466E-01 0.12498231E+03</pdfrwt>
<totfact> 0.57813720E+03</totfact>
</mgrwt>
</event>
<event>
 5    1  0.3266594E-002  0.1250007E+03  0.7818608E-02  0.1235068E+00
          4   -1    0    0  501    0  0.00000000000E+00  0.00000000000E+00  0.28654849046E+03  0.28655130481E+03  0.12700000000E+01 0. -1.
         -4   -1    0    0    0  501 -0.00000000000E+00 -0.00000000000E+00 -0.13599756143E+02  0.13658926281E+02  0.12700000000E+01 0. -1.
         25    2    1    2    0    0  0.00000000000E+00  0.00000000000E+00  0.27294873432E+03  0.30021023109E+03  0.12500068513E+03 0.  0.
    9000005    1    3    3    0    0 -0.53794241514E+02  0.16569650165E+02  0.20167067478E+03  0.20938107554E+03  0.10000000000E+01 0.  0.
    9000005    1    3    3    0    0  0.53794241514E+02 -0.16569650165E+02  0.71278059542E+02  0.90829155555E+02  0.10000000000E+01 0.  0.
<mgrwt>
<rscale>  0 0.12500069E+03</rscale>
<asrwt>0</asrwt>
<pdfrwt beam="1">  1        4 0.44089143E-01 0.12500069E+03</pdfrwt>
<pdfrwt beam="2">  1       -4 0.20970386E-02 0.12500069E+03</pdfrwt>
<totfact> 0.75571331E+03</totfact>
</mgrwt>
</event>
<event>
 5    1  0.3266594E-002  0.1250041E+03  0.7818608E-02  0.1235063E+00
          4   -1    0    0  501    0  0.00000000000E+00  0.00000000000E+00  0.88001136883E+02  0.88010300492E+02  0.12700000000E+01 0. -1.
         -4   -1    0    0    0  501 -0.00000000000E+00 -0.00000000000E+00 -0.44370953396E+02  0.44389124854E+02  0.12700000000E+01 0. -1.
         25    2    1    2    0    0  0.00000000000E+00  0.00000000000E+00  0.43630183487E+02  0.13239942535E+03  0.12500405962E+03 0.  0.
    9000005    1    3    3    0    0 -0.33502739325E+02  0.38839450734E+02 -0.15998102108E+02  0.53738959300E+02  0.10000000000E+01 0.  0.
    9000005    1    3    3    0    0  0.33502739325E+02 -0.38839450734E+02  0.59628285594E+02  0.78660466046E+02  0.10000000000E+01 0.  0.
<mgrwt>
<rscale>  0 0.12500406E+03</rscale>
<asrwt>0</asrwt>
<pdfrwt beam="1">  1        4 0.13540739E-01 0.12500406E+03</pdfrwt>
<pdfrwt beam="2">  1       -4 0.68284032E-02 0.12500406E+03</pdfrwt>
<totfact> 0.10292238E+04</totfact>
</mgrwt>
</event>
<event>
 5    1  0.3266594E-002  0.1249894E+03  0.7818608E-02  0.1235086E+00
         -4   -1    0    0    0  501 -0.00000000000E+00  0.00000000000E+00  0.35807056196E+02  0.35829571215E+02  0.12700000000E+01 0. -1.
          4   -1    0    0  501    0  0.00000000000E+00 -0.00000000000E+00 -0.10901271545E+03  0.10902011296E+03  0.12700000000E+01 0. -1.
         25    2    1    2    0    0  0.00000000000E+00  0.00000000000E+00 -0.73205659251E+02  0.14484968417E+03  0.12498944939E+03 0.  0.
    9000005    1    3    3    0    0 -0.60667669254E+02  0.83732168012E+01 -0.22225344569E+02  0.65158597234E+02  0.10000000000E+01 0.  0.
    9000005    1    3    3    0    0  0.60667669254E+02 -0.83732168012E+01 -0.50980314682E+02  0.79691086938E+02  0.10000000000E+01 0.  0.
<mgrwt>
<rscale>  0 0.12498945E+03</rscale>
<asrwt>0</asrwt>
<pdfrwt beam="2">  1        4 0.16773488E-01 0.12498945E+03</pdfrwt>
<pdfrwt beam="1">  1       -4 0.55110789E-02 0.12498945E+03</pdfrwt>
<totfact> 0.10036428E+04</totfact>
</mgrwt>
</event>
<event>
 5    1  0.3266594E-002  0.1250018E+03  0.7818608E-02  0.1235066E+00
         -4   -1    0    0    0  501 -0.00000000000E+00  0.00000000000E+00  0.30243735341E+02  0.30270388622E+02  0.12700000000E+01 0.  1.
          4   -1    0    0  501    0  0.00000000000E+00 -0.00000000000E+00 -0.12907609766E+03  0.12908234538E+03  0.12700000000E+01 0.  1.
         25    2    1    2    0    0  0.00000000000E+00  0.00000000000E+00 -0.98832362322E+02  0.15935273400E+03  0.12500183195E+03 0.  0.
    9000005    1    3    3    0    0  0.10569838380E+02  0.51468859360E+02 -0.92545234224E+02  0.10642549199E+03  0.10000000000E+01 0.  0.
    9000005    1    3    3    0    0 -0.10569838380E+02 -0.51468859360E+02 -0.62871280977E+01  0.52927242011E+02  0.10000000000E+01 0.  0.
<mgrwt>
<rscale>  0 0.12500183E+03</rscale>
<asrwt>0</asrwt>
<pdfrwt beam="2">  1        4 0.19860392E-01 0.12500183E+03</pdfrwt>
<pdfrwt beam="1">  1       -4 0.46554133E-02 0.12500183E+03</pdfrwt>
<totfact> 0.97463704E+03</totfact>
</mgrwt>
</event>
<event>
 5    1  0.3266594E-002  0.1250000E+03  0.7818608E-02  0.1235069E+00
          4   -1    0    0  501    0  0.00000000000E+00  0.00000000000E+00  0.85153275141E+01  0.86095123365E+01  0.12700000000E+01 0. -1.
         -4   -1    0    0    0  501 -0.00000000000E+00 -0.00000000000E+00 -0.45611332747E+03  0.45611509556E+03  0.12700000000E+01 0. -1.
         25    2    1    2    0    0  0.00000000000E+00  0.00000000000E+00 -0.44759799996E+03  0.46472460790E+03  0.12499996647E+03 0.  0.
    9000005    1    3    3    0    0  0.32256305527E+02  0.49842975222E+02 -0.29631573888E+03  0.30220656600E+03  0.10000000000E+01 0.  0.
    9000005    1    3    3    0    0 -0.32256305527E+02 -0.49842975222E+02 -0.15128226108E+03  0.16251804190E+03  0.10000000000E+01 0.  0.
<mgrwt>
<rscale>  0 0.12499997E+03</rscale>
<asrwt>0</asrwt>
<pdfrwt beam="1">  1        4 0.13174317E-02 0.12499997E+03</pdfrwt>
<pdfrwt beam="2">  1       -4 0.70178643E-01 0.12499997E+03</pdfrwt>
<totfact> 0.58709146E+03</totfact>
</mgrwt>
</event>
<event>
 5    1  0.3266594E-002  0.1250100E+03  0.7818608E-02  0.1235054E+00
          4   -1    0    0  501    0  0.00000000000E+00  0.00000000000E+00  0.10518747276E+02  0.10595137765E+02  0.12700000000E+01 0.  1.
         -4   -1    0    0    0  501 -0.00000000000E+00 -0.00000000000E+00 -0.36999886217E+03  0.37000104176E+03  0.12700000000E+01 0.  1.
         25    2    1    2    0    0  0.00000000000E+00  0.00000000000E+00 -0.35948011489E+03  0.38059617953E+03  0.12500999507E+03 0.  0.
    9000005    1    3    3    0    0  0.36014873176E+02  0.29927621696E+01 -0.33497646430E+03  0.33692174069E+03  0.10000000000E+01 0.  0.
    9000005    1    3    3    0    0 -0.36014873176E+02 -0.29927621696E+01 -0.24503650589E+02  0.43674438834E+02  0.10000000000E+01 0.  0.
<mgrwt>
<rscale>  0 0.12501000E+03</rscale>
<asrwt>0</asrwt>
<pdfrwt beam="1">  1        4 0.16243129E-02 0.12501000E+03</pdfrwt>
<pdfrwt beam="2">  1       -4 0.56928936E-01 0.12501000E+03</pdfrwt>
<totfact> 0.66470080E+03</totfact>
</mgrwt>
</event>
<event>
 5    1  0.3266594E-002  0.1250006E+03  0.7818608E-02  0.1235068E+00
          4   -1    0    0  501    0  0.00000000000E+00  0.00000000000E+00  0.11082214996E+03  0.11082942670E+03  0.12700000000E+01 0.  1.
         -4   -1    0    0    0  501 -0.00000000000E+00 -0.00000000000E+00 -0.35228378571E+02  0.35251263193E+02  0.12700000000E+01 0.  1.
         25    2    1    2    0    0  0.00000000000E+00  0.00000000000E+00  0.75593771390E+02  0.14608068989E+03  0.12500059874E+03 0.  0.
    9000005    1    3    3    0    0 -0.24233998855E+01  0.43796165362E+02  0.89815284928E+02  0.99958803385E+02  0.10000000000E+01 0.  0.
    9000005    1    3    3    0    0  0.24233998855E+01 -0.43796165362E+02 -0.14221513538E+02  0.46121886505E+02  0.10000000000E+01 0.  0.
<mgrwt>
<rscale>  0 0.12500060E+03</rscale>
<asrwt>0</asrwt>
<pdfrwt beam="1">  1        4 0.17051881E-01 0.12500060E+03</pdfrwt>
<pdfrwt beam="2">  1       -4 0.54220707E-02 0.12500060E+03</pdfrwt>
<totfact> 0.10008942E+04</totfact>
</mgrwt>
</event>
<event>
 5    1  0.3266594E-002  0.1249874E+03  0.7818608E-02  0.1235089E+00
          4   -1    0    0  501    0  0.00000000000E+00  0.00000000000E+00  0.89182263548E+03  0.89182353975E+03  0.12700000000E+01 0. -1.
         -4   -1    0    0    0  501 -0.00000000000E+00 -0.00000000000E+00 -0.42861868777E+01  0.44703800678E+01  0.12700000000E+01 0. -1.
         25    2    1    2    0    0  0.00000000000E+00  0.00000000000E+00  0.88753644860E+03  0.89629391982E+03  0.12498737179E+03 0.  0.
    9000005    1    3    3    0    0 -0.53961684685E+02  0.12201847199E+02  0.23547195024E+03  0.24188589839E+03  0.10000000000E+01 0.  0.
    9000005    1    3    3    0    0  0.53961684685E+02 -0.12201847199E+02  0.65206449836E+03  0.65440802143E+03  0.10000000000E+01 0.  0.
<mgrwt>
<rscale>  0 0.12498737E+03</rscale>
<asrwt>0</asrwt>
<pdfrwt beam="1">  1        4 0.13721771E+00 0.12498737E+03</pdfrwt>
<pdfrwt beam="2">  1       -4 0.67365169E-03 0.12498737E+03</pdfrwt>
<totfact> 0.34311682E+03</totfact>
</mgrwt>
</event>
<event>
 5    1  0.3266594E-002  0.1250087E+03  0.7818608E-02  0.1235056E+00
          4   -1    0    0  501    0  0.00000000000E+00  0.00000000000E+00  0.21877895901E+01  0.25296883781E+01  0.12700000000E+01 0.  1.
         -4   -1    0    0    0  501 -0.00000000000E+00 -0.00000000000E+00 -0.16559649625E+04  0.16559654495E+04  0.12700000000E+01 0.  1.
         25    2    1    2    0    0  0.00000000000E+00  0.00000000000E+00 -0.16537771729E+04  0.16584951378E+04  0.12500873856E+03 0.  0.
    9000005    1    3    3    0    0  0.30287731929E+02  0.51568224395E+02 -0.10675921060E+04  0.10692663529E+04  0.10000000000E+01 0.  0.
    9000005    1    3    3    0    0 -0.30287731929E+02 -0.51568224395E+02 -0.58618506684E+03  0.58922878498E+03  0.10000000000E+01 0.  0.
<mgrwt>
<rscale>  0 0.12500874E+03</rscale>
<asrwt>0</asrwt>
<pdfrwt beam="1">  1        4 0.36292171E-03 0.12500874E+03</pdfrwt>
<pdfrwt beam="2">  1       -4 0.25478925E+00 0.12500874E+03</pdfrwt>
<totfact> 0.15009498E+03</totfact>
</mgrwt>
</event>
<event>
 5    1  0.3266594E-002  0.1250043E+03  0.7818608E-02  0.1235063E+00
         -4   -1    0    0    0  501 -0.00000000000E+00  0.00000000000E+00  0.18055747721E+02  0.18100357062E+02  0.12700000000E+01 0. -1.
          4   -1    0    0  501    0  0.00000000000E+00 -0.00000000000E+00 -0.21604521742E+03  0.21604895017E+03  0.12700000000E+01 0. -1.
         25    2    1    2    0    0  0.00000000000E+00  0.00000000000E+00 -0.19798946969E+03  0.23414930723E+03  0.12500427179E+03 0.  0.
    9000005    1    3    3    0    0 -0.43239428506E+02  0.45043142087E+02 -0.94044506160E+02  0.11288889213E+03  0.10000000000E+01 0.  0.
    9000005    1    3    3    0    0  0.43239428506E+02 -0.45043142087E+02 -0.10394496353E+03  0.12126041510E+03  0.10000000000E+01 0.  0.
<mgrwt>
<rscale>  0 0.12500427E+03</rscale>
<asrwt>0</asrwt>
<pdfrwt beam="2">  1        4 0.33241443E-01 0.12500427E+03</pdfrwt>
<pdfrwt beam="1">  1       -4 0.27815261E-02 0.12500427E+03</pdfrwt>
<totfact> 0.84668446E+03</totfact>
</mgrwt>
</event>
<event>
 5    1  0.3266594E-002  0.1249978E+03  0.7818608E-02  0.1235073E+00
         -4   -1    0    0    0  501 -0.00000000000E+00  0.00000000000E+00  0.31279996463E+03  0.31280254279E+03  0.12700000000E+01 0. -1.
          4   -1    0    0  501    0  0.00000000000E+00 -0.00000000000E+00 -0.12452640228E+02  0.12517234065E+02  0.12700000000E+01 0. -1.
         25    2    1    2    0    0  0.00000000000E+00  0.00000000000E+00  0.30034732441E+03  0.32531977685E+03  0.12499776772E+03 0.  0.
    9000005    1    3    3    0    0  0.26934289110E+01  0.43876956201E+02  0.34579665818E+02  0.55939209262E+02  0.10000000000E+01 0.  0.
    9000005    1    3    3    0    0 -0.26934289110E+01 -0.43876956201E+02  0.26576765859E+03  0.26938056759E+03  0.10000000000E+01 0.  0.
<mgrwt>
<rscale>  0 0.12499777E+03</rscale>
<asrwt>0</asrwt>
<pdfrwt beam="2">  1        4 0.19209580E-02 0.12499777E+03</pdfrwt>
<pdfrwt beam="1">  1       -4 0.48128236E-01 0.12499777E+03</pdfrwt>
<totfact> 0.72531432E+03</totfact>
</mgrwt>
</event>
<event>
 5    1  0.3266594E-002  0.1250006E+03  0.7818608E-02  0.1235068E+00
          4   -1    0    0  501    0  0.00000000000E+00  0.00000000000E+00  0.21444427141E+02  0.21482000731E+02  0.12700000000E+01 0. -1.
         -4   -1    0    0    0  501 -0.00000000000E+00 -0.00000000000E+00 -0.18195947857E+03  0.18196391055E+03  0.12700000000E+01 0. -1.
         25    2    1    2    0    0  0.00000000000E+00  0.00000000000E+00 -0.16051505143E+03  0.20344591128E+03  0.12500062832E+03 0.  0.
    9000005    1    3    3    0    0  0.31490033912E+02 -0.51314888326E+02 -0.53001412315E+02  0.80218387587E+02  0.10000000000E+01 0.  0.
    9000005    1    3    3    0    0 -0.31490033912E+02  0.51314888326E+02 -0.10751363912E+03  0.12322752370E+03  0.10000000000E+01 0.  0.
<mgrwt>
<rscale>  0 0.12500063E+03</rscale>
<asrwt>0</asrwt>
<pdfrwt beam="1">  1        4 0.33023740E-02 0.12500063E+03</pdfrwt>
<pdfrwt beam="2">  1       -4 0.27996996E-01 0.12500063E+03</pdfrwt>
<totfact> 0.89556304E+03</totfact>
</mgrwt>
</event>
<event>
 5    1  0.3266594E-002  0.1249990E+03  0.7818608E-02  0.1235071E+00
          4   -1    0    0  501    0  0.00000000000E+00  0.00000000000E+00  0.19620056499E+03  0.19620467528E+03  0.12700000000E+01 0. -1.
         -4   -1    0    0    0  501 -0.00000000000E+00 -0.00000000000E+00 -0.19884593982E+02  0.19925109230E+02  0.12700000000E+01 0. -1.
         25    2    1    2    0    0  0.00000000000E+00  0.00000000000E+00  0.17631597101E+03  0.21612978451E+03  0.12499904848E+03 0.  0.
    9000005    1    3    3    0    0  0.26867843980E+02  0.47939603535E+02  0.36717502083E+02  0.66100390214E+02  0.10000000000E+01 0.  0.
    9000005    1    3    3    0    0 -0.26867843980E+02 -0.47939603535E+02  0.13959846892E+03  0.15002939430E+03  0.10000000000E+01 0.  0.
<mgrwt>
<rscale>  0 0.12499905E+03</rscale>
<asrwt>0</asrwt>
<pdfrwt beam="1">  1        4 0.30188135E-01 0.12499905E+03</pdfrwt>
<pdfrwt beam="2">  1       -4 0.30626010E-02 0.12499905E+03</pdfrwt>
<totfact> 0.87486349E+03</totfact>
</mgrwt>
</event>
<event>
 5    1  0.3266594E-002  0.1249914E+03  0.7818608E-02  0.1235083E+00
          4   -1    0    0  501    0  0.00000000000E+00  0.00000000000E+00  0.14518630234E+03  0.14519185682E+03  0.12700000000E+01 0. -1.
         -4   -1    0    0    0  501 -0.00000000000E+00 -0.00000000000E+00 -0.26880313213E+02  0.26910297999E+02  0.12700000000E+01 0. -1.
         25    2    1    2    0    0  0.00000000000E+00  0.00000000000E+00  0.11830598913E+03  0.17210215482E+03  0.12499137823E+03 0.  0.
    9000005    1    3    3    0    0  0.78759920783E+01  0.26283623626E+02  0.13645470310E+03  0.13918960493E+03  0.10000000000E+01 0.  0.
    9000005    1    3    3    0    0 -0.78759920783E+01 -0.26283623626E+02 -0.18148713967E+02  0.32912549898E+02  0.10000000000E+01 0.  0.
<mgrwt>
<rscale>  0 0.12499138E+03</rscale>
<asrwt>0</asrwt>
<pdfrwt beam="1">  1        4 0.22339088E-01 0.12499138E+03</pdfrwt>
<pdfrwt beam="2">  1       -4 0.41381665E-02 0.12499138E+03</pdfrwt>
<totfact> 0.95076662E+03</totfact>
</mgrwt>
</event>
<event>
 5    1  0.3266594E-002  0.1249986E+03  0.7818608E-02  0.1235071E+00
         -4   -1    0    0    0  501 -0.00000000000E+00  0.00000000000E+00  0.12604285193E+03  0.12604924999E+03  0.12700000000E+01 0. -1.
          4   -1    0    0  501    0  0.00000000000E+00 -0.00000000000E+00 -0.30970557862E+02  0.30996586171E+02  0.12700000000E+01 0. -1.
         25    2    1    2    0    0  0.00000000000E+00  0.00000000000E+00  0.95072294069E+02  0.15704583616E+03  0.12499861422E+03 0.  0.
    9000005    1    3    3    0    0 -0.10591468602E+02  0.52513047973E+02  0.87962796869E+02  0.10299637395E+03  0.10000000000E+01 0.  0.
    9000005    1    3    3    0    0  0.10591468602E+02 -0.52513047973E+02  0.71094972007E+01  0.54049462208E+02  0.10000000000E+01 0.  0.
<mgrwt>
<rscale>  0 0.12499861E+03</rscale>
<asrwt>0</asrwt>
<pdfrwt beam="2">  1        4 0.47671954E-02 0.12499861E+03</pdfrwt>
<pdfrwt beam="1">  1       -4 0.19393703E-01 0.12499861E+03</pdfrwt>
<totfact> 0.97918417E+03</totfact>
</mgrwt>
</event>
<event>
 5    1  0.3266594E-002  0.1249788E+03  0.7818608E-02  0.1235102E+00
          4   -1    0    0  501    0  0.00000000000E+00  0.00000000000E+00  0.38963029341E+03  0.38963236318E+03  0.12700000000E+01 0. -1.
         -4   -1    0    0    0  501 -0.00000000000E+00 -0.00000000000E+00 -0.99797864353E+01  0.10060270240E+02  0.12700000000E+01 0. -1.
         25    2    1    2    0    0  0.00000000000E+00  0.00000000000E+00  0.37965050697E+03  0.39969263342E+03  0.12497877327E+03 0.  0.
    9000005    1    3    3    0    0  0.20395703343E+02 -0.25605128726E+02  0.36002572065E+03  0.36151227761E+03  0.10000000000E+01 0.  0.
    9000005    1    3    3    0    0 -0.20395703343E+02  0.25605128726E+02  0.19624786319E+02  0.38180355813E+02  0.10000000000E+01 0.  0.
<mgrwt>
<rscale>  0 0.12497877E+03</rscale>
<asrwt>0</asrwt>
<pdfrwt beam="1">  1        4 0.59949473E-01 0.12497877E+03</pdfrwt>
<pdfrwt beam="2">  1       -4 0.15417020E-02 0.12497877E+03</pdfrwt>
<totfact> 0.64612967E+03</totfact>
</mgrwt>
</event>
<event>
 5    1  0.3266594E-002  0.1249964E+03  0.7818608E-02  0.1235075E+00
          4   -1    0    0  501    0  0.00000000000E+00  0.00000000000E+00  0.13600126284E+02  0.13659294819E+02  0.12700000000E+01 0. -1.
         -4   -1    0    0    0  501 -0.00000000000E+00 -0.00000000000E+00 -0.28652114767E+03  0.28652396228E+03  0.12700000000E+01 0. -1.
         25    2    1    2    0    0  0.00000000000E+00  0.00000000000E+00 -0.27292102138E+03  0.30018325710E+03  0.12499641567E+03 0.  0.
    9000005    1    3    3    0    0 -0.12445887779E+02 -0.46116952214E+02 -0.23322039346E+03  0.23806391018E+03  0.10000000000E+01 0.  0.
    9000005    1    3    3    0    0  0.12445887779E+02  0.46116952214E+02 -0.39700627922E+02  0.62119346918E+02  0.10000000000E+01 0.  0.
<mgrwt>
<rscale>  0 0.12499642E+03</rscale>
<asrwt>0</asrwt>
<pdfrwt beam="1">  1        4 0.20970953E-02 0.12499642E+03</pdfrwt>
<pdfrwt beam="2">  1       -4 0.44084940E-01 0.12499642E+03</pdfrwt>
<totfact> 0.75581873E+03</totfact>
</mgrwt>
</event>
<event>
 5    1  0.3266594E-002  0.1249963E+03  0.7818608E-02  0.1235075E+00
          4   -1    0    0  501    0  0.00000000000E+00  0.00000000000E+00  0.12929207908E+02  0.12991432451E+02  0.12700000000E+01 0. -1.
         -4   -1    0    0    0  501 -0.00000000000E+00 -0.00000000000E+00 -0.30131929359E+03  0.30132196998E+03  0.12700000000E+01 0. -1.
         25    2    1    2    0    0  0.00000000000E+00  0.00000000000E+00 -0.28839008569E+03  0.31431340243E+03  0.12499629365E+03 0.  0.
    9000005    1    3    3    0    0 -0.25655495508E+01 -0.92293284870E+01  0.11084317884E+02  0.14684163298E+02  0.10000000000E+01 0.  0.
    9000005    1    3    3    0    0  0.25655495508E+01  0.92293284870E+01 -0.29947440357E+03  0.29962923913E+03  0.10000000000E+01 0.  0.
<mgrwt>
<rscale>  0 0.12499629E+03</rscale>
<asrwt>0</asrwt>
<pdfrwt beam="1">  1        4 0.19941015E-02 0.12499629E+03</pdfrwt>
<pdfrwt beam="2">  1       -4 0.46361802E-01 0.12499629E+03</pdfrwt>
<totfact> 0.73843685E+03</totfact>
</mgrwt>
</event>
<event>
 5    1  0.3266594E-002  0.1250003E+03  0.7818608E-02  0.1235069E+00
          4   -1    0    0  501    0  0.00000000000E+00  0.00000000000E+00  0.53814718210E+03  0.53814868067E+03  0.12700000000E+01 0. -1.
         -4   -1    0    0    0  501 -0.00000000000E+00 -0.00000000000E+00 -0.72016676628E+01  0.73127913361E+01  0.12700000000E+01 0. -1.
         25    2    1    2    0    0  0.00000000000E+00  0.00000000000E+00  0.53094551444E+03  0.54546147201E+03  0.12500031255E+03 0.  0.
    9000005    1    3    3    0    0 -0.17311825450E+02 -0.37255467211E+02  0.59980895608E+02  0.72707475376E+02  0.10000000000E+01 0.  0.
    9000005    1    3    3    0    0  0.17311825450E+02  0.37255467211E+02  0.47096461883E+03  0.47275399663E+03  0.10000000000E+01 0.  0.
<mgrwt>
<rscale>  0 0.12500031E+03</rscale>
<asrwt>0</asrwt>
<pdfrwt beam="1">  1        4 0.82800500E-01 0.12500031E+03</pdfrwt>
<pdfrwt beam="2">  1       -4 0.11166126E-02 0.12500031E+03</pdfrwt>
<totfact> 0.52501601E+03</totfact>
</mgrwt>
</event>
<event>
 5    1  0.3266594E-002  0.1250042E+03  0.7818608E-02  0.1235063E+00
          4   -1    0    0  501    0  0.00000000000E+00  0.00000000000E+00  0.28779374338E+02  0.28807382513E+02  0.12700000000E+01 0. -1.
         -4   -1    0    0    0  501 -0.00000000000E+00 -0.00000000000E+00 -0.13564302086E+03  0.13564896611E+03  0.12700000000E+01 0. -1.
         25    2    1    2    0    0  0.00000000000E+00  0.00000000000E+00 -0.10686364652E+03  0.16445634862E+03  0.12500420655E+03 0.  0.
    9000005    1    3    3    0    0  0.39204513480E+02 -0.48360459966E+02 -0.46251823284E+02  0.77562614206E+02  0.10000000000E+01 0.  0.
    9000005    1    3    3    0    0 -0.39204513480E+02  0.48360459966E+02 -0.60611823233E+02  0.86893734417E+02  0.10000000000E+01 0.  0.
<mgrwt>
<rscale>  0 0.12500421E+03</rscale>
<asrwt>0</asrwt>
<pdfrwt beam="1">  1        4 0.44302079E-02 0.12500421E+03</pdfrwt>
<pdfrwt beam="2">  1       -4 0.20870768E-01 0.12500421E+03</pdfrwt>
<totfact> 0.96481332E+03</totfact>
</mgrwt>
</event>
<event>
 5    1  0.3266594E-002  0.1250060E+03  0.7818608E-02  0.1235060E+00
          4   -1    0    0  501    0  0.00000000000E+00  0.00000000000E+00  0.14011409620E+03  0.14011985175E+03  0.12700000000E+01 0. -1.
         -4   -1    0    0    0  501 -0.00000000000E+00 -0.00000000000E+00 -0.27860967882E+02  0.27889898374E+02  0.12700000000E+01 0. -1.
         25    2    1    2    0    0  0.00000000000E+00  0.00000000000E+00  0.11225312832E+03  0.16800975012E+03  0.12500604513E+03 0.  0.
    9000005    1    3    3    0    0  0.18845396165E+02 -0.25433480908E+01  0.13613779573E+03  0.13746314780E+03  0.10000000000E+01 0.  0.
    9000005    1    3    3    0    0 -0.18845396165E+02  0.25433480908E+01 -0.23884667413E+02  0.30546602324E+02  0.10000000000E+01 0.  0.
<mgrwt>
<rscale>  0 0.12500605E+03</rscale>
<asrwt>0</asrwt>
<pdfrwt beam="1">  1        4 0.21558683E-01 0.12500605E+03</pdfrwt>
<pdfrwt beam="2">  1       -4 0.42889709E-02 0.12500605E+03</pdfrwt>
<totfact> 0.95807403E+03</totfact>
</mgrwt>
</event>
<event>
 5    1  0.3266594E-002  0.1249986E+03  0.7818608E-02  0.1235071E+00
         -4   -1    0    0    0  501 -0.00000000000E+00  0.00000000000E+00  0.51480500541E+01  0.53023880808E+01  0.12700000000E+01 0. -1.
          4   -1    0    0  501    0  0.00000000000E+00 -0.00000000000E+00 -0.74740483541E+03  0.74740591441E+03  0.12700000000E+01 0. -1.
         25    2    1    2    0    0  0.00000000000E+00  0.00000000000E+00 -0.74225678536E+03  0.75270830249E+03  0.12499861292E+03 0.  0.
    9000005    1    3    3    0    0 -0.52859013594E+02 -0.33007705147E+02 -0.39910152506E+03  0.40393887065E+03  0.10000000000E+01 0.  0.
    9000005    1    3    3    0    0  0.52859013594E+02  0.33007705147E+02 -0.34315526030E+03  0.34876943184E+03  0.10000000000E+01 0.  0.
<mgrwt>
<rscale>  0 0.12499861E+03</rscale>
<asrwt>0</asrwt>
<pdfrwt beam="2">  1        4 0.11499723E+00 0.12499861E+03</pdfrwt>
<pdfrwt beam="1">  1       -4 0.80396345E-03 0.12499861E+03</pdfrwt>
<totfact> 0.40446183E+03</totfact>
</mgrwt>
</event>
<event>
 5    1  0.3266594E-002  0.1249914E+03  0.7818608E-02  0.1235083E+00
         -4   -1    0    0    0  501 -0.00000000000E+00  0.00000000000E+00  0.59586676925E+02  0.59600209454E+02  0.12700000000E+01 0. -1.
          4   -1    0    0  501    0  0.00000000000E+00 -0.00000000000E+00 -0.65519595854E+02  0.65531903229E+02  0.12700000000E+01 0. -1.
         25    2    1    2    0    0  0.00000000000E+00  0.00000000000E+00 -0.59329189289E+01  0.12513211268E+03  0.12499138409E+03 0.  0.
    9000005    1    3    3    0    0  0.32193369065E+02  0.51947602177E+02  0.10076837285E+02  0.61947631378E+02  0.10000000000E+01 0.  0.
    9000005    1    3    3    0    0 -0.32193369065E+02 -0.51947602177E+02 -0.16009756214E+02  0.63184481305E+02  0.10000000000E+01 0.  0.
<mgrwt>
<rscale>  0 0.12499138E+03</rscale>
<asrwt>0</asrwt>
<pdfrwt beam="2">  1        4 0.10081926E-01 0.12499138E+03</pdfrwt>
<pdfrwt beam="1">  1       -4 0.91691687E-02 0.12499138E+03</pdfrwt>
<totfact> 0.10452029E+04</totfact>
</mgrwt>
</event>
<event>
 5    1  0.3266594E-002  0.1250010E+03  0.7818608E-02  0.1235068E+00
         -4   -1    0    0    0  501 -0.00000000000E+00  0.00000000000E+00  0.91485201455E+02  0.91494016117E+02  0.12700000000E+01 0. -1.
          4   -1    0    0  501    0  0.00000000000E+00 -0.00000000000E+00 -0.42678546323E+02  0.42697438053E+02  0.12700000000E+01 0. -1.
         25    2    1    2    0    0  0.00000000000E+00  0.00000000000E+00  0.48806655132E+02  0.13419145417E+03  0.12500102714E+03 0.  0.
    9000005    1    3    3    0    0  0.56660304935E+02  0.28635172024E+01 -0.37287942007E+01  0.56863817954E+02  0.10000000000E+01 0.  0.
    9000005    1    3    3    0    0 -0.56660304935E+02 -0.28635172024E+01  0.52535449333E+02  0.77327636216E+02  0.10000000000E+01 0.  0.
<mgrwt>
<rscale>  0 0.12500103E+03</rscale>
<asrwt>0</asrwt>
<pdfrwt beam="2">  1        4 0.65680615E-02 0.12500103E+03</pdfrwt>
<pdfrwt beam="1">  1       -4 0.14076778E-01 0.12500103E+03</pdfrwt>
<totfact> 0.10254904E+04</totfact>
</mgrwt>
</event>
<event>
 5    1  0.3266594E-002  0.1249998E+03  0.7818608E-02  0.1235070E+00
          4   -1    0    0  501    0  0.00000000000E+00  0.00000000000E+00  0.46592334013E+03  0.46592507099E+03  0.12700000000E+01 0. -1.
         -4   -1    0    0    0  501 -0.00000000000E+00 -0.00000000000E+00 -0.83340072635E+01  0.84302180914E+01  0.12700000000E+01 0. -1.
         25    2    1    2    0    0  0.00000000000E+00  0.00000000000E+00  0.45758933287E+03  0.47435528908E+03  0.12499977091E+03 0.  0.
    9000005    1    3    3    0    0 -0.39367235973E+02  0.16096212278E+02  0.40254607295E+03  0.40478785575E+03  0.10000000000E+01 0.  0.
    9000005    1    3    3    0    0  0.39367235973E+02 -0.16096212278E+02  0.55043259920E+02  0.69567433333E+02  0.10000000000E+01 0.  0.
<mgrwt>
<rscale>  0 0.12499977E+03</rscale>
<asrwt>0</asrwt>
<pdfrwt beam="1">  1        4 0.71688065E-01 0.12499977E+03</pdfrwt>
<pdfrwt beam="2">  1       -4 0.12896886E-02 0.12499977E+03</pdfrwt>
<totfact> 0.57910748E+03</totfact>
</mgrwt>
</event>
<event>
 5    1  0.3266594E-002  0.1250013E+03  0.7818608E-02  0.1235067E+00
          4   -1    0    0  501    0  0.00000000000E+00  0.00000000000E+00  0.12901343365E+03  0.12901968439E+03  0.12700000000E+01 0.  1.
         -4   -1    0    0    0  501 -0.00000000000E+00 -0.00000000000E+00 -0.30258183406E+02  0.30284823972E+02  0.12700000000E+01 0.  1.
         25    2    1    2    0    0  0.00000000000E+00  0.00000000000E+00  0.98755250240E+02  0.15930450837E+03  0.12500130774E+03 0.  0.
    9000005    1    3    3    0    0  0.42732458292E+02 -0.38711005619E+01 -0.85249877843E+01  0.43757557381E+02  0.10000000000E+01 0.  0.
    9000005    1    3    3    0    0 -0.42732458292E+02  0.38711005619E+01  0.10728023802E+03  0.11554695098E+03  0.10000000000E+01 0.  0.
<mgrwt>
<rscale>  0 0.12500131E+03</rscale>
<asrwt>0</asrwt>
<pdfrwt beam="1">  1        4 0.19850751E-01 0.12500131E+03</pdfrwt>
<pdfrwt beam="2">  1       -4 0.46576353E-02 0.12500131E+03</pdfrwt>
<totfact> 0.97474172E+03</totfact>
</mgrwt>
</event>
<event>
 5    1  0.3266594E-002  0.1250140E+03  0.7818608E-02  0.1235047E+00
          4   -1    0    0  501    0  0.00000000000E+00  0.00000000000E+00  0.36970121169E+03  0.36970339304E+03  0.12700000000E+01 0.  1.
         -4   -1    0    0    0  501 -0.00000000000E+00 -0.00000000000E+00 -0.10527959643E+02  0.10604283769E+02  0.12700000000E+01 0.  1.
         25    2    1    2    0    0  0.00000000000E+00  0.00000000000E+00  0.35917325205E+03  0.38030767681E+03  0.12501401543E+03 0.  0.
    9000005    1    3    3    0    0 -0.34674104369E+02 -0.51864519014E+02  0.19093017308E+03  0.20086700286E+03  0.10000000000E+01 0.  0.
    9000005    1    3    3    0    0  0.34674104369E+02  0.51864519014E+02  0.16824307897E+03  0.17944067395E+03  0.10000000000E+01 0.  0.
<mgrwt>
<rscale>  0 0.12501402E+03</rscale>
<asrwt>0</asrwt>
<pdfrwt beam="1">  1        4 0.56883150E-01 0.12501402E+03</pdfrwt>
<pdfrwt beam="2">  1       -4 0.16257249E-02 0.12501402E+03</pdfrwt>
<totfact> 0.66493575E+03</totfact>
</mgrwt>
</event>
<event>
 5    1  0.3266594E-002  0.1249923E+03  0.7818608E-02  0.1235081E+00
         -4   -1    0    0    0  501 -0.00000000000E+00  0.00000000000E+00  0.13735375758E+03  0.13735962879E+03  0.12700000000E+01 0.  1.
          4   -1    0    0  501    0  0.00000000000E+00 -0.00000000000E+00 -0.28415150547E+02  0.28443517374E+02  0.12700000000E+01 0.  1.
         25    2    1    2    0    0  0.00000000000E+00  0.00000000000E+00  0.10893860704E+03  0.16580314617E+03  0.12499225246E+03 0.  0.
    9000005    1    3    3    0    0  0.46577721645E+02 -0.23070001441E+02  0.84592523726E+01  0.52671321142E+02  0.10000000000E+01 0.  0.
    9000005    1    3    3    0    0 -0.46577721645E+02  0.23070001441E+02  0.10047935466E+03  0.11313182503E+03  0.10000000000E+01 0.  0.
<mgrwt>
<rscale>  0 0.12499225E+03</rscale>
<asrwt>0</asrwt>
<pdfrwt beam="2">  1        4 0.43741953E-02 0.12499225E+03</pdfrwt>
<pdfrwt beam="1">  1       -4 0.21133981E-01 0.12499225E+03</pdfrwt>
<totfact> 0.96252255E+03</totfact>
</mgrwt>
</event>
<event>
 5    1  0.3266594E-002  0.1249997E+03  0.7818608E-02  0.1235070E+00
          4   -1    0    0  501    0  0.00000000000E+00  0.00000000000E+00  0.77820647186E+01  0.78850130808E+01  0.12700000000E+01 0. -1.
         -4   -1    0    0    0  501 -0.00000000000E+00 -0.00000000000E+00 -0.49855060705E+03  0.49855222463E+03  0.12700000000E+01 0. -1.
         25    2    1    2    0    0  0.00000000000E+00  0.00000000000E+00 -0.49076854233E+03  0.50643723771E+03  0.12499965442E+03 0.  0.
    9000005    1    3    3    0    0 -0.36288051654E+02  0.46001742634E+02 -0.33342845648E+03  0.33853879927E+03  0.10000000000E+01 0.  0.
    9000005    1    3    3    0    0  0.36288051654E+02 -0.46001742634E+02 -0.15734008584E+03  0.16789843844E+03  0.10000000000E+01 0.  0.
<mgrwt>
<rscale>  0 0.12499965E+03</rscale>
<asrwt>0</asrwt>
<pdfrwt beam="1">  1        4 0.12052847E-02 0.12499965E+03</pdfrwt>
<pdfrwt beam="2">  1       -4 0.76708112E-01 0.12499965E+03</pdfrwt>
<totfact> 0.55368784E+03</totfact>
</mgrwt>
</event>
<event>
 5    1  0.3266594E-002  0.1250118E+03  0.7818608E-02  0.1235051E+00
          4   -1    0    0  501    0  0.00000000000E+00  0.00000000000E+00  0.64933490840E+02  0.64945909284E+02  0.12700000000E+01 0.  1.
         -4   -1    0    0    0  501 -0.00000000000E+00 -0.00000000000E+00 -0.60144228343E+02  0.60157635450E+02  0.12700000000E+01 0.  1.
         25    2    1    2    0    0  0.00000000000E+00  0.00000000000E+00  0.47892624978E+01  0.12510354473E+03  0.12501183892E+03 0.  0.
    9000005    1    3    3    0    0 -0.48122772610E+02 -0.48169933180E+01 -0.37219572659E+02  0.61035246024E+02  0.10000000000E+01 0.  0.
    9000005    1    3    3    0    0  0.48122772610E+02  0.48169933180E+01  0.42008835157E+02  0.64068298710E+02  0.10000000000E+01 0.  0.
<mgrwt>
<rscale>  0 0.12501184E+03</rscale>
<asrwt>0</asrwt>
<pdfrwt beam="1">  1        4 0.99917544E-02 0.12501184E+03</pdfrwt>
<pdfrwt beam="2">  1       -4 0.92549448E-02 0.12501184E+03</pdfrwt>
<totfact> 0.10447818E+04</totfact>
</mgrwt>
</event>
<event>
 5    1  0.3266594E-002  0.1249958E+03  0.7818608E-02  0.1235076E+00
          4   -1    0    0  501    0  0.00000000000E+00  0.00000000000E+00  0.16156720834E+03  0.16157219969E+03  0.12700000000E+01 0.  1.
         -4   -1    0    0    0  501 -0.00000000000E+00 -0.00000000000E+00 -0.24153584349E+02  0.24186949723E+02  0.12700000000E+01 0.  1.
         25    2    1    2    0    0  0.00000000000E+00  0.00000000000E+00  0.13741362399E+03  0.18575914941E+03  0.12499583005E+03 0.  0.
    9000005    1    3    3    0    0 -0.15774834980E+02 -0.19021052928E+02 -0.16591243326E+02  0.29781122011E+02  0.10000000000E+01 0.  0.
    9000005    1    3    3    0    0  0.15774834980E+02  0.19021052928E+02  0.15400486732E+03  0.15597802740E+03  0.10000000000E+01 0.  0.
<mgrwt>
<rscale>  0 0.12499583E+03</rscale>
<asrwt>0</asrwt>
<pdfrwt beam="1">  1        4 0.24859444E-01 0.12499583E+03</pdfrwt>
<pdfrwt beam="2">  1       -4 0.37188866E-02 0.12499583E+03</pdfrwt>
<totfact> 0.92599142E+03</totfact>
</mgrwt>
</event>
<event>
 5    1  0.3266594E-002  0.1249876E+03  0.7818608E-02  0.1235089E+00
         -4   -1    0    0    0  501 -0.00000000000E+00  0.00000000000E+00  0.14029943646E+02  0.14087307007E+02  0.12700000000E+01 0.  1.
          4   -1    0    0  501    0  0.00000000000E+00 -0.00000000000E+00 -0.27774024218E+03  0.27774314577E+03  0.12700000000E+01 0.  1.
         25    2    1    2    0    0  0.00000000000E+00  0.00000000000E+00 -0.26371029853E+03  0.29183045278E+03  0.12498756586E+03 0.  0.
    9000005    1    3    3    0    0 -0.19135394937E+01  0.44334040159E+02 -0.29139074865E+02  0.53096651817E+02  0.10000000000E+01 0.  0.
    9000005    1    3    3    0    0  0.19135394937E+01 -0.44334040159E+02 -0.23457122366E+03  0.23873380096E+03  0.10000000000E+01 0.  0.
<mgrwt>
<rscale>  0 0.12498757E+03</rscale>
<asrwt>0</asrwt>
<pdfrwt beam="2">  1        4 0.42733900E-01 0.12498757E+03</pdfrwt>
<pdfrwt beam="1">  1       -4 0.21630890E-02 0.12498757E+03</pdfrwt>
<totfact> 0.76656343E+03</totfact>
</mgrwt>
</event>
<event>
 5    1  0.3266594E-002  0.1249983E+03  0.7818608E-02  0.1235072E+00
         -4   -1    0    0    0  501 -0.00000000000E+00  0.00000000000E+00  0.11512726506E+02  0.11582563257E+02  0.12700000000E+01 0. -1.
          4   -1    0    0  501    0  0.00000000000E+00 -0.00000000000E+00 -0.33819215267E+03  0.33819453725E+03  0.12700000000E+01 0. -1.
         25    2    1    2    0    0  0.00000000000E+00  0.00000000000E+00 -0.32667942616E+03  0.34977710051E+03  0.12499829024E+03 0.  0.
    9000005    1    3    3    0    0  0.26277780362E+02 -0.55618774065E+02 -0.19414256276E+03  0.20365732111E+03  0.10000000000E+01 0.  0.
    9000005    1    3    3    0    0 -0.26277780362E+02  0.55618774065E+02 -0.13253686340E+03  0.14611977939E+03  0.10000000000E+01 0.  0.
<mgrwt>
<rscale>  0 0.12499829E+03</rscale>
<asrwt>0</asrwt>
<pdfrwt beam="2">  1        4 0.52035110E-01 0.12499829E+03</pdfrwt>
<pdfrwt beam="1">  1       -4 0.17767444E-02 0.12499829E+03</pdfrwt>
<totfact> 0.69751727E+03</totfact>
</mgrwt>
</event>
<event>
 5    1  0.3266594E-002  0.1250404E+03  0.7818608E-02  0.1235006E+00
          4   -1    0    0  501    0  0.00000000000E+00  0.00000000000E+00  0.27828383840E+02  0.27857348172E+02  0.12700000000E+01 0. -1.
         -4   -1    0    0    0  501 -0.00000000000E+00 -0.00000000000E+00 -0.14035521030E+03  0.14036095596E+03  0.12700000000E+01 0. -1.
         25    2    1    2    0    0  0.00000000000E+00  0.00000000000E+00 -0.11252682646E+03  0.16821830413E+03  0.12504043815E+03 0.  0.
    9000005    1    3    3    0    0  0.68336579692E+01 -0.34690155531E+02  0.13090896838E+02  0.37715744087E+02  0.10000000000E+01 0.  0.
    9000005    1    3    3    0    0 -0.68336579692E+01  0.34690155531E+02 -0.12561772329E+03  0.13050256004E+03  0.10000000000E+01 0.  0.
<mgrwt>
<rscale>  0 0.12504044E+03</rscale>
<asrwt>0</asrwt>
<pdfrwt beam="1">  1        4 0.42839599E-02 0.12504044E+03</pdfrwt>
<pdfrwt beam="2">  1       -4 0.21595779E-01 0.12504044E+03</pdfrwt>
<totfact> 0.95694417E+03</totfact>
</mgrwt>
</event>
<event>
 5    1  0.3266594E-002  0.1249982E+03  0.7818608E-02  0.1235072E+00
         -4   -1    0    0    0  501 -0.00000000000E+00  0.00000000000E+00  0.40232477486E+02  0.40252517247E+02  0.12700000000E+01 0.  1.
          4   -1    0    0  501    0  0.00000000000E+00 -0.00000000000E+00 -0.97040742768E+02  0.97049052839E+02  0.12700000000E+01 0.  1.
         25    2    1    2    0    0  0.00000000000E+00  0.00000000000E+00 -0.56808265281E+02  0.13730157009E+03  0.12499816856E+03 0.  0.
    9000005    1    3    3    0    0 -0.35797932763E+02 -0.30971787966E+02 -0.73216681850E+02  0.87191892634E+02  0.10000000000E+01 0.  0.
    9000005    1    3    3    0    0  0.35797932763E+02  0.30971787966E+02  0.16408416569E+02  0.50109677451E+02  0.10000000000E+01 0.  0.
<mgrwt>
<rscale>  0 0.12499817E+03</rscale>
<asrwt>0</asrwt>
<pdfrwt beam="2">  1        4 0.14931526E-01 0.12499817E+03</pdfrwt>
<pdfrwt beam="1">  1       -4 0.61917927E-02 0.12499817E+03</pdfrwt>
<totfact> 0.10190205E+04</totfact>
</mgrwt>
</event>
<event>
 5    1  0.3266594E-002  0.1250013E+03  0.7818608E-02  0.1235067E+00
          4   -1    0    0  501    0  0.00000000000E+00  0.00000000000E+00  0.17141131218E+01  0.21333269309E+01  0.12700000000E+01 0. -1.
         -4   -1    0    0    0  501 -0.00000000000E+00 -0.00000000000E+00 -0.20301925687E+04  0.20301929659E+04  0.12700000000E+01 0. -1.
         25    2    1    2    0    0  0.00000000000E+00  0.00000000000E+00 -0.20284784556E+04  0.20323262929E+04  0.12500126360E+03 0.  0.
    9000005    1    3    3    0    0  0.29683458031E+02 -0.91870643515E+01 -0.18957737801E+04  0.18960286747E+04  0.10000000000E+01 0.  0.
    9000005    1    3    3    0    0 -0.29683458031E+02  0.91870643515E+01 -0.13270467549E+03  0.13629761821E+03  0.10000000000E+01 0.  0.
<mgrwt>
<rscale>  0 0.12500126E+03</rscale>
<asrwt>0</asrwt>
<pdfrwt beam="1">  1        4 0.29598911E-03 0.12500126E+03</pdfrwt>
<pdfrwt beam="2">  1       -4 0.31236788E+00 0.12500126E+03</pdfrwt>
<totfact> 0.94450184E+02</totfact>
</mgrwt>
</event>
<event>
 5    1  0.3266594E-002  0.1249969E+03  0.7818608E-02  0.1235074E+00
         -4   -1    0    0    0  501 -0.00000000000E+00  0.00000000000E+00  0.11593609138E+03  0.11594304716E+03  0.12700000000E+01 0. -1.
          4   -1    0    0  501    0  0.00000000000E+00 -0.00000000000E+00 -0.33671504776E+02  0.33695446782E+02  0.12700000000E+01 0. -1.
         25    2    1    2    0    0  0.00000000000E+00  0.00000000000E+00  0.82264586607E+02  0.14963849394E+03  0.12499686660E+03 0.  0.
    9000005    1    3    3    0    0  0.38820343995E+02  0.46964957647E+02  0.57734478184E+02  0.83946389594E+02  0.10000000000E+01 0.  0.
    9000005    1    3    3    0    0 -0.38820343995E+02 -0.46964957647E+02  0.24530108423E+02  0.65692104350E+02  0.10000000000E+01 0.  0.
<mgrwt>
<rscale>  0 0.12499687E+03</rscale>
<asrwt>0</asrwt>
<pdfrwt beam="2">  1        4 0.51826083E-02 0.12499687E+03</pdfrwt>
<pdfrwt beam="1">  1       -4 0.17838698E-01 0.12499687E+03</pdfrwt>
<totfact> 0.99382816E+03</totfact>
</mgrwt>
</event>
<event>
 5    1  0.3266594E-002  0.1250000E+03  0.7818608E-02  0.1235069E+00
         -4   -1    0    0    0  501 -0.00000000000E+00  0.00000000000E+00  0.12737863328E+02  0.12801018012E+02  0.12700000000E+01 0.  1.
          4   -1    0    0  501    0  0.00000000000E+00 -0.00000000000E+00 -0.30584151071E+03  0.30584414752E+03  0.12700000000E+01 0.  1.
         25    2    1    2    0    0  0.00000000000E+00  0.00000000000E+00 -0.29310364738E+03  0.31864516553E+03  0.12499997364E+03 0.  0.
    9000005    1    3    3    0    0 -0.41271158179E+01  0.33131452079E+02 -0.28121230098E+03  0.28318913190E+03  0.10000000000E+01 0.  0.
    9000005    1    3    3    0    0  0.41271158179E+01 -0.33131452079E+02 -0.11891346398E+02  0.35456033633E+02  0.10000000000E+01 0.  0.
<mgrwt>
<rscale>  0 0.12499997E+03</rscale>
<asrwt>0</asrwt>
<pdfrwt beam="2">  1        4 0.47057595E-01 0.12499997E+03</pdfrwt>
<pdfrwt beam="1">  1       -4 0.19647324E-02 0.12499997E+03</pdfrwt>
<totfact> 0.73317600E+03</totfact>
</mgrwt>
</event>
<event>
 5    1  0.3266594E-002  0.1250006E+03  0.7818608E-02  0.1235068E+00
          4   -1    0    0  501    0  0.00000000000E+00  0.00000000000E+00  0.14558249719E+02  0.14613539437E+02  0.12700000000E+01 0. -1.
         -4   -1    0    0    0  501 -0.00000000000E+00 -0.00000000000E+00 -0.26775603233E+03  0.26775904420E+03  0.12700000000E+01 0. -1.
         25    2    1    2    0    0  0.00000000000E+00  0.00000000000E+00 -0.25319778261E+03  0.28237258363E+03  0.12500063547E+03 0.  0.
    9000005    1    3    3    0    0  0.29525703130E+02  0.46015342055E+02 -0.58225940369E+02  0.79877650076E+02  0.10000000000E+01 0.  0.
    9000005    1    3    3    0    0 -0.29525703130E+02 -0.46015342055E+02 -0.19497184224E+03  0.20249493356E+03  0.10000000000E+01 0.  0.
<mgrwt>
<rscale>  0 0.12500064E+03</rscale>
<asrwt>0</asrwt>
<pdfrwt beam="1">  1        4 0.22442157E-02 0.12500064E+03</pdfrwt>
<pdfrwt beam="2">  1       -4 0.41197717E-01 0.12500064E+03</pdfrwt>
<totfact> 0.77863468E+03</totfact>
</mgrwt>
</event>
<event>
 5    1  0.3266594E-002  0.1249964E+03  0.7818608E-02  0.1235075E+00
         -4   -1    0    0    0  501 -0.00000000000E+00  0.00000000000E+00  0.50041154357E+02  0.50057267499E+02  0.12700000000E+01 0.  1.
          4   -1    0    0  501    0  0.00000000000E+00 -0.00000000000E+00 -0.78022428351E+02  0.78032763797E+02  0.12700000000E+01 0.  1.
         25    2    1    2    0    0  0.00000000000E+00  0.00000000000E+00 -0.27981273994E+02  0.12809003130E+03  0.12499641764E+03 0.  0.
    9000005    1    3    3    0    0  0.40634100620E+02 -0.15024109076E+02  0.32159199790E+02  0.53963581403E+02  0.10000000000E+01 0.  0.
    9000005    1    3    3    0    0 -0.40634100620E+02  0.15024109076E+02 -0.60140473784E+02  0.74126449893E+02  0.10000000000E+01 0.  0.
<mgrwt>
<rscale>  0 0.12499642E+03</rscale>
<asrwt>0</asrwt>
<pdfrwt beam="2">  1        4 0.12005485E-01 0.12499642E+03</pdfrwt>
<pdfrwt beam="1">  1       -4 0.77006736E-02 0.12499642E+03</pdfrwt>
<totfact> 0.10386384E+04</totfact>
</mgrwt>
</event>
<event>
 5    1  0.3266594E-002  0.1250036E+03  0.7818608E-02  0.1235064E+00
          4   -1    0    0  501    0  0.00000000000E+00  0.00000000000E+00  0.54045438368E+01  0.55517559460E+01  0.12700000000E+01 0. -1.
         -4   -1    0    0    0  501 -0.00000000000E+00 -0.00000000000E+00 -0.71295348081E+03  0.71295461195E+03  0.12700000000E+01 0. -1.
         25    2    1    2    0    0  0.00000000000E+00  0.00000000000E+00 -0.70754893697E+03  0.71850636789E+03  0.12500360992E+03 0.  0.
    9000005    1    3    3    0    0 -0.46131345019E+02 -0.30675228645E+02 -0.52000713482E+03  0.52295075381E+03  0.10000000000E+01 0.  0.
    9000005    1    3    3    0    0  0.46131345019E+02  0.30675228645E+02 -0.18754180215E+03  0.19555561409E+03  0.10000000000E+01 0.  0.
<mgrwt>
<rscale>  0 0.12500361E+03</rscale>
<asrwt>0</asrwt>
<pdfrwt beam="1">  1        4 0.84287987E-03 0.12500361E+03</pdfrwt>
<pdfrwt beam="2">  1       -4 0.10969649E+00 0.12500361E+03</pdfrwt>
<totfact> 0.42124294E+03</totfact>
</mgrwt>
</event>
<event>
 5    1  0.3266594E-002  0.1250026E+03  0.7818608E-02  0.1235065E+00
         -4   -1    0    0    0  501 -0.00000000000E+00  0.00000000000E+00  0.58655126934E+01  0.60014280931E+01  0.12700000000E+01 0. -1.
          4   -1    0    0  501    0  0.00000000000E+00 -0.00000000000E+00 -0.65823215488E+03  0.65823338006E+03  0.12700000000E+01 0. -1.
         25    2    1    2    0    0  0.00000000000E+00  0.00000000000E+00 -0.65236664219E+03  0.66423480815E+03  0.12500257804E+03 0.  0.
    9000005    1    3    3    0    0 -0.10790346067E+02  0.28557827893E+02 -0.36427932159E+02  0.47539197969E+02  0.10000000000E+01 0.  0.
    9000005    1    3    3    0    0  0.10790346067E+02 -0.28557827893E+02 -0.61593871003E+03  0.61669561018E+03  0.10000000000E+01 0.  0.
<mgrwt>
<rscale>  0 0.12500258E+03</rscale>
<asrwt>0</asrwt>
<pdfrwt beam="2">  1        4 0.10127698E+00 0.12500258E+03</pdfrwt>
<pdfrwt beam="1">  1       -4 0.91293636E-03 0.12500258E+03</pdfrwt>
<totfact> 0.45040524E+03</totfact>
</mgrwt>
</event>
<event>
 5    1  0.3266594E-002  0.1249998E+03  0.7818608E-02  0.1235070E+00
          4   -1    0    0  501    0  0.00000000000E+00  0.00000000000E+00  0.42562079983E+01  0.44416445744E+01  0.12700000000E+01 0.  1.
         -4   -1    0    0    0  501 -0.00000000000E+00 -0.00000000000E+00 -0.89802178494E+03  0.89802268297E+03  0.12700000000E+01 0.  1.
         25    2    1    2    0    0  0.00000000000E+00  0.00000000000E+00 -0.89376557695E+03  0.90246432755E+03  0.12499982385E+03 0.  0.
    9000005    1    3    3    0    0  0.37178672800E+02  0.45100366213E+02 -0.28723995581E+03  0.29312811014E+03  0.10000000000E+01 0.  0.
    9000005    1    3    3    0    0 -0.37178672800E+02 -0.45100366213E+02 -0.60652562114E+03  0.60933621741E+03  0.10000000000E+01 0.  0.
<mgrwt>
<rscale>  0 0.12499982E+03</rscale>
<asrwt>0</asrwt>
<pdfrwt beam="1">  1        4 0.66913538E-03 0.12499982E+03</pdfrwt>
<pdfrwt beam="2">  1       -4 0.13817138E+00 0.12499982E+03</pdfrwt>
<totfact> 0.34065897E+03</totfact>
</mgrwt>
</event>
<event>
 5    1  0.3266594E-002  0.1250008E+03  0.7818608E-02  0.1235068E+00
          4   -1    0    0  501    0  0.00000000000E+00  0.00000000000E+00  0.25238808629E+03  0.25239128155E+03  0.12700000000E+01 0. -1.
         -4   -1    0    0    0  501 -0.00000000000E+00 -0.00000000000E+00 -0.15448006720E+02  0.15500122955E+02  0.12700000000E+01 0. -1.
         25    2    1    2    0    0  0.00000000000E+00  0.00000000000E+00  0.23694007957E+03  0.26789140450E+03  0.12500081319E+03 0.  0.
    9000005    1    3    3    0    0  0.16689104483E+02  0.52400317276E+02  0.54859467611E+02  0.77684494243E+02  0.10000000000E+01 0.  0.
    9000005    1    3    3    0    0 -0.16689104483E+02 -0.52400317276E+02  0.18208061196E+03  0.19020691026E+03  0.10000000000E+01 0.  0.
<mgrwt>
<rscale>  0 0.12500081E+03</rscale>
<asrwt>0</asrwt>
<pdfrwt beam="1">  1        4 0.38833188E-01 0.12500081E+03</pdfrwt>
<pdfrwt beam="2">  1       -4 0.23808713E-02 0.12500081E+03</pdfrwt>
<totfact> 0.79809770E+03</totfact>
</mgrwt>
</event>
<event>
 5    1  0.3266594E-002  0.1250041E+03  0.7818608E-02  0.1235063E+00
          4   -1    0    0  501    0  0.00000000000E+00  0.00000000000E+00  0.14014699107E+03  0.14015274527E+03  0.12700000000E+01 0.  1.
         -4   -1    0    0    0  501 -0.00000000000E+00 -0.00000000000E+00 -0.27853544238E+02  0.27882482432E+02  0.12700000000E+01 0.  1.
         25    2    1    2    0    0  0.00000000000E+00  0.00000000000E+00  0.11229344683E+03  0.16803522770E+03  0.12500407812E+03 0.  0.
    9000005    1    3    3    0    0 -0.15243181738E+01  0.39834523919E+02 -0.85499855997E+01  0.40782534197E+02  0.10000000000E+01 0.  0.
    9000005    1    3    3    0    0  0.15243181738E+01 -0.39834523919E+02  0.12084343243E+03  0.12725269350E+03  0.10000000000E+01 0.  0.
<mgrwt>
<rscale>  0 0.12500408E+03</rscale>
<asrwt>0</asrwt>
<pdfrwt beam="1">  1        4 0.21563745E-01 0.12500408E+03</pdfrwt>
<pdfrwt beam="2">  1       -4 0.42878292E-02 0.12500408E+03</pdfrwt>
<totfact> 0.95806861E+03</totfact>
</mgrwt>
</event>
<event>
 5    1  0.3266594E-002  0.1249993E+03  0.7818608E-02  0.1235070E+00
         -4   -1    0    0    0  501 -0.00000000000E+00  0.00000000000E+00  0.28656604950E+03  0.28656886367E+03  0.12700000000E+01 0.  1.
          4   -1    0    0  501    0  0.00000000000E+00 -0.00000000000E+00 -0.13598611496E+02  0.13657786593E+02  0.12700000000E+01 0.  1.
         25    2    1    2    0    0  0.00000000000E+00  0.00000000000E+00  0.27296743800E+03  0.30022665026E+03  0.12499927727E+03 0.  0.
    9000005    1    3    3    0    0 -0.37441402173E+02  0.21635479976E+02  0.24483919375E+03  0.24863061635E+03  0.10000000000E+01 0.  0.
    9000005    1    3    3    0    0  0.37441402173E+02 -0.21635479976E+02  0.28128244248E+02  0.51596033907E+02  0.10000000000E+01 0.  0.
<mgrwt>
<rscale>  0 0.12499928E+03</rscale>
<asrwt>0</asrwt>
<pdfrwt beam="2">  1        4 0.20968625E-02 0.12499928E+03</pdfrwt>
<pdfrwt beam="1">  1       -4 0.44091852E-01 0.12499928E+03</pdfrwt>
<totfact> 0.75571629E+03</totfact>
</mgrwt>
</event>
<event>
 5    1  0.3266594E-002  0.1250012E+03  0.7818608E-02  0.1235067E+00
          4   -1    0    0  501    0  0.00000000000E+00  0.00000000000E+00  0.30751130205E+03  0.30751392455E+03  0.12700000000E+01 0.  1.
         -4   -1    0    0    0  501 -0.00000000000E+00 -0.00000000000E+00 -0.12668607995E+02  0.12732106210E+02  0.12700000000E+01 0.  1.
         25    2    1    2    0    0  0.00000000000E+00  0.00000000000E+00  0.29484269406E+03  0.32024603076E+03  0.12500122390E+03 0.  0.
    9000005    1    3    3    0    0  0.32867092335E+01  0.59328927970E+02  0.97835842700E+02  0.11447085336E+03  0.10000000000E+01 0.  0.
    9000005    1    3    3    0    0 -0.32867092335E+01 -0.59328927970E+02  0.19700685136E+03  0.20577517740E+03  0.10000000000E+01 0.  0.
<mgrwt>
<rscale>  0 0.12500122E+03</rscale>
<asrwt>0</asrwt>
<pdfrwt beam="1">  1        4 0.47314509E-01 0.12500122E+03</pdfrwt>
<pdfrwt beam="2">  1       -4 0.19541032E-02 0.12500122E+03</pdfrwt>
<totfact> 0.73124893E+03</totfact>
</mgrwt>
</event>
<event>
 5    1  0.3266594E-002  0.1249959E+03  0.7818608E-02  0.1235076E+00
         -4   -1    0    0    0  501 -0.00000000000E+00  0.00000000000E+00  0.50470369869E+02  0.50486346023E+02  0.12700000000E+01 0. -1.
          4   -1    0    0  501    0  0.00000000000E+00 -0.00000000000E+00 -0.77358437151E+02  0.77368861298E+02  0.12700000000E+01 0. -1.
         25    2    1    2    0    0  0.00000000000E+00  0.00000000000E+00 -0.26888067282E+02  0.12785520732E+03  0.12499594344E+03 0.  0.
    9000005    1    3    3    0    0  0.29895668407E+02 -0.70955056672E+01  0.42214827915E+02  0.52222494062E+02  0.10000000000E+01 0.  0.
    9000005    1    3    3    0    0 -0.29895668407E+02  0.70955056672E+01 -0.69102895197E+02  0.75632713258E+02  0.10000000000E+01 0.  0.
<mgrwt>
<rscale>  0 0.12499594E+03</rscale>
<asrwt>0</asrwt>
<pdfrwt beam="2">  1        4 0.11903329E-01 0.12499594E+03</pdfrwt>
<pdfrwt beam="1">  1       -4 0.77667031E-02 0.12499594E+03</pdfrwt>
<totfact> 0.10391567E+04</totfact>
</mgrwt>
</event>
<event>
 5    1  0.3266594E-002  0.1250002E+03  0.7818608E-02  0.1235069E+00
         -4   -1    0    0    0  501 -0.00000000000E+00  0.00000000000E+00  0.27023684489E+01  0.29859161464E+01  0.12700000000E+01 0.  1.
          4   -1    0    0  501    0  0.00000000000E+00 -0.00000000000E+00 -0.13731570267E+04  0.13731576140E+04  0.12700000000E+01 0.  1.
         25    2    1    2    0    0  0.00000000000E+00  0.00000000000E+00 -0.13704546582E+04  0.13761435301E+04  0.12500018092E+03 0.  0.
    9000005    1    3    3    0    0 -0.54007932529E+02  0.26879071043E+02 -0.86475386482E+03  0.86685615183E+03  0.10000000000E+01 0.  0.
    9000005    1    3    3    0    0  0.54007932529E+02 -0.26879071043E+02 -0.50570079340E+03  0.50928737828E+03  0.10000000000E+01 0.  0.
<mgrwt>
<rscale>  0 0.12500018E+03</rscale>
<asrwt>0</asrwt>
<pdfrwt beam="2">  1        4 0.21127625E+00 0.12500018E+03</pdfrwt>
<pdfrwt beam="1">  1       -4 0.43760663E-03 0.12500018E+03</pdfrwt>
<totfact> 0.20498711E+03</totfact>
</mgrwt>
</event>
<event>
 5    1  0.3266594E-002  0.1250565E+03  0.7818608E-02  0.1234981E+00
          4   -1    0    0  501    0  0.00000000000E+00  0.00000000000E+00  0.10655878984E+02  0.10731293348E+02  0.12700000000E+01 0.  1.
         -4   -1    0    0    0  501 -0.00000000000E+00 -0.00000000000E+00 -0.36554266279E+03  0.36554486896E+03  0.12700000000E+01 0.  1.
         25    2    1    2    0    0  0.00000000000E+00  0.00000000000E+00 -0.35488678381E+03  0.37627616231E+03  0.12505647123E+03 0.  0.
    9000005    1    3    3    0    0  0.56656902702E+02 -0.26322331276E+02 -0.17012841914E+03  0.18123892724E+03  0.10000000000E+01 0.  0.
    9000005    1    3    3    0    0 -0.56656902702E+02  0.26322331276E+02 -0.18475836467E+03  0.19503723507E+03  0.10000000000E+01 0.  0.
<mgrwt>
<rscale>  0 0.12505647E+03</rscale>
<asrwt>0</asrwt>
<pdfrwt beam="1">  1        4 0.16453371E-02 0.12505647E+03</pdfrwt>
<pdfrwt beam="2">  1       -4 0.56243294E-01 0.12505647E+03</pdfrwt>
<totfact> 0.66843947E+03</totfact>
</mgrwt>
</event>
<event>
 5    1  0.3266594E-002  0.1250272E+03  0.7818608E-02  0.1235027E+00
          4   -1    0    0  501    0  0.00000000000E+00  0.00000000000E+00  0.16730683166E+03  0.16731165178E+03  0.12700000000E+01 0.  1.
         -4   -1    0    0    0  501 -0.00000000000E+00 -0.00000000000E+00 -0.23335558170E+02  0.23370091466E+02  0.12700000000E+01 0.  1.
         25    2    1    2    0    0  0.00000000000E+00  0.00000000000E+00  0.14397127349E+03  0.19068174324E+03  0.12502719550E+03 0.  0.
    9000005    1    3    3    0    0  0.39704017842E+02 -0.39753093382E+02  0.30211975275E+02  0.63800320659E+02  0.10000000000E+01 0.  0.
    9000005    1    3    3    0    0 -0.39704017842E+02  0.39753093382E+02  0.11375929821E+03  0.12688142258E+03  0.10000000000E+01 0.  0.
<mgrwt>
<rscale>  0 0.12502720E+03</rscale>
<asrwt>0</asrwt>
<pdfrwt beam="1">  1        4 0.25742541E-01 0.12502720E+03</pdfrwt>
<pdfrwt beam="2">  1       -4 0.35931129E-02 0.12502720E+03</pdfrwt>
<totfact> 0.91672975E+03</totfact>
</mgrwt>
</event>
<event>
 5    1  0.3266594E-002  0.1250007E+03  0.7818608E-02  0.1235068E+00
          4   -1    0    0  501    0  0.00000000000E+00  0.00000000000E+00  0.83294408867E+03  0.83294505686E+03  0.12700000000E+01 0. -1.
         -4   -1    0    0    0  501 -0.00000000000E+00 -0.00000000000E+00 -0.46027726086E+01  0.47747686527E+01  0.12700000000E+01 0. -1.
         25    2    1    2    0    0  0.00000000000E+00  0.00000000000E+00  0.82834131606E+03  0.83771982551E+03  0.12500068066E+03 0.  0.
    9000005    1    3    3    0    0  0.10021097198E+02 -0.21363850170E+02  0.26369842746E+02  0.35400636853E+02  0.10000000000E+01 0.  0.
    9000005    1    3    3    0    0 -0.10021097198E+02  0.21363850170E+02  0.80197147331E+03  0.80231918866E+03  0.10000000000E+01 0.  0.
<mgrwt>
<rscale>  0 0.12500068E+03</rscale>
<asrwt>0</asrwt>
<pdfrwt beam="1">  1        4 0.12815850E+00 0.12500068E+03</pdfrwt>
<pdfrwt beam="2">  1       -4 0.72142406E-03 0.12500068E+03</pdfrwt>
<totfact> 0.36634644E+03</totfact>
</mgrwt>
</event>
<event>
 5    1  0.3266594E-002  0.1249754E+03  0.7818608E-02  0.1235108E+00
         -4   -1    0    0    0  501 -0.00000000000E+00  0.00000000000E+00  0.18715420001E+02  0.18758460646E+02  0.12700000000E+01 0. -1.
          4   -1    0    0  501    0  0.00000000000E+00 -0.00000000000E+00 -0.20835141283E+03  0.20835528342E+03  0.12700000000E+01 0. -1.
         25    2    1    2    0    0  0.00000000000E+00  0.00000000000E+00 -0.18963599283E+03  0.22711374407E+03  0.12497536944E+03 0.  0.
    9000005    1    3    3    0    0 -0.56314415393E+01  0.52086041659E+02 -0.32949644021E+02  0.61897882925E+02  0.10000000000E+01 0.  0.
    9000005    1    3    3    0    0  0.56314415393E+01 -0.52086041659E+02 -0.15668634881E+03  0.16521586114E+03  0.10000000000E+01 0.  0.
<mgrwt>
<rscale>  0 0.12497537E+03</rscale>
<asrwt>0</asrwt>
<pdfrwt beam="2">  1        4 0.32057671E-01 0.12497537E+03</pdfrwt>
<pdfrwt beam="1">  1       -4 0.28829041E-02 0.12497537E+03</pdfrwt>
<totfact> 0.85801919E+03</totfact>
</mgrwt>
</event>
<event>
 5    1  0.3266594E-002  0.1250118E+03  0.7818608E-02  0.1235051E+00
         -4   -1    0    0    0  501 -0.00000000000E+00  0.00000000000E+00  0.25753926130E+03  0.25754239264E+03  0.12700000000E+01 0. -1.
          4   -1    0    0  501    0  0.00000000000E+00 -0.00000000000E+00 -0.15140651713E+02  0.15193822241E+02  0.12700000000E+01 0. -1.
         25    2    1    2    0    0  0.00000000000E+00  0.00000000000E+00  0.24239860958E+03  0.27273621488E+03  0.12501182737E+03 0.  0.
    9000005    1    3    3    0    0 -0.29521908744E+02 -0.32063258793E+02  0.23475634290E+02  0.49514655059E+02  0.10000000000E+01 0.  0.
    9000005    1    3    3    0    0  0.29521908744E+02  0.32063258793E+02  0.21892297529E+03  0.22322155983E+03  0.10000000000E+01 0.  0.
<mgrwt>
<rscale>  0 0.12501183E+03</rscale>
<asrwt>0</asrwt>
<pdfrwt beam="2">  1        4 0.23336619E-02 0.12501183E+03</pdfrwt>
<pdfrwt beam="1">  1       -4 0.39625756E-01 0.12501183E+03</pdfrwt>
<totfact> 0.79130377E+03</totfact>
</mgrwt>
</event>
<event>
 5    1  0.3266594E-002  0.1249932E+03  0.7818608E-02  0.1235080E+00
          4   -1    0    0  501    0  0.00000000000E+00  0.00000000000E+00  0.40025123042E+02  0.40045266568E+02  0.12700000000E+01 0. -1.
         -4   -1    0    0    0  501 -0.00000000000E+00 -0.00000000000E+00 -0.97535522236E+02  0.97543790155E+02  0.12700000000E+01 0. -1.
         25    2    1    2    0    0  0.00000000000E+00  0.00000000000E+00 -0.57510399194E+02  0.13758905672E+03  0.12499320987E+03 0.  0.
    9000005    1    3    3    0    0  0.16581712166E+01 -0.42032550704E+02  0.22111208246E+02  0.47533045143E+02  0.10000000000E+01 0.  0.
    9000005    1    3    3    0    0 -0.16581712166E+01  0.42032550704E+02 -0.79621607440E+02  0.90056011581E+02  0.10000000000E+01 0.  0.
<mgrwt>
<rscale>  0 0.12499321E+03</rscale>
<asrwt>0</asrwt>
<pdfrwt beam="1">  1        4 0.61598967E-02 0.12499321E+03</pdfrwt>
<pdfrwt beam="2">  1       -4 0.15007650E-01 0.12499321E+03</pdfrwt>
<totfact> 0.10185343E+04</totfact>
</mgrwt>
</event>
<event>
 5    1  0.3266594E-002  0.1250004E+03  0.7818608E-02  0.1235069E+00
         -4   -1    0    0    0  501 -0.00000000000E+00  0.00000000000E+00  0.15015009711E+03  0.15015546797E+03  0.12700000000E+01 0.  1.
          4   -1    0    0  501    0  0.00000000000E+00 -0.00000000000E+00 -0.25994465943E+02  0.26025471363E+02  0.12700000000E+01 0.  1.
         25    2    1    2    0    0  0.00000000000E+00  0.00000000000E+00  0.12415563117E+03  0.17618093934E+03  0.12500041054E+03 0.  0.
    9000005    1    3    3    0    0 -0.48241428521E+02 -0.21180147052E+02  0.14710434616E+02  0.54710428087E+02  0.10000000000E+01 0.  0.
    9000005    1    3    3    0    0  0.48241428521E+02  0.21180147052E+02  0.10944519655E+03  0.12147051125E+03  0.10000000000E+01 0.  0.
<mgrwt>
<rscale>  0 0.12500041E+03</rscale>
<asrwt>0</asrwt>
<pdfrwt beam="2">  1        4 0.40019468E-02 0.12500041E+03</pdfrwt>
<pdfrwt beam="1">  1       -4 0.23102813E-01 0.12500041E+03</pdfrwt>
<totfact> 0.94308130E+03</totfact>
</mgrwt>
</event>
<event>
 5    1  0.3266594E-002  0.1249825E+03  0.7818608E-02  0.1235097E+00
         -4   -1    0    0    0  501 -0.00000000000E+00  0.00000000000E+00  0.83480792931E+02  0.83490452678E+02  0.12700000000E+01 0.  1.
          4   -1    0    0  501    0  0.00000000000E+00 -0.00000000000E+00 -0.46758086187E+02  0.46775330292E+02  0.12700000000E+01 0.  1.
         25    2    1    2    0    0  0.00000000000E+00  0.00000000000E+00  0.36722706744E+02  0.13026578297E+03  0.12498246686E+03 0.  0.
    9000005    1    3    3    0    0  0.15876768279E+01 -0.62462090686E+02  0.17999150542E+02  0.65030784331E+02  0.10000000000E+01 0.  0.
    9000005    1    3    3    0    0 -0.15876768279E+01  0.62462090686E+02  0.18723556202E+02  0.65234998639E+02  0.10000000000E+01 0.  0.
<mgrwt>
<rscale>  0 0.12498247E+03</rscale>
<asrwt>0</asrwt>
<pdfrwt beam="2">  1        4 0.71956213E-02 0.12498247E+03</pdfrwt>
<pdfrwt beam="1">  1       -4 0.12845268E-01 0.12498247E+03</pdfrwt>
<totfact> 0.10342918E+04</totfact>
</mgrwt>
</event>
<event>
 5    1  0.3266594E-002  0.1250000E+03  0.7818608E-02  0.1235069E+00
         -4   -1    0    0    0  501 -0.00000000000E+00  0.00000000000E+00  0.27484912057E+03  0.27485205471E+03  0.12700000000E+01 0.  1.
          4   -1    0    0  501    0  0.00000000000E+00 -0.00000000000E+00 -0.14180954858E+02  0.14237709811E+02  0.12700000000E+01 0.  1.
         25    2    1    2    0    0  0.00000000000E+00  0.00000000000E+00  0.26066816572E+03  0.28908976452E+03  0.12499999734E+03 0.  0.
    9000005    1    3    3    0    0  0.20198651850E+02 -0.47698960678E+02  0.21118247095E+03  0.21744473418E+03  0.10000000000E+01 0.  0.
    9000005    1    3    3    0    0 -0.20198651850E+02  0.47698960678E+02  0.49485694762E+02  0.71645030340E+02  0.10000000000E+01 0.  0.
<mgrwt>
<rscale>  0 0.12500000E+03</rscale>
<asrwt>0</asrwt>
<pdfrwt beam="2">  1        4 0.21862769E-02 0.12500000E+03</pdfrwt>
<pdfrwt beam="1">  1       -4 0.42289071E-01 0.12500000E+03</pdfrwt>
<totfact> 0.76988105E+03</totfact>
</mgrwt>
</event>
<event>
 5    1  0.3266594E-002  0.1250060E+03  0.7818608E-02  0.1235060E+00
          4   -1    0    0  501    0  0.00000000000E+00  0.00000000000E+00  0.35262789963E+03  0.35263018660E+03  0.12700000000E+01 0.  1.
         -4   -1    0    0    0  501 -0.00000000000E+00 -0.00000000000E+00 -0.11039871951E+02  0.11112680716E+02  0.12700000000E+01 0.  1.
         25    2    1    2    0    0  0.00000000000E+00  0.00000000000E+00  0.34158802768E+03  0.36374286731E+03  0.12500597132E+03 0.  0.
    9000005    1    3    3    0    0  0.15731778288E+02  0.59288561188E+02  0.20559031514E+03  0.21454836288E+03  0.10000000000E+01 0.  0.
    9000005    1    3    3    0    0 -0.15731778288E+02 -0.59288561188E+02  0.13599771254E+03  0.14919450443E+03  0.10000000000E+01 0.  0.
<mgrwt>
<rscale>  0 0.12500597E+03</rscale>
<asrwt>0</asrwt>
<pdfrwt beam="1">  1        4 0.54256228E-01 0.12500597E+03</pdfrwt>
<pdfrwt beam="2">  1       -4 0.17042183E-02 0.12500597E+03</pdfrwt>
<totfact> 0.68229654E+03</totfact>
</mgrwt>
</event>
<event>
 5    1  0.3266594E-002  0.1249960E+03  0.7818608E-02  0.1235076E+00
         -4   -1    0    0    0  501 -0.00000000000E+00  0.00000000000E+00  0.12854082189E+03  0.12854709561E+03  0.12700000000E+01 0. -1.
          4   -1    0    0  501    0  0.00000000000E+00 -0.00000000000E+00 -0.30366938208E+02  0.30393483448E+02  0.12700000000E+01 0. -1.
         25    2    1    2    0    0  0.00000000000E+00  0.00000000000E+00  0.98173883678E+02  0.15894057906E+03  0.12499598488E+03 0.  0.
    9000005    1    3    3    0    0  0.39545464451E+02  0.33845010111E+01 -0.12287671658E+02  0.41560624160E+02  0.10000000000E+01 0.  0.
    9000005    1    3    3    0    0 -0.39545464451E+02 -0.33845010111E+01  0.11046155534E+03  0.11737995490E+03  0.10000000000E+01 0.  0.
<mgrwt>
<rscale>  0 0.12499598E+03</rscale>
<asrwt>0</asrwt>
<pdfrwt beam="2">  1        4 0.46743613E-02 0.12499598E+03</pdfrwt>
<pdfrwt beam="1">  1       -4 0.19778035E-01 0.12499598E+03</pdfrwt>
<totfact> 0.97556228E+03</totfact>
</mgrwt>
</event>
<event>
 5    1  0.3266594E-002  0.1250003E+03  0.7818608E-02  0.1235069E+00
          4   -1    0    0  501    0  0.00000000000E+00  0.00000000000E+00  0.10636384561E+03  0.10637142733E+03  0.12700000000E+01 0.  1.
         -4   -1    0    0    0  501 -0.00000000000E+00 -0.00000000000E+00 -0.36705630890E+02  0.36727595062E+02  0.12700000000E+01 0.  1.
         25    2    1    2    0    0  0.00000000000E+00  0.00000000000E+00  0.69658214719E+02  0.14309902239E+03  0.12500025333E+03 0.  0.
    9000005    1    3    3    0    0 -0.45873951422E+02  0.11279117190E+02  0.81662458109E+02  0.94347204346E+02  0.10000000000E+01 0.  0.
    9000005    1    3    3    0    0  0.45873951422E+02 -0.11279117190E+02 -0.12004243390E+02  0.48751818048E+02  0.10000000000E+01 0.  0.
<mgrwt>
<rscale>  0 0.12500025E+03</rscale>
<asrwt>0</asrwt>
<pdfrwt beam="1">  1        4 0.16365941E-01 0.12500025E+03</pdfrwt>
<pdfrwt beam="2">  1       -4 0.56492930E-02 0.12500025E+03</pdfrwt>
<totfact> 0.10069698E+04</totfact>
</mgrwt>
</event>
<event>
 5    1  0.3266594E-002  0.1250013E+03  0.7818608E-02  0.1235067E+00
          4   -1    0    0  501    0  0.00000000000E+00  0.00000000000E+00  0.44607810605E+02  0.44625885616E+02  0.12700000000E+01 0. -1.
         -4   -1    0    0    0  501 -0.00000000000E+00 -0.00000000000E+00 -0.87530167677E+02  0.87539380587E+02  0.12700000000E+01 0. -1.
         25    2    1    2    0    0  0.00000000000E+00  0.00000000000E+00 -0.42922357072E+02  0.13216526620E+03  0.12500131541E+03 0.  0.
    9000005    1    3    3    0    0  0.35909647559E+02 -0.26589054144E+02 -0.67655526128E+02  0.81084837077E+02  0.10000000000E+01 0.  0.
    9000005    1    3    3    0    0 -0.35909647559E+02  0.26589054144E+02  0.24733169057E+02  0.51080429126E+02  0.10000000000E+01 0.  0.
<mgrwt>
<rscale>  0 0.12500132E+03</rscale>
<asrwt>0</asrwt>
<pdfrwt beam="1">  1        4 0.68648392E-02 0.12500132E+03</pdfrwt>
<pdfrwt beam="2">  1       -4 0.13468279E-01 0.12500132E+03</pdfrwt>
<totfact> 0.10297867E+04</totfact>
</mgrwt>
</event>
<event>
 5    1  0.3266594E-002  0.1250008E+03  0.7818608E-02  0.1235068E+00
          4   -1    0    0  501    0  0.00000000000E+00  0.00000000000E+00  0.46999022573E+02  0.47016178310E+02  0.12700000000E+01 0. -1.
         -4   -1    0    0    0  501 -0.00000000000E+00 -0.00000000000E+00 -0.83077290380E+02  0.83086997039E+02  0.12700000000E+01 0. -1.
         25    2    1    2    0    0  0.00000000000E+00  0.00000000000E+00 -0.36078267807E+02  0.13010317535E+03  0.12500077931E+03 0.  0.
    9000005    1    3    3    0    0 -0.56931835984E+02 -0.15596833886E+02 -0.39389968859E+02  0.70972282072E+02  0.10000000000E+01 0.  0.
    9000005    1    3    3    0    0  0.56931835984E+02  0.15596833886E+02  0.33117010517E+01  0.59130893276E+02  0.10000000000E+01 0.  0.
<mgrwt>
<rscale>  0 0.12500078E+03</rscale>
<asrwt>0</asrwt>
<pdfrwt beam="1">  1        4 0.72326852E-02 0.12500078E+03</pdfrwt>
<pdfrwt beam="2">  1       -4 0.12783188E-01 0.12500078E+03</pdfrwt>
<totfact> 0.10342119E+04</totfact>
</mgrwt>
</event>
<event>
 5    1  0.3266594E-002  0.1249984E+03  0.7818608E-02  0.1235072E+00
         -4   -1    0    0    0  501 -0.00000000000E+00  0.00000000000E+00  0.34842044103E+03  0.34842275561E+03  0.12700000000E+01 0.  1.
          4   -1    0    0  501    0  0.00000000000E+00 -0.00000000000E+00 -0.11172701556E+02  0.11244650286E+02  0.12700000000E+01 0.  1.
         25    2    1    2    0    0  0.00000000000E+00  0.00000000000E+00  0.33724773947E+03  0.35966740589E+03  0.12499842033E+03 0.  0.
    9000005    1    3    3    0    0  0.12079495407E+02 -0.79072703431E+01  0.34357001376E+03  0.34387467701E+03  0.10000000000E+01 0.  0.
    9000005    1    3    3    0    0 -0.12079495407E+02  0.79072703431E+01 -0.63222742859E+01  0.15792728888E+02  0.10000000000E+01 0.  0.
<mgrwt>
<rscale>  0 0.12499842E+03</rscale>
<asrwt>0</asrwt>
<pdfrwt beam="2">  1        4 0.17245896E-02 0.12499842E+03</pdfrwt>
<pdfrwt beam="1">  1       -4 0.53608862E-01 0.12499842E+03</pdfrwt>
<totfact> 0.68676349E+03</totfact>
</mgrwt>
</event>
<event>
 5    1  0.3266594E-002  0.1249971E+03  0.7818608E-02  0.1235074E+00
         -4   -1    0    0    0  501 -0.00000000000E+00  0.00000000000E+00  0.20993572039E+03  0.20993956177E+03  0.12700000000E+01 0.  1.
          4   -1    0    0  501    0  0.00000000000E+00 -0.00000000000E+00 -0.18580341177E+02  0.18623694001E+02  0.12700000000E+01 0.  1.
         25    2    1    2    0    0  0.00000000000E+00  0.00000000000E+00  0.19135537921E+03  0.22856325577E+03  0.12499712290E+03 0.  0.
    9000005    1    3    3    0    0 -0.32902886640E+02 -0.52431391343E+02  0.80009748905E+02  0.10116427565E+03  0.10000000000E+01 0.  0.
    9000005    1    3    3    0    0  0.32902886640E+02  0.52431391343E+02  0.11134563031E+03  0.12739898012E+03  0.10000000000E+01 0.  0.
<mgrwt>
<rscale>  0 0.12499712E+03</rscale>
<asrwt>0</asrwt>
<pdfrwt beam="2">  1        4 0.28621443E-02 0.12499712E+03</pdfrwt>
<pdfrwt beam="1">  1       -4 0.32301434E-01 0.12499712E+03</pdfrwt>
<totfact> 0.85536190E+03</totfact>
</mgrwt>
</event>
<event>
 5    1  0.3266594E-002  0.1250048E+03  0.7818608E-02  0.1235062E+00
          4   -1    0    0  501    0  0.00000000000E+00  0.00000000000E+00  0.89312047413E+03  0.89312137709E+03  0.12700000000E+01 0. -1.
         -4   -1    0    0    0  501 -0.00000000000E+00 -0.00000000000E+00 -0.42809332814E+01  0.44653431850E+01  0.12700000000E+01 0. -1.
         25    2    1    2    0    0  0.00000000000E+00  0.00000000000E+00  0.88883954085E+03  0.89758672027E+03  0.12500476404E+03 0.  0.
    9000005    1    3    3    0    0  0.50334465156E+02 -0.29676121735E+02  0.28526090787E+03  0.29118553560E+03  0.10000000000E+01 0.  0.
    9000005    1    3    3    0    0 -0.50334465156E+02  0.29676121735E+02  0.60357863298E+03  0.60640118467E+03  0.10000000000E+01 0.  0.
<mgrwt>
<rscale>  0 0.12500476E+03</rscale>
<asrwt>0</asrwt>
<pdfrwt beam="1">  1        4 0.13741729E+00 0.12500476E+03</pdfrwt>
<pdfrwt beam="2">  1       -4 0.67286052E-03 0.12500476E+03</pdfrwt>
<totfact> 0.34248958E+03</totfact>
</mgrwt>
</event>
<event>
 5    1  0.3266594E-002  0.1249800E+03  0.7818608E-02  0.1235100E+00
         -4   -1    0    0    0  501 -0.00000000000E+00  0.00000000000E+00  0.85825235820E+03  0.85825329784E+03  0.12700000000E+01 0. -1.
          4   -1    0    0  501    0  0.00000000000E+00 -0.00000000000E+00 -0.44603643986E+01  0.46376449377E+01  0.12700000000E+01 0. -1.
         25    2    1    2    0    0  0.00000000000E+00  0.00000000000E+00  0.85379199380E+03  0.86289094278E+03  0.12498004021E+03 0.  0.
    9000005    1    3    3    0    0  0.51334491949E+02  0.28593814461E+02  0.57354651041E+03  0.57654959535E+03  0.10000000000E+01 0.  0.
    9000005    1    3    3    0    0 -0.51334491949E+02 -0.28593814461E+02  0.28024548339E+03  0.28634134743E+03  0.10000000000E+01 0.  0.
<mgrwt>
<rscale>  0 0.12498004E+03</rscale>
<asrwt>0</asrwt>
<pdfrwt beam="2">  1        4 0.69991949E-03 0.12498004E+03</pdfrwt>
<pdfrwt beam="1">  1       -4 0.13205247E+00 0.12498004E+03</pdfrwt>
<totfact> 0.35621082E+03</totfact>
</mgrwt>
</event>
<event>
 5    1  0.3266594E-002  0.1250018E+03  0.7818608E-02  0.1235066E+00
          4   -1    0    0  501    0  0.00000000000E+00  0.00000000000E+00  0.57894378849E+03  0.57894518145E+03  0.12700000000E+01 0.  1.
         -4   -1    0    0    0  501 -0.00000000000E+00 -0.00000000000E+00 -0.66862226396E+01  0.68057676413E+01  0.12700000000E+01 0.  1.
         25    2    1    2    0    0  0.00000000000E+00  0.00000000000E+00  0.57225756585E+03  0.58575094910E+03  0.12500181077E+03 0.  0.
    9000005    1    3    3    0    0 -0.45939681466E+02 -0.11853224119E+02  0.95530817965E+02  0.10666813224E+03  0.10000000000E+01 0.  0.
    9000005    1    3    3    0    0  0.45939681466E+02  0.11853224119E+02  0.47672674788E+03  0.47908281685E+03  0.10000000000E+01 0.  0.
<mgrwt>
<rscale>  0 0.12500181E+03</rscale>
<asrwt>0</asrwt>
<pdfrwt beam="1">  1        4 0.89077606E-01 0.12500181E+03</pdfrwt>
<pdfrwt beam="2">  1       -4 0.10379522E-02 0.12500181E+03</pdfrwt>
<totfact> 0.49777595E+03</totfact>
</mgrwt>
</event>
<event>
 5    1  0.3266594E-002  0.1249962E+03  0.7818608E-02  0.1235075E+00
          4   -1    0    0  501    0  0.00000000000E+00  0.00000000000E+00  0.11986318767E+02  0.12053411865E+02  0.12700000000E+01 0. -1.
         -4   -1    0    0    0  501 -0.00000000000E+00 -0.00000000000E+00 -0.32489461627E+03  0.32489709845E+03  0.12700000000E+01 0. -1.
         25    2    1    2    0    0  0.00000000000E+00  0.00000000000E+00 -0.31290829750E+03  0.33695051032E+03  0.12499617496E+03 0.  0.
    9000005    1    3    3    0    0  0.25116374756E+02 -0.28822210363E+02 -0.23202709131E+02  0.44731619713E+02  0.10000000000E+01 0.  0.
    9000005    1    3    3    0    0 -0.25116374756E+02  0.28822210363E+02 -0.28970558837E+03  0.29221889060E+03  0.10000000000E+01 0.  0.
<mgrwt>
<rscale>  0 0.12499617E+03</rscale>
<asrwt>0</asrwt>
<pdfrwt beam="1">  1        4 0.18494012E-02 0.12499617E+03</pdfrwt>
<pdfrwt beam="2">  1       -4 0.49989132E-01 0.12499617E+03</pdfrwt>
<totfact> 0.71190460E+03</totfact>
</mgrwt>
</event>
<event>
 5    1  0.3266594E-002  0.1250004E+03  0.7818608E-02  0.1235069E+00
         -4   -1    0    0    0  501 -0.00000000000E+00  0.00000000000E+00  0.39614277353E+01  0.41600252045E+01  0.12700000000E+01 0.  1.
          4   -1    0    0  501    0  0.00000000000E+00 -0.00000000000E+00 -0.96176586027E+03  0.96176669878E+03  0.12700000000E+01 0.  1.
         25    2    1    2    0    0  0.00000000000E+00  0.00000000000E+00 -0.95780443254E+03  0.96592672399E+03  0.12500042049E+03 0.  0.
    9000005    1    3    3    0    0  0.35401826174E+02  0.51497315543E+02 -0.47800516689E+03  0.48207385573E+03  0.10000000000E+01 0.  0.
    9000005    1    3    3    0    0 -0.35401826174E+02 -0.51497315543E+02 -0.47979926564E+03  0.48385286825E+03  0.10000000000E+01 0.  0.
<mgrwt>
<rscale>  0 0.12500042E+03</rscale>
<asrwt>0</asrwt>
<pdfrwt beam="2">  1        4 0.14797914E+00 0.12500042E+03</pdfrwt>
<pdfrwt beam="1">  1       -4 0.62479242E-03 0.12500042E+03</pdfrwt>
<totfact> 0.31756922E+03</totfact>
</mgrwt>
</event>
<event>
 5    1  0.3266594E-002  0.1249999E+03  0.7818608E-02  0.1235069E+00
          4   -1    0    0  501    0  0.00000000000E+00  0.00000000000E+00  0.55557914997E+02  0.55572428584E+02  0.12700000000E+01 0.  1.
         -4   -1    0    0    0  501 -0.00000000000E+00 -0.00000000000E+00 -0.70280017552E+02  0.70291491427E+02  0.12700000000E+01 0.  1.
         25    2    1    2    0    0  0.00000000000E+00  0.00000000000E+00 -0.14722102555E+02  0.12586392001E+03  0.12499994423E+03 0.  0.
    9000005    1    3    3    0    0 -0.61002738078E+02 -0.27325355754E+01 -0.20736149712E+02  0.64496423998E+02  0.10000000000E+01 0.  0.
    9000005    1    3    3    0    0  0.61002738078E+02  0.27325355754E+01  0.60140471567E+01  0.61367496013E+02  0.10000000000E+01 0.  0.
<mgrwt>
<rscale>  0 0.12499994E+03</rscale>
<asrwt>0</asrwt>
<pdfrwt beam="1">  1        4 0.85493705E-02 0.12499994E+03</pdfrwt>
<pdfrwt beam="2">  1       -4 0.10814310E-01 0.12499994E+03</pdfrwt>
<totfact> 0.10433955E+04</totfact>
</mgrwt>
</event>
<event>
 5    1  0.3266594E-002  0.1249991E+03  0.7818608E-02  0.1235071E+00
          4   -1    0    0  501    0  0.00000000000E+00  0.00000000000E+00  0.70488016475E+03  0.70488130884E+03  0.12700000000E+01 0. -1.
         -4   -1    0    0    0  501 -0.00000000000E+00 -0.00000000000E+00 -0.54677148635E+01  0.56132705109E+01  0.12700000000E+01 0. -1.
         25    2    1    2    0    0  0.00000000000E+00  0.00000000000E+00  0.69941244988E+03  0.71049457935E+03  0.12499908894E+03 0.  0.
    9000005    1    3    3    0    0  0.66308816249E+00 -0.35516233287E+02  0.57471848826E+02  0.67571117501E+02  0.10000000000E+01 0.  0.
    9000005    1    3    3    0    0 -0.66308816249E+00  0.35516233287E+02  0.64194060106E+03  0.64292346185E+03  0.10000000000E+01 0.  0.
<mgrwt>
<rscale>  0 0.12499909E+03</rscale>
<asrwt>0</asrwt>
<pdfrwt beam="1">  1        4 0.10845442E+00 0.12499909E+03</pdfrwt>
<pdfrwt beam="2">  1       -4 0.85247122E-03 0.12499909E+03</pdfrwt>
<totfact> 0.42539299E+03</totfact>
</mgrwt>
</event>
<event>
 5    1  0.3266594E-002  0.1250061E+03  0.7818608E-02  0.1235060E+00
          4   -1    0    0  501    0  0.00000000000E+00  0.00000000000E+00  0.92664412743E+02  0.92673115244E+02  0.12700000000E+01 0. -1.
         -4   -1    0    0    0  501 -0.00000000000E+00 -0.00000000000E+00 -0.42138663845E+02  0.42157797507E+02  0.12700000000E+01 0. -1.
         25    2    1    2    0    0  0.00000000000E+00  0.00000000000E+00  0.50525748898E+02  0.13483091275E+03  0.12500609478E+03 0.  0.
    9000005    1    3    3    0    0 -0.25770974326E+02 -0.23895074678E+02  0.81001422675E+02  0.88302594452E+02  0.10000000000E+01 0.  0.
    9000005    1    3    3    0    0  0.25770974326E+02  0.23895074678E+02 -0.30475673777E+02  0.46528318299E+02  0.10000000000E+01 0.  0.
<mgrwt>
<rscale>  0 0.12500609E+03</rscale>
<asrwt>0</asrwt>
<pdfrwt beam="1">  1        4 0.14258205E-01 0.12500609E+03</pdfrwt>
<pdfrwt beam="2">  1       -4 0.64850127E-02 0.12500609E+03</pdfrwt>
<totfact> 0.10240228E+04</totfact>
</mgrwt>
</event>
<event>
 5    1  0.3266594E-002  0.1249996E+03  0.7818608E-02  0.1235070E+00
         -4   -1    0    0    0  501 -0.00000000000E+00  0.00000000000E+00  0.24334905612E+01  0.27449547012E+01  0.12700000000E+01 0. -1.
          4   -1    0    0  501    0  0.00000000000E+00 -0.00000000000E+00 -0.15083365323E+04  0.15083370670E+04  0.12700000000E+01 0. -1.
         25    2    1    2    0    0  0.00000000000E+00  0.00000000000E+00 -0.15059030418E+04  0.15110820217E+04  0.12499962030E+03 0.  0.
    9000005    1    3    3    0    0 -0.19382321144E+02  0.14481809063E+02 -0.56425719544E+02  0.61402434745E+02  0.10000000000E+01 0.  0.
    9000005    1    3    3    0    0  0.19382321144E+02 -0.14481809063E+02 -0.14494773222E+04  0.14496795869E+04  0.10000000000E+01 0.  0.
<mgrwt>
<rscale>  0 0.12499962E+03</rscale>
<asrwt>0</asrwt>
<pdfrwt beam="2">  1        4 0.23207507E+00 0.12499962E+03</pdfrwt>
<pdfrwt beam="1">  1       -4 0.39838428E-03 0.12499962E+03</pdfrwt>
<totfact> 0.17713825E+03</totfact>
</mgrwt>
</event>
<event>
 5    1  0.3266594E-002  0.1250000E+03  0.7818608E-02  0.1235069E+00
          4   -1    0    0  501    0  0.00000000000E+00  0.00000000000E+00  0.25503237408E+02  0.25534839304E+02  0.12700000000E+01 0. -1.
         -4   -1    0    0    0  501 -0.00000000000E+00 -0.00000000000E+00 -0.15303777703E+03  0.15304304655E+03  0.12700000000E+01 0. -1.
         25    2    1    2    0    0  0.00000000000E+00  0.00000000000E+00 -0.12753453962E+03  0.17857788586E+03  0.12500001008E+03 0.  0.
    9000005    1    3    3    0    0 -0.35878916954E+02 -0.33657331728E+02 -0.87117294094E+01  0.49970059937E+02  0.10000000000E+01 0.  0.
    9000005    1    3    3    0    0  0.35878916954E+02  0.33657331728E+02 -0.11882281021E+03  0.12860782592E+03  0.10000000000E+01 0.  0.
<mgrwt>
<rscale>  0 0.12500001E+03</rscale>
<asrwt>0</asrwt>
<pdfrwt beam="1">  1        4 0.39264114E-02 0.12500001E+03</pdfrwt>
<pdfrwt beam="2">  1       -4 0.23547109E-01 0.12500001E+03</pdfrwt>
<totfact> 0.93873596E+03</totfact>
</mgrwt>
</event>
<event>
 5    1  0.3266594E-002  0.1249939E+03  0.7818608E-02  0.1235079E+00
         -4   -1    0    0    0  501 -0.00000000000E+00  0.00000000000E+00  0.61042672142E+02  0.61055881963E+02  0.12700000000E+01 0.  1.
          4   -1    0    0  501    0  0.00000000000E+00 -0.00000000000E+00 -0.63959394668E+02  0.63972002206E+02  0.12700000000E+01 0.  1.
         25    2    1    2    0    0  0.00000000000E+00  0.00000000000E+00 -0.29167225257E+01  0.12502788417E+03  0.12499385805E+03 0.  0.
    9000005    1    3    3    0    0 -0.10564057674E+02 -0.35791001897E+02 -0.51594565595E+02  0.63683548349E+02  0.10000000000E+01 0.  0.
    9000005    1    3    3    0    0  0.10564057674E+02  0.35791001897E+02  0.48677843069E+02  0.61344335820E+02  0.10000000000E+01 0.  0.
<mgrwt>
<rscale>  0 0.12499386E+03</rscale>
<asrwt>0</asrwt>
<pdfrwt beam="2">  1        4 0.98418928E-02 0.12499386E+03</pdfrwt>
<pdfrwt beam="1">  1       -4 0.93931663E-02 0.12499386E+03</pdfrwt>
<totfact> 0.10453708E+04</totfact>
</mgrwt>
</event>
<event>
 5    1  0.3266594E-002  0.1249835E+03  0.7818608E-02  0.1235095E+00
          4   -1    0    0  501    0  0.00000000000E+00  0.00000000000E+00  0.60680350468E+01  0.61995120234E+01  0.12700000000E+01 0.  1.
         -4   -1    0    0    0  501 -0.00000000000E+00 -0.00000000000E+00 -0.63654259471E+03  0.63654386163E+03  0.12700000000E+01 0.  1.
         25    2    1    2    0    0  0.00000000000E+00  0.00000000000E+00 -0.63047455967E+03  0.64274337366E+03  0.12498349489E+03 0.  0.
    9000005    1    3    3    0    0 -0.13539098812E+02 -0.11355642418E+02 -0.70244373112E+01  0.19042072652E+02  0.10000000000E+01 0.  0.
    9000005    1    3    3    0    0  0.13539098812E+02  0.11355642418E+02 -0.62345012235E+03  0.62370130100E+03  0.10000000000E+01 0.  0.
<mgrwt>
<rscale>  0 0.12498349E+03</rscale>
<asrwt>0</asrwt>
<pdfrwt beam="1">  1        4 0.94375542E-03 0.12498349E+03</pdfrwt>
<pdfrwt beam="2">  1       -4 0.97939789E-01 0.12498349E+03</pdfrwt>
<totfact> 0.46292758E+03</totfact>
</mgrwt>
</event>
<event>
 5    1  0.3266594E-002  0.1249993E+03  0.7818608E-02  0.1235070E+00
          4   -1    0    0  501    0  0.00000000000E+00  0.00000000000E+00  0.30408640994E+02  0.30435149861E+02  0.12700000000E+01 0. -1.
         -4   -1    0    0    0  501 -0.00000000000E+00 -0.00000000000E+00 -0.12837145448E+03  0.12837773649E+03  0.12700000000E+01 0. -1.
         25    2    1    2    0    0  0.00000000000E+00  0.00000000000E+00 -0.97962813489E+02  0.15881288635E+03  0.12499928017E+03 0.  0.
    9000005    1    3    3    0    0 -0.20027176549E+02 -0.41918414454E+02 -0.10208454314E+03  0.11216280675E+03  0.10000000000E+01 0.  0.
    9000005    1    3    3    0    0  0.20027176549E+02  0.41918414454E+02  0.41217296518E+01  0.46650079595E+02  0.10000000000E+01 0.  0.
<mgrwt>
<rscale>  0 0.12499928E+03</rscale>
<asrwt>0</asrwt>
<pdfrwt beam="1">  1        4 0.46807749E-02 0.12499928E+03</pdfrwt>
<pdfrwt beam="2">  1       -4 0.19751977E-01 0.12499928E+03</pdfrwt>
<totfact> 0.97573719E+03</totfact>
</mgrwt>
</event>
<event>
 5    1  0.3266594E-002  0.1250016E+03  0.7818608E-02  0.1235067E+00
         -4   -1    0    0    0  501 -0.00000000000E+00  0.00000000000E+00  0.14297123321E+03  0.14297687375E+03  0.12700000000E+01 0. -1.
          4   -1    0    0  501    0  0.00000000000E+00 -0.00000000000E+00 -0.27301673950E+02  0.27331196469E+02  0.12700000000E+01 0. -1.
         25    2    1    2    0    0  0.00000000000E+00  0.00000000000E+00  0.11566955926E+03  0.17030807022E+03  0.12500156735E+03 0.  0.
    9000005    1    3    3    0    0 -0.49774982028E+02  0.45278563148E+01  0.10894558794E+03  0.11986739111E+03  0.10000000000E+01 0.  0.
    9000005    1    3    3    0    0  0.49774982028E+02 -0.45278563148E+01  0.67239713208E+01  0.50440679109E+02  0.10000000000E+01 0.  0.
<mgrwt>
<rscale>  0 0.12500157E+03</rscale>
<asrwt>0</asrwt>
<pdfrwt beam="2">  1        4 0.42029625E-02 0.12500157E+03</pdfrwt>
<pdfrwt beam="1">  1       -4 0.21998279E-01 0.12500157E+03</pdfrwt>
<totfact> 0.95387892E+03</totfact>
</mgrwt>
</event>
<event>
 5    1  0.3266594E-002  0.1250003E+03  0.7818608E-02  0.1235069E+00
          4   -1    0    0  501    0  0.00000000000E+00  0.00000000000E+00  0.34167670688E+03  0.34167906714E+03  0.12700000000E+01 0.  1.
         -4   -1    0    0    0  501 -0.00000000000E+00 -0.00000000000E+00 -0.11394961527E+02  0.11465515610E+02  0.12700000000E+01 0.  1.
         25    2    1    2    0    0  0.00000000000E+00  0.00000000000E+00  0.33028174535E+03  0.35314458275E+03  0.12500026006E+03 0.  0.
    9000005    1    3    3    0    0  0.35481069277E+02 -0.48297788700E+02  0.11510430314E+03  0.12977512578E+03  0.10000000000E+01 0.  0.
    9000005    1    3    3    0    0 -0.35481069277E+02  0.48297788700E+02  0.21517744221E+03  0.22336945697E+03  0.10000000000E+01 0.  0.
<mgrwt>
<rscale>  0 0.12500026E+03</rscale>
<asrwt>0</asrwt>
<pdfrwt beam="1">  1        4 0.52571255E-01 0.12500026E+03</pdfrwt>
<pdfrwt beam="2">  1       -4 0.17586798E-02 0.12500026E+03</pdfrwt>
<totfact> 0.69379592E+03</totfact>
</mgrwt>
</event>
<event>
 5    1  0.3266594E-002  0.1249963E+03  0.7818608E-02  0.1235075E+00
          4   -1    0    0  501    0  0.00000000000E+00  0.00000000000E+00  0.23480620588E+04  0.23480624022E+04  0.12700000000E+01 0.  1.
         -4   -1    0    0    0  501 -0.00000000000E+00 -0.00000000000E+00 -0.14207192698E+01  0.19056083658E+01  0.12700000000E+01 0.  1.
         25    2    1    2    0    0  0.00000000000E+00  0.00000000000E+00  0.23466413395E+04  0.23499680106E+04  0.12499629811E+03 0.  0.
    9000005    1    3    3    0    0 -0.30468255022E+00  0.38195716067E+02  0.24351072550E+03  0.24649032230E+03  0.10000000000E+01 0.  0.
    9000005    1    3    3    0    0  0.30468255022E+00 -0.38195716067E+02  0.21031306140E+04  0.21034776883E+04  0.10000000000E+01 0.  0.
<mgrwt>
<rscale>  0 0.12499630E+03</rscale>
<asrwt>0</asrwt>
<pdfrwt beam="1">  1        4 0.36127724E+00 0.12499630E+03</pdfrwt>
<pdfrwt beam="2">  1       -4 0.25589806E-03 0.12499630E+03</pdfrwt>
<totfact> 0.59580087E+02</totfact>
</mgrwt>
</event>
<event>
 5    1  0.3266594E-002  0.1249995E+03  0.7818608E-02  0.1235070E+00
         -4   -1    0    0    0  501 -0.00000000000E+00  0.00000000000E+00  0.78249948522E+03  0.78250051583E+03  0.12700000000E+01 0. -1.
          4   -1    0    0  501    0  0.00000000000E+00 -0.00000000000E+00 -0.49101473605E+01  0.50717301882E+01  0.12700000000E+01 0. -1.
         25    2    1    2    0    0  0.00000000000E+00  0.00000000000E+00  0.77758933786E+03  0.78757224602E+03  0.12499945736E+03 0.  0.
    9000005    1    3    3    0    0  0.61336910938E+02 -0.10528766200E+02  0.35307266819E+03  0.35851691813E+03  0.10000000000E+01 0.  0.
    9000005    1    3    3    0    0 -0.61336910938E+02  0.10528766200E+02  0.42451666967E+03  0.42905532789E+03  0.10000000000E+01 0.  0.
<mgrwt>
<rscale>  0 0.12499946E+03</rscale>
<asrwt>0</asrwt>
<pdfrwt beam="2">  1        4 0.76791625E-03 0.12499946E+03</pdfrwt>
<pdfrwt beam="1">  1       -4 0.12039701E+00 0.12499946E+03</pdfrwt>
<totfact> 0.38826064E+03</totfact>
</mgrwt>
</event>
<event>
 5    1  0.3266594E-002  0.1250083E+03  0.7818608E-02  0.1235056E+00
          4   -1    0    0  501    0  0.00000000000E+00  0.00000000000E+00  0.97064762372E+02  0.97073070387E+02  0.12700000000E+01 0.  1.
         -4   -1    0    0    0  501 -0.00000000000E+00 -0.00000000000E+00 -0.40229074564E+02  0.40249116018E+02  0.12700000000E+01 0.  1.
         25    2    1    2    0    0  0.00000000000E+00  0.00000000000E+00  0.56835687808E+02  0.13732218641E+03  0.12500834960E+03 0.  0.
    9000005    1    3    3    0    0 -0.61046521982E+02  0.33330024148E+01  0.14180233974E+02  0.62768350200E+02  0.10000000000E+01 0.  0.
    9000005    1    3    3    0    0  0.61046521982E+02 -0.33330024148E+01  0.42655453834E+02  0.74553836206E+02  0.10000000000E+01 0.  0.
<mgrwt>
<rscale>  0 0.12500835E+03</rscale>
<asrwt>0</asrwt>
<pdfrwt beam="1">  1        4 0.14935221E-01 0.12500835E+03</pdfrwt>
<pdfrwt beam="2">  1       -4 0.61912692E-02 0.12500835E+03</pdfrwt>
<totfact> 0.10187436E+04</totfact>
</mgrwt>
</event>
<event>
 5    1  0.3266594E-002  0.1249994E+03  0.7818608E-02  0.1235070E+00
          4   -1    0    0  501    0  0.00000000000E+00  0.00000000000E+00  0.50123573683E+02  0.50139660337E+02  0.12700000000E+01 0.  1.
         -4   -1    0    0    0  501 -0.00000000000E+00 -0.00000000000E+00 -0.77897909144E+02  0.77908261109E+02  0.12700000000E+01 0.  1.
         25    2    1    2    0    0  0.00000000000E+00  0.00000000000E+00 -0.27774335461E+02  0.12804792145E+03  0.12499942590E+03 0.  0.
    9000005    1    3    3    0    0 -0.62227562110E+02 -0.96450019588E+00 -0.80910525037E+01  0.62766749775E+02  0.10000000000E+01 0.  0.
    9000005    1    3    3    0    0  0.62227562110E+02  0.96450019588E+00 -0.19683282958E+02  0.65281171671E+02  0.10000000000E+01 0.  0.
<mgrwt>
<rscale>  0 0.12499943E+03</rscale>
<asrwt>0</asrwt>
<pdfrwt beam="1">  1        4 0.77133527E-02 0.12499943E+03</pdfrwt>
<pdfrwt beam="2">  1       -4 0.11986327E-01 0.12499943E+03</pdfrwt>
<totfact> 0.10386587E+04</totfact>
</mgrwt>
</event>
<event>
 5    1  0.3266594E-002  0.1249998E+03  0.7818608E-02  0.1235070E+00
         -4   -1    0    0    0  501 -0.00000000000E+00  0.00000000000E+00  0.24747749423E+03  0.24748075289E+03  0.12700000000E+01 0.  1.
          4   -1    0    0  501    0  0.00000000000E+00 -0.00000000000E+00 -0.15755288566E+02  0.15806391676E+02  0.12700000000E+01 0.  1.
         25    2    1    2    0    0  0.00000000000E+00  0.00000000000E+00  0.23172220567E+03  0.26328714457E+03  0.12499975958E+03 0.  0.
    9000005    1    3    3    0    0  0.52838557894E+02 -0.21266289732E+02  0.17001667086E+03  0.17930654380E+03  0.10000000000E+01 0.  0.
    9000005    1    3    3    0    0 -0.52838557894E+02  0.21266289732E+02  0.61705534805E+02  0.83980600765E+02  0.10000000000E+01 0.  0.
<mgrwt>
<rscale>  0 0.12499976E+03</rscale>
<asrwt>0</asrwt>
<pdfrwt beam="2">  1        4 0.24280721E-02 0.12499976E+03</pdfrwt>
<pdfrwt beam="1">  1       -4 0.38077645E-01 0.12499976E+03</pdfrwt>
<totfact> 0.80447386E+03</totfact>
</mgrwt>
</event>
<event>
 5    1  0.3266594E-002  0.1250035E+03  0.7818608E-02  0.1235064E+00
          4   -1    0    0  501    0  0.00000000000E+00  0.00000000000E+00  0.18245375331E+02  0.18289522164E+02  0.12700000000E+01 0.  1.
         -4   -1    0    0    0  501 -0.00000000000E+00 -0.00000000000E+00 -0.21380243919E+03  0.21380621110E+03  0.12700000000E+01 0.  1.
         25    2    1    2    0    0  0.00000000000E+00  0.00000000000E+00 -0.19555706386E+03  0.23209573326E+03  0.12500345664E+03 0.  0.
    9000005    1    3    3    0    0 -0.14432624403E+01  0.53937953276E+02 -0.39238109327E+02  0.66723421927E+02  0.10000000000E+01 0.  0.
    9000005    1    3    3    0    0  0.14432624403E+01 -0.53937953276E+02 -0.15631895453E+03  0.16537231133E+03  0.10000000000E+01 0.  0.
<mgrwt>
<rscale>  0 0.12500346E+03</rscale>
<asrwt>0</asrwt>
<pdfrwt beam="1">  1        4 0.28106670E-02 0.12500346E+03</pdfrwt>
<pdfrwt beam="2">  1       -4 0.32896367E-01 0.12500346E+03</pdfrwt>
<totfact> 0.84982278E+03</totfact>
</mgrwt>
</event>
<event>
 5    1  0.3266594E-002  0.1249820E+03  0.7818608E-02  0.1235097E+00
         -4   -1    0    0    0  501 -0.00000000000E+00  0.00000000000E+00  0.44437130781E+01  0.46216323870E+01  0.12700000000E+01 0.  1.
          4   -1    0    0  501    0  0.00000000000E+00 -0.00000000000E+00 -0.86137138573E+03  0.86137232197E+03  0.12700000000E+01 0.  1.
         25    2    1    2    0    0  0.00000000000E+00  0.00000000000E+00 -0.85692767265E+03  0.86599395435E+03  0.12498197000E+03 0.  0.
    9000005    1    3    3    0    0  0.75459231034E+01 -0.61552436245E+02 -0.37547668239E+03  0.38056455744E+03  0.10000000000E+01 0.  0.
    9000005    1    3    3    0    0 -0.75459231034E+01  0.61552436245E+02 -0.48145099026E+03  0.48542939691E+03  0.10000000000E+01 0.  0.
<mgrwt>
<rscale>  0 0.12498197E+03</rscale>
<asrwt>0</asrwt>
<pdfrwt beam="2">  1        4 0.13253230E+00 0.12498197E+03</pdfrwt>
<pdfrwt beam="1">  1       -4 0.69740697E-03 0.12498197E+03</pdfrwt>
<totfact> 0.35495633E+03</totfact>
</mgrwt>
</event>
<event>
 5    1  0.3266594E-002  0.1249999E+03  0.7818608E-02  0.1235070E+00
         -4   -1    0    0    0  501 -0.00000000000E+00  0.00000000000E+00  0.60425784368E+02  0.60439129018E+02  0.12700000000E+01 0. -1.
          4   -1    0    0  501    0  0.00000000000E+00 -0.00000000000E+00 -0.64618542103E+02  0.64631021062E+02  0.12700000000E+01 0. -1.
         25    2    1    2    0    0  0.00000000000E+00  0.00000000000E+00 -0.41927577345E+01  0.12507015008E+03  0.12499985289E+03 0.  0.
    9000005    1    3    3    0    0  0.36327484042E+01  0.62372002102E+02 -0.76247544974E+00  0.62490358264E+02  0.10000000000E+01 0.  0.
    9000005    1    3    3    0    0 -0.36327484042E+01 -0.62372002102E+02 -0.34302822848E+01  0.62579791816E+02  0.10000000000E+01 0.  0.
<mgrwt>
<rscale>  0 0.12499985E+03</rscale>
<asrwt>0</asrwt>
<pdfrwt beam="2">  1        4 0.99433006E-02 0.12499985E+03</pdfrwt>
<pdfrwt beam="1">  1       -4 0.92982609E-02 0.12499985E+03</pdfrwt>
<totfact> 0.10451374E+04</totfact>
</mgrwt>
</event>
<event>
 5    1  0.3266594E-002  0.1249979E+03  0.7818608E-02  0.1235073E+00
          4   -1    0    0  501    0  0.00000000000E+00  0.00000000000E+00  0.27381884533E+02  0.27411320665E+02  0.12700000000E+01 0.  1.
         -4   -1    0    0    0  501 -0.00000000000E+00 -0.00000000000E+00 -0.14254452562E+03  0.14255018304E+03  0.12700000000E+01 0.  1.
         25    2    1    2    0    0  0.00000000000E+00  0.00000000000E+00 -0.11516264109E+03  0.16996150370E+03  0.12499791534E+03 0.  0.
    9000005    1    3    3    0    0  0.59282353667E+02 -0.18860544453E+02 -0.65625744435E+02  0.90431498528E+02  0.10000000000E+01 0.  0.
    9000005    1    3    3    0    0 -0.59282353667E+02  0.18860544453E+02 -0.49536896654E+02  0.79530005177E+02  0.10000000000E+01 0.  0.
<mgrwt>
<rscale>  0 0.12499792E+03</rscale>
<asrwt>0</asrwt>
<pdfrwt beam="1">  1        4 0.42152972E-02 0.12499792E+03</pdfrwt>
<pdfrwt beam="2">  1       -4 0.21932626E-01 0.12499792E+03</pdfrwt>
<totfact> 0.95460279E+03</totfact>
</mgrwt>
</event>
<event>
 5    1  0.3266594E-002  0.1250098E+03  0.7818608E-02  0.1235054E+00
         -4   -1    0    0    0  501 -0.00000000000E+00  0.00000000000E+00  0.23596224479E+01  0.26796861937E+01  0.12700000000E+01 0.  1.
          4   -1    0    0  501    0  0.00000000000E+00 -0.00000000000E+00 -0.15502341555E+04  0.15502346757E+04  0.12700000000E+01 0.  1.
         25    2    1    2    0    0  0.00000000000E+00  0.00000000000E+00 -0.15478745331E+04  0.15529143619E+04  0.12500978098E+03 0.  0.
    9000005    1    3    3    0    0  0.12448014400E+02  0.45959118134E+02 -0.12767994343E+04  0.12776873597E+04  0.10000000000E+01 0.  0.
    9000005    1    3    3    0    0 -0.12448014400E+02 -0.45959118134E+02 -0.27107509873E+03  0.27522700223E+03  0.10000000000E+01 0.  0.
<mgrwt>
<rscale>  0 0.12500978E+03</rscale>
<asrwt>0</asrwt>
<pdfrwt beam="2">  1        4 0.23852146E+00 0.12500978E+03</pdfrwt>
<pdfrwt beam="1">  1       -4 0.38768038E-03 0.12500978E+03</pdfrwt>
<totfact> 0.16909885E+03</totfact>
</mgrwt>
</event>
<event>
 5    1  0.3266594E-002  0.1250021E+03  0.7818608E-02  0.1235066E+00
          4   -1    0    0  501    0  0.00000000000E+00  0.00000000000E+00  0.40183394255E+02  0.40203458481E+02  0.12700000000E+01 0. -1.
         -4   -1    0    0    0  501 -0.00000000000E+00 -0.00000000000E+00 -0.97165265388E+02  0.97173564810E+02  0.12700000000E+01 0. -1.
         25    2    1    2    0    0  0.00000000000E+00  0.00000000000E+00 -0.56981871133E+02  0.13737702329E+03  0.12500205155E+03 0.  0.
    9000005    1    3    3    0    0 -0.38935435028E+02  0.18788106566E+02 -0.78085072459E+02  0.89259394969E+02  0.10000000000E+01 0.  0.
    9000005    1    3    3    0    0  0.38935435028E+02 -0.18788106566E+02  0.21103201326E+02  0.48117628323E+02  0.10000000000E+01 0.  0.
<mgrwt>
<rscale>  0 0.12500205E+03</rscale>
<asrwt>0</asrwt>
<pdfrwt beam="1">  1        4 0.61842425E-02 0.12500205E+03</pdfrwt>
<pdfrwt beam="2">  1       -4 0.14950684E-01 0.12500205E+03</pdfrwt>
<totfact> 0.10187737E+04</totfact>
</mgrwt>
</event>
<event>
 5    1  0.3266594E-002  0.1249948E+03  0.7818608E-02  0.1235077E+00
          4   -1    0    0  501    0  0.00000000000E+00  0.00000000000E+00  0.18863496301E+02  0.18906199848E+02  0.12700000000E+01 0.  1.
         -4   -1    0    0    0  501 -0.00000000000E+00 -0.00000000000E+00 -0.20678391829E+03  0.20678781822E+03  0.12700000000E+01 0.  1.
         25    2    1    2    0    0  0.00000000000E+00  0.00000000000E+00 -0.18792042199E+03  0.22569401807E+03  0.12499481905E+03 0.  0.
    9000005    1    3    3    0    0 -0.63618037572E+01 -0.59790426143E+02 -0.63234901629E+02  0.87264084190E+02  0.10000000000E+01 0.  0.
    9000005    1    3    3    0    0  0.63618037572E+01  0.59790426143E+02 -0.12468552036E+03  0.13842993388E+03  0.10000000000E+01 0.  0.
<mgrwt>
<rscale>  0 0.12499482E+03</rscale>
<asrwt>0</asrwt>
<pdfrwt beam="1">  1        4 0.29056614E-02 0.12499482E+03</pdfrwt>
<pdfrwt beam="2">  1       -4 0.31816494E-01 0.12499482E+03</pdfrwt>
<totfact> 0.85985144E+03</totfact>
</mgrwt>
</event>
<event>
 5    1  0.3266594E-002  0.1249993E+03  0.7818608E-02  0.1235070E+00
         -4   -1    0    0    0  501 -0.00000000000E+00  0.00000000000E+00  0.16410253585E+03  0.16410745008E+03  0.12700000000E+01 0.  1.
          4   -1    0    0  501    0  0.00000000000E+00 -0.00000000000E+00 -0.23781222501E+02  0.23815109566E+02  0.12700000000E+01 0.  1.
         25    2    1    2    0    0  0.00000000000E+00  0.00000000000E+00  0.14032131335E+03  0.18792255965E+03  0.12499926978E+03 0.  0.
    9000005    1    3    3    0    0 -0.56852303172E+02 -0.25816865299E+02  0.73996347882E+02  0.96825381020E+02  0.10000000000E+01 0.  0.
    9000005    1    3    3    0    0  0.56852303172E+02  0.25816865299E+02  0.66324965470E+02  0.91097178631E+02  0.10000000000E+01 0.  0.
<mgrwt>
<rscale>  0 0.12499927E+03</rscale>
<asrwt>0</asrwt>
<pdfrwt beam="2">  1        4 0.36616342E-02 0.12499927E+03</pdfrwt>
<pdfrwt beam="1">  1       -4 0.25249529E-01 0.12499927E+03</pdfrwt>
<totfact> 0.92211551E+03</totfact>
</mgrwt>
</event>
<event>
 5    1  0.3266594E-002  0.1250006E+03  0.7818608E-02  0.1235068E+00
         -4   -1    0    0    0  501 -0.00000000000E+00  0.00000000000E+00  0.38099847993E+03  0.38100059660E+03  0.12700000000E+01 0. -1.
          4   -1    0    0  501    0  0.00000000000E+00 -0.00000000000E+00 -0.10211286845E+02  0.10289960108E+02  0.12700000000E+01 0. -1.
         25    2    1    2    0    0  0.00000000000E+00  0.00000000000E+00  0.37078719309E+03  0.39129055671E+03  0.12500062885E+03 0.  0.
    9000005    1    3    3    0    0 -0.37702652847E+01  0.21490166161E+02  0.36870376771E+03  0.36935011909E+03  0.10000000000E+01 0.  0.
    9000005    1    3    3    0    0  0.37702652847E+01 -0.21490166161E+02  0.20834253758E+01  0.21940437627E+02  0.10000000000E+01 0.  0.
<mgrwt>
<rscale>  0 0.12500063E+03</rscale>
<asrwt>0</asrwt>
<pdfrwt beam="2">  1        4 0.15771816E-02 0.12500063E+03</pdfrwt>
<pdfrwt beam="1">  1       -4 0.58621374E-01 0.12500063E+03</pdfrwt>
<totfact> 0.65407850E+03</totfact>
</mgrwt>
</event>
<event>
 5    1  0.3266594E-002  0.1250104E+03  0.7818608E-02  0.1235053E+00
          4   -1    0    0  501    0  0.00000000000E+00  0.00000000000E+00  0.39794064170E+03  0.39794266826E+03  0.12700000000E+01 0. -1.
         -4   -1    0    0    0  501 -0.00000000000E+00 -0.00000000000E+00 -0.97746664329E+01  0.98568252432E+01  0.12700000000E+01 0. -1.
         25    2    1    2    0    0  0.00000000000E+00  0.00000000000E+00  0.38816597527E+03  0.40779949350E+03  0.12501040973E+03 0.  0.
    9000005    1    3    3    0    0  0.46933921343E+02  0.27189272431E+02  0.92807234092E+02  0.10749991725E+03  0.10000000000E+01 0.  0.
    9000005    1    3    3    0    0 -0.46933921343E+02 -0.27189272431E+02  0.29535874118E+03  0.30029957625E+03  0.10000000000E+01 0.  0.
<mgrwt>
<rscale>  0 0.12501041E+03</rscale>
<asrwt>0</asrwt>
<pdfrwt beam="1">  1        4 0.61228110E-01 0.12501041E+03</pdfrwt>
<pdfrwt beam="2">  1       -4 0.15102707E-02 0.12501041E+03</pdfrwt>
<totfact> 0.63786568E+03</totfact>
</mgrwt>
</event>
<event>
 5    1  0.3266594E-002  0.1249978E+03  0.7818608E-02  0.1235073E+00
         -4   -1    0    0    0  501 -0.00000000000E+00  0.00000000000E+00  0.53214667737E+03  0.53214819283E+03  0.12700000000E+01 0. -1.
          4   -1    0    0  501    0  0.00000000000E+00 -0.00000000000E+00 -0.72838200744E+01  0.73937091420E+01  0.12700000000E+01 0. -1.
         25    2    1    2    0    0  0.00000000000E+00  0.00000000000E+00  0.52486285729E+03  0.53954190197E+03  0.12499778005E+03 0.  0.
    9000005    1    3    3    0    0  0.30620980957E+02  0.27917620215E+02  0.60523297953E+02  0.73356033074E+02  0.10000000000E+01 0.  0.
    9000005    1    3    3    0    0 -0.30620980957E+02 -0.27917620215E+02  0.46433955934E+03  0.46618586890E+03  0.10000000000E+01 0.  0.
<mgrwt>
<rscale>  0 0.12499778E+03</rscale>
<asrwt>0</asrwt>
<pdfrwt beam="2">  1        4 0.11291572E-02 0.12499778E+03</pdfrwt>
<pdfrwt beam="1">  1       -4 0.81877293E-01 0.12499778E+03</pdfrwt>
<totfact> 0.52924404E+03</totfact>
</mgrwt>
</event>
<event>
 5    1  0.3266594E-002  0.1249992E+03  0.7818608E-02  0.1235070E+00
         -4   -1    0    0    0  501 -0.00000000000E+00  0.00000000000E+00  0.11322589089E+02  0.11393591343E+02  0.12700000000E+01 0.  1.
          4   -1    0    0  501    0  0.00000000000E+00 -0.00000000000E+00 -0.34384151130E+03  0.34384385670E+03  0.12700000000E+01 0.  1.
         25    2    1    2    0    0  0.00000000000E+00  0.00000000000E+00 -0.33251892221E+03  0.35523744805E+03  0.12499924346E+03 0.  0.
    9000005    1    3    3    0    0 -0.34977281208E+02  0.57522185642E+01 -0.31252031733E+03  0.31452574928E+03  0.10000000000E+01 0.  0.
    9000005    1    3    3    0    0  0.34977281208E+02 -0.57522185642E+01 -0.19998604886E+02  0.40711698767E+02  0.10000000000E+01 0.  0.
<mgrwt>
<rscale>  0 0.12499924E+03</rscale>
<asrwt>0</asrwt>
<pdfrwt beam="2">  1        4 0.52904328E-01 0.12499924E+03</pdfrwt>
<pdfrwt beam="1">  1       -4 0.17475792E-02 0.12499924E+03</pdfrwt>
<totfact> 0.69153351E+03</totfact>
</mgrwt>
</event>
<event>
 5    1  0.3266594E-002  0.1250011E+03  0.7818608E-02  0.1235068E+00
          4   -1    0    0  501    0  0.00000000000E+00  0.00000000000E+00  0.44649753722E+01  0.46420798221E+01  0.12700000000E+01 0. -1.
         -4   -1    0    0    0  501 -0.00000000000E+00 -0.00000000000E+00 -0.85768942523E+03  0.85769036549E+03  0.12700000000E+01 0. -1.
         25    2    1    2    0    0  0.00000000000E+00  0.00000000000E+00 -0.85322444986E+03  0.86233244531E+03  0.12500113759E+03 0.  0.
    9000005    1    3    3    0    0 -0.49720756671E+02 -0.20560797704E+02 -0.64589875468E+03  0.64813663786E+03  0.10000000000E+01 0.  0.
    9000005    1    3    3    0    0  0.49720756671E+02  0.20560797704E+02 -0.20732569518E+03  0.21419580745E+03  0.10000000000E+01 0.  0.
<mgrwt>
<rscale>  0 0.12500114E+03</rscale>
<asrwt>0</asrwt>
<pdfrwt beam="1">  1        4 0.70061572E-03 0.12500114E+03</pdfrwt>
<pdfrwt beam="2">  1       -4 0.13196579E+00 0.12500114E+03</pdfrwt>
<totfact> 0.35627064E+03</totfact>
</mgrwt>
</event>
<event>
 5    1  0.3266594E-002  0.1250119E+03  0.7818608E-02  0.1235051E+00
          4   -1    0    0  501    0  0.00000000000E+00  0.00000000000E+00  0.17727193391E+03  0.17727648308E+03  0.12700000000E+01 0.  1.
         -4   -1    0    0    0  501 -0.00000000000E+00 -0.00000000000E+00 -0.22016423595E+02  0.22053022648E+02  0.12700000000E+01 0.  1.
         25    2    1    2    0    0  0.00000000000E+00  0.00000000000E+00  0.15525551032E+03  0.19932950573E+03  0.12501191291E+03 0.  0.
    9000005    1    3    3    0    0  0.62161375227E+02  0.10384745954E+01  0.87822432132E+02  0.10760527211E+03  0.10000000000E+01 0.  0.
    9000005    1    3    3    0    0 -0.62161375227E+02 -0.10384745954E+01  0.67433078184E+02  0.91724233618E+02  0.10000000000E+01 0.  0.
<mgrwt>
<rscale>  0 0.12501191E+03</rscale>
<asrwt>0</asrwt>
<pdfrwt beam="1">  1        4 0.27275771E-01 0.12501191E+03</pdfrwt>
<pdfrwt beam="2">  1       -4 0.33903073E-02 0.12501191E+03</pdfrwt>
<totfact> 0.90224657E+03</totfact>
</mgrwt>
</event>
<event>
 5    1  0.3266594E-002  0.1250003E+03  0.7818608E-02  0.1235069E+00
         -4   -1    0    0    0  501 -0.00000000000E+00  0.00000000000E+00  0.62672678673E+01  0.63946498356E+01  0.12700000000E+01 0.  1.
          4   -1    0    0  501    0  0.00000000000E+00 -0.00000000000E+00 -0.61688207090E+03  0.61688337820E+03  0.12700000000E+01 0.  1.
         25    2    1    2    0    0  0.00000000000E+00  0.00000000000E+00 -0.61061480303E+03  0.62327802804E+03  0.12500025019E+03 0.  0.
    9000005    1    3    3    0    0  0.29880346650E+02  0.32796248043E+02 -0.52474822818E+03  0.52662143137E+03  0.10000000000E+01 0.  0.
    9000005    1    3    3    0    0 -0.29880346650E+02 -0.32796248043E+02 -0.85866574857E+02  0.96656596668E+02  0.10000000000E+01 0.  0.
<mgrwt>
<rscale>  0 0.12500025E+03</rscale>
<asrwt>0</asrwt>
<pdfrwt beam="2">  1        4 0.94914786E-01 0.12500025E+03</pdfrwt>
<pdfrwt beam="1">  1       -4 0.97409472E-03 0.12500025E+03</pdfrwt>
<totfact> 0.47430205E+03</totfact>
</mgrwt>
</event>
<event>
 5    1  0.3266594E-002  0.1249998E+03  0.7818608E-02  0.1235070E+00
         -4   -1    0    0    0  501 -0.00000000000E+00  0.00000000000E+00  0.68385653976E+03  0.68385771902E+03  0.12700000000E+01 0. -1.
          4   -1    0    0  501    0  0.00000000000E+00 -0.00000000000E+00 -0.56402812772E+01  0.57814940012E+01  0.12700000000E+01 0. -1.
         25    2    1    2    0    0  0.00000000000E+00  0.00000000000E+00  0.67821625848E+03  0.68963921302E+03  0.12499980350E+03 0.  0.
    9000005    1    3    3    0    0 -0.29590551001E+02  0.93741866274E+01  0.39870395332E+02  0.50538346900E+02  0.10000000000E+01 0.  0.
    9000005    1    3    3    0    0  0.29590551001E+02 -0.93741866274E+01  0.63834586315E+03  0.63910086612E+03  0.10000000000E+01 0.  0.
<mgrwt>
<rscale>  0 0.12499980E+03</rscale>
<asrwt>0</asrwt>
<pdfrwt beam="2">  1        4 0.87868908E-03 0.12499980E+03</pdfrwt>
<pdfrwt beam="1">  1       -4 0.10521962E+00 0.12499980E+03</pdfrwt>
<totfact> 0.43639493E+03</totfact>
</mgrwt>
</event>
<event>
 5    1  0.3266594E-002  0.1249980E+03  0.7818608E-02  0.1235072E+00
          4   -1    0    0  501    0  0.00000000000E+00  0.00000000000E+00  0.27833491226E+02  0.27862450249E+02  0.12700000000E+01 0. -1.
         -4   -1    0    0    0  501 -0.00000000000E+00 -0.00000000000E+00 -0.14023427179E+03  0.14024002241E+03  0.12700000000E+01 0. -1.
         25    2    1    2    0    0  0.00000000000E+00  0.00000000000E+00 -0.11240078057E+03  0.16810247266E+03  0.12499802335E+03 0.  0.
    9000005    1    3    3    0    0  0.53800228128E+02  0.66248753135E+01 -0.98015496032E+02  0.11201067352E+03  0.10000000000E+01 0.  0.
    9000005    1    3    3    0    0 -0.53800228128E+02 -0.66248753135E+01 -0.14385284534E+02  0.56091799139E+02  0.10000000000E+01 0.  0.
<mgrwt>
<rscale>  0 0.12499802E+03</rscale>
<asrwt>0</asrwt>
<pdfrwt beam="1">  1        4 0.42847456E-02 0.12499802E+03</pdfrwt>
<pdfrwt beam="2">  1       -4 0.21577173E-01 0.12499802E+03</pdfrwt>
<totfact> 0.95807291E+03</totfact>
</mgrwt>
</event>
<event>
 5    1  0.3266594E-002  0.1250043E+03  0.7818608E-02  0.1235063E+00
          4   -1    0    0  501    0  0.00000000000E+00  0.00000000000E+00  0.15707392053E+04  0.15707397187E+04  0.12700000000E+01 0.  1.
         -4   -1    0    0    0  501 -0.00000000000E+00 -0.00000000000E+00 -0.23243792672E+01  0.26487051512E+01  0.12700000000E+01 0.  1.
         25    2    1    2    0    0  0.00000000000E+00  0.00000000000E+00  0.15684148260E+04  0.15733884238E+04  0.12500426334E+03 0.  0.
    9000005    1    3    3    0    0  0.58703991782E+02 -0.99068842319E+01  0.10234243272E+04  0.10251549437E+04  0.10000000000E+01 0.  0.
    9000005    1    3    3    0    0 -0.58703991782E+02  0.99068842319E+01  0.54499049875E+03  0.54823348013E+03  0.10000000000E+01 0.  0.
<mgrwt>
<rscale>  0 0.12500426E+03</rscale>
<asrwt>0</asrwt>
<pdfrwt beam="1">  1        4 0.24167740E+00 0.12500426E+03</pdfrwt>
<pdfrwt beam="2">  1       -4 0.38258408E-03 0.12500426E+03</pdfrwt>
<totfact> 0.16530503E+03</totfact>
</mgrwt>
</event>
<event>
 4    1  0.3266594E-002  0.1249247E+03  0.7818608E-02  0.1235187E+00
          4   -1    0    0  501    0  0.00000000000E+00  0.00000000000E+00  0.22855886222E+03  0.22856239060E+03  0.12700000000E+01 0.  1.
         -4   -1    0    0    0  501 -0.00000000000E+00 -0.00000000000E+00 -0.17042898537E+02  0.17090151858E+02  0.12700000000E+01 0.  1.
    9000005    1    1    2    0    0  0.44791119126E+02 -0.19207189460E+02  0.18255818707E+03  0.18895410063E+03  0.10000000000E+01 0.  0.
    9000005    1    1    2    0    0 -0.44791119126E+02  0.19207189460E+02  0.28957776610E+02  0.56698441828E+02  0.10000000000E+01 0.  0.
<mgrwt>
<rscale>  0 0.12492465E+03</rscale>
<asrwt>0</asrwt>
<pdfrwt beam="1">  1        4 0.35166807E-01 0.12492465E+03</pdfrwt>
<pdfrwt beam="2">  1       -4 0.26258908E-02 0.12492465E+03</pdfrwt>
<totfact> 0.83102110E+03</totfact>
</mgrwt>
</event>
<event>
 5    1  0.3266594E-002  0.1249997E+03  0.7818608E-02  0.1235070E+00
         -4   -1    0    0    0  501 -0.00000000000E+00  0.00000000000E+00  0.67393179884E+02  0.67405145167E+02  0.12700000000E+01 0.  1.
          4   -1    0    0  501    0  0.00000000000E+00 -0.00000000000E+00 -0.57937756118E+02  0.57951673695E+02  0.12700000000E+01 0.  1.
         25    2    1    2    0    0  0.00000000000E+00  0.00000000000E+00  0.94554237661E+01  0.12535681886E+03  0.12499970799E+03 0.  0.
    9000005    1    3    3    0    0 -0.38693712595E+01 -0.15953362574E+02 -0.55741730931E+02  0.58117315651E+02  0.10000000000E+01 0.  0.
    9000005    1    3    3    0    0  0.38693712595E+01  0.15953362574E+02  0.65197154697E+02  0.67239503210E+02  0.10000000000E+01 0.  0.
<mgrwt>
<rscale>  0 0.12499971E+03</rscale>
<asrwt>0</asrwt>
<pdfrwt beam="2">  1        4 0.89154920E-02 0.12499971E+03</pdfrwt>
<pdfrwt beam="1">  1       -4 0.10370172E-01 0.12499971E+03</pdfrwt>
<totfact> 0.10445186E+04</totfact>
</mgrwt>
</event>
<event>
 5    1  0.3266594E-002  0.1250059E+03  0.7818608E-02  0.1235060E+00
          4   -1    0    0  501    0  0.00000000000E+00  0.00000000000E+00  0.38362273356E+02  0.38383289555E+02  0.12700000000E+01 0.  1.
         -4   -1    0    0    0  501 -0.00000000000E+00 -0.00000000000E+00 -0.10178207516E+03  0.10178999815E+03  0.12700000000E+01 0.  1.
         25    2    1    2    0    0  0.00000000000E+00  0.00000000000E+00 -0.63419801805E+02  0.14017328771E+03  0.12500591716E+03 0.  0.
    9000005    1    3    3    0    0 -0.25897203169E+02  0.56705895794E+02 -0.26771439179E+02  0.67852293295E+02  0.10000000000E+01 0.  0.
    9000005    1    3    3    0    0  0.25897203169E+02 -0.56705895794E+02 -0.36648362627E+02  0.72320994413E+02  0.10000000000E+01 0.  0.
<mgrwt>
<rscale>  0 0.12500592E+03</rscale>
<asrwt>0</asrwt>
<pdfrwt beam="1">  1        4 0.59041143E-02 0.12500592E+03</pdfrwt>
<pdfrwt beam="2">  1       -4 0.15661007E-01 0.12500592E+03</pdfrwt>
<totfact> 0.10128645E+04</totfact>
</mgrwt>
</event>
<event>
 5    1  0.3266594E-002  0.1249982E+03  0.7818608E-02  0.1235072E+00
          4   -1    0    0  501    0  0.00000000000E+00  0.00000000000E+00  0.44946667178E+02  0.44964605974E+02  0.12700000000E+01 0. -1.
         -4   -1    0    0    0  501 -0.00000000000E+00 -0.00000000000E+00 -0.86866174154E+02  0.86875457479E+02  0.12700000000E+01 0. -1.
         25    2    1    2    0    0  0.00000000000E+00  0.00000000000E+00 -0.41919506977E+02  0.13184006345E+03  0.12499822905E+03 0.  0.
    9000005    1    3    3    0    0  0.57779171564E+02 -0.19987938305E+02 -0.34597648956E+02  0.70256299772E+02  0.10000000000E+01 0.  0.
    9000005    1    3    3    0    0 -0.57779171564E+02  0.19987938305E+02 -0.73218580208E+01  0.61583763681E+02  0.10000000000E+01 0.  0.
<mgrwt>
<rscale>  0 0.12499823E+03</rscale>
<asrwt>0</asrwt>
<pdfrwt beam="1">  1        4 0.69169659E-02 0.12499823E+03</pdfrwt>
<pdfrwt beam="2">  1       -4 0.13366121E-01 0.12499823E+03</pdfrwt>
<totfact> 0.10305525E+04</totfact>
</mgrwt>
</event>
<event>
 5    1  0.3266594E-002  0.1250018E+03  0.7818608E-02  0.1235066E+00
          4   -1    0    0  501    0  0.00000000000E+00  0.00000000000E+00  0.21615212509E+03  0.21615585599E+03  0.12700000000E+01 0.  1.
         -4   -1    0    0    0  501 -0.00000000000E+00 -0.00000000000E+00 -0.18046083094E+02  0.18090716266E+02  0.12700000000E+01 0.  1.
         25    2    1    2    0    0  0.00000000000E+00  0.00000000000E+00  0.19810604199E+03  0.23424657226E+03  0.12500181095E+03 0.  0.
    9000005    1    3    3    0    0  0.25864307581E+02  0.50353768287E+02  0.14866477679E+03  0.15908073499E+03  0.10000000000E+01 0.  0.
    9000005    1    3    3    0    0 -0.25864307581E+02 -0.50353768287E+02  0.49441265208E+02  0.75165837271E+02  0.10000000000E+01 0.  0.
<mgrwt>
<rscale>  0 0.12500181E+03</rscale>
<asrwt>0</asrwt>
<pdfrwt beam="1">  1        4 0.33257891E-01 0.12500181E+03</pdfrwt>
<pdfrwt beam="2">  1       -4 0.27800410E-02 0.12500181E+03</pdfrwt>
<totfact> 0.84658351E+03</totfact>
</mgrwt>
</event>
<event>
 5    1  0.3266594E-002  0.1250109E+03  0.7818608E-02  0.1235052E+00
          4   -1    0    0  501    0  0.00000000000E+00  0.00000000000E+00  0.33147493066E+03  0.33147736356E+03  0.12700000000E+01 0.  1.
         -4   -1    0    0    0  501 -0.00000000000E+00 -0.00000000000E+00 -0.11749812679E+02  0.11818248516E+02  0.12700000000E+01 0.  1.
         25    2    1    2    0    0  0.00000000000E+00  0.00000000000E+00  0.31972511798E+03  0.34329561208E+03  0.12501090435E+03 0.  0.
    9000005    1    3    3    0    0  0.40336637742E+02 -0.33490965618E+02  0.25328098154E+03  0.25865216939E+03  0.10000000000E+01 0.  0.
    9000005    1    3    3    0    0 -0.40336637742E+02  0.33490965618E+02  0.66444136440E+02  0.84643442685E+02  0.10000000000E+01 0.  0.
<mgrwt>
<rscale>  0 0.12501090E+03</rscale>
<asrwt>0</asrwt>
<pdfrwt beam="1">  1        4 0.51001594E-01 0.12501090E+03</pdfrwt>
<pdfrwt beam="2">  1       -4 0.18131149E-02 0.12501090E+03</pdfrwt>
<totfact> 0.70451462E+03</totfact>
</mgrwt>
</event>
<event>
 5    1  0.3266594E-002  0.1250487E+03  0.7818608E-02  0.1234993E+00
          4   -1    0    0  501    0  0.00000000000E+00  0.00000000000E+00  0.32499199696E+03  0.32499447839E+03  0.12700000000E+01 0. -1.
         -4   -1    0    0    0  501 -0.00000000000E+00 -0.00000000000E+00 -0.11992846222E+02  0.12059903005E+02  0.12700000000E+01 0. -1.
         25    2    1    2    0    0  0.00000000000E+00  0.00000000000E+00  0.31299915074E+03  0.33705438140E+03  0.12504874113E+03 0.  0.
    9000005    1    3    3    0    0 -0.46856043660E+02 -0.21435452715E+02  0.25192262144E+03  0.25713999039E+03  0.10000000000E+01 0.  0.
    9000005    1    3    3    0    0  0.46856043660E+02  0.21435452715E+02  0.61076529292E+02  0.79914391013E+02  0.10000000000E+01 0.  0.
<mgrwt>
<rscale>  0 0.12504874E+03</rscale>
<asrwt>0</asrwt>
<pdfrwt beam="1">  1        4 0.50004119E-01 0.12504874E+03</pdfrwt>
<pdfrwt beam="2">  1       -4 0.18504023E-02 0.12504874E+03</pdfrwt>
<totfact> 0.71095839E+03</totfact>
</mgrwt>
</event>
<event>
 5    1  0.3266594E-002  0.1250027E+03  0.7818608E-02  0.1235065E+00
          4   -1    0    0  501    0  0.00000000000E+00  0.00000000000E+00  0.55824185744E+02  0.55838630122E+02  0.12700000000E+01 0.  1.
         -4   -1    0    0    0  501 -0.00000000000E+00 -0.00000000000E+00 -0.69947879673E+02  0.69959408022E+02  0.12700000000E+01 0.  1.
         25    2    1    2    0    0  0.00000000000E+00  0.00000000000E+00 -0.14123693930E+02  0.12579803814E+03  0.12500267065E+03 0.  0.
    9000005    1    3    3    0    0 -0.14298187115E+02  0.38704565671E+02 -0.54295926159E+02  0.68202119879E+02  0.10000000000E+01 0.  0.
    9000005    1    3    3    0    0  0.14298187115E+02 -0.38704565671E+02  0.40172232229E+02  0.57595918265E+02  0.10000000000E+01 0.  0.
<mgrwt>
<rscale>  0 0.12500267E+03</rscale>
<asrwt>0</asrwt>
<pdfrwt beam="1">  1        4 0.85903342E-02 0.12500267E+03</pdfrwt>
<pdfrwt beam="2">  1       -4 0.10763210E-01 0.12500267E+03</pdfrwt>
<totfact> 0.10434760E+04</totfact>
</mgrwt>
</event>
<event>
 5    1  0.3266594E-002  0.1249853E+03  0.7818608E-02  0.1235092E+00
          4   -1    0    0  501    0  0.00000000000E+00  0.00000000000E+00  0.16761951922E+02  0.16809995010E+02  0.12700000000E+01 0.  1.
         -4   -1    0    0    0  501 -0.00000000000E+00 -0.00000000000E+00 -0.23260484739E+03  0.23260831441E+03  0.12700000000E+01 0.  1.
         25    2    1    2    0    0  0.00000000000E+00  0.00000000000E+00 -0.21584289547E+03  0.24941830942E+03  0.12498534933E+03 0.  0.
    9000005    1    3    3    0    0  0.17954571989E+02 -0.25005805507E+02  0.58891001242E+00  0.30805904943E+02  0.10000000000E+01 0.  0.
    9000005    1    3    3    0    0 -0.17954571989E+02  0.25005805507E+02 -0.21643180549E+03  0.21861240447E+03  0.10000000000E+01 0.  0.
<mgrwt>
<rscale>  0 0.12498535E+03</rscale>
<asrwt>0</asrwt>
<pdfrwt beam="1">  1        4 0.25827243E-02 0.12498535E+03</pdfrwt>
<pdfrwt beam="2">  1       -4 0.35789321E-01 0.12498535E+03</pdfrwt>
<totfact> 0.82441278E+03</totfact>
</mgrwt>
</event>
<event>
 5    1  0.3266594E-002  0.1249917E+03  0.7818608E-02  0.1235082E+00
         -4   -1    0    0    0  501 -0.00000000000E+00  0.00000000000E+00  0.46885738597E+02  0.46902935770E+02  0.12700000000E+01 0. -1.
          4   -1    0    0  501    0  0.00000000000E+00 -0.00000000000E+00 -0.83265827382E+02  0.83275512065E+02  0.12700000000E+01 0. -1.
         25    2    1    2    0    0  0.00000000000E+00  0.00000000000E+00 -0.36380088785E+02  0.13017844783E+03  0.12499166940E+03 0.  0.
    9000005    1    3    3    0    0  0.33117235001E+02 -0.24138191737E+02  0.30940867171E+02  0.51358940952E+02  0.10000000000E+01 0.  0.
    9000005    1    3    3    0    0 -0.33117235001E+02  0.24138191737E+02 -0.67320955956E+02  0.78819506882E+02  0.10000000000E+01 0.  0.
<mgrwt>
<rscale>  0 0.12499167E+03</rscale>
<asrwt>0</asrwt>
<pdfrwt beam="2">  1        4 0.12812195E-01 0.12499167E+03</pdfrwt>
<pdfrwt beam="1">  1       -4 0.72152584E-02 0.12499167E+03</pdfrwt>
<totfact> 0.10342636E+04</totfact>
</mgrwt>
</event>
<event>
 5    1  0.3266594E-002  0.1249997E+03  0.7818608E-02  0.1235070E+00
         -4   -1    0    0    0  501 -0.00000000000E+00  0.00000000000E+00  0.24826014024E+03  0.24826338863E+03  0.12700000000E+01 0.  1.
          4   -1    0    0  501    0  0.00000000000E+00 -0.00000000000E+00 -0.15705437965E+02  0.15756702753E+02  0.12700000000E+01 0.  1.
         25    2    1    2    0    0  0.00000000000E+00  0.00000000000E+00  0.23255470228E+03  0.26402009138E+03  0.12499967641E+03 0.  0.
    9000005    1    3    3    0    0  0.28958931197E+02 -0.55364821408E+02  0.11382630095E+03  0.12985110679E+03  0.10000000000E+01 0.  0.
    9000005    1    3    3    0    0 -0.28958931197E+02  0.55364821408E+02  0.11872840132E+03  0.13416898459E+03  0.10000000000E+01 0.  0.
<mgrwt>
<rscale>  0 0.12499968E+03</rscale>
<asrwt>0</asrwt>
<pdfrwt beam="2">  1        4 0.24204147E-02 0.12499968E+03</pdfrwt>
<pdfrwt beam="1">  1       -4 0.38198058E-01 0.12499968E+03</pdfrwt>
<totfact> 0.80345768E+03</totfact>
</mgrwt>
</event>
<event>
 5    1  0.3266594E-002  0.1250060E+03  0.7818608E-02  0.1235060E+00
         -4   -1    0    0    0  501 -0.00000000000E+00  0.00000000000E+00  0.42698039511E+02  0.42716922619E+02  0.12700000000E+01 0.  1.
          4   -1    0    0  501    0  0.00000000000E+00 -0.00000000000E+00 -0.91450670035E+02  0.91459488026E+02  0.12700000000E+01 0.  1.
         25    2    1    2    0    0  0.00000000000E+00  0.00000000000E+00 -0.48752630525E+02  0.13417641065E+03  0.12500596062E+03 0.  0.
    9000005    1    3    3    0    0 -0.31491301683E+02  0.76088009753E+01 -0.81738617454E+02  0.87930640377E+02  0.10000000000E+01 0.  0.
    9000005    1    3    3    0    0  0.31491301683E+02 -0.76088009753E+01  0.32985986929E+02  0.46245770268E+02  0.10000000000E+01 0.  0.
<mgrwt>
<rscale>  0 0.12500596E+03</rscale>
<asrwt>0</asrwt>
<pdfrwt beam="2">  1        4 0.14071465E-01 0.12500596E+03</pdfrwt>
<pdfrwt beam="1">  1       -4 0.65710601E-02 0.12500596E+03</pdfrwt>
<totfact> 0.10254081E+04</totfact>
</mgrwt>
</event>
<event>
 5    1  0.3266594E-002  0.1249999E+03  0.7818608E-02  0.1235070E+00
         -4   -1    0    0    0  501 -0.00000000000E+00  0.00000000000E+00  0.14455294580E+02  0.14510976583E+02  0.12700000000E+01 0.  1.
          4   -1    0    0  501    0  0.00000000000E+00 -0.00000000000E+00 -0.26965241494E+03  0.26965540562E+03  0.12700000000E+01 0.  1.
         25    2    1    2    0    0  0.00000000000E+00  0.00000000000E+00 -0.25519712036E+03  0.28416638221E+03  0.12499985015E+03 0.  0.
    9000005    1    3    3    0    0 -0.31739662138E+02  0.53791203407E+02 -0.12286209899E+03  0.13782958712E+03  0.10000000000E+01 0.  0.
    9000005    1    3    3    0    0  0.31739662138E+02 -0.53791203407E+02 -0.13233502137E+03  0.14633679509E+03  0.10000000000E+01 0.  0.
<mgrwt>
<rscale>  0 0.12499985E+03</rscale>
<asrwt>0</asrwt>
<pdfrwt beam="2">  1        4 0.41489496E-01 0.12499985E+03</pdfrwt>
<pdfrwt beam="1">  1       -4 0.22284050E-02 0.12499985E+03</pdfrwt>
<totfact> 0.77629157E+03</totfact>
</mgrwt>
</event>
<event>
 5    1  0.3266594E-002  0.1250002E+03  0.7818608E-02  0.1235069E+00
         -4   -1    0    0    0  501 -0.00000000000E+00  0.00000000000E+00  0.11554510778E+02  0.11624096495E+02  0.12700000000E+01 0. -1.
          4   -1    0    0  501    0  0.00000000000E+00 -0.00000000000E+00 -0.33698652197E+03  0.33698891508E+03  0.12700000000E+01 0. -1.
         25    2    1    2    0    0  0.00000000000E+00  0.00000000000E+00 -0.32543201119E+03  0.34861301157E+03  0.12500015173E+03 0.  0.
    9000005    1    3    3    0    0  0.31683804257E+02  0.32678467093E+02 -0.43296533706E+02  0.62827824208E+02  0.10000000000E+01 0.  0.
    9000005    1    3    3    0    0 -0.31683804257E+02 -0.32678467093E+02 -0.28213547748E+03  0.28578518737E+03  0.10000000000E+01 0.  0.
<mgrwt>
<rscale>  0 0.12500015E+03</rscale>
<asrwt>0</asrwt>
<pdfrwt beam="2">  1        4 0.51849610E-01 0.12500015E+03</pdfrwt>
<pdfrwt beam="1">  1       -4 0.17831541E-02 0.12500015E+03</pdfrwt>
<totfact> 0.69877180E+03</totfact>
</mgrwt>
</event>
<event>
 5    1  0.3266594E-002  0.1250104E+03  0.7818608E-02  0.1235053E+00
         -4   -1    0    0    0  501 -0.00000000000E+00  0.00000000000E+00  0.27272996828E+03  0.27273292522E+03  0.12700000000E+01 0.  1.
          4   -1    0    0  501    0  0.00000000000E+00 -0.00000000000E+00 -0.14293961779E+02  0.14350269800E+02  0.12700000000E+01 0.  1.
         25    2    1    2    0    0  0.00000000000E+00  0.00000000000E+00  0.25843600650E+03  0.28708319502E+03  0.12501036519E+03 0.  0.
    9000005    1    3    3    0    0  0.46700431135E+02  0.37382355243E+02  0.87657062758E+02  0.10612790115E+03  0.10000000000E+01 0.  0.
    9000005    1    3    3    0    0 -0.46700431135E+02 -0.37382355243E+02  0.17077894374E+03  0.18095529386E+03  0.10000000000E+01 0.  0.
<mgrwt>
<rscale>  0 0.12501037E+03</rscale>
<asrwt>0</asrwt>
<pdfrwt beam="2">  1        4 0.22036299E-02 0.12501037E+03</pdfrwt>
<pdfrwt beam="1">  1       -4 0.41963016E-01 0.12501037E+03</pdfrwt>
<totfact> 0.77230414E+03</totfact>
</mgrwt>
</event>
<event>
 5    1  0.3266594E-002  0.1249755E+03  0.7818608E-02  0.1235108E+00
          4   -1    0    0  501    0  0.00000000000E+00  0.00000000000E+00  0.25953039019E+03  0.25953349751E+03  0.12700000000E+01 0. -1.
         -4   -1    0    0    0  501 -0.00000000000E+00 -0.00000000000E+00 -0.15015311931E+02  0.15068924726E+02  0.12700000000E+01 0. -1.
         25    2    1    2    0    0  0.00000000000E+00  0.00000000000E+00  0.24451507825E+03  0.27460242224E+03  0.12497546481E+03 0.  0.
    9000005    1    3    3    0    0  0.48181171596E+02 -0.39738658514E+02  0.12614513575E+03  0.14076285572E+03  0.10000000000E+01 0.  0.
    9000005    1    3    3    0    0 -0.48181171596E+02  0.39738658514E+02  0.11836994250E+03  0.13383956651E+03  0.10000000000E+01 0.  0.
<mgrwt>
<rscale>  0 0.12497546E+03</rscale>
<asrwt>0</asrwt>
<pdfrwt beam="1">  1        4 0.39932116E-01 0.12497546E+03</pdfrwt>
<pdfrwt beam="2">  1       -4 0.23144111E-02 0.12497546E+03</pdfrwt>
<totfact> 0.78942331E+03</totfact>
</mgrwt>
</event>
<event>
 5    1  0.3266594E-002  0.1249995E+03  0.7818608E-02  0.1235070E+00
         -4   -1    0    0    0  501 -0.00000000000E+00  0.00000000000E+00  0.11082501918E+03  0.11083229572E+03  0.12700000000E+01 0. -1.
          4   -1    0    0  501    0  0.00000000000E+00 -0.00000000000E+00 -0.35226830794E+02  0.35249716421E+02  0.12700000000E+01 0. -1.
         25    2    1    2    0    0  0.00000000000E+00  0.00000000000E+00  0.75598188383E+02  0.14608201215E+03  0.12499947274E+03 0.  0.
    9000005    1    3    3    0    0  0.58790793423E+02  0.29552502388E+01  0.13281539761E+02  0.60353046267E+02  0.10000000000E+01 0.  0.
    9000005    1    3    3    0    0 -0.58790793423E+02 -0.29552502388E+01  0.62316648622E+02  0.85728965879E+02  0.10000000000E+01 0.  0.
<mgrwt>
<rscale>  0 0.12499947E+03</rscale>
<asrwt>0</asrwt>
<pdfrwt beam="2">  1        4 0.54218327E-02 0.12499947E+03</pdfrwt>
<pdfrwt beam="1">  1       -4 0.17052323E-01 0.12499947E+03</pdfrwt>
<totfact> 0.10009169E+04</totfact>
</mgrwt>
</event>
<event>
 5    1  0.3266594E-002  0.1249979E+03  0.7818608E-02  0.1235073E+00
         -4   -1    0    0    0  501 -0.00000000000E+00  0.00000000000E+00  0.51896404097E+02  0.51911941383E+02  0.12700000000E+01 0.  1.
          4   -1    0    0  501    0  0.00000000000E+00 -0.00000000000E+00 -0.75235426621E+02  0.75246144877E+02  0.12700000000E+01 0.  1.
         25    2    1    2    0    0  0.00000000000E+00  0.00000000000E+00 -0.23339022524E+02  0.12715808626E+03  0.12499787570E+03 0.  0.
    9000005    1    3    3    0    0 -0.13920073952E+02  0.52002267632E+02 -0.43952998268E+02  0.69504462838E+02  0.10000000000E+01 0.  0.
    9000005    1    3    3    0    0  0.13920073952E+02 -0.52002267632E+02  0.20613975744E+02  0.57653623422E+02  0.10000000000E+01 0.  0.
<mgrwt>
<rscale>  0 0.12499788E+03</rscale>
<asrwt>0</asrwt>
<pdfrwt beam="2">  1        4 0.11576701E-01 0.12499788E+03</pdfrwt>
<pdfrwt beam="1">  1       -4 0.79860818E-02 0.12499788E+03</pdfrwt>
<totfact> 0.10406212E+04</totfact>
</mgrwt>
</event>
<event>
 5    1  0.3266594E-002  0.1250001E+03  0.7818608E-02  0.1235069E+00
          4   -1    0    0  501    0  0.00000000000E+00  0.00000000000E+00  0.15583537712E+02  0.15635202193E+02  0.12700000000E+01 0. -1.
         -4   -1    0    0    0  501 -0.00000000000E+00 -0.00000000000E+00 -0.25019739582E+03  0.25020061905E+03  0.12700000000E+01 0. -1.
         25    2    1    2    0    0  0.00000000000E+00  0.00000000000E+00 -0.23461385811E+03  0.26583582124E+03  0.12500008577E+03 0.  0.
    9000005    1    3    3    0    0  0.48544679613E+02 -0.25316789323E+01 -0.33788562068E+02  0.59208633184E+02  0.10000000000E+01 0.  0.
    9000005    1    3    3    0    0 -0.48544679613E+02  0.25316789323E+01 -0.20082529604E+03  0.20662718806E+03  0.10000000000E+01 0.  0.
<mgrwt>
<rscale>  0 0.12500009E+03</rscale>
<asrwt>0</asrwt>
<pdfrwt beam="1">  1        4 0.24016896E-02 0.12500009E+03</pdfrwt>
<pdfrwt beam="2">  1       -4 0.38496126E-01 0.12500009E+03</pdfrwt>
<totfact> 0.80093847E+03</totfact>
</mgrwt>
</event>
<event>
 5    1  0.3266594E-002  0.1250007E+03  0.7818608E-02  0.1235068E+00
          4   -1    0    0  501    0  0.00000000000E+00  0.00000000000E+00  0.75959532174E+02  0.75970148269E+02  0.12700000000E+01 0.  1.
         -4   -1    0    0    0  501 -0.00000000000E+00 -0.00000000000E+00 -0.51403903709E+02  0.51419589813E+02  0.12700000000E+01 0.  1.
         25    2    1    2    0    0  0.00000000000E+00  0.00000000000E+00  0.24555628465E+02  0.12738973808E+03  0.12500066592E+03 0.  0.
    9000005    1    3    3    0    0  0.26412397299E+02 -0.56521904750E+02  0.86102590502E+01  0.62987911607E+02  0.10000000000E+01 0.  0.
    9000005    1    3    3    0    0 -0.26412397299E+02  0.56521904750E+02  0.15945369414E+02  0.64401826476E+02  0.10000000000E+01 0.  0.
<mgrwt>
<rscale>  0 0.12500067E+03</rscale>
<asrwt>0</asrwt>
<pdfrwt beam="1">  1        4 0.11688105E-01 0.12500067E+03</pdfrwt>
<pdfrwt beam="2">  1       -4 0.79103162E-02 0.12500067E+03</pdfrwt>
<totfact> 0.10400533E+04</totfact>
</mgrwt>
</event>
<event>
 5    1  0.3266594E-002  0.1249963E+03  0.7818608E-02  0.1235075E+00
         -4   -1    0    0    0  501 -0.00000000000E+00  0.00000000000E+00  0.66834296780E+02  0.66846362101E+02  0.12700000000E+01 0.  1.
          4   -1    0    0  501    0  0.00000000000E+00 -0.00000000000E+00 -0.58419088874E+02  0.58432891806E+02  0.12700000000E+01 0.  1.
         25    2    1    2    0    0  0.00000000000E+00  0.00000000000E+00  0.84152079067E+01  0.12527925391E+03  0.12499630289E+03 0.  0.
    9000005    1    3    3    0    0 -0.30881279244E+02  0.18266488788E+02 -0.47071685979E+02  0.59195115012E+02  0.10000000000E+01 0.  0.
    9000005    1    3    3    0    0  0.30881279244E+02 -0.18266488788E+02  0.55486893886E+02  0.66084138895E+02  0.10000000000E+01 0.  0.
<mgrwt>
<rscale>  0 0.12499630E+03</rscale>
<asrwt>0</asrwt>
<pdfrwt beam="2">  1        4 0.89895420E-02 0.12499630E+03</pdfrwt>
<pdfrwt beam="1">  1       -4 0.10284189E-01 0.12499630E+03</pdfrwt>
<totfact> 0.10447673E+04</totfact>
</mgrwt>
</event>
<event>
 5    1  0.3266594E-002  0.1249980E+03  0.7818608E-02  0.1235072E+00
          4   -1    0    0  501    0  0.00000000000E+00  0.00000000000E+00  0.68726162350E+02  0.68737895599E+02  0.12700000000E+01 0. -1.
         -4   -1    0    0    0  501 -0.00000000000E+00 -0.00000000000E+00 -0.56812366167E+02  0.56826559367E+02  0.12700000000E+01 0. -1.
         25    2    1    2    0    0  0.00000000000E+00  0.00000000000E+00  0.11913796184E+02  0.12556445497E+03  0.12499797523E+03 0.  0.
    9000005    1    3    3    0    0  0.58213922388E+02 -0.21731701547E+02  0.12619894042E+02  0.63414425311E+02  0.10000000000E+01 0.  0.
    9000005    1    3    3    0    0 -0.58213922388E+02  0.21731701547E+02 -0.70609785858E+00  0.62150029655E+02  0.10000000000E+01 0.  0.
<mgrwt>
<rscale>  0 0.12499798E+03</rscale>
<asrwt>0</asrwt>
<pdfrwt beam="1">  1        4 0.10575250E-01 0.12499798E+03</pdfrwt>
<pdfrwt beam="2">  1       -4 0.87423584E-02 0.12499798E+03</pdfrwt>
<totfact> 0.10441008E+04</totfact>
</mgrwt>
</event>
<event>
 5    1  0.3266594E-002  0.1250039E+03  0.7818608E-02  0.1235063E+00
         -4   -1    0    0    0  501 -0.00000000000E+00  0.00000000000E+00  0.31961265356E+01  0.34392040986E+01  0.12700000000E+01 0. -1.
          4   -1    0    0  501    0  0.00000000000E+00 -0.00000000000E+00 -0.11772396946E+04  0.11772403797E+04  0.12700000000E+01 0. -1.
         25    2    1    2    0    0  0.00000000000E+00  0.00000000000E+00 -0.11740435681E+04  0.11806795838E+04  0.12500391886E+03 0.  0.
    9000005    1    3    3    0    0 -0.58358482081E+02  0.97815058495E+01 -0.77689134522E+03  0.77914219021E+03  0.10000000000E+01 0.  0.
    9000005    1    3    3    0    0  0.58358482081E+02 -0.97815058495E+01 -0.39715222289E+03  0.40153739356E+03  0.10000000000E+01 0.  0.
<mgrwt>
<rscale>  0 0.12500392E+03</rscale>
<asrwt>0</asrwt>
<pdfrwt beam="2">  1        4 0.18113222E+00 0.12500392E+03</pdfrwt>
<pdfrwt beam="1">  1       -4 0.51046368E-03 0.12500392E+03</pdfrwt>
<totfact> 0.25222036E+03</totfact>
</mgrwt>
</event>
<event>
 5    1  0.3266594E-002  0.1249698E+03  0.7818608E-02  0.1235117E+00
         -4   -1    0    0    0  501 -0.00000000000E+00  0.00000000000E+00  0.50429283106E+02  0.50445272271E+02  0.12700000000E+01 0. -1.
          4   -1    0    0  501    0  0.00000000000E+00 -0.00000000000E+00 -0.77389036660E+02  0.77399456685E+02  0.12700000000E+01 0. -1.
         25    2    1    2    0    0  0.00000000000E+00  0.00000000000E+00 -0.26959753555E+02  0.12784472896E+03  0.12496978199E+03 0.  0.
    9000005    1    3    3    0    0  0.74405531577E+00  0.57646837090E+02 -0.38109671588E+02  0.69116268080E+02  0.10000000000E+01 0.  0.
    9000005    1    3    3    0    0 -0.74405531577E+00 -0.57646837090E+02  0.11149918033E+02  0.58728460877E+02  0.10000000000E+01 0.  0.
<mgrwt>
<rscale>  0 0.12496978E+03</rscale>
<asrwt>0</asrwt>
<pdfrwt beam="2">  1        4 0.11908037E-01 0.12496978E+03</pdfrwt>
<pdfrwt beam="1">  1       -4 0.77603827E-02 0.12496978E+03</pdfrwt>
<totfact> 0.10397934E+04</totfact>
</mgrwt>
</event>
<event>
 4    1  0.3266594E-002  0.1249288E+03  0.7818608E-02  0.1235181E+00
          4   -1    0    0  501    0  0.00000000000E+00  0.00000000000E+00  0.21190488738E+03  0.21190869307E+03  0.12700000000E+01 0.  1.
         -4   -1    0    0    0  501 -0.00000000000E+00 -0.00000000000E+00 -0.18387110746E+02  0.18430918088E+02  0.12700000000E+01 0.  1.
    9000005    1    1    2    0    0  0.50679777434E+02  0.34118176918E+02  0.72838769292E+02  0.95073530222E+02  0.10000000000E+01 0.  0.
    9000005    1    1    2    0    0 -0.50679777434E+02 -0.34118176918E+02  0.12067900735E+03  0.13526608093E+03  0.10000000000E+01 0.  0.
<mgrwt>
<rscale>  0 0.12492881E+03</rscale>
<asrwt>0</asrwt>
<pdfrwt beam="1">  1        4 0.32604415E-01 0.12492881E+03</pdfrwt>
<pdfrwt beam="2">  1       -4 0.28324488E-02 0.12492881E+03</pdfrwt>
<totfact> 0.85393041E+03</totfact>
</mgrwt>
</event>
<event>
 5    1  0.3266594E-002  0.1249984E+03  0.7818608E-02  0.1235072E+00
          4   -1    0    0  501    0  0.00000000000E+00  0.00000000000E+00  0.49242058714E+02  0.49258433251E+02  0.12700000000E+01 0.  1.
         -4   -1    0    0    0  501 -0.00000000000E+00 -0.00000000000E+00 -0.79290811705E+02  0.79300981840E+02  0.12700000000E+01 0.  1.
         25    2    1    2    0    0  0.00000000000E+00  0.00000000000E+00 -0.30048752991E+02  0.12855941509E+03  0.12499838260E+03 0.  0.
    9000005    1    3    3    0    0 -0.13839379756E+02  0.59545175061E+02 -0.28354819443E+02  0.67395490136E+02  0.10000000000E+01 0.  0.
    9000005    1    3    3    0    0  0.13839379756E+02 -0.59545175061E+02 -0.16939335475E+01  0.61163924955E+02  0.10000000000E+01 0.  0.
<mgrwt>
<rscale>  0 0.12499838E+03</rscale>
<asrwt>0</asrwt>
<pdfrwt beam="1">  1        4 0.75777432E-02 0.12499838E+03</pdfrwt>
<pdfrwt beam="2">  1       -4 0.12200628E-01 0.12499838E+03</pdfrwt>
<totfact> 0.10375803E+04</totfact>
</mgrwt>
</event>
<event>
 5    1  0.3266594E-002  0.1250001E+03  0.7818608E-02  0.1235069E+00
          4   -1    0    0  501    0  0.00000000000E+00  0.00000000000E+00  0.69464343656E+02  0.69475952239E+02  0.12700000000E+01 0.  1.
         -4   -1    0    0    0  501 -0.00000000000E+00 -0.00000000000E+00 -0.56210532290E+02  0.56224877415E+02  0.12700000000E+01 0.  1.
         25    2    1    2    0    0  0.00000000000E+00  0.00000000000E+00  0.13253811366E+02  0.12570082965E+03  0.12500014024E+03 0.  0.
    9000005    1    3    3    0    0  0.95766755863E+01  0.59806641197E+02 -0.88447760524E+01  0.61219091058E+02  0.10000000000E+01 0.  0.
    9000005    1    3    3    0    0 -0.95766755863E+01 -0.59806641197E+02  0.22098587418E+02  0.64481738597E+02  0.10000000000E+01 0.  0.
<mgrwt>
<rscale>  0 0.12500014E+03</rscale>
<asrwt>0</asrwt>
<pdfrwt beam="1">  1        4 0.10688819E-01 0.12500014E+03</pdfrwt>
<pdfrwt beam="2">  1       -4 0.86497706E-02 0.12500014E+03</pdfrwt>
<totfact> 0.10437493E+04</totfact>
</mgrwt>
</event>
<event>
 5    1  0.3266594E-002  0.1249986E+03  0.7818608E-02  0.1235072E+00
          4   -1    0    0  501    0  0.00000000000E+00  0.00000000000E+00  0.12943516290E+02  0.13005672376E+02  0.12700000000E+01 0.  1.
         -4   -1    0    0    0  501 -0.00000000000E+00 -0.00000000000E+00 -0.30099870617E+03  0.30100138541E+03  0.12700000000E+01 0.  1.
         25    2    1    2    0    0  0.00000000000E+00  0.00000000000E+00 -0.28805518988E+03  0.31400705778E+03  0.12499855967E+03 0.  0.
    9000005    1    3    3    0    0  0.53195704947E+02  0.25539545423E+02 -0.19570019492E+03  0.20440552267E+03  0.10000000000E+01 0.  0.
    9000005    1    3    3    0    0 -0.53195704947E+02 -0.25539545423E+02 -0.92354994962E+02  0.10960153512E+03  0.10000000000E+01 0.  0.
<mgrwt>
<rscale>  0 0.12499856E+03</rscale>
<asrwt>0</asrwt>
<pdfrwt beam="1">  1        4 0.19962978E-02 0.12499856E+03</pdfrwt>
<pdfrwt beam="2">  1       -4 0.46312475E-01 0.12499856E+03</pdfrwt>
<totfact> 0.73876983E+03</totfact>
</mgrwt>
</event>
<event>
 5    1  0.3266594E-002  0.1249864E+03  0.7818608E-02  0.1235091E+00
          4   -1    0    0  501    0  0.00000000000E+00  0.00000000000E+00  0.58697826614E+02  0.58711564016E+02  0.12700000000E+01 0.  1.
         -4   -1    0    0    0  501 -0.00000000000E+00 -0.00000000000E+00 -0.66506380597E+02  0.66518505396E+02  0.12700000000E+01 0.  1.
         25    2    1    2    0    0  0.00000000000E+00  0.00000000000E+00 -0.78085539829E+01  0.12523006941E+03  0.12498638634E+03 0.  0.
    9000005    1    3    3    0    0  0.49222027972E+02  0.30377228109E+02  0.19781083665E+02  0.61138165627E+02  0.10000000000E+01 0.  0.
    9000005    1    3    3    0    0 -0.49222027972E+02 -0.30377228109E+02 -0.27589637648E+02  0.64091903785E+02  0.10000000000E+01 0.  0.
<mgrwt>
<rscale>  0 0.12498639E+03</rscale>
<asrwt>0</asrwt>
<pdfrwt beam="1">  1        4 0.90324242E-02 0.12498639E+03</pdfrwt>
<pdfrwt beam="2">  1       -4 0.10233740E-01 0.12498639E+03</pdfrwt>
<totfact> 0.10451083E+04</totfact>
</mgrwt>
</event>
<event>
 5    1  0.3266594E-002  0.1249992E+03  0.7818608E-02  0.1235070E+00
          4   -1    0    0  501    0  0.00000000000E+00  0.00000000000E+00  0.29232051142E+03  0.29232327019E+03  0.12700000000E+01 0. -1.
         -4   -1    0    0    0  501 -0.00000000000E+00 -0.00000000000E+00 -0.13329735891E+02  0.13390099287E+02  0.12700000000E+01 0. -1.
         25    2    1    2    0    0  0.00000000000E+00  0.00000000000E+00  0.27899077552E+03  0.30571336948E+03  0.12499924579E+03 0.  0.
    9000005    1    3    3    0    0  0.20880325266E+02 -0.16889845602E+02  0.27749886263E+03  0.27879719085E+03  0.10000000000E+01 0.  0.
    9000005    1    3    3    0    0 -0.20880325266E+02  0.16889845602E+02  0.14919128971E+01  0.26916178625E+02  0.10000000000E+01 0.  0.
<mgrwt>
<rscale>  0 0.12499925E+03</rscale>
<asrwt>0</asrwt>
<pdfrwt beam="1">  1        4 0.44977236E-01 0.12499925E+03</pdfrwt>
<pdfrwt beam="2">  1       -4 0.20555844E-02 0.12499925E+03</pdfrwt>
<totfact> 0.74888964E+03</totfact>
</mgrwt>
</event>
<event>
 5    1  0.3266594E-002  0.1250009E+03  0.7818608E-02  0.1235068E+00
         -4   -1    0    0    0  501 -0.00000000000E+00  0.00000000000E+00  0.31367835965E+03  0.31368093058E+03  0.12700000000E+01 0. -1.
          4   -1    0    0  501    0  0.00000000000E+00 -0.00000000000E+00 -0.12418204531E+02  0.12482976559E+02  0.12700000000E+01 0. -1.
         25    2    1    2    0    0  0.00000000000E+00  0.00000000000E+00  0.30126015512E+03  0.32616390714E+03  0.12500085304E+03 0.  0.
    9000005    1    3    3    0    0 -0.14414978417E+02 -0.98720555507E+01  0.30718886380E+03  0.30768693038E+03  0.10000000000E+01 0.  0.
    9000005    1    3    3    0    0  0.14414978417E+02  0.98720555507E+01 -0.59287086843E+01  0.18476976761E+02  0.10000000000E+01 0.  0.
<mgrwt>
<rscale>  0 0.12500085E+03</rscale>
<asrwt>0</asrwt>
<pdfrwt beam="2">  1        4 0.19156729E-02 0.12500085E+03</pdfrwt>
<pdfrwt beam="1">  1       -4 0.48263397E-01 0.12500085E+03</pdfrwt>
<totfact> 0.72427582E+03</totfact>
</mgrwt>
</event>
<event>
 5    1  0.3266594E-002  0.1250037E+03  0.7818608E-02  0.1235064E+00
         -4   -1    0    0    0  501 -0.00000000000E+00  0.00000000000E+00  0.19769990442E+02  0.19810740069E+02  0.12700000000E+01 0.  1.
          4   -1    0    0  501    0  0.00000000000E+00 -0.00000000000E+00 -0.19735025034E+03  0.19735433669E+03  0.12700000000E+01 0.  1.
         25    2    1    2    0    0  0.00000000000E+00  0.00000000000E+00 -0.17758025990E+03  0.21716507676E+03  0.12500368737E+03 0.  0.
    9000005    1    3    3    0    0 -0.23490752952E+02  0.45766082038E+02 -0.27144460600E+02  0.58173632177E+02  0.10000000000E+01 0.  0.
    9000005    1    3    3    0    0  0.23490752952E+02 -0.45766082038E+02 -0.15043579930E+03  0.15899144458E+03  0.10000000000E+01 0.  0.
<mgrwt>
<rscale>  0 0.12500369E+03</rscale>
<asrwt>0</asrwt>
<pdfrwt beam="2">  1        4 0.30365025E-01 0.12500369E+03</pdfrwt>
<pdfrwt beam="1">  1       -4 0.30449860E-02 0.12500369E+03</pdfrwt>
<totfact> 0.87311744E+03</totfact>
</mgrwt>
</event>
<event>
 5    1  0.3266594E-002  0.1250006E+03  0.7818608E-02  0.1235068E+00
          4   -1    0    0  501    0  0.00000000000E+00  0.00000000000E+00  0.11313915069E+01  0.17008664680E+01  0.12700000000E+01 0.  1.
         -4   -1    0    0    0  501 -0.00000000000E+00 -0.00000000000E+00 -0.27578586941E+04  0.27578589865E+04  0.12700000000E+01 0.  1.
         25    2    1    2    0    0  0.00000000000E+00  0.00000000000E+00 -0.27567273026E+04  0.27595598530E+04  0.12500064542E+03 0.  0.
    9000005    1    3    3    0    0 -0.40566212111E+02  0.31302105710E+02 -0.58858159848E+03  0.59080854552E+03  0.10000000000E+01 0.  0.
    9000005    1    3    3    0    0  0.40566212111E+02 -0.31302105710E+02 -0.21681457041E+04  0.21687513074E+04  0.10000000000E+01 0.  0.
<mgrwt>
<rscale>  0 0.12500065E+03</rscale>
<asrwt>0</asrwt>
<pdfrwt beam="1">  1        4 0.21789070E-03 0.12500065E+03</pdfrwt>
<pdfrwt beam="2">  1       -4 0.42432548E+00 0.12500065E+03</pdfrwt>
<totfact> 0.29361650E+02</totfact>
</mgrwt>
</event>
<event>
 5    1  0.3266594E-002  0.1250042E+03  0.7818608E-02  0.1235063E+00
          4   -1    0    0  501    0  0.00000000000E+00  0.00000000000E+00  0.44845590781E+02  0.44863569993E+02  0.12700000000E+01 0. -1.
         -4   -1    0    0    0  501 -0.00000000000E+00 -0.00000000000E+00 -0.87070156545E+02  0.87079418123E+02  0.12700000000E+01 0. -1.
         25    2    1    2    0    0  0.00000000000E+00  0.00000000000E+00 -0.42224565763E+02  0.13194298812E+03  0.12500415257E+03 0.  0.
    9000005    1    3    3    0    0  0.20478109733E+02 -0.54825190132E+02  0.20213091783E+01  0.58568251997E+02  0.10000000000E+01 0.  0.
    9000005    1    3    3    0    0 -0.20478109733E+02  0.54825190132E+02 -0.44245874942E+02  0.73374736119E+02  0.10000000000E+01 0.  0.
<mgrwt>
<rscale>  0 0.12500415E+03</rscale>
<asrwt>0</asrwt>
<pdfrwt beam="1">  1        4 0.69014171E-02 0.12500415E+03</pdfrwt>
<pdfrwt beam="2">  1       -4 0.13397504E-01 0.12500415E+03</pdfrwt>
<totfact> 0.10301950E+04</totfact>
</mgrwt>
</event>
<event>
 5    1  0.3266594E-002  0.1249992E+03  0.7818608E-02  0.1235071E+00
         -4   -1    0    0    0  501 -0.00000000000E+00  0.00000000000E+00  0.12664232622E+02  0.12727752665E+02  0.12700000000E+01 0. -1.
          4   -1    0    0  501    0  0.00000000000E+00 -0.00000000000E+00 -0.30760708577E+03  0.30760970745E+03  0.12700000000E+01 0. -1.
         25    2    1    2    0    0  0.00000000000E+00  0.00000000000E+00 -0.29494285315E+03  0.32033746011E+03  0.12499920691E+03 0.  0.
    9000005    1    3    3    0    0 -0.40234344043E+02 -0.41558204858E+02 -0.20807917638E+03  0.21597182797E+03  0.10000000000E+01 0.  0.
    9000005    1    3    3    0    0  0.40234344043E+02  0.41558204858E+02 -0.86863676765E+02  0.10436563214E+03  0.10000000000E+01 0.  0.
<mgrwt>
<rscale>  0 0.12499921E+03</rscale>
<asrwt>0</asrwt>
<pdfrwt beam="2">  1        4 0.47329249E-01 0.12499921E+03</pdfrwt>
<pdfrwt beam="1">  1       -4 0.19534315E-02 0.12499921E+03</pdfrwt>
<totfact> 0.73117294E+03</totfact>
</mgrwt>
</event>
<event>
 5    1  0.3266594E-002  0.1249970E+03  0.7818608E-02  0.1235074E+00
          4   -1    0    0  501    0  0.00000000000E+00  0.00000000000E+00  0.36151672186E+02  0.36173972713E+02  0.12700000000E+01 0. -1.
         -4   -1    0    0    0  501 -0.00000000000E+00 -0.00000000000E+00 -0.10798712842E+03  0.10799459618E+03  0.12700000000E+01 0. -1.
         25    2    1    2    0    0  0.00000000000E+00  0.00000000000E+00 -0.71835456233E+02  0.14416856889E+03  0.12499697390E+03 0.  0.
    9000005    1    3    3    0    0  0.37430704451E+02  0.33571227079E+02  0.68813353087E+01  0.50758621917E+02  0.10000000000E+01 0.  0.
    9000005    1    3    3    0    0 -0.37430704451E+02 -0.33571227079E+02 -0.78716791541E+02  0.93409946975E+02  0.10000000000E+01 0.  0.
<mgrwt>
<rscale>  0 0.12499697E+03</rscale>
<asrwt>0</asrwt>
<pdfrwt beam="1">  1        4 0.55640856E-02 0.12499697E+03</pdfrwt>
<pdfrwt beam="2">  1       -4 0.16615694E-01 0.12499697E+03</pdfrwt>
<totfact> 0.10048593E+04</totfact>
</mgrwt>
</event>
<event>
 5    1  0.3266594E-002  0.1250030E+03  0.7818608E-02  0.1235065E+00
          4   -1    0    0  501    0  0.00000000000E+00  0.00000000000E+00  0.11301498340E+03  0.11302211895E+03  0.12700000000E+01 0.  1.
         -4   -1    0    0    0  501 -0.00000000000E+00 -0.00000000000E+00 -0.34545750779E+02  0.34569087302E+02  0.12700000000E+01 0.  1.
         25    2    1    2    0    0  0.00000000000E+00  0.00000000000E+00  0.78469232618E+02  0.14759120625E+03  0.12500297475E+03 0.  0.
    9000005    1    3    3    0    0  0.35500478313E+01  0.62268775636E+02  0.43872935150E+02  0.76261639751E+02  0.10000000000E+01 0.  0.
    9000005    1    3    3    0    0 -0.35500478313E+01 -0.62268775636E+02  0.34596297468E+02  0.71329566502E+02  0.10000000000E+01 0.  0.
<mgrwt>
<rscale>  0 0.12500297E+03</rscale>
<asrwt>0</asrwt>
<pdfrwt beam="1">  1        4 0.17389265E-01 0.12500297E+03</pdfrwt>
<pdfrwt beam="2">  1       -4 0.53170749E-02 0.12500297E+03</pdfrwt>
<totfact> 0.99779358E+03</totfact>
</mgrwt>
</event>
<event>
 5    1  0.3266594E-002  0.1250026E+03  0.7818608E-02  0.1235065E+00
         -4   -1    0    0    0  501 -0.00000000000E+00  0.00000000000E+00  0.10129489263E+02  0.10208792913E+02  0.12700000000E+01 0.  1.
          4   -1    0    0  501    0  0.00000000000E+00 -0.00000000000E+00 -0.38406334364E+03  0.38406544342E+03  0.12700000000E+01 0.  1.
         25    2    1    2    0    0  0.00000000000E+00  0.00000000000E+00 -0.37393385438E+03  0.39427423633E+03  0.12500258391E+03 0.  0.
    9000005    1    3    3    0    0 -0.15628474286E+01  0.45909413609E+02 -0.32061025731E+03  0.32388586546E+03  0.10000000000E+01 0.  0.
    9000005    1    3    3    0    0  0.15628474286E+01 -0.45909413609E+02 -0.53323597062E+02  0.70388370870E+02  0.10000000000E+01 0.  0.
<mgrwt>
<rscale>  0 0.12500258E+03</rscale>
<asrwt>0</asrwt>
<pdfrwt beam="2">  1        4 0.59092919E-01 0.12500258E+03</pdfrwt>
<pdfrwt beam="1">  1       -4 0.15646451E-02 0.12500258E+03</pdfrwt>
<totfact> 0.65109795E+03</totfact>
</mgrwt>
</event>
<event>
 5    1  0.3266594E-002  0.1250075E+03  0.7818608E-02  0.1235058E+00
         -4   -1    0    0    0  501 -0.00000000000E+00  0.00000000000E+00  0.72496639450E+01  0.73600629967E+01  0.12700000000E+01 0. -1.
          4   -1    0    0  501    0  0.00000000000E+00 -0.00000000000E+00 -0.53469946291E+03  0.53470097114E+03  0.12700000000E+01 0. -1.
         25    2    1    2    0    0  0.00000000000E+00  0.00000000000E+00 -0.52744979897E+03  0.54206103414E+03  0.12500749697E+03 0.  0.
    9000005    1    3    3    0    0  0.13252038244E+02 -0.25746939094E+02 -0.50387511370E+03  0.50470749112E+03  0.10000000000E+01 0.  0.
    9000005    1    3    3    0    0 -0.13252038244E+02  0.25746939094E+02 -0.23574685272E+02  0.37353543018E+02  0.10000000000E+01 0.  0.
<mgrwt>
<rscale>  0 0.12500750E+03</rscale>
<asrwt>0</asrwt>
<pdfrwt beam="2">  1        4 0.82270033E-01 0.12500750E+03</pdfrwt>
<pdfrwt beam="1">  1       -4 0.11239416E-02 0.12500750E+03</pdfrwt>
<totfact> 0.52733843E+03</totfact>
</mgrwt>
</event>
<event>
 5    1  0.3266594E-002  0.1249995E+03  0.7818608E-02  0.1235070E+00
         -4   -1    0    0    0  501 -0.00000000000E+00  0.00000000000E+00  0.68772160874E+02  0.68783886276E+02  0.12700000000E+01 0.  1.
          4   -1    0    0  501    0  0.00000000000E+00 -0.00000000000E+00 -0.56775744400E+02  0.56789946753E+02  0.12700000000E+01 0.  1.
         25    2    1    2    0    0  0.00000000000E+00  0.00000000000E+00  0.11996416474E+02  0.12557383303E+03  0.12499949413E+03 0.  0.
    9000005    1    3    3    0    0  0.19915367087E+02 -0.51675036679E+02 -0.23088012289E+02  0.60008229214E+02  0.10000000000E+01 0.  0.
    9000005    1    3    3    0    0 -0.19915367087E+02  0.51675036679E+02  0.35084428763E+02  0.65565603814E+02  0.10000000000E+01 0.  0.
<mgrwt>
<rscale>  0 0.12499949E+03</rscale>
<asrwt>0</asrwt>
<pdfrwt beam="2">  1        4 0.87367244E-02 0.12499949E+03</pdfrwt>
<pdfrwt beam="1">  1       -4 0.10582327E-01 0.12499949E+03</pdfrwt>
<totfact> 0.10440443E+04</totfact>
</mgrwt>
</event>
<event>
 5    1  0.3266594E-002  0.1250007E+03  0.7818608E-02  0.1235068E+00
          4   -1    0    0  501    0  0.00000000000E+00  0.00000000000E+00  0.17238476293E+03  0.17238944107E+03  0.12700000000E+01 0. -1.
         -4   -1    0    0    0  501 -0.00000000000E+00 -0.00000000000E+00 -0.22637521126E+02  0.22673117622E+02  0.12700000000E+01 0. -1.
         25    2    1    2    0    0  0.00000000000E+00  0.00000000000E+00  0.14974724181E+03  0.19506255869E+03  0.12500066149E+03 0.  0.
    9000005    1    3    3    0    0  0.53908641719E+02  0.11552837679E+02  0.28960088487E+02  0.62283998231E+02  0.10000000000E+01 0.  0.
    9000005    1    3    3    0    0 -0.53908641719E+02 -0.11552837679E+02  0.12078715332E+03  0.13277856046E+03  0.10000000000E+01 0.  0.
<mgrwt>
<rscale>  0 0.12500066E+03</rscale>
<asrwt>0</asrwt>
<pdfrwt beam="1">  1        4 0.26523831E-01 0.12500066E+03</pdfrwt>
<pdfrwt beam="2">  1       -4 0.34857936E-02 0.12500066E+03</pdfrwt>
<totfact> 0.90972484E+03</totfact>
</mgrwt>
</event>
<event>
 5    1  0.3266594E-002  0.1250007E+03  0.7818608E-02  0.1235068E+00
         -4   -1    0    0    0  501 -0.00000000000E+00  0.00000000000E+00  0.76494460297E+02  0.76505002164E+02  0.12700000000E+01 0. -1.
          4   -1    0    0  501    0  0.00000000000E+00 -0.00000000000E+00 -0.51044390694E+02  0.51060187243E+02  0.12700000000E+01 0. -1.
         25    2    1    2    0    0  0.00000000000E+00  0.00000000000E+00  0.25450069603E+02  0.12756518941E+03  0.12500068602E+03 0.  0.
    9000005    1    3    3    0    0 -0.56829944033E+02 -0.18925630797E+02  0.30908292761E+02  0.67410270740E+02  0.10000000000E+01 0.  0.
    9000005    1    3    3    0    0  0.56829944033E+02  0.18925630797E+02 -0.54582231577E+01  0.60154918667E+02  0.10000000000E+01 0.  0.
<mgrwt>
<rscale>  0 0.12500069E+03</rscale>
<asrwt>0</asrwt>
<pdfrwt beam="2">  1        4 0.78550092E-02 0.12500069E+03</pdfrwt>
<pdfrwt beam="1">  1       -4 0.11770405E-01 0.12500069E+03</pdfrwt>
<totfact> 0.10396728E+04</totfact>
</mgrwt>
</event>
<event>
 5    1  0.3266594E-002  0.1249963E+03  0.7818608E-02  0.1235075E+00
          4   -1    0    0  501    0  0.00000000000E+00  0.00000000000E+00  0.51830461081E+01  0.53363720783E+01  0.12700000000E+01 0.  1.
         -4   -1    0    0    0  501 -0.00000000000E+00 -0.00000000000E+00 -0.74247650202E+03  0.74247758818E+03  0.12700000000E+01 0.  1.
         25    2    1    2    0    0  0.00000000000E+00  0.00000000000E+00 -0.73729345591E+03  0.74781396026E+03  0.12499631606E+03 0.  0.
    9000005    1    3    3    0    0  0.49908931982E+02 -0.37464650223E+02 -0.34924376362E+03  0.35477698338E+03  0.10000000000E+01 0.  0.
    9000005    1    3    3    0    0 -0.49908931982E+02  0.37464650223E+02 -0.38804969229E+03  0.39303697688E+03  0.10000000000E+01 0.  0.
<mgrwt>
<rscale>  0 0.12499632E+03</rscale>
<asrwt>0</asrwt>
<pdfrwt beam="1">  1        4 0.80927016E-03 0.12499632E+03</pdfrwt>
<pdfrwt beam="2">  1       -4 0.11423895E+00 0.12499632E+03</pdfrwt>
<totfact> 0.40682213E+03</totfact>
</mgrwt>
</event>
<event>
 5    1  0.3266594E-002  0.1250004E+03  0.7818608E-02  0.1235069E+00
          4   -1    0    0  501    0  0.00000000000E+00  0.00000000000E+00  0.46448628764E+02  0.46465987712E+02  0.12700000000E+01 0.  1.
         -4   -1    0    0    0  501 -0.00000000000E+00 -0.00000000000E+00 -0.84060992413E+02  0.84070585494E+02  0.12700000000E+01 0.  1.
         25    2    1    2    0    0  0.00000000000E+00  0.00000000000E+00 -0.37612363648E+02  0.13053657321E+03  0.12500042818E+03 0.  0.
    9000005    1    3    3    0    0  0.37976639001E+02 -0.34482251156E+02  0.18468148845E+02  0.54528187906E+02  0.10000000000E+01 0.  0.
    9000005    1    3    3    0    0 -0.37976639001E+02  0.34482251156E+02 -0.56080512493E+02  0.76008385301E+02  0.10000000000E+01 0.  0.
<mgrwt>
<rscale>  0 0.12500043E+03</rscale>
<asrwt>0</asrwt>
<pdfrwt beam="1">  1        4 0.71480161E-02 0.12500043E+03</pdfrwt>
<pdfrwt beam="2">  1       -4 0.12934534E-01 0.12500043E+03</pdfrwt>
<totfact> 0.10332935E+04</totfact>
</mgrwt>
</event>
<event>
 5    1  0.3266594E-002  0.1250006E+03  0.7818608E-02  0.1235068E+00
         -4   -1    0    0    0  501 -0.00000000000E+00  0.00000000000E+00  0.15280386364E+02  0.15333072342E+02  0.12700000000E+01 0.  1.
          4   -1    0    0  501    0  0.00000000000E+00 -0.00000000000E+00 -0.25514637592E+03  0.25514953664E+03  0.12700000000E+01 0.  1.
         25    2    1    2    0    0  0.00000000000E+00  0.00000000000E+00 -0.23986598956E+03  0.27048260898E+03  0.12500059525E+03 0.  0.
    9000005    1    3    3    0    0  0.38559593594E+02  0.40707099529E+02 -0.60225734944E+02  0.82292462350E+02  0.10000000000E+01 0.  0.
    9000005    1    3    3    0    0 -0.38559593594E+02 -0.40707099529E+02 -0.17964025461E+03  0.18819014663E+03  0.10000000000E+01 0.  0.
<mgrwt>
<rscale>  0 0.12500060E+03</rscale>
<asrwt>0</asrwt>
<pdfrwt beam="2">  1        4 0.39257581E-01 0.12500060E+03</pdfrwt>
<pdfrwt beam="1">  1       -4 0.23551248E-02 0.12500060E+03</pdfrwt>
<totfact> 0.79456066E+03</totfact>
</mgrwt>
</event>
<event>
 5    1  0.3266594E-002  0.1250000E+03  0.7818608E-02  0.1235069E+00
         -4   -1    0    0    0  501 -0.00000000000E+00  0.00000000000E+00  0.14004129495E+02  0.14061598164E+02  0.12700000000E+01 0. -1.
          4   -1    0    0  501    0  0.00000000000E+00 -0.00000000000E+00 -0.27830569494E+03  0.27830859264E+03  0.12700000000E+01 0. -1.
         25    2    1    2    0    0  0.00000000000E+00  0.00000000000E+00 -0.26430156545E+03  0.29237019080E+03  0.12500004389E+03 0.  0.
    9000005    1    3    3    0    0 -0.42662176801E+02 -0.14444726712E+02 -0.30829194831E+02  0.54590756664E+02  0.10000000000E+01 0.  0.
    9000005    1    3    3    0    0  0.42662176801E+02  0.14444726712E+02 -0.23347237061E+03  0.23777943414E+03  0.10000000000E+01 0.  0.
<mgrwt>
<rscale>  0 0.12500004E+03</rscale>
<asrwt>0</asrwt>
<pdfrwt beam="2">  1        4 0.42820900E-01 0.12500004E+03</pdfrwt>
<pdfrwt beam="1">  1       -4 0.21591252E-02 0.12500004E+03</pdfrwt>
<totfact> 0.76565912E+03</totfact>
</mgrwt>
</event>
<event>
 5    1  0.3266594E-002  0.1249989E+03  0.7818608E-02  0.1235071E+00
         -4   -1    0    0    0  501 -0.00000000000E+00  0.00000000000E+00  0.27470660134E+02  0.27500001240E+02  0.12700000000E+01 0.  1.
          4   -1    0    0  501    0  0.00000000000E+00 -0.00000000000E+00 -0.14208661857E+03  0.14209229422E+03  0.12700000000E+01 0.  1.
         25    2    1    2    0    0  0.00000000000E+00  0.00000000000E+00 -0.11461595844E+03  0.16959229546E+03  0.12499891500E+03 0.  0.
    9000005    1    3    3    0    0 -0.91974365222E+01  0.13353485125E+02 -0.13918955070E+03  0.14013436205E+03  0.10000000000E+01 0.  0.
    9000005    1    3    3    0    0  0.91974365222E+01 -0.13353485125E+02  0.24573592267E+02  0.29457933404E+02  0.10000000000E+01 0.  0.
<mgrwt>
<rscale>  0 0.12499891E+03</rscale>
<asrwt>0</asrwt>
<pdfrwt beam="2">  1        4 0.21862173E-01 0.12499891E+03</pdfrwt>
<pdfrwt beam="1">  1       -4 0.42289491E-02 0.12499891E+03</pdfrwt>
<totfact> 0.95527008E+03</totfact>
</mgrwt>
</event>
<event>
 5    1  0.3266594E-002  0.1250039E+03  0.7818608E-02  0.1235063E+00
          4   -1    0    0  501    0  0.00000000000E+00  0.00000000000E+00  0.11232316755E+03  0.11233034705E+03  0.12700000000E+01 0. -1.
         -4   -1    0    0    0  501 -0.00000000000E+00 -0.00000000000E+00 -0.34759176760E+02  0.34782370089E+02  0.12700000000E+01 0. -1.
         25    2    1    2    0    0  0.00000000000E+00  0.00000000000E+00  0.77563990791E+02  0.14711271714E+03  0.12500391545E+03 0.  0.
    9000005    1    3    3    0    0  0.25015831186E+02  0.41996412610E+02 -0.70402965507E+01  0.49396925588E+02  0.10000000000E+01 0.  0.
    9000005    1    3    3    0    0 -0.25015831186E+02 -0.41996412610E+02  0.84604287342E+02  0.97715791553E+02  0.10000000000E+01 0.  0.
<mgrwt>
<rscale>  0 0.12500392E+03</rscale>
<asrwt>0</asrwt>
<pdfrwt beam="1">  1        4 0.17282824E-01 0.12500392E+03</pdfrwt>
<pdfrwt beam="2">  1       -4 0.53499021E-02 0.12500392E+03</pdfrwt>
<totfact> 0.99873576E+03</totfact>
</mgrwt>
</event>
<event>
 5    1  0.3266594E-002  0.1250002E+03  0.7818608E-02  0.1235069E+00
         -4   -1    0    0    0  501 -0.00000000000E+00  0.00000000000E+00  0.10076959621E+04  0.10076967624E+04  0.12700000000E+01 0.  1.
          4   -1    0    0  501    0  0.00000000000E+00 -0.00000000000E+00 -0.37715854293E+01  0.39796679071E+01  0.12700000000E+01 0.  1.
         25    2    1    2    0    0  0.00000000000E+00  0.00000000000E+00  0.10039243767E+04  0.10116764303E+04  0.12500018219E+03 0.  0.
    9000005    1    3    3    0    0 -0.62351035585E+02 -0.41944378210E+01  0.50092448157E+03  0.50480845989E+03  0.10000000000E+01 0.  0.
    9000005    1    3    3    0    0  0.62351035585E+02  0.41944378210E+01  0.50299989512E+03  0.50686797042E+03  0.10000000000E+01 0.  0.
<mgrwt>
<rscale>  0 0.12500018E+03</rscale>
<asrwt>0</asrwt>
<pdfrwt beam="2">  1        4 0.59631170E-03 0.12500018E+03</pdfrwt>
<pdfrwt beam="1">  1       -4 0.15504625E+00 0.12500018E+03</pdfrwt>
<totfact> 0.30221892E+03</totfact>
</mgrwt>
</event>
<event>
 5    1  0.3266594E-002  0.1250015E+03  0.7818608E-02  0.1235067E+00
         -4   -1    0    0    0  501 -0.00000000000E+00  0.00000000000E+00  0.99775630853E+02  0.99783713161E+02  0.12700000000E+01 0.  1.
          4   -1    0    0  501    0  0.00000000000E+00 -0.00000000000E+00 -0.39131313337E+02  0.39151916728E+02  0.12700000000E+01 0.  1.
         25    2    1    2    0    0  0.00000000000E+00  0.00000000000E+00  0.60644317516E+02  0.13893562989E+03  0.12500150401E+03 0.  0.
    9000005    1    3    3    0    0  0.21248635485E+02 -0.56798989418E+02  0.13549823264E+02  0.62146821474E+02  0.10000000000E+01 0.  0.
    9000005    1    3    3    0    0 -0.21248635485E+02  0.56798989418E+02  0.47094494252E+02  0.76788808415E+02  0.10000000000E+01 0.  0.
<mgrwt>
<rscale>  0 0.12500150E+03</rscale>
<asrwt>0</asrwt>
<pdfrwt beam="2">  1        4 0.60224087E-02 0.12500150E+03</pdfrwt>
<pdfrwt beam="1">  1       -4 0.15352304E-01 0.12500150E+03</pdfrwt>
<totfact> 0.10155349E+04</totfact>
</mgrwt>
</event>
<event>
 5    1  0.3266594E-002  0.1249996E+03  0.7818608E-02  0.1235070E+00
         -4   -1    0    0    0  501 -0.00000000000E+00  0.00000000000E+00  0.38824338045E+02  0.38845104256E+02  0.12700000000E+01 0. -1.
          4   -1    0    0  501    0  0.00000000000E+00 -0.00000000000E+00 -0.10056114307E+03  0.10056916225E+03  0.12700000000E+01 0. -1.
         25    2    1    2    0    0  0.00000000000E+00  0.00000000000E+00 -0.61736805028E+02  0.13941426651E+03  0.12499961844E+03 0.  0.
    9000005    1    3    3    0    0  0.28072134038E+02 -0.50236810380E+02 -0.58038332656E+02  0.81738790572E+02  0.10000000000E+01 0.  0.
    9000005    1    3    3    0    0 -0.28072134038E+02  0.50236810380E+02 -0.36984723718E+01  0.57675475937E+02  0.10000000000E+01 0.  0.
<mgrwt>
<rscale>  0 0.12499962E+03</rscale>
<asrwt>0</asrwt>
<pdfrwt beam="2">  1        4 0.15473159E-01 0.12499962E+03</pdfrwt>
<pdfrwt beam="1">  1       -4 0.59751894E-02 0.12499962E+03</pdfrwt>
<totfact> 0.10145827E+04</totfact>
</mgrwt>
</event>
<event>
 5    1  0.3266594E-002  0.1249987E+03  0.7818608E-02  0.1235071E+00
          4   -1    0    0  501    0  0.00000000000E+00  0.00000000000E+00  0.55876765086E+02  0.55891195876E+02  0.12700000000E+01 0. -1.
         -4   -1    0    0    0  501 -0.00000000000E+00 -0.00000000000E+00 -0.69877618863E+02  0.69889158801E+02  0.12700000000E+01 0. -1.
         25    2    1    2    0    0  0.00000000000E+00  0.00000000000E+00 -0.14000853777E+02  0.12578035468E+03  0.12499869486E+03 0.  0.
    9000005    1    3    3    0    0 -0.59322868135E+02 -0.14474381006E+02  0.63663919430E+01  0.61402290964E+02  0.10000000000E+01 0.  0.
    9000005    1    3    3    0    0  0.59322868135E+02  0.14474381006E+02 -0.20367245720E+02  0.64378063714E+02  0.10000000000E+01 0.  0.
<mgrwt>
<rscale>  0 0.12499869E+03</rscale>
<asrwt>0</asrwt>
<pdfrwt beam="1">  1        4 0.85984232E-02 0.12499869E+03</pdfrwt>
<pdfrwt beam="2">  1       -4 0.10752401E-01 0.12499869E+03</pdfrwt>
<totfact> 0.10436084E+04</totfact>
</mgrwt>
</event>
<event>
 5    1  0.3266594E-002  0.1249979E+03  0.7818608E-02  0.1235073E+00
          4   -1    0    0  501    0  0.00000000000E+00  0.00000000000E+00  0.20263449863E+01  0.23914376437E+01  0.12700000000E+01 0. -1.
         -4   -1    0    0    0  501 -0.00000000000E+00 -0.00000000000E+00 -0.17679952446E+04  0.17679957007E+04  0.12700000000E+01 0. -1.
         25    2    1    2    0    0  0.00000000000E+00  0.00000000000E+00 -0.17659688996E+04  0.17703871384E+04  0.12499786136E+03 0.  0.
    9000005    1    3    3    0    0  0.51449030345E+02 -0.35105342706E+02 -0.81114332594E+03  0.81353173449E+03  0.10000000000E+01 0.  0.
    9000005    1    3    3    0    0 -0.51449030345E+02  0.35105342706E+02 -0.95482557364E+03  0.95685540386E+03  0.10000000000E+01 0.  0.
<mgrwt>
<rscale>  0 0.12499786E+03</rscale>
<asrwt>0</asrwt>
<pdfrwt beam="1">  1        4 0.33986593E-03 0.12499786E+03</pdfrwt>
<pdfrwt beam="2">  1       -4 0.27202626E+00 0.12499786E+03</pdfrwt>
<totfact> 0.13166021E+03</totfact>
</mgrwt>
</event>
<event>
 5    1  0.3266594E-002  0.1250013E+03  0.7818608E-02  0.1235067E+00
          4   -1    0    0  501    0  0.00000000000E+00  0.00000000000E+00  0.10667220511E+03  0.10667976492E+03  0.12700000000E+01 0. -1.
         -4   -1    0    0    0  501 -0.00000000000E+00 -0.00000000000E+00 -0.36600082613E+02  0.36622110088E+02  0.12700000000E+01 0. -1.
         25    2    1    2    0    0  0.00000000000E+00  0.00000000000E+00  0.70072122502E+02  0.14330187501E+03  0.12500130011E+03 0.  0.
    9000005    1    3    3    0    0 -0.62428400127E+02 -0.28196245522E+01  0.35351754157E+02  0.71805305841E+02  0.10000000000E+01 0.  0.
    9000005    1    3    3    0    0  0.62428400127E+02  0.28196245522E+01  0.34720368344E+02  0.71496569169E+02  0.10000000000E+01 0.  0.
<mgrwt>
<rscale>  0 0.12500130E+03</rscale>
<asrwt>0</asrwt>
<pdfrwt beam="1">  1        4 0.16413385E-01 0.12500130E+03</pdfrwt>
<pdfrwt beam="2">  1       -4 0.56330578E-02 0.12500130E+03</pdfrwt>
<totfact> 0.10065310E+04</totfact>
</mgrwt>
</event>
<event>
 5    1  0.3266594E-002  0.1249998E+03  0.7818608E-02  0.1235070E+00
         -4   -1    0    0    0  501 -0.00000000000E+00  0.00000000000E+00  0.71987643407E+02  0.71998845153E+02  0.12700000000E+01 0.  1.
          4   -1    0    0  501    0  0.00000000000E+00 -0.00000000000E+00 -0.54239755061E+02  0.54254621269E+02  0.12700000000E+01 0.  1.
         25    2    1    2    0    0  0.00000000000E+00  0.00000000000E+00  0.17747888346E+02  0.12625346642E+03  0.12499980097E+03 0.  0.
    9000005    1    3    3    0    0  0.21055478826E+02 -0.44730980598E+02  0.47480903617E+02  0.68553847610E+02  0.10000000000E+01 0.  0.
    9000005    1    3    3    0    0 -0.21055478826E+02  0.44730980598E+02 -0.29733015271E+02  0.57699618811E+02  0.10000000000E+01 0.  0.
<mgrwt>
<rscale>  0 0.12499980E+03</rscale>
<asrwt>0</asrwt>
<pdfrwt beam="2">  1        4 0.83465830E-02 0.12499980E+03</pdfrwt>
<pdfrwt beam="1">  1       -4 0.11077027E-01 0.12499980E+03</pdfrwt>
<totfact> 0.10425457E+04</totfact>
</mgrwt>
</event>
<event>
 5    1  0.3266594E-002  0.1249989E+03  0.7818608E-02  0.1235071E+00
          4   -1    0    0  501    0  0.00000000000E+00  0.00000000000E+00  0.10312547123E+03  0.10313329102E+03  0.12700000000E+01 0.  1.
         -4   -1    0    0    0  501 -0.00000000000E+00 -0.00000000000E+00 -0.37858040458E+02  0.37879336416E+02  0.12700000000E+01 0.  1.
         25    2    1    2    0    0  0.00000000000E+00  0.00000000000E+00  0.65267430770E+02  0.14101262743E+03  0.12499889430E+03 0.  0.
    9000005    1    3    3    0    0 -0.41222033585E+02 -0.94840582245E+01 -0.19259114402E+02  0.46487814542E+02  0.10000000000E+01 0.  0.
    9000005    1    3    3    0    0  0.41222033585E+02  0.94840582245E+01  0.84526545172E+02  0.94524812891E+02  0.10000000000E+01 0.  0.
<mgrwt>
<rscale>  0 0.12499889E+03</rscale>
<asrwt>0</asrwt>
<pdfrwt beam="1">  1        4 0.15867697E-01 0.12499889E+03</pdfrwt>
<pdfrwt beam="2">  1       -4 0.58265536E-02 0.12499889E+03</pdfrwt>
<totfact> 0.10112893E+04</totfact>
</mgrwt>
</event>
<event>
 5    1  0.3266594E-002  0.1250120E+03  0.7818608E-02  0.1235051E+00
         -4   -1    0    0    0  501 -0.00000000000E+00  0.00000000000E+00  0.94738404190E+01  0.95585852659E+01  0.12700000000E+01 0. -1.
          4   -1    0    0  501    0  0.00000000000E+00 -0.00000000000E+00 -0.41047656163E+03  0.41047852629E+03  0.12700000000E+01 0. -1.
         25    2    1    2    0    0  0.00000000000E+00  0.00000000000E+00 -0.40100272121E+03  0.42003711156E+03  0.12501197010E+03 0.  0.
    9000005    1    3    3    0    0 -0.15128001887E+01  0.49394430621E+02 -0.32905718080E+03  0.33274874392E+03  0.10000000000E+01 0.  0.
    9000005    1    3    3    0    0  0.15128001887E+01 -0.49394430621E+02 -0.71945540408E+02  0.87288367641E+02  0.10000000000E+01 0.  0.
<mgrwt>
<rscale>  0 0.12501197E+03</rscale>
<asrwt>0</asrwt>
<pdfrwt beam="2">  1        4 0.63156897E-01 0.12501197E+03</pdfrwt>
<pdfrwt beam="1">  1       -4 0.14641842E-02 0.12501197E+03</pdfrwt>
<totfact> 0.62633034E+03</totfact>
</mgrwt>
</event>
<event>
 5    1  0.3266594E-002  0.1250072E+03  0.7818608E-02  0.1235058E+00
         -4   -1    0    0    0  501 -0.00000000000E+00  0.00000000000E+00  0.25367458009E+02  0.25399228844E+02  0.12700000000E+01 0.  1.
          4   -1    0    0  501    0  0.00000000000E+00 -0.00000000000E+00 -0.15387354315E+03  0.15387878405E+03  0.12700000000E+01 0.  1.
         25    2    1    2    0    0  0.00000000000E+00  0.00000000000E+00 -0.12850608514E+03  0.17927801289E+03  0.12500716775E+03 0.  0.
    9000005    1    3    3    0    0  0.43974973698E+02 -0.69275101453E+01 -0.12715793296E+03  0.13472909346E+03  0.10000000000E+01 0.  0.
    9000005    1    3    3    0    0 -0.43974973698E+02  0.69275101453E+01 -0.13481521749E+01  0.44548919435E+02  0.10000000000E+01 0.  0.
<mgrwt>
<rscale>  0 0.12500717E+03</rscale>
<asrwt>0</asrwt>
<pdfrwt beam="2">  1        4 0.23675699E-01 0.12500717E+03</pdfrwt>
<pdfrwt beam="1">  1       -4 0.39055330E-02 0.12500717E+03</pdfrwt>
<totfact> 0.93732059E+03</totfact>
</mgrwt>
</event>
<event>
 5    1  0.3266594E-002  0.1250014E+03  0.7818608E-02  0.1235067E+00
          4   -1    0    0  501    0  0.00000000000E+00  0.00000000000E+00  0.26445485566E+02  0.26475962812E+02  0.12700000000E+01 0.  1.
         -4   -1    0    0    0  501 -0.00000000000E+00 -0.00000000000E+00 -0.14759447022E+03  0.14759993408E+03  0.12700000000E+01 0.  1.
         25    2    1    2    0    0  0.00000000000E+00  0.00000000000E+00 -0.12114898466E+03  0.17407589689E+03  0.12500136557E+03 0.  0.
    9000005    1    3    3    0    0 -0.78640828475E+01 -0.83004764631E+01  0.24983184968E+02  0.27493658172E+02  0.10000000000E+01 0.  0.
    9000005    1    3    3    0    0  0.78640828475E+01  0.83004764631E+01 -0.14613216963E+03  0.14658223872E+03  0.10000000000E+01 0.  0.
<mgrwt>
<rscale>  0 0.12500137E+03</rscale>
<asrwt>0</asrwt>
<pdfrwt beam="1">  1        4 0.40713010E-02 0.12500137E+03</pdfrwt>
<pdfrwt beam="2">  1       -4 0.22709606E-01 0.12500137E+03</pdfrwt>
<totfact> 0.94691460E+03</totfact>
</mgrwt>
</event>
<event>
 5    1  0.3266594E-002  0.1250008E+03  0.7818608E-02  0.1235068E+00
          4   -1    0    0  501    0  0.00000000000E+00  0.00000000000E+00  0.51643083973E+03  0.51643240132E+03  0.12700000000E+01 0. -1.
         -4   -1    0    0    0  501 -0.00000000000E+00 -0.00000000000E+00 -0.75091350570E+01  0.76157737168E+01  0.12700000000E+01 0. -1.
         25    2    1    2    0    0  0.00000000000E+00  0.00000000000E+00  0.50892170468E+03  0.52404817503E+03  0.12500075305E+03 0.  0.
    9000005    1    3    3    0    0 -0.29728502988E+02  0.36259360132E+02  0.81261471314E+02  0.93824047063E+02  0.10000000000E+01 0.  0.
    9000005    1    3    3    0    0  0.29728502988E+02 -0.36259360132E+02  0.42766023336E+03  0.43022412797E+03  0.10000000000E+01 0.  0.
<mgrwt>
<rscale>  0 0.12500075E+03</rscale>
<asrwt>0</asrwt>
<pdfrwt beam="1">  1        4 0.79459259E-01 0.12500075E+03</pdfrwt>
<pdfrwt beam="2">  1       -4 0.11635741E-02 0.12500075E+03</pdfrwt>
<totfact> 0.54044722E+03</totfact>
</mgrwt>
</event>
<event>
 5    1  0.3266594E-002  0.1249982E+03  0.7818608E-02  0.1235072E+00
         -4   -1    0    0    0  501 -0.00000000000E+00  0.00000000000E+00  0.26782446801E+03  0.26782747911E+03  0.12700000000E+01 0.  1.
          4   -1    0    0  501    0  0.00000000000E+00 -0.00000000000E+00 -0.14553940053E+02  0.14609246081E+02  0.12700000000E+01 0.  1.
         25    2    1    2    0    0  0.00000000000E+00  0.00000000000E+00  0.25327052796E+03  0.28243672519E+03  0.12499817360E+03 0.  0.
    9000005    1    3    3    0    0 -0.36947102728E+02 -0.32208962501E+02  0.21422305113E+03  0.21976128253E+03  0.10000000000E+01 0.  0.
    9000005    1    3    3    0    0  0.36947102728E+02  0.32208962501E+02  0.39047476830E+02  0.62675442657E+02  0.10000000000E+01 0.  0.
<mgrwt>
<rscale>  0 0.12499817E+03</rscale>
<asrwt>0</asrwt>
<pdfrwt beam="2">  1        4 0.22435536E-02 0.12499817E+03</pdfrwt>
<pdfrwt beam="1">  1       -4 0.41208252E-01 0.12499817E+03</pdfrwt>
<totfact> 0.77859277E+03</totfact>
</mgrwt>
</event>
<event>
 5    1  0.3266594E-002  0.1249947E+03  0.7818608E-02  0.1235078E+00
         -4   -1    0    0    0  501 -0.00000000000E+00  0.00000000000E+00  0.27678143781E+03  0.27678435146E+03  0.12700000000E+01 0.  1.
          4   -1    0    0  501    0  0.00000000000E+00 -0.00000000000E+00 -0.14080361574E+02  0.14137520364E+02  0.12700000000E+01 0.  1.
         25    2    1    2    0    0  0.00000000000E+00  0.00000000000E+00  0.26270107623E+03  0.29092187183E+03  0.12499472010E+03 0.  0.
    9000005    1    3    3    0    0  0.58284620112E+02  0.14337816733E+02  0.90886621298E+02  0.10892221014E+03  0.10000000000E+01 0.  0.
    9000005    1    3    3    0    0 -0.58284620112E+02 -0.14337816733E+02  0.17181445494E+03  0.18199966169E+03  0.10000000000E+01 0.  0.
<mgrwt>
<rscale>  0 0.12499472E+03</rscale>
<asrwt>0</asrwt>
<pdfrwt beam="2">  1        4 0.21708306E-02 0.12499472E+03</pdfrwt>
<pdfrwt beam="1">  1       -4 0.42586378E-01 0.12499472E+03</pdfrwt>
<totfact> 0.76760881E+03</totfact>
</mgrwt>
</event>
<event>
 5    1  0.3266594E-002  0.1250003E+03  0.7818608E-02  0.1235069E+00
         -4   -1    0    0    0  501 -0.00000000000E+00  0.00000000000E+00  0.27487854654E+03  0.27488148036E+03  0.12700000000E+01 0. -1.
          4   -1    0    0  501    0  0.00000000000E+00 -0.00000000000E+00 -0.14179488924E+02  0.14236249722E+02  0.12700000000E+01 0. -1.
         25    2    1    2    0    0  0.00000000000E+00  0.00000000000E+00  0.26069905761E+03  0.28911773008E+03  0.12500025284E+03 0.  0.
    9000005    1    3    3    0    0 -0.28705388273E+02 -0.31727405588E+02  0.23569964559E+03  0.23955364851E+03  0.10000000000E+01 0.  0.
    9000005    1    3    3    0    0  0.28705388273E+02  0.31727405588E+02  0.24999412023E+02  0.49564081579E+02  0.10000000000E+01 0.  0.
<mgrwt>
<rscale>  0 0.12500025E+03</rscale>
<asrwt>0</asrwt>
<pdfrwt beam="2">  1        4 0.21860518E-02 0.12500025E+03</pdfrwt>
<pdfrwt beam="1">  1       -4 0.42293598E-01 0.12500025E+03</pdfrwt>
<totfact> 0.76984054E+03</totfact>
</mgrwt>
</event>
<event>
 5    1  0.3266594E-002  0.1249973E+03  0.7818608E-02  0.1235073E+00
          4   -1    0    0  501    0  0.00000000000E+00  0.00000000000E+00  0.20215610638E+02  0.20255463793E+02  0.12700000000E+01 0.  1.
         -4   -1    0    0    0  501 -0.00000000000E+00 -0.00000000000E+00 -0.19298896140E+03  0.19299314009E+03  0.12700000000E+01 0.  1.
         25    2    1    2    0    0  0.00000000000E+00  0.00000000000E+00 -0.17277335076E+03  0.21324860388E+03  0.12499734527E+03 0.  0.
    9000005    1    3    3    0    0 -0.43882532391E+01 -0.56248823395E+02 -0.40548947698E+02  0.69486718581E+02  0.10000000000E+01 0.  0.
    9000005    1    3    3    0    0  0.43882532391E+01  0.56248823395E+02 -0.13222440306E+03  0.14376188530E+03  0.10000000000E+01 0.  0.
<mgrwt>
<rscale>  0 0.12499735E+03</rscale>
<asrwt>0</asrwt>
<pdfrwt beam="1">  1        4 0.31134811E-02 0.12499735E+03</pdfrwt>
<pdfrwt beam="2">  1       -4 0.29693995E-01 0.12499735E+03</pdfrwt>
<totfact> 0.87953293E+03</totfact>
</mgrwt>
</event>
<event>
 5    1  0.3266594E-002  0.1249962E+03  0.7818608E-02  0.1235075E+00
         -4   -1    0    0    0  501 -0.00000000000E+00  0.00000000000E+00  0.17670053612E+02  0.17715634188E+02  0.12700000000E+01 0. -1.
          4   -1    0    0  501    0  0.00000000000E+00 -0.00000000000E+00 -0.22072043728E+03  0.22072409096E+03  0.12700000000E+01 0. -1.
         25    2    1    2    0    0  0.00000000000E+00  0.00000000000E+00 -0.20305038366E+03  0.23843972515E+03  0.12499617684E+03 0.  0.
    9000005    1    3    3    0    0 -0.38702015029E+02  0.49025665996E+02 -0.97881190935E+02  0.11611670609E+03  0.10000000000E+01 0.  0.
    9000005    1    3    3    0    0  0.38702015029E+02 -0.49025665996E+02 -0.10516919273E+03  0.12232301906E+03  0.10000000000E+01 0.  0.
<mgrwt>
<rscale>  0 0.12499618E+03</rscale>
<asrwt>0</asrwt>
<pdfrwt beam="2">  1        4 0.33960776E-01 0.12499618E+03</pdfrwt>
<pdfrwt beam="1">  1       -4 0.27222572E-02 0.12499618E+03</pdfrwt>
<totfact> 0.84037457E+03</totfact>
</mgrwt>
</event>
<event>
 5    1  0.3266594E-002  0.1249982E+03  0.7818608E-02  0.1235072E+00
          4   -1    0    0  501    0  0.00000000000E+00  0.00000000000E+00  0.58600390675E+02  0.58614150913E+02  0.12700000000E+01 0. -1.
         -4   -1    0    0    0  501 -0.00000000000E+00 -0.00000000000E+00 -0.66629525780E+02  0.66641628173E+02  0.12700000000E+01 0. -1.
         25    2    1    2    0    0  0.00000000000E+00  0.00000000000E+00 -0.80291351042E+01  0.12525577909E+03  0.12499817272E+03 0.  0.
    9000005    1    3    3    0    0 -0.46430272803E+02 -0.21349712999E+01  0.37842409798E+02  0.59944777206E+02  0.10000000000E+01 0.  0.
    9000005    1    3    3    0    0  0.46430272803E+02  0.21349712999E+01 -0.45871544902E+02  0.65311001881E+02  0.10000000000E+01 0.  0.
<mgrwt>
<rscale>  0 0.12499817E+03</rscale>
<asrwt>0</asrwt>
<pdfrwt beam="1">  1        4 0.90174341E-02 0.12499817E+03</pdfrwt>
<pdfrwt beam="2">  1       -4 0.10252686E-01 0.12499817E+03</pdfrwt>
<totfact> 0.10447741E+04</totfact>
</mgrwt>
</event>
<event>
 5    1  0.3266594E-002  0.1249981E+03  0.7818608E-02  0.1235072E+00
          4   -1    0    0  501    0  0.00000000000E+00  0.00000000000E+00  0.81796270394E+02  0.81806129052E+02  0.12700000000E+01 0.  1.
         -4   -1    0    0    0  501 -0.00000000000E+00 -0.00000000000E+00 -0.47733175087E+02  0.47750067056E+02  0.12700000000E+01 0.  1.
         25    2    1    2    0    0  0.00000000000E+00  0.00000000000E+00  0.34063095308E+02  0.12955619611E+03  0.12499805394E+03 0.  0.
    9000005    1    3    3    0    0 -0.32010794284E+01 -0.22000048076E+01 -0.47613022286E+02  0.47781657797E+02  0.10000000000E+01 0.  0.
    9000005    1    3    3    0    0  0.32010794284E+01  0.22000048076E+01  0.81676117594E+02  0.81774538310E+02  0.10000000000E+01 0.  0.
<mgrwt>
<rscale>  0 0.12499805E+03</rscale>
<asrwt>0</asrwt>
<pdfrwt beam="1">  1        4 0.12586099E-01 0.12499805E+03</pdfrwt>
<pdfrwt beam="2">  1       -4 0.73456232E-02 0.12499805E+03</pdfrwt>
<totfact> 0.10354465E+04</totfact>
</mgrwt>
</event>
<event>
 5    1  0.3266594E-002  0.1250032E+03  0.7818608E-02  0.1235064E+00
          4   -1    0    0  501    0  0.00000000000E+00  0.00000000000E+00  0.24669017936E+03  0.24669344842E+03  0.12700000000E+01 0. -1.
         -4   -1    0    0    0  501 -0.00000000000E+00 -0.00000000000E+00 -0.15806601357E+02  0.15857539105E+02  0.12700000000E+01 0. -1.
         25    2    1    2    0    0  0.00000000000E+00  0.00000000000E+00  0.23088357800E+03  0.26255098752E+03  0.12500317779E+03 0.  0.
    9000005    1    3    3    0    0  0.49852011631E+02  0.20300268941E+02  0.18213009958E+03  0.18992023893E+03  0.10000000000E+01 0.  0.
    9000005    1    3    3    0    0 -0.49852011631E+02 -0.20300268941E+02  0.48753478420E+02  0.72630748590E+02  0.10000000000E+01 0.  0.
<mgrwt>
<rscale>  0 0.12500318E+03</rscale>
<asrwt>0</asrwt>
<pdfrwt beam="1">  1        4 0.37956507E-01 0.12500318E+03</pdfrwt>
<pdfrwt beam="2">  1       -4 0.24359545E-02 0.12500318E+03</pdfrwt>
<totfact> 0.80543694E+03</totfact>
</mgrwt>
</event>
<event>
 5    1  0.3266594E-002  0.1250338E+03  0.7818608E-02  0.1235016E+00
         -4   -1    0    0    0  501 -0.00000000000E+00  0.00000000000E+00  0.44650487770E+02  0.44668545512E+02  0.12700000000E+01 0. -1.
          4   -1    0    0  501    0  0.00000000000E+00 -0.00000000000E+00 -0.87492060559E+02  0.87501277481E+02  0.12700000000E+01 0. -1.
         25    2    1    2    0    0  0.00000000000E+00  0.00000000000E+00 -0.42841572788E+02  0.13216982299E+03  0.12503384242E+03 0.  0.
    9000005    1    3    3    0    0 -0.22812841217E+02 -0.11508776873E+02  0.38883204214E+02  0.46537954827E+02  0.10000000000E+01 0.  0.
    9000005    1    3    3    0    0  0.22812841217E+02  0.11508776873E+02 -0.81724777003E+02  0.85631868166E+02  0.10000000000E+01 0.  0.
<mgrwt>
<rscale>  0 0.12503384E+03</rscale>
<asrwt>0</asrwt>
<pdfrwt beam="2">  1        4 0.13462415E-01 0.12503384E+03</pdfrwt>
<pdfrwt beam="1">  1       -4 0.68714038E-02 0.12503384E+03</pdfrwt>
<totfact> 0.10290217E+04</totfact>
</mgrwt>
</event>
<event>
 5    1  0.3266594E-002  0.1250093E+03  0.7818608E-02  0.1235055E+00
         -4   -1    0    0    0  501 -0.00000000000E+00  0.00000000000E+00  0.30738062806E+02  0.30764287820E+02  0.12700000000E+01 0. -1.
          4   -1    0    0  501    0  0.00000000000E+00 -0.00000000000E+00 -0.12701710536E+03  0.12702345435E+03  0.12700000000E+01 0. -1.
         25    2    1    2    0    0  0.00000000000E+00  0.00000000000E+00 -0.96279042555E+02  0.15778774217E+03  0.12500926983E+03 0.  0.
    9000005    1    3    3    0    0  0.44364741659E+02 -0.41771017412E+02 -0.65664736856E+02  0.89587420235E+02  0.10000000000E+01 0.  0.
    9000005    1    3    3    0    0 -0.44364741659E+02  0.41771017412E+02 -0.30614305699E+02  0.68200321932E+02  0.10000000000E+01 0.  0.
<mgrwt>
<rscale>  0 0.12500927E+03</rscale>
<asrwt>0</asrwt>
<pdfrwt beam="2">  1        4 0.19543599E-01 0.12500927E+03</pdfrwt>
<pdfrwt beam="1">  1       -4 0.47314385E-02 0.12500927E+03</pdfrwt>
<totfact> 0.97750620E+03</totfact>
</mgrwt>
</event>
